INSANE! Membrane UpperLeaflet>loPI=1.0 LowerLeaflet>PSPI:POPI:POPS:YOPS:POPE:YOPE:POPC:YOPC:ERGO=6.0:14.0:21.0:9.0:9.0:21.0:12.0:48.0:60.0
49903
    1loPI    C1    1  12.370   8.385  11.526  0.0595  0.0438 -0.0079
    1loPI    C2    2  12.557   8.303  11.870 -0.1203 -0.0717  0.0636
    1loPI    C3    3  12.336   8.022  11.691 -0.0483 -0.0038 -0.1338
    1loPI   PO4    4  12.633   8.452  11.357  0.1337 -0.3234  0.0614
    1loPI   GL1    5  12.566   8.390  10.919 -0.4208 -0.2155  0.2485
    1loPI   GL2    6  12.877   8.210  10.974  0.0771  0.0663 -0.1701
    1loPI   C1A    7  12.664   8.487  10.521 -0.0281  0.1043 -0.1331
    1loPI   C2A    8  12.734   8.391  10.043 -0.3660 -0.2825  0.1156
    1loPI   C3A    9  12.679   8.428   9.631 -0.1603 -0.0356 -0.1761
    1loPI   C4A   10  12.721   8.403   9.180  0.4235  0.0474 -0.0833
    1loPI   C5A   11  12.850   8.144   8.844  0.1700 -0.1253  0.1036
    1loPI   C6A   12  12.787   7.790   8.635  0.5487  0.0344  0.0445
    1loPI   C1B   13  13.051   8.066  10.709  0.1249 -0.0609  0.5216
    1loPI   C2B   14  12.936   8.047  10.297 -0.0262  0.2676  0.1524
    1loPI   C3B   15  12.998   8.092   9.821 -0.0657  0.2378 -0.2246
    1loPI   C4B   16  12.976   8.022   9.384 -0.1125 -0.1292  0.1034
    2loPI    C1   17   7.493   0.505  11.279 -0.2556 -0.0315  0.0647
    2loPI    C2   18   7.383   0.296  11.603 -0.2041  0.3238  0.3175
    2loPI    C3   19   7.663   0.581  11.634 -0.0655  0.2374 -0.0803
    2loPI   PO4   20   7.217   0.549  11.170 -0.0131  0.1696 -0.2666
    2loPI   GL1   21   7.189   0.613  10.733  0.1329  0.3478  0.0067
    2loPI   GL2   22   7.441   0.340  10.795  0.1432 -0.1821 -0.2660
    2loPI   C1A   23   7.086   0.379  10.421 -0.0659 -0.1425  0.1175
    2loPI   C2A   24   6.768   0.324  10.029  0.1701  0.2017  0.0076
    2loPI   C3A   25   6.804   0.200   9.675  0.2037 -0.2802  0.1985
    2loPI   C4A   26   7.135   0.374   9.437  0.0533  0.0386 -0.0786
    2loPI   C5A   27   7.408   0.421   9.088  0.2412  0.3668 -0.0491
    2loPI   C6A   28   7.240   0.564   8.579 -0.1326  0.3183 -0.0844
    2loPI   C1B   29   7.528   0.152  10.430 -0.0554  0.0788  0.2959
    2loPI   C2B   30   7.327   0.219  10.001  0.1780  0.1360  0.0155
    2loPI   C3B   31   7.432  -0.033   9.573  0.4101  0.1470 -0.0883
    2loPI   C4B   32   7.035  -0.101   9.225  0.1112 -0.2009  0.1956
    3loPI    C1   33   1.452   7.618  10.930  0.0529 -0.0125  0.0485
    3loPI    C2   34   1.382   7.409  11.264 -0.0971 -0.0044  0.0231
    3loPI    C3   35   1.577   7.239  10.959 -0.1212 -0.0713  0.0447
    3loPI   PO4   36   1.221   7.694  10.792 -0.0455  0.3380 -0.0947
    3loPI   GL1   37   1.019   7.541  10.484 -0.2091 -0.0407  0.0884
    3loPI   GL2   38   0.994   7.302  10.355 -0.1264 -0.2413  0.0661
    3loPI   C1A   39   1.023   7.701   9.990 -0.1160 -0.2179 -0.1212
    3loPI   C2A   40   1.131   7.712   9.476 -0.2414 -0.0608 -0.0198
    3loPI   C3A   41   1.142   7.909   9.058 -0.0604  0.2434 -0.0884
    3loPI   C4A   42   1.115   8.112   8.657 -0.0647 -0.2781 -0.2174
    3loPI   C5A   43   0.818   8.390   8.360 -0.2935 -0.0994  0.2963
    3loPI   C6A   44   0.694   8.293   7.888  0.1027 -0.0657  0.1390
    3loPI   C1B   45   0.936   7.269   9.884 -0.0943  0.1049 -0.1361
    3loPI   C2B   46   1.016   7.242   9.416 -0.0333 -0.0903 -0.2942
    3loPI   C3B   47   1.052   7.327   9.051  0.1120  0.0220  0.3948
    3loPI   C4B   48   1.167   7.561   8.656 -0.0683  0.0606 -0.1428
    4loPI    C1   49  15.814   5.425  11.347  0.1224  0.0417 -0.1193
    4loPI    C2   50  15.752   5.559  11.718 -0.0605 -0.1186 -0.0905
    4loPI    C3   51  16.124   5.486  11.592  0.0332  0.2877 -0.0642
    4loPI   PO4   52  15.705   5.586  11.193 -0.2342 -0.4478 -0.1337
    4loPI   GL1   53  15.660   5.831  10.890 -0.2307  0.3105 -0.0836
    4loPI   GL2   54  15.339   5.970  10.875 -0.2073 -0.0079 -0.1385
    4loPI   C1A   55  15.866   5.647  10.476  0.0505  0.0990 -0.2688
    4loPI   C2A   56  15.762   5.647  10.104 -0.0132 -0.0533  0.0863
    4loPI   C3A   57  15.761   5.823   9.634 -0.0697  0.0613 -0.0406
    4loPI   C4A   58  15.736   5.893   9.251  0.0424 -0.3083  0.0525
    4loPI   C5A   59  15.651   5.918   8.855  0.1455 -0.1568 -0.1583
    4loPI   C6A   60  15.459   5.626   8.583  0.4028  0.1517 -0.2786
    4loPI   C1B   61  15.463   6.025  10.420  0.3281 -0.1350 -0.1460
    4loPI   C2B   62  15.378   6.041  10.022 -0.0815  0.0118  0.4301
    4loPI   C3B   63  15.384   6.202   9.722  0.1339 -0.0007  0.0725
    4loPI   C4B   64  15.347   6.249   9.282  0.1453  0.1560  0.2656
    5loPI    C1   65   3.548  15.342  11.505 -0.1431 -0.2736  0.0870
    5loPI    C2   66   3.919  15.451  11.605 -0.3041  0.0172  0.3912
    5loPI    C3   67   3.744  15.145  11.793 -0.2311 -0.1024  0.2667
    5loPI   PO4   68   3.523  15.275  11.251 -0.0241  0.1940  0.1010
    5loPI   GL1   69   3.278  15.391  10.909  0.0420  0.0109  0.3065
    5loPI   GL2   70   3.277  15.780  10.845 -0.2375  0.2415  0.2424
    5loPI   C1A   71   3.461  15.391  10.537 -0.1709  0.0898  0.0433
    5loPI   C2A   72   3.458  15.380  10.136 -0.0960  0.3345 -0.1439
    5loPI   C3A   73   3.442  15.359   9.674  0.1565  0.0906  0.0021
    5loPI   C4A   74   3.439  15.119   9.238 -0.2317 -0.0713  0.0994
    5loPI   C5A   75   3.350  14.816   8.953 -0.1533 -0.1006 -0.1566
    5loPI   C6A   76   3.268  14.720   8.503  0.1361 -0.0277  0.0010
    5loPI   C1B   77   3.135  15.746  10.322  0.0718  0.3918 -0.2108
    5loPI   C2B   78   3.107  15.801   9.786 -0.2292 -0.1145  0.2228
    5loPI   C3B   79   3.309  15.715   9.380 -0.0433 -0.0076 -0.1259
    5loPI   C4B   80   3.310  15.514   8.947  0.2956  0.1881 -0.2992
    6loPI    C1   81   4.311  13.587  11.152  0.1198  0.0113 -0.0553
    6loPI    C2   82   4.204  13.205  11.101 -0.0976  0.0716 -0.0602
    6loPI    C3   83   4.350  13.326  11.453 -0.1823  0.0191 -0.0067
    6loPI   PO4   84   4.382  13.664  10.988 -0.1931  0.1194 -0.2069
    6loPI   GL1   85   4.418  13.903  10.682  0.0682 -0.0842 -0.1766
    6loPI   GL2   86   4.671  13.978  10.520  0.0218 -0.1344  0.0948
    6loPI   C1A   87   4.224  13.906  10.300  0.0898  0.3100 -0.1621
    6loPI   C2A   88   4.189  13.941   9.887  0.3456  0.2364 -0.1416
    6loPI   C3A   89   4.116  13.838   9.440 -0.0294 -0.0983 -0.0144
    6loPI   C4A   90   4.151  13.783   9.055  0.1564 -0.0872  0.2133
    6loPI   C5A   91   4.243  13.949   8.632 -0.2467 -0.1201 -0.1723
    6loPI   C6A   92   4.045  13.962   8.168 -0.1984 -0.1357  0.1319
    6loPI   C1B   93   5.111  13.853  10.270  0.0272  0.0056 -0.4479
    6loPI   C2B   94   5.344  13.682   9.899 -0.2860  0.1166 -0.3252
    6loPI   C3B   95   5.278  13.730   9.453 -0.0769  0.2455 -0.0072
    6loPI   C4B   96   5.122  13.805   9.038 -0.3285  0.1645  0.1320
    7loPI    C1   97  14.705   9.887  11.768 -0.1175 -0.0183  0.2199
    7loPI    C2   98  15.079  10.000  11.682 -0.0904 -0.1948  0.1002
    7loPI    C3   99  15.000   9.819  12.030 -0.0863 -0.0526  0.1759
    7loPI   PO4  100  14.624   9.801  11.547  0.1484 -0.0211  0.0283
    7loPI   GL1  101  14.661   9.844  11.196  0.2354  0.1203 -0.2182
    7loPI   GL2  102  14.685  10.214  11.116 -0.0513 -0.3034 -0.1132
    7loPI   C1A  103  14.430   9.807  10.841 -0.0933 -0.0078 -0.0228
    7loPI   C2A  104  14.556   9.704  10.401  0.1029 -0.0318  0.1966
    7loPI   C3A  105  14.524   9.708   9.981 -0.2691 -0.0560  0.0560
    7loPI   C4A  106  14.569   9.743   9.535 -0.2728  0.0499  0.0664
    7loPI   C5A  107  14.530   9.747   9.158 -0.1564  0.0591 -0.1762
    7loPI   C6A  108  14.437   9.866   8.753 -0.2222 -0.0700 -0.0274
    7loPI   C1B  109  14.673  10.195  10.689 -0.1595  0.1140 -0.2403
    7loPI   C2B  110  14.777  10.229  10.230  0.1889  0.2371 -0.0441
    7loPI   C3B  111  14.691  10.240   9.803 -0.3581  0.0155 -0.1408
    7loPI   C4B  112  14.768  10.141   9.355 -0.0754  0.0812 -0.1314
    8loPI    C1  113   9.521   2.940  11.027 -0.0431 -0.0920 -0.1677
    8loPI    C2  114   9.163   2.792  10.927  0.0215 -0.3488 -0.0282
    8loPI    C3  115   9.334   2.686  11.273  0.0806  0.0406  0.0668
    8loPI   PO4  116   9.646   2.892  10.743 -0.3414  0.2101  0.2249
    8loPI   GL1  117   9.594   2.701  10.337 -0.4620  0.0243 -0.1485
    8loPI   GL2  118   9.253   2.750  10.434  0.1712  0.0607  0.0033
    8loPI   C1A  119   9.618   2.800   9.991  0.0471 -0.0363 -0.1660
    8loPI   C2A  120   9.770   2.809   9.553  0.2082  0.0314  0.0033
    8loPI   C3A  121   9.690   2.924   9.134 -0.5323  0.2083  0.1103
    8loPI   C4A  122  10.066   3.098   8.899 -0.3869 -0.1728 -0.0708
    8loPI   C5A  123  10.242   3.543   8.756 -0.0733 -0.1696  0.2061
    8loPI   C6A  124  10.167   3.740   8.335 -0.0421 -0.1624 -0.0754
    8loPI   C1B  125   9.232   3.061  10.118  0.1154  0.2037 -0.0418
    8loPI   C2B  126   9.311   3.325   9.840 -0.0047 -0.1041  0.2009
    8loPI   C3B  127   9.457   3.206   9.418 -0.0829  0.0653 -0.2233
    8loPI   C4B  128   9.501   3.353   9.023 -0.1710  0.0283 -0.2633
    9loPI    C1  129   0.243   4.833  11.226  0.1371  0.0724 -0.3382
    9loPI    C2  130   0.599   4.775  11.398 -0.1382 -0.1719  0.1704
    9loPI    C3  131   0.331   5.016  11.570 -0.2508 -0.0484 -0.1701
    9loPI   PO4  132   0.311   4.864  10.990 -0.1629 -0.1141 -0.0113
    9loPI   GL1  133   0.249   4.740  10.681  0.0571 -0.1762 -0.0818
    9loPI   GL2  134   0.581   4.729  10.574 -0.0075 -0.1613 -0.0851
    9loPI   C1A  135   0.195   4.703  10.255 -0.0599  0.1542 -0.0941
    9loPI   C2A  136   0.100   4.745   9.810 -0.1482  0.0476 -0.2665
    9loPI   C3A  137   0.133   4.810   9.383 -0.0413  0.1918  0.0236
    9loPI   C4A  138   0.100   4.889   8.949 -0.0967  0.1060 -0.0742
    9loPI   C5A  139   0.070   5.313   8.598 -0.0840 -0.0221 -0.3323
    9loPI   C6A  140  -0.040   5.646   8.277  0.1903 -0.4032 -0.4037
    9loPI   C1B  141   0.714   4.713  10.099  0.0511  0.1300  0.0076
    9loPI   C2B  142   0.553   4.581   9.646  0.0821 -0.1270 -0.1866
    9loPI   C3B  143   0.615   4.340   9.291 -0.2650 -0.0581 -0.1811
    9loPI   C4B  144   0.594   4.244   8.912  0.2311 -0.0585  0.1699
   10loPI    C1  145  10.498   7.521  11.427  0.0113 -0.0635 -0.0502
   10loPI    C2  146  10.119   7.565  11.546  0.0296 -0.1042  0.0243
   10loPI    C3  147  10.342   7.270  11.697  0.0789 -0.1048 -0.0492
   10loPI   PO4  148  10.524   7.565  11.146  0.0238 -0.1730 -0.2052
   10loPI   GL1  149  10.484   7.252  10.863 -0.5224  0.2078 -0.1441
   10loPI   GL2  150  10.883   7.139  10.853 -0.1334 -0.2903 -0.2291
   10loPI   C1A  151  10.485   7.383  10.437  0.1949 -0.2743 -0.0954
   10loPI   C2A  152  10.403   7.584  10.108  0.1252  0.1348 -0.3261
   10loPI   C3A  153  10.532   7.552   9.791 -0.1679 -0.1090 -0.0650
   10loPI   C4A  154  10.558   7.553   9.352 -0.1416  0.1675  0.0066
   10loPI   C5A  155  10.512   7.607   8.890  0.1615 -0.0317 -0.3234
   10loPI   C6A  156  10.890   7.593   8.486  0.0363 -0.1302 -0.1383
   10loPI   C1B  157  10.918   7.094  10.515 -0.2617 -0.1379 -0.1534
   10loPI   C2B  158  10.732   7.177  10.023 -0.1856 -0.1875  0.2503
   10loPI   C3B  159  10.810   7.177   9.630  0.1335  0.2596  0.3196
   10loPI   C4B  160  10.768   7.114   9.177  0.1061 -0.2051 -0.2221
   11loPI    C1  161   8.056   2.760  11.210 -0.0504  0.0774 -0.0302
   11loPI    C2  162   7.731   2.993  11.222 -0.0249  0.1030  0.2254
   11loPI    C3  163   8.083   3.134  11.350  0.0559  0.0252  0.0913
   11loPI   PO4  164   8.080   2.690  10.966 -0.5435  0.0948 -0.0717
   11loPI   GL1  165   8.195   2.721  10.633  0.1710  0.2460 -0.1866
   11loPI   GL2  166   8.515   2.641  10.600  0.3937  0.0972 -0.1001
   11loPI   C1A  167   8.216   2.928  10.264  0.0832  0.0213 -0.0105
   11loPI   C2A  168   8.316   2.867   9.875 -0.1367 -0.0263 -0.1464
   11loPI   C3A  169   8.402   2.970   9.362  0.0456 -0.0622  0.0283
   11loPI   C4A  170   8.530   2.852   8.903 -0.1085 -0.1743  0.0476
   11loPI   C5A  171   8.871   2.791   8.530 -0.0616  0.0535  0.0676
   11loPI   C6A  172   9.135   3.174   8.347  0.0861 -0.1103 -0.2079
   11loPI   C1B  173   8.741   2.760  10.257 -0.0512  0.1353 -0.1245
   11loPI   C2B  174   8.850   2.851   9.819 -0.1286 -0.3571  0.2666
   11loPI   C3B  175   9.194   2.696   9.615 -0.1670 -0.0102  0.2448
   11loPI   C4B  176   9.331   2.582   9.292  0.0348 -0.1834  0.3091
   12loPI    C1  177  17.592   7.198  11.754 -0.0536  0.0317 -0.0098
   12loPI    C2  178  17.289   7.307  11.991 -0.3348 -0.4200 -0.1475
   12loPI    C3  179  17.512   6.988  12.085 -0.2342 -0.4011 -0.3176
   12loPI   PO4  180  17.418   7.266  11.423  0.0075  0.0712 -0.1479
   12loPI   GL1  181  17.326   7.240  11.019  0.0720  0.0406 -0.2556
   12loPI   GL2  182  17.639   7.473  11.027 -0.1779  0.1056  0.1453
   12loPI   C1A  183  17.200   7.400  10.599  0.1214 -0.0675  0.0389
   12loPI   C2A  184  17.226   7.480  10.197 -0.3210  0.1622  0.2799
   12loPI   C3A  185  17.267   7.473   9.744 -0.0447 -0.1906 -0.3243
   12loPI   C4A  186  17.315   7.359   9.299  0.2856  0.2447  0.2134
   12loPI   C5A  187  17.437   7.670   8.956  0.1570 -0.0675 -0.1018
   12loPI   C6A  188  17.532   7.894   8.638  0.0011 -0.1371  0.0347
   12loPI   C1B  189  17.547   7.748  10.644  0.1187 -0.0440 -0.0241
   12loPI   C2B  190  17.471   7.955  10.270 -0.0414 -0.5962  0.1764
   12loPI   C3B  191  17.334   7.980   9.796 -0.2644  0.0880 -0.2724
   12loPI   C4B  192  17.556   7.917   9.402  0.0687  0.0647  0.1755
   13loPI    C1  193  17.023   5.551  11.495 -0.0294  0.2512 -0.1076
   13loPI    C2  194  17.248   5.572  11.824 -0.2776  0.0089  0.0823
   13loPI    C3  195  17.133   5.907  11.638  0.0112  0.1418  0.1379
   13loPI   PO4  196  17.141   5.442  11.221  0.0635  0.2524 -0.1435
   13loPI   GL1  197  17.387   5.512  10.822  0.3771 -0.2952  0.3721
   13loPI   GL2  198  17.411   5.140  10.792 -0.0864 -0.2431  0.1999
   13loPI   C1A  199  17.160   5.526  10.546  0.0046  0.4132 -0.1107
   13loPI   C2A  200  17.172   5.560  10.051  0.1492  0.2844 -0.0324
   13loPI   C3A  201  17.219   5.601   9.626  0.0318  0.1327 -0.0604
   13loPI   C4A  202  17.053   5.608   9.288  0.0016 -0.0376 -0.1693
   13loPI   C5A  203  17.081   5.747   8.866  0.2580  0.0137 -0.0013
   13loPI   C6A  204  16.942   5.674   8.530  0.0833 -0.2159 -0.0758
   13loPI   C1B  205  17.539   5.104  10.439 -0.1294 -0.2109 -0.0611
   13loPI   C2B  206  17.514   5.139  10.009  0.1214 -0.0862 -0.0709
   13loPI   C3B  207  17.550   5.173   9.669 -0.3443  0.1757  0.1934
   13loPI   C4B  208  17.428   5.246   9.197 -0.0066 -0.1546 -0.1048
   14loPI    C1  209  11.201  13.753  11.848  0.1433 -0.1290 -0.0244
   14loPI    C2  210  11.321  13.485  12.120  0.2913 -0.0330  0.0062
   14loPI    C3  211  11.054  13.766  12.220  0.0528 -0.2343 -0.0561
   14loPI   PO4  212  11.445  13.580  11.588  0.2277  0.0611 -0.4658
   14loPI   GL1  213  11.549  13.303  11.314 -0.3432  0.0099  0.0071
   14loPI   GL2  214  11.846  13.308  11.460 -0.0374  0.0477 -0.2420
   14loPI   C1A  215  11.515  13.316  10.894 -0.1501  0.1852  0.1395
   14loPI   C2A  216  11.565  13.400  10.452 -0.2844 -0.1329  0.1337
   14loPI   C3A  217  11.671  13.292   9.947 -0.3654 -0.1630  0.1297
   14loPI   C4A  218  11.665  13.306   9.528  0.3048 -0.2652 -0.0745
   14loPI   C5A  219  11.624  13.282   9.207  0.4997 -0.1918 -0.0398
   14loPI   C6A  220  11.567  13.522   8.854 -0.0455 -0.0342 -0.0207
   14loPI   C1B  221  11.919  13.020  11.058 -0.1285 -0.3591 -0.0014
   14loPI   C2B  222  11.910  13.012  10.630 -0.1577 -0.1401  0.0656
   14loPI   C3B  223  11.927  12.942  10.219 -0.0153 -0.0128  0.0351
   14loPI   C4B  224  11.955  12.944   9.782 -0.0138  0.2986  0.3211
   15loPI    C1  225  11.009  12.865  11.960  0.0202  0.0670  0.1730
   15loPI    C2  226  11.150  12.700  12.296  0.1055  0.0711  0.1393
   15loPI    C3  227  11.101  13.096  12.273 -0.4665  0.0221  0.3582
   15loPI   PO4  228  11.185  12.664  11.784  0.0442  0.1933 -0.1131
   15loPI   GL1  229  11.088  12.411  11.552 -0.2527  0.2464 -0.0483
   15loPI   GL2  230  10.790  12.536  11.488 -0.0833 -0.1116 -0.0189
   15loPI   C1A  231  11.121  12.439  11.072  0.0060  0.1625 -0.3279
   15loPI   C2A  232  11.180  12.356  10.582  0.0186  0.2590  0.0642
   15loPI   C3A  233  11.259  12.386  10.135  0.2347  0.0822 -0.0846
   15loPI   C4A  234  11.198  12.348   9.652  0.3012 -0.1718  0.3929
   15loPI   C5A  235  11.037  12.699   9.343 -0.0849  0.2708 -0.0612
   15loPI   C6A  236  11.321  12.898   9.019  0.0516 -0.1210 -0.1471
   15loPI   C1B  237  10.729  12.716  11.108  0.1082 -0.1769  0.0207
   15loPI   C2B  238  10.762  12.856  10.745 -0.0952  0.1494 -0.0035
   15loPI   C3B  239  10.915  12.746  10.288 -0.0250 -0.1417  0.0895
   15loPI   C4B  240  11.011  12.753   9.867 -0.0132 -0.1562 -0.2266
   16loPI    C1  241  12.847  13.068  11.792  0.2992 -0.0850 -0.0755
   16loPI    C2  242  12.726  12.755  12.009  0.1078 -0.0953 -0.1953
   16loPI    C3  243  13.011  12.997  12.150  0.0495 -0.1543  0.0269
   16loPI   PO4  244  12.800  12.914  11.514  0.4172 -0.1978 -0.1801
   16loPI   GL1  245  12.870  12.835  11.150  0.1128 -0.1871 -0.0560
   16loPI   GL2  246  12.973  13.210  11.044 -0.0894 -0.1141  0.3651
   16loPI   C1A  247  12.638  12.664  10.820 -0.0971 -0.1357 -0.3074
   16loPI   C2A  248  12.750  12.674  10.351  0.2537 -0.1212  0.0371
   16loPI   C3A  249  12.748  12.514   9.895  0.1315 -0.4100 -0.1146
   16loPI   C4A  250  12.828  12.564   9.563  0.0785 -0.1851 -0.2184
   16loPI   C5A  251  12.958  12.623   9.152  0.2668  0.1622 -0.0350
   16loPI   C6A  252  13.125  12.340   8.834  0.3976  0.1707  0.0532
   16loPI   C1B  253  12.933  13.183  10.547  0.2004  0.0473 -0.0167
   16loPI   C2B  254  12.959  13.152  10.145  0.0532  0.1199 -0.1116
   16loPI   C3B  255  12.931  13.038   9.684  0.0331  0.0403  0.2030
   16loPI   C4B  256  13.015  13.134   9.194  0.5563 -0.2816 -0.1800
   17loPI    C1  257  15.925  12.186  12.093 -0.0512 -0.0030 -0.2450
   17loPI    C2  258  15.792  11.918  11.828 -0.0862 -0.1585 -0.0724
   17loPI    C3  259  15.996  11.797  12.150 -0.0191  0.0311 -0.0422
   17loPI   PO4  260  16.087  12.374  11.948  0.0619 -0.1389 -0.0648
   17loPI   GL1  261  16.193  12.612  11.569  0.0458 -0.2904  0.3815
   17loPI   GL2  262  16.486  12.491  11.348 -0.0240 -0.0610 -0.2962
   17loPI   C1A  263  15.967  12.518  11.070  0.2413 -0.1750 -0.1551
   17loPI   C2A  264  15.852  12.367  10.673 -0.0182  0.2488 -0.2164
   17loPI   C3A  265  15.891  12.290  10.200 -0.0098 -0.1288  0.1152
   17loPI   C4A  266  15.834  12.251   9.717  0.3611  0.0375  0.4063
   17loPI   C5A  267  15.947  12.122   9.308 -0.0414 -0.0321  0.3064
   17loPI   C6A  268  16.038  12.172   8.896  0.1203  0.0446 -0.0705
   17loPI   C1B  269  16.470  12.461  10.919 -0.2128  0.0878  0.0744
   17loPI   C2B  270  16.525  12.347  10.491  0.1364  0.2587  0.1955
   17loPI   C3B  271  16.409  12.294  10.063  0.0205  0.0101  0.2837
   17loPI   C4B  272  16.289  12.382   9.594  0.0144 -0.2683 -0.3476
   18loPI    C1  273  16.191   6.815  11.729 -0.0255  0.1047  0.1121
   18loPI    C2  274  16.116   7.205  11.770  0.0724  0.1325  0.0290
   18loPI    C3  275  16.418   7.038  11.971  0.0866  0.1178 -0.0046
   18loPI   PO4  276  16.108   6.814  11.357 -0.3082 -0.0743 -0.0722
   18loPI   GL1  277  15.806   6.801  11.114  0.2258 -0.2084  0.0480
   18loPI   GL2  278  15.577   7.045  11.106 -0.1366  0.0590  0.1037
   18loPI   C1A  279  15.913   6.689  10.740 -0.1561 -0.2671 -0.3790
   18loPI   C2A  280  15.949   6.575  10.416 -0.3262  0.1147  0.2398
   18loPI   C3A  281  16.060   6.705   9.929  0.3818  0.1378 -0.1319
   18loPI   C4A  282  16.020   6.927   9.519  0.2206  0.0585  0.2402
   18loPI   C5A  283  16.039   6.833   9.104  0.0761 -0.2670 -0.2167
   18loPI   C6A  284  16.245   6.518   8.881  0.0684 -0.2729  0.0562
   18loPI   C1B  285  15.658   7.110  10.616 -0.0858  0.1055  0.3425
   18loPI   C2B  286  15.665   7.028  10.082 -0.0716 -0.0198  0.0443
   18loPI   C3B  287  15.598   7.219   9.727 -0.0889  0.1261 -0.1192
   18loPI   C4B  288  15.514   7.293   9.321 -0.0486 -0.0530 -0.1344
   19loPI    C1  289   3.734   2.126  11.288  0.1148 -0.2287  0.0134
   19loPI    C2  290   3.890   2.062  11.651  0.1299 -0.0620  0.0366
   19loPI    C3  291   3.509   2.176  11.615  0.1762  0.0872  0.0102
   19loPI   PO4  292   3.940   2.241  11.173  0.0583 -0.1015 -0.0937
   19loPI   GL1  293   4.001   2.186  10.761  0.0098  0.3428 -0.0505
   19loPI   GL2  294   3.824   2.391  10.708  0.0452 -0.2067  0.1457
   19loPI   C1A  295   3.800   1.811  10.471  0.0999  0.0506 -0.2336
   19loPI   C2A  296   3.785   1.798  10.117  0.1856  0.2568  0.2923
   19loPI   C3A  297   3.898   1.704   9.732  0.0607 -0.0857  0.2025
   19loPI   C4A  298   4.102   1.733   9.328  0.2207  0.1318  0.3317
   19loPI   C5A  299   3.879   1.712   8.952 -0.1456  0.0752  0.2424
   19loPI   C6A  300   3.522   1.551   8.824  0.0362 -0.1137  0.1321
   19loPI   C1B  301   3.805   2.259  10.260  0.0430 -0.0105  0.0254
   19loPI   C2B  302   3.782   2.293   9.847 -0.2878 -0.2955  0.0753
   19loPI   C3B  303   3.808   2.444   9.506 -0.0623  0.1843 -0.0571
   19loPI   C4B  304   3.612   2.438   9.056 -0.1022 -0.0824 -0.1260
   20loPI    C1  305   3.094   0.229  11.581 -0.0588 -0.2962  0.0920
   20loPI    C2  306   3.448   0.309  11.412 -0.1074 -0.2277  0.0223
   20loPI    C3  307   3.410   0.315  11.810 -0.0587 -0.1149  0.0257
   20loPI   PO4  308   2.989   0.118  11.337  0.1868  0.5949  0.1432
   20loPI   GL1  309   3.184   0.241  10.944  0.0250 -0.1136 -0.4135
   20loPI   GL2  310   3.413   0.279  10.833  0.0326 -0.3005  0.3121
   20loPI   C1A  311   3.119   0.135  10.473 -0.0941 -0.0403 -0.0493
   20loPI   C2A  312   2.828   0.225  10.195  0.1588  0.0612  0.0018
   20loPI   C3A  313   2.540   0.331   9.959  0.1889 -0.2735 -0.1403
   20loPI   C4A  314   2.430   0.488   9.590  0.0611  0.0975 -0.3243
   20loPI   C5A  315   2.548   0.607   9.157  0.2223 -0.1361 -0.0111
   20loPI   C6A  316   2.494   0.359   8.822 -0.3506 -0.3895  0.1814
   20loPI   C1B  317   3.576   0.521  10.482  0.0367 -0.0607 -0.3979
   20loPI   C2B  318   3.477   0.415   9.991 -0.3453 -0.2143  0.1559
   20loPI   C3B  319   3.219   0.168   9.729  0.4816 -0.0704  0.0032
   20loPI   C4B  320   2.787   0.064   9.535 -0.1235 -0.0843  0.1079
   21loPI    C1  321  13.427   6.958  11.742 -0.0320 -0.0952 -0.0330
   21loPI    C2  322  13.349   7.349  11.781  0.0077 -0.0848 -0.0579
   21loPI    C3  323  13.226   7.091  12.061  0.0080 -0.0506 -0.0262
   21loPI   PO4  324  13.574   6.983  11.475  0.2889  0.1612  0.0810
   21loPI   GL1  325  13.521   7.058  11.044 -0.2792  0.0138  0.1965
   21loPI   GL2  326  13.506   6.800  10.906 -0.0957 -0.2490 -0.0734
   21loPI   C1A  327  13.248   7.298  10.625  0.3951  0.3239 -0.0111
   21loPI   C2A  328  13.189   7.187  10.201  0.0796 -0.0202 -0.0656
   21loPI   C3A  329  13.202   7.220   9.692  0.0993  0.3802 -0.2882
   21loPI   C4A  330  13.182   7.112   9.289  0.1595 -0.1273 -0.1106
   21loPI   C5A  331  13.408   6.978   8.826 -0.0259 -0.0345 -0.0474
   21loPI   C6A  332  13.829   6.970   8.764 -0.0720 -0.1465  0.1552
   21loPI   C1B  333  13.681   6.626  10.581 -0.2489  0.0578 -0.3355
   21loPI   C2B  334  13.603   6.715  10.184 -0.2022 -0.0571 -0.0289
   21loPI   C3B  335  13.631   6.783   9.705  0.3440 -0.0281  0.0778
   21loPI   C4B  336  13.589   6.840   9.298  0.0470 -0.0799  0.1300
   22loPI    C1  337  13.392   4.628  11.326  0.1516  0.2625 -0.0613
   22loPI    C2  338  13.154   4.563  11.641  0.2451 -0.2322 -0.0843
   22loPI    C3  339  13.005   4.729  11.309  0.0727  0.0006  0.1059
   22loPI   PO4  340  13.531   4.401  11.304 -0.0362  0.1804 -0.1159
   22loPI   GL1  341  13.704   4.407  10.917  0.3186 -0.1128 -0.0159
   22loPI   GL2  342  13.436   4.271  10.811 -0.2597 -0.0252  0.1951
   22loPI   C1A  343  13.890   4.474  10.480  0.3508 -0.0413 -0.0459
   22loPI   C2A  344  13.782   4.469  10.100  0.0746  0.4022  0.1233
   22loPI   C3A  345  13.756   4.513   9.665  0.0910 -0.0531  0.1150
   22loPI   C4A  346  13.826   4.414   9.185  0.2299 -0.1526 -0.1997
   22loPI   C5A  347  13.626   4.691   9.000 -0.0792 -0.2056  0.1731
   22loPI   C6A  348  13.309   4.888   8.941  0.0810  0.0327  0.0214
   22loPI   C1B  349  13.311   4.421  10.461 -0.0102 -0.0922 -0.0090
   22loPI   C2B  350  13.326   4.445   9.965  0.0541  0.0507 -0.2505
   22loPI   C3B  351  13.254   4.462   9.575 -0.0546  0.1154 -0.4386
   22loPI   C4B  352  13.267   4.444   9.155 -0.0053  0.3100  0.1227
   23loPI    C1  353   9.786  13.426  11.978 -0.2022  0.2834 -0.0892
   23loPI    C2  354   9.445  13.227  11.917  0.0320 -0.1130 -0.1380
   23loPI    C3  355   9.531  13.369  12.281 -0.1219 -0.1304 -0.0941
   23loPI   PO4  356   9.822  13.552  11.719 -0.2439 -0.1551 -0.1652
   23loPI   GL1  357  10.059  13.477  11.340 -0.1538  0.2290 -0.1621
   23loPI   GL2  358  10.193  13.640  11.212  0.1230  0.2182  0.0618
   23loPI   C1A  359   9.896  13.248  10.994 -0.5366 -0.1124  0.1714
   23loPI   C2A  360  10.048  13.174  10.529  0.2078 -0.2071 -0.2222
   23loPI   C3A  361  10.192  13.024  10.129 -0.0807 -0.1548 -0.0410
   23loPI   C4A  362  10.196  13.062   9.635  0.3836 -0.1301  0.1494
   23loPI   C5A  363   9.963  12.864   9.344 -0.2607  0.0135 -0.2204
   23loPI   C6A  364   9.864  12.886   8.943 -0.0386 -0.1968 -0.1392
   23loPI   C1B  365  10.219  13.724  10.792  0.0300  0.3306  0.1586
   23loPI   C2B  366  10.312  13.584  10.347 -0.3719 -0.4005  0.0337
   23loPI   C3B  367  10.263  13.469   9.924 -0.2876  0.1275 -0.2479
   23loPI   C4B  368  10.405  13.531   9.546  0.0021  0.2758 -0.0130
   24loPI    C1  369  16.096   6.020  11.519 -0.0196 -0.1597 -0.2404
   24loPI    C2  370  15.884   6.359  11.518 -0.1961 -0.2679 -0.0472
   24loPI    C3  371  15.805   6.073  11.787  0.2196 -0.2958  0.0527
   24loPI   PO4  372  16.100   5.920  11.333  0.1038 -0.2271 -0.2811
   24loPI   GL1  373  16.151   5.829  10.944 -0.2821 -0.0548 -0.0991
   24loPI   GL2  374  16.266   5.704  10.806 -0.0971  0.2265 -0.1683
   24loPI   C1A  375  16.001   6.094  10.611 -0.1107 -0.0073  0.1816
   24loPI   C2A  376  15.928   6.109  10.219 -0.2375  0.3580 -0.0139
   24loPI   C3A  377  16.012   6.204   9.829 -0.1198  0.1427  0.1147
   24loPI   C4A  378  15.973   6.390   9.441  0.0741 -0.1013 -0.0100
   24loPI   C5A  379  15.772   6.376   8.988  0.0540 -0.0432 -0.2420
   24loPI   C6A  380  15.818   6.504   8.621 -0.0972  0.0540  0.3776
   24loPI   C1B  381  16.345   5.799  10.409  0.0890 -0.3705 -0.3079
   24loPI   C2B  382  16.271   5.847   9.951  0.1252  0.3223  0.3871
   24loPI   C3B  383  16.345   5.832   9.510  0.3234  0.1472  0.0401
   24loPI   C4B  384  16.187   6.017   9.061  0.1462 -0.0928 -0.2230
   25loPI    C1  385   3.419  16.690  11.170  0.2547  0.0151  0.0717
   25loPI    C2  386   3.392  17.055  11.010  0.0818 -0.0473 -0.0440
   25loPI    C3  387   3.061  16.864  11.131  0.1856 -0.1074  0.1487
   25loPI   PO4  388   3.706  16.652  11.074  0.0040 -0.2695  0.2006
   25loPI   GL1  389   4.052  16.390  10.887 -0.0610 -0.0481  0.0174
   25loPI   GL2  390   4.143  16.727  10.846  0.1545  0.1520  0.2477
   25loPI   C1A  391   4.157  16.239  10.504  0.1493  0.0883 -0.1996
   25loPI   C2A  392   4.192  16.288  10.100  0.3200 -0.1437 -0.2452
   25loPI   C3A  393   4.254  16.193   9.706 -0.2607 -0.1561 -0.1413
   25loPI   C4A  394   4.039  16.040   9.311 -0.1439 -0.0617  0.1637
   25loPI   C5A  395   4.007  15.939   8.834  0.2764  0.1827  0.3389
   25loPI   C6A  396   3.803  15.588   8.600  0.0538 -0.0284 -0.3021
   25loPI   C1B  397   4.074  16.723  10.385 -0.1605  0.0523 -0.2739
   25loPI   C2B  398   4.181  16.811   9.974  0.1020 -0.2170  0.2396
   25loPI   C3B  399   4.356  16.709   9.594  0.4816 -0.0391 -0.3449
   25loPI   C4B  400   4.330  16.877   9.255  0.1185  0.0592 -0.0481
   26loPI    C1  401  14.810   3.145  11.303  0.0703  0.1416  0.1591
   26loPI    C2  402  15.130   3.078  11.071  0.0146  0.2481  0.0506
   26loPI    C3  403  15.154   3.022  11.467  0.0566 -0.1177 -0.0006
   26loPI   PO4  404  14.583   3.061  11.135  0.0295 -0.3577  0.1465
   26loPI   GL1  405  14.726   2.979  10.743 -0.0909  0.0387 -0.2386
   26loPI   GL2  406  14.314   3.134  10.767 -0.2474  0.2972 -0.3026
   26loPI   C1A  407  14.877   3.217  10.410  0.0439  0.1895  0.0183
   26loPI   C2A  408  14.972   3.227  10.022 -0.0020 -0.3025 -0.0053
   26loPI   C3A  409  14.808   3.294   9.641  0.0317  0.1492 -0.1246
   26loPI   C4A  410  14.765   3.095   9.274 -0.2172  0.1490  0.2254
   26loPI   C5A  411  14.867   3.021   8.814 -0.2246  0.1743 -0.0262
   26loPI   C6A  412  14.687   3.069   8.424  0.3746 -0.2287  0.2283
   26loPI   C1B  413  14.383   3.094  10.355  0.0642  0.0141  0.0102
   26loPI   C2B  414  14.314   3.157   9.896  0.1560  0.2040  0.0583
   26loPI   C3B  415  14.248   3.104   9.446 -0.2600  0.4095 -0.0713
   26loPI   C4B  416  14.384   3.006   8.956 -0.2831  0.0522 -0.2043
   27loPI    C1  417   4.956   6.221  11.058  0.0714 -0.0206  0.2365
   27loPI    C2  418   4.805   6.563  11.199  0.0780  0.1344 -0.1209
   27loPI    C3  419   4.744   6.221  11.397 -0.2961  0.2741  0.0146
   27loPI   PO4  420   5.016   6.112  10.800  0.3105 -0.0489 -0.1741
   27loPI   GL1  421   5.277   6.209  10.502  0.2323 -0.4546 -0.2893
   27loPI   GL2  422   5.105   6.401  10.353  0.2808 -0.0594 -0.0228
   27loPI   C1A  423   5.464   6.030  10.185 -0.1317  0.0395  0.1321
   27loPI   C2A  424   5.464   5.883   9.785 -0.2110 -0.0103  0.0585
   27loPI   C3A  425   5.441   5.705   9.408  0.1183  0.2061  0.2251
   27loPI   C4A  426   5.418   5.479   8.973  0.2935 -0.0474  0.2768
   27loPI   C5A  427   5.646   5.206   8.692  0.0439 -0.1586  0.0700
   27loPI   C6A  428   5.747   4.770   8.474 -0.1185  0.0967 -0.1617
   27loPI   C1B  429   5.124   6.271   9.865  0.0285  0.1074  0.2644
   27loPI   C2B  430   5.263   6.219   9.385  0.2862  0.1125 -0.1258
   27loPI   C3B  431   5.161   6.371   8.995  0.0487  0.1736 -0.1562
   27loPI   C4B  432   5.252   6.658   8.596  0.2208 -0.0525  0.0607
   28loPI    C1  433  16.549   7.305  11.533 -0.1066  0.3019  0.1020
   28loPI    C2  434  16.801   7.541  11.735  0.0725  0.1810  0.0225
   28loPI    C3  435  16.892   7.155  11.676 -0.0920  0.1568 -0.0798
   28loPI   PO4  436  16.454   7.401  11.343 -0.1088  0.0230  0.1451
   28loPI   GL1  437  16.385   7.218  10.899 -0.0299 -0.1656 -0.0767
   28loPI   GL2  438  16.200   7.103  10.689 -0.0054 -0.3418  0.0034
   28loPI   C1A  439  16.682   7.283  10.481  0.0540  0.0530  0.1800
   28loPI   C2A  440  16.788   7.312  10.078  0.0152 -0.0993  0.1226
   28loPI   C3A  441  16.786   7.346   9.613 -0.0666  0.0200  0.0814
   28loPI   C4A  442  16.756   7.384   9.180 -0.1399  0.0451 -0.1865
   28loPI   C5A  443  16.927   7.751   8.990 -0.2197  0.0694 -0.1036
   28loPI   C6A  444  17.139   8.173   8.924  0.1220 -0.0450  0.0364
   28loPI   C1B  445  16.163   7.115  10.297 -0.5300 -0.2263  0.1570
   28loPI   C2B  446  16.181   7.207   9.885  0.3567  0.0064  0.0033
   28loPI   C3B  447  16.323   7.249   9.381 -0.2798  0.1525 -0.1090
   28loPI   C4B  448  16.446   7.087   8.903  0.0742 -0.1004  0.1097
   29loPI    C1  449   6.173   6.650  10.725  0.0233  0.0645 -0.0005
   29loPI    C2  450   5.926   6.691  11.037 -0.0350 -0.1127 -0.0222
   29loPI    C3  451   6.198   6.398  11.035  0.2236  0.1234  0.0325
   29loPI   PO4  452   6.141   6.910  10.626 -0.2565  0.1148  0.1480
   29loPI   GL1  453   6.099   7.066  10.181 -0.1190 -0.0766 -0.1519
   29loPI   GL2  454   6.359   7.261  10.278 -0.2039 -0.5109  0.1927
   29loPI   C1A  455   5.882   7.036   9.823 -0.1472  0.0807 -0.2565
   29loPI   C2A  456   5.894   7.086   9.384 -0.1938  0.0614 -0.0503
   29loPI   C3A  457   6.051   7.414   9.026  0.2531  0.1686 -0.0351
   29loPI   C4A  458   6.384   7.485   8.843 -0.1517 -0.2418 -0.0823
   29loPI   C5A  459   6.811   7.631   8.596  0.1904 -0.1761 -0.2800
   29loPI   C6A  460   7.165   7.880   8.482  0.0862  0.0326  0.2702
   29loPI   C1B  461   6.442   7.374   9.900 -0.0172  0.1124 -0.2179
   29loPI   C2B  462   6.828   7.471   9.687  0.0512 -0.2037  0.1603
   29loPI   C3B  463   6.941   7.642   9.195 -0.0186 -0.0595  0.0772
   29loPI   C4B  464   7.189   7.940   8.966 -0.0779  0.1171  0.0977
   30loPI    C1  465  16.967  15.199  11.903 -0.3036  0.0897 -0.0390
   30loPI    C2  466  16.843  14.988  12.219 -0.0052 -0.0216  0.0065
   30loPI    C3  467  16.840  15.387  12.233 -0.3877 -0.0202 -0.0081
   30loPI   PO4  468  16.863  15.052  11.739 -0.1247 -0.2699 -0.1564
   30loPI   GL1  469  16.888  14.975  11.360 -0.4193 -0.0597 -0.0195
   30loPI   GL2  470  16.840  14.827  11.039  0.0647 -0.0350  0.0852
   30loPI   C1A  471  16.707  15.292  11.013 -0.2287  0.0990 -0.1619
   30loPI   C2A  472  16.514  15.302  10.678 -0.1401  0.0407  0.0123
   30loPI   C3A  473  16.549  15.460  10.329 -0.0268  0.4071 -0.0243
   30loPI   C4A  474  16.380  15.393  10.013 -0.1355 -0.0389 -0.2699
   30loPI   C5A  475  16.155  15.553   9.578 -0.0001 -0.1949  0.2948
   30loPI   C6A  476  16.305  15.464   9.137  0.1663  0.1630  0.0492
   30loPI   C1B  477  16.799  14.881  10.626 -0.3025 -0.1383 -0.2676
   30loPI   C2B  478  16.734  14.995  10.150 -0.1782 -0.2096  0.1641
   30loPI   C3B  479  16.637  14.938   9.804 -0.0244 -0.0965  0.0215
   30loPI   C4B  480  16.503  15.037   9.398  0.0074  0.1072 -0.1688
   31loPI    C1  481   2.919   1.248  11.457 -0.0359  0.2203 -0.0792
   31loPI    C2  482   2.887   0.999  11.769  0.2852  0.0684 -0.1641
   31loPI    C3  483   2.920   1.393  11.830 -0.0284  0.0754 -0.0223
   31loPI   PO4  484   3.141   1.190  11.277 -0.0969  0.2604  0.1023
   31loPI   GL1  485   3.235   1.059  10.851  0.3670  0.0636 -0.2281
   31loPI   GL2  486   3.071   0.760  10.806 -0.0763  0.0331  0.1138
   31loPI   C1A  487   3.412   1.114  10.402 -0.1196  0.0239 -0.2600
   31loPI   C2A  488   3.449   0.970  10.059 -0.0598  0.0618 -0.1766
   31loPI   C3A  489   3.399   0.801   9.636  0.0479  0.0343 -0.1276
   31loPI   C4A  490   3.327   0.903   9.296  0.1786  0.0043  0.0818
   31loPI   C5A  491   3.287   1.204   9.092 -0.0130 -0.1993 -0.1248
   31loPI   C6A  492   3.128   1.617   9.081  0.1227 -0.0050  0.1442
   31loPI   C1B  493   3.087   0.695  10.320 -0.2267 -0.0705 -0.0235
   31loPI   C2B  494   3.004   0.614   9.867  0.0136 -0.0136 -0.0553
   31loPI   C3B  495   3.001   0.546   9.415  0.0128  0.4520 -0.0248
   31loPI   C4B  496   3.243   0.466   9.016 -0.3429  0.2059  0.1871
   32loPI    C1  497  11.833   8.094  11.557  0.1916  0.1993 -0.2223
   32loPI    C2  498  11.987   8.316  11.853  0.1265 -0.0062 -0.0313
   32loPI    C3  499  11.590   8.270  11.822  0.1355 -0.0256 -0.1215
   32loPI   PO4  500  11.972   8.130  11.275  0.0813 -0.2978  0.0445
   32loPI   GL1  501  12.089   8.346  10.961  0.0266 -0.1660 -0.1288
   32loPI   GL2  502  12.155   8.666  11.107 -0.1241  0.1587 -0.0756
   32loPI   C1A  503  12.131   8.395  10.470 -0.1303 -0.3033  0.1020
   32loPI   C2A  504  12.247   8.406  10.019  0.0885 -0.1907  0.1974
   32loPI   C3A  505  12.138   8.384   9.631  0.0133 -0.2740  0.0367
   32loPI   C4A  506  12.249   8.285   9.284  0.1222  0.0757 -0.1342
   32loPI   C5A  507  12.360   8.308   8.879 -0.1269  0.0024 -0.2528
   32loPI   C6A  508  12.016   8.511   8.667 -0.1666 -0.2768 -0.1386
   32loPI   C1B  509  12.340   8.772  10.754  0.1212  0.1180 -0.0236
   32loPI   C2B  510  12.362   8.828  10.297  0.0963 -0.0572 -0.2317
   32loPI   C3B  511  12.414   8.892   9.878 -0.2579 -0.3289  0.0788
   32loPI   C4B  512  12.360   8.804   9.478 -0.0015  0.2683 -0.0779
   33loPI    C1  513   6.434   0.443  10.879  0.1555  0.1912  0.1786
   33loPI    C2  514   6.537   0.423  10.493 -0.0001 -0.1190  0.1503
   33loPI    C3  515   6.704   0.698  10.731  0.1388  0.0373 -0.1235
   33loPI   PO4  516   6.276   0.244  10.849  0.0195  0.0199  0.0332
   33loPI   GL1  517   5.810   0.159  10.656  0.0940 -0.0971  0.1466
   33loPI   GL2  518   5.642  -0.005  10.541 -0.2145 -0.2523 -0.1793
   33loPI   C1A  519   5.713   0.406  10.253  0.0593  0.1325  0.0169
   33loPI   C2A  520   5.635   0.571   9.836  0.1725 -0.0557  0.1069
   33loPI   C3A  521   5.612   0.390   9.418 -0.2401 -0.0811 -0.2167
   33loPI   C4A  522   5.614   0.522   8.968  0.1843 -0.1544  0.0755
   33loPI   C5A  523   5.496   0.794   8.685 -0.2088  0.3051  0.4386
   33loPI   C6A  524   5.329   0.845   8.297  0.1306  0.2481  0.0510
   33loPI   C1B  525   5.606  -0.247  10.110 -0.2626 -0.2500  0.0472
   33loPI   C2B  526   5.653  -0.514   9.768 -0.0019 -0.1473  0.1748
   33loPI   C3B  527   5.916  -0.705   9.549  0.2477 -0.0206 -0.0759
   33loPI   C4B  528   5.887  -0.959   9.159 -0.0535  0.3887 -0.0611
   34loPI    C1  529   5.544  16.532  11.262 -0.0513 -0.2533 -0.0174
   34loPI    C2  530   5.233  16.710  11.441  0.0884  0.0593 -0.0778
   34loPI    C3  531   5.363  16.355  11.572 -0.2119 -0.0149  0.0287
   34loPI   PO4  532   5.510  16.647  11.070 -0.0616  0.2257  0.1417
   34loPI   GL1  533   5.611  16.538  10.613  0.1164  0.0173 -0.0604
   34loPI   GL2  534   5.391  16.719  10.556 -0.0593 -0.2207  0.0078
   34loPI   C1A  535   5.561  16.201  10.287 -0.2725  0.0564 -0.0020
   34loPI   C2A  536   5.584  15.999   9.805 -0.2371  0.2088 -0.0453
   34loPI   C3A  537   5.628  15.865   9.350  0.0625 -0.0349  0.1840
   34loPI   C4A  538   5.882  15.851   9.000 -0.0524  0.3699 -0.0032
   34loPI   C5A  539   5.820  15.880   8.696 -0.0610 -0.2953 -0.1556
   34loPI   C6A  540   5.538  16.229   8.502 -0.1736  0.2712  0.0062
   34loPI   C1B  541   5.124  16.804  10.132  0.2549 -0.3129  0.0632
   34loPI   C2B  542   5.219  16.697   9.682  0.1063 -0.3772  0.1412
   34loPI   C3B  543   5.474  16.937   9.384  0.0438  0.0337 -0.1503
   34loPI   C4B  544   5.539  17.126   9.037  0.1039 -0.3359 -0.0587
   35loPI    C1  545   4.100   8.153  10.898  0.0706 -0.1384 -0.0783
   35loPI    C2  546   4.093   8.092  11.293 -0.0041  0.1755 -0.0284
   35loPI    C3  547   4.409   7.973  11.078 -0.0415 -0.1589  0.0957
   35loPI   PO4  548   3.906   8.019  10.754  0.2971 -0.3223  0.0638
   35loPI   GL1  549   3.799   8.090  10.327 -0.0947 -0.0349  0.1975
   35loPI   GL2  550   4.023   8.282  10.189 -0.2955  0.1233 -0.0148
   35loPI   C1A  551   3.922   7.789  10.026 -0.3489 -0.1800  0.1403
   35loPI   C2A  552   3.870   7.653   9.615  0.0535 -0.1123 -0.3579
   35loPI   C3A  553   3.858   7.520   9.160 -0.1224  0.2905  0.0482
   35loPI   C4A  554   4.023   7.268   8.888  0.4481  0.2468  0.1105
   35loPI   C5A  555   3.910   6.680   8.589 -0.1554  0.0260  0.1159
   35loPI   C6A  556   3.990   6.777   8.086 -0.0566  0.1108 -0.0954
   35loPI   C1B  557   3.884   8.240   9.820 -0.0880  0.1338  0.0799
   35loPI   C2B  558   3.831   8.304   9.405 -0.1506 -0.1773  0.1234
   35loPI   C3B  559   3.834   8.025   9.134 -0.0923 -0.1394  0.5032
   35loPI   C4B  560   4.154   7.894   8.843 -0.0109  0.2034  0.1082
   36loPI    C1  561   4.542   4.510  11.112 -0.2802 -0.1072  0.1092
   36loPI    C2  562   4.228   4.507  11.360 -0.3330 -0.2801  0.0416
   36loPI    C3  563   4.591   4.408  11.495 -0.3253 -0.1784  0.0961
   36loPI   PO4  564   4.447   4.490  10.845  0.3767  0.2257 -0.2078
   36loPI   GL1  565   4.143   4.599  10.497 -0.0316 -0.0054  0.2716
   36loPI   GL2  566   4.155   4.321  10.439  0.0405 -0.1806 -0.1630
   36loPI   C1A  567   3.979   4.653  10.158  0.0390 -0.0967  0.2320
   36loPI   C2A  568   3.984   4.727   9.743 -0.0409  0.0985  0.0300
   36loPI   C3A  569   4.053   4.751   9.351 -0.0452  0.0848 -0.2178
   36loPI   C4A  570   4.215   4.780   8.914  0.1908  0.1823  0.0695
   36loPI   C5A  571   4.121   4.921   8.501  0.1408 -0.1738 -0.1064
   36loPI   C6A  572   4.011   5.126   8.164  0.2769  0.0755  0.1686
   36loPI   C1B  573   4.327   4.321  10.044  0.1153 -0.1084 -0.0289
   36loPI   C2B  574   4.205   4.303   9.677 -0.0500 -0.1800 -0.2547
   36loPI   C3B  575   4.342   4.348   9.224  0.1142 -0.0572 -0.2856
   36loPI   C4B  576   4.361   4.331   8.824  0.1147  0.1273  0.0573
   37loPI    C1  577   2.927   5.775  10.794 -0.0186  0.0033  0.0394
   37loPI    C2  578   2.576   5.967  10.777  0.0017  0.0420  0.0585
   37loPI    C3  579   2.918   6.173  10.748  0.0200 -0.0275 -0.2584
   37loPI   PO4  580   2.983   5.635  10.631 -0.1938 -0.0275 -0.0902
   37loPI   GL1  581   3.062   5.436  10.338 -0.2370  0.1193  0.0832
   37loPI   GL2  582   3.226   5.265  10.248  0.3636 -0.1038  0.2795
   37loPI   C1A  583   2.940   5.561   9.929  0.2069  0.1464  0.2770
   37loPI   C2A  584   2.903   5.550   9.542  0.0210 -0.1933 -0.1491
   37loPI   C3A  585   3.030   5.405   9.146  0.0507 -0.0026 -0.1636
   37loPI   C4A  586   3.324   5.353   8.754 -0.1709  0.0445 -0.0783
   37loPI   C5A  587   3.215   5.480   8.384 -0.0607  0.1418  0.0615
   37loPI   C6A  588   3.325   5.781   8.082 -0.3149 -0.2411  0.0207
   37loPI   C1B  589   3.177   5.128   9.855 -0.2942  0.5905  0.1364
   37loPI   C2B  590   3.148   5.075   9.476 -0.1601  0.0135  0.2385
   37loPI   C3B  591   3.140   4.919   9.041  0.1832  0.4833  0.1371
   37loPI   C4B  592   3.127   4.873   8.616  0.0259 -0.0395  0.2333
   38loPI    C1  593   7.587   4.375  11.121  0.0260 -0.1424  0.0507
   38loPI    C2  594   7.223   4.470  10.986  0.0690  0.0283  0.0526
   38loPI    C3  595   7.268   4.166  11.242 -0.0559 -0.0738 -0.0450
   38loPI   PO4  596   7.699   4.380  10.929 -0.0466  0.0221  0.2257
   38loPI   GL1  597   7.854   4.208  10.551 -0.0060 -0.1217 -0.0107
   38loPI   GL2  598   7.608   3.994  10.367  0.1606 -0.0039 -0.1174
   38loPI   C1A  599   8.007   4.290  10.214  0.5189 -0.0353 -0.1584
   38loPI   C2A  600   8.055   4.259   9.838  0.3048 -0.1511  0.3610
   38loPI   C3A  601   8.047   4.099   9.479 -0.1052  0.0035 -0.0581
   38loPI   C4A  602   8.281   3.907   9.166 -0.1469  0.0508 -0.1648
   38loPI   C5A  603   8.468   3.807   8.802 -0.0534  0.1353 -0.0086
   38loPI   C6A  604   8.751   3.795   8.470  0.1127  0.2893  0.1974
   38loPI   C1B  605   7.558   4.060   9.984 -0.4588  0.0038  0.0786
   38loPI   C2B  606   7.515   4.194   9.565 -0.3103 -0.0432 -0.1536
   38loPI   C3B  607   7.391   4.013   9.206 -0.2642 -0.1937  0.1987
   38loPI   C4B  608   7.489   3.953   8.771  0.1482  0.1515 -0.0842
   39loPI    C1  609  15.120   4.655  11.453 -0.0648  0.3318 -0.1220
   39loPI    C2  610  15.464   4.585  11.644 -0.2041 -0.2201 -0.0553
   39loPI    C3  611  15.225   4.882  11.764  0.1289  0.0085  0.0542
   39loPI   PO4  612  15.255   4.649  11.179 -0.2152  0.2913 -0.0121
   39loPI   GL1  613  15.110   4.561  10.738  0.1515  0.1243 -0.0194
   39loPI   GL2  614  15.270   4.256  10.747  0.0584 -0.0062  0.1003
   39loPI   C1A  615  14.964   4.579  10.316 -0.5610  0.0020 -0.2603
   39loPI   C2A  616  14.968   4.564   9.847  0.1207 -0.1034 -0.1030
   39loPI   C3A  617  14.937   4.690   9.417 -0.1775 -0.0037  0.1197
   39loPI   C4A  618  14.924   4.905   9.004 -0.1239 -0.0479  0.1851
   39loPI   C5A  619  15.184   5.139   8.685 -0.1040 -0.0623 -0.2766
   39loPI   C6A  620  15.550   5.042   8.486  0.1564 -0.0400  0.2072
   39loPI   C1B  621  15.229   4.109  10.462  0.0346 -0.2170 -0.0937
   39loPI   C2B  622  15.244   4.210  10.056 -0.0511 -0.1315 -0.0419
   39loPI   C3B  623  15.277   4.171   9.687  0.0130 -0.1253 -0.2167
   39loPI   C4B  624  15.200   4.291   9.310  0.2785  0.0247 -0.0248
   40loPI    C1  625  13.607   8.842  11.696 -0.0698  0.0991 -0.0140
   40loPI    C2  626  13.892   8.725  11.951 -0.3451 -0.0622  0.2268
   40loPI    C3  627  13.749   8.469  11.679 -0.0883  0.0942 -0.0621
   40loPI   PO4  628  13.681   9.056  11.587  0.1249  0.0071  0.0904
   40loPI   GL1  629  13.787   9.140  11.053 -0.0253 -0.0199 -0.1734
   40loPI   GL2  630  13.636   9.314  11.164  0.1278 -0.0939 -0.0515
   40loPI   C1A  631  13.857   9.142  10.677 -0.0238  0.0390 -0.0777
   40loPI   C2A  632  13.873   9.084  10.265 -0.0910  0.0149  0.1143
   40loPI   C3A  633  13.945   9.124   9.919 -0.0901 -0.0334 -0.0641
   40loPI   C4A  634  13.947   9.036   9.402 -0.0040 -0.2039  0.1806
   40loPI   C5A  635  13.598   8.872   9.068  0.2106  0.1910 -0.1908
   40loPI   C6A  636  13.226   9.119   8.926  0.0141  0.0262 -0.1996
   40loPI   C1B  637  13.447   9.606  10.873  0.0232  0.0045  0.1734
   40loPI   C2B  638  13.442   9.436  10.402 -0.4214 -0.0242 -0.1113
   40loPI   C3B  639  13.504   9.511  10.064 -0.0030  0.2364  0.0620
   40loPI   C4B  640  13.637   9.399   9.606 -0.1284  0.2656 -0.0402
   41loPI    C1  641   1.778   0.034  11.213 -0.2385 -0.1038 -0.1000
   41loPI    C2  642   1.397   0.081  11.323 -0.2953 -0.0177 -0.3265
   41loPI    C3  643   1.601  -0.241  11.443 -0.3703  0.0443 -0.0219
   41loPI   PO4  644   1.844   0.018  10.878 -0.0916 -0.3254 -0.1341
   41loPI   GL1  645   1.820  -0.190  10.497 -0.0311  0.0380 -0.0431
   41loPI   GL2  646   1.644  -0.418  10.344  0.0035  0.0241 -0.2074
   41loPI   C1A  647   1.996  -0.250  10.016  0.1196 -0.3090  0.0354
   41loPI   C2A  648   1.979  -0.400   9.568 -0.1642 -0.2469  0.3421
   41loPI   C3A  649   2.087  -0.287   9.065  0.0126 -0.2040 -0.0497
   41loPI   C4A  650   1.733  -0.425   8.794 -0.2260  0.1872 -0.2023
   41loPI   C5A  651   1.764  -0.648   8.471  0.1535  0.3263  0.2785
   41loPI   C6A  652   1.695  -1.025   8.080  0.0900  0.4970  0.1480
   41loPI   C1B  653   1.535  -0.511   9.931  0.0329 -0.2377 -0.3146
   41loPI   C2B  654   1.382  -0.496   9.580 -0.0721  0.0952  0.1943
   41loPI   C3B  655   1.386  -0.575   9.172  0.2869  0.2193  0.0024
   41loPI   C4B  656   1.210  -0.564   8.834 -0.2754 -0.0021  0.2954
   42loPI    C1  657  17.309  10.960  11.879  0.0486  0.0731 -0.2031
   42loPI    C2  658  17.087  11.106  12.178  0.1304  0.0001 -0.1057
   42loPI    C3  659  17.423  10.905  12.258 -0.0606 -0.3775 -0.2308
   42loPI   PO4  660  16.976  10.866  11.726 -0.5041  0.2341  0.3986
   42loPI   GL1  661  16.744  10.887  11.343  0.1550  0.0781  0.0035
   42loPI   GL2  662  16.585  10.638  11.364 -0.1757  0.1203  0.1011
   42loPI   C1A  663  16.502  11.037  10.976 -0.2758 -0.1721 -0.1555
   42loPI   C2A  664  16.275  11.027  10.526  0.2798  0.1490 -0.2089
   42loPI   C3A  665  16.342  11.034  10.129 -0.3232  0.1274 -0.2349
   42loPI   C4A  666  16.436  10.927   9.708 -0.0133 -0.1851 -0.2828
   42loPI   C5A  667  16.762  11.115   9.364  0.2223 -0.0256 -0.0477
   42loPI   C6A  668  17.082  11.421   9.343 -0.3306  0.1146 -0.1937
   42loPI   C1B  669  16.724  10.545  10.939 -0.2958  0.0021 -0.0609
   42loPI   C2B  670  16.663  10.665  10.576 -0.2834  0.0844 -0.0565
   42loPI   C3B  671  16.714  10.719  10.109 -0.5035  0.0028 -0.1421
   42loPI   C4B  672  16.751  10.536   9.760  0.1264  0.2393  0.0155
   43loPI    C1  673  12.485  13.841  11.930 -0.0738  0.0730 -0.0498
   43loPI    C2  674  12.652  13.538  11.730  0.0792  0.0792  0.0668
   43loPI    C3  675  12.710  13.574  12.124 -0.1010  0.1491  0.0879
   43loPI   PO4  676  12.238  13.811  11.813  0.0089  0.3219 -0.0508
   43loPI   GL1  677  12.147  13.699  11.308 -0.3920 -0.2944  0.0505
   43loPI   GL2  678  11.753  13.730  11.124  0.1317  0.0503 -0.2055
   43loPI   C1A  679  12.142  13.455  10.903  0.0802 -0.0052 -0.4138
   43loPI   C2A  680  12.075  13.492  10.515 -0.1437 -0.2521 -0.2878
   43loPI   C3A  681  12.172  13.408  10.080  0.0397  0.1445  0.0020
   43loPI   C4A  682  12.130  13.417   9.566 -0.1957 -0.0925 -0.1037
   43loPI   C5A  683  12.093  13.495   9.057  0.0145  0.2198  0.0525
   43loPI   C6A  684  12.263  13.193   8.756 -0.0682 -0.2146 -0.1930
   43loPI   C1B  685  11.780  13.828  10.718  0.0307  0.3622 -0.0146
   43loPI   C2B  686  11.793  13.736  10.204 -0.0286  0.3314  0.0315
   43loPI   C3B  687  11.828  13.820   9.802  0.1128 -0.0215  0.1792
   43loPI   C4B  688  11.987  13.908   9.327  0.1406  0.1842  0.0278
   44loPI    C1  689  11.689  16.774  11.510 -0.1087  0.0183  0.1763
   44loPI    C2  690  11.889  16.460  11.654 -0.1347  0.0288  0.2357
   44loPI    C3  691  11.770  16.751  11.901 -0.2785 -0.0083  0.2111
   44loPI   PO4  692  11.648  16.581  11.214 -0.1324 -0.2151  0.0684
   44loPI   GL1  693  11.974  16.704  10.768 -0.1440 -0.1640  0.4155
   44loPI   GL2  694  11.893  16.420  10.836  0.2872  0.3309 -0.0195
   44loPI   C1A  695  11.813  16.631  10.327  0.1772 -0.1240  0.0532
   44loPI   C2A  696  11.797  16.578   9.798 -0.0816 -0.1265  0.0154
   44loPI   C3A  697  11.910  16.563   9.296 -0.2269  0.0852  0.0873
   44loPI   C4A  698  11.752  16.530   8.934 -0.1628 -0.3201  0.1510
   44loPI   C5A  699  11.546  16.128   8.696 -0.1838 -0.3256  0.2831
   44loPI   C6A  700  11.586  15.704   8.626  0.2164  0.0280 -0.4309
   44loPI   C1B  701  11.663  16.153  10.532  0.2205 -0.1823 -0.1993
   44loPI   C2B  702  11.577  16.075  10.062  0.1203 -0.0073  0.1800
   44loPI   C3B  703  11.659  16.077   9.689 -0.1832 -0.3686 -0.2623
   44loPI   C4B  704  11.747  16.112   9.231 -0.3099  0.3721  0.2850
   45loPI    C1  705  14.939  13.585  12.043  0.3181  0.1587 -0.1428
   45loPI    C2  706  14.756  13.916  12.173  0.2516  0.0711 -0.0113
   45loPI    C3  707  15.089  13.787  12.354  0.1513 -0.0584  0.0824
   45loPI   PO4  708  14.899  13.631  11.750 -0.3050 -0.3085  0.1252
   45loPI   GL1  709  14.508  13.684  11.488 -0.1856  0.0969  0.0618
   45loPI   GL2  710  14.700  13.972  11.285 -0.2156 -0.1945 -0.0550
   45loPI   C1A  711  14.509  13.524  11.070  0.2209  0.2165  0.2789
   45loPI   C2A  712  14.435  13.391  10.605 -0.2623  0.1272  0.1311
   45loPI   C3A  713  14.433  13.386  10.227  0.1165 -0.2053  0.3086
   45loPI   C4A  714  14.421  13.331   9.782 -0.2733  0.3784 -0.1117
   45loPI   C5A  715  14.559  13.382   9.421 -0.0760  0.0451  0.0224
   45loPI   C6A  716  14.484  13.306   8.887 -0.1436 -0.3374  0.0418
   45loPI   C1B  717  14.647  13.955  10.785 -0.1973  0.0012 -0.0766
   45loPI   C2B  718  14.580  13.826  10.402 -0.0977  0.3077 -0.1318
   45loPI   C3B  719  14.651  13.755   9.946 -0.2606 -0.0794 -0.0705
   45loPI   C4B  720  14.717  13.894   9.516  0.0421 -0.1974 -0.1015
   46loPI    C1  721   6.736  10.519  11.077 -0.0082 -0.0015  0.0998
   46loPI    C2  722   6.584  10.191  10.907  0.1506 -0.0773  0.1024
   46loPI    C3  723   6.959  10.189  11.046  0.2211  0.1668 -0.0787
   46loPI   PO4  724   6.706  10.690  10.964  0.2112  0.0210 -0.0886
   46loPI   GL1  725   6.522  10.748  10.587  0.2655 -0.0867  0.1051
   46loPI   GL2  726   6.580  10.419  10.406 -0.1608  0.3216  0.0040
   46loPI   C1A  727   6.402  10.927  10.243 -0.0780 -0.2669  0.0563
   46loPI   C2A  728   6.218  10.742   9.855  0.1179  0.1699  0.0685
   46loPI   C3A  729   6.263  10.342   9.572 -0.1046  0.0775 -0.0948
   46loPI   C4A  730   6.215  10.041   9.270  0.2646 -0.0598 -0.2033
   46loPI   C5A  731   6.430   9.781   8.968 -0.1232 -0.0980  0.4457
   46loPI   C6A  732   6.518   9.640   8.583  0.0598 -0.1543 -0.0951
   46loPI   C1B  733   6.584  10.343   9.908 -0.0149 -0.4378 -0.1172
   46loPI   C2B  734   6.734  10.145   9.468 -0.3950 -0.2967 -0.0283
   46loPI   C3B  735   6.643  10.231   9.082  0.2237 -0.1590 -0.2042
   46loPI   C4B  736   6.770  10.124   8.641  0.1832 -0.0805  0.2277
   47loPI    C1  737   8.684   9.760  11.396  0.0461 -0.2476 -0.1943
   47loPI    C2  738   9.082   9.793  11.422  0.0191 -0.0535 -0.0000
   47loPI    C3  739   8.860   9.774  11.755 -0.1358 -0.1505 -0.1073
   47loPI   PO4  740   8.499   9.959  11.243 -0.0756 -0.2548  0.0750
   47loPI   GL1  741   8.332  10.220  11.067 -0.2467  0.3443 -0.1388
   47loPI   GL2  742   8.230  10.395  11.341 -0.1929  0.2803  0.2061
   47loPI   C1A  743   8.036  10.430  10.805 -0.2459 -0.0222 -0.1697
   47loPI   C2A  744   7.950  10.427  10.333  0.1364  0.2629 -0.1556
   47loPI   C3A  745   7.953  10.490   9.825 -0.0797  0.0551 -0.0389
   47loPI   C4A  746   7.994  10.390   9.397 -0.0912 -0.0087  0.3273
   47loPI   C5A  747   7.948  10.513   8.995 -0.0432 -0.0179 -0.2096
   47loPI   C6A  748   7.813  10.666   8.660  0.1120  0.0784 -0.1928
   47loPI   C1B  749   8.282  10.778  11.062 -0.0038  0.1532 -0.2509
   47loPI   C2B  750   8.148  10.922  10.708  0.1026  0.2333 -0.1524
   47loPI   C3B  751   7.923  10.966  10.316  0.1043  0.1521  0.2916
   47loPI   C4B  752   7.744  11.002   9.983  0.0388 -0.1337  0.2159
   48loPI    C1  753  14.634   7.856  11.700  0.1100 -0.0335 -0.1122
   48loPI    C2  754  14.456   7.534  11.857  0.1725  0.0935  0.2269
   48loPI    C3  755  14.474   7.875  12.066  0.1974  0.2890 -0.0875
   48loPI   PO4  756  14.537   7.818  11.438  0.0996 -0.3052 -0.0195
   48loPI   GL1  757  14.499   7.869  11.009 -0.1714  0.1873  0.0204
   48loPI   GL2  758  14.195   7.888  11.109  0.1409 -0.0704 -0.0201
   48loPI   C1A  759  14.422   7.883  10.531 -0.0113 -0.1022 -0.1493
   48loPI   C2A  760  14.401   7.847  10.044 -0.1689  0.1759 -0.4404
   48loPI   C3A  761  14.435   7.866   9.682 -0.1027  0.2270  0.2126
   48loPI   C4A  762  14.372   7.908   9.187  0.1748  0.0558  0.2088
   48loPI   C5A  763  14.234   7.791   8.839 -0.0744 -0.0355  0.0513
   48loPI   C6A  764  14.541   7.737   8.514 -0.2415 -0.1436 -0.1372
   48loPI   C1B  765  13.965   7.874  10.708  0.2773 -0.1577 -0.1038
   48loPI   C2B  766  13.858   7.777  10.216 -0.0909  0.1923  0.1454
   48loPI   C3B  767  13.908   7.753   9.821 -0.3780  0.0300  0.3513
   48loPI   C4B  768  13.826   7.749   9.416  0.1075 -0.1333  0.0191
   49loPI    C1  769   9.588   1.178  11.257 -0.0193 -0.1949  0.1912
   49loPI    C2  770   9.778   1.321  11.579 -0.0490  0.1893  0.0438
   49loPI    C3  771   9.408   1.447  11.492  0.0186  0.2067 -0.2258
   49loPI   PO4  772   9.683   1.259  11.063 -0.0559  0.4477 -0.3012
   49loPI   GL1  773   9.574   1.416  10.708 -0.2853  0.1459 -0.1905
   49loPI   GL2  774   9.538   1.729  10.546  0.0149 -0.1477  0.3004
   49loPI   C1A  775   9.819   1.319  10.335 -0.0157  0.0813  0.4744
   49loPI   C2A  776   9.811   1.325   9.861 -0.0977  0.0451  0.0347
   49loPI   C3A  777   9.898   1.325   9.405 -0.5522  0.4119  0.0763
   49loPI   C4A  778   9.893   1.456   8.955  0.0266  0.0568  0.0010
   49loPI   C5A  779   9.709   1.233   8.654 -0.2641  0.2384  0.2424
   49loPI   C6A  780   9.654   0.862   8.301 -0.2024  0.0750 -0.0446
   49loPI   C1B  781   9.637   1.703  10.060  0.0693 -0.1997 -0.0718
   49loPI   C2B  782   9.636   1.712   9.626 -0.2083  0.0270  0.0427
   49loPI   C3B  783   9.619   1.703   9.267  0.1087  0.2045  0.0290
   49loPI   C4B  784   9.496   1.714   8.864 -0.0076 -0.2466 -0.0251
   50loPI    C1  785  11.770   9.015  11.515 -0.1250 -0.3214  0.0020
   50loPI    C2  786  12.086   8.806  11.644  0.1212 -0.0517 -0.1520
   50loPI    C3  787  11.834   8.972  11.907  0.2884  0.0011 -0.0237
   50loPI   PO4  788  12.003   9.231  11.313  0.1933  0.0527 -0.1824
   50loPI   GL1  789  12.166   9.188  11.000 -0.2924  0.0284 -0.0475
   50loPI   GL2  790  11.898   9.050  10.816  0.1810 -0.1548 -0.0098
   50loPI   C1A  791  12.414   9.259  10.626 -0.1495 -0.0063  0.0869
   50loPI   C2A  792  12.569   9.308  10.303 -0.0003  0.3114  0.0799
   50loPI   C3A  793  12.533   9.359   9.802 -0.0678  0.0399  0.0683
   50loPI   C4A  794  12.581   9.379   9.377  0.3287  0.1130 -0.1098
   50loPI   C5A  795  12.575   9.287   8.946 -0.0824 -0.0761 -0.0014
   50loPI   C6A  796  12.466   9.490   8.622 -0.0796 -0.0322 -0.0791
   50loPI   C1B  797  11.903   9.238  10.378 -0.2391  0.1850  0.4420
   50loPI   C2B  798  11.950   9.301   9.947 -0.2070  0.1582 -0.0893
   50loPI   C3B  799  12.013   9.252   9.621 -0.0897  0.0084 -0.2344
   50loPI   C4B  800  12.106   9.320   9.179 -0.0158  0.0249 -0.0378
   51loPI    C1  801  12.648   3.053  11.730  0.1877 -0.3604  0.1311
   51loPI    C2  802  12.380   2.827  11.537  0.0731  0.0891 -0.2560
   51loPI    C3  803  12.425   2.790  11.933 -0.2058 -0.3392 -0.2581
   51loPI   PO4  804  12.699   3.214  11.424 -0.0212  0.0959  0.0240
   51loPI   GL1  805  12.532   3.305  11.022 -0.3205 -0.1274 -0.1671
   51loPI   GL2  806  12.393   2.981  11.044 -0.0082  0.0550 -0.3672
   51loPI   C1A  807  12.453   3.274  10.536 -0.2429  0.1538 -0.5055
   51loPI   C2A  808  12.441   3.275  10.002  0.1099  0.2732 -0.1766
   51loPI   C3A  809  12.427   3.292   9.516 -0.0221 -0.0529  0.2846
   51loPI   C4A  810  12.487   3.266   9.032  0.2714  0.0442  0.1573
   51loPI   C5A  811  12.888   3.233   8.737 -0.1823  0.1694  0.2590
   51loPI   C6A  812  13.136   2.932   8.569  0.1823  0.2230  0.0114
   51loPI   C1B  813  12.200   2.842  10.705 -0.0959 -0.1447 -0.1590
   51loPI   C2B  814  12.163   2.906  10.239  0.2165 -0.0639  0.1728
   51loPI   C3B  815  12.181   2.914   9.838  0.1854 -0.1893 -0.2066
   51loPI   C4B  816  12.305   2.803   9.417  0.0231  0.2291  0.1525
   52loPI    C1  817   8.350  10.488  11.779  0.1475  0.0791 -0.2157
   52loPI    C2  818   8.584  10.164  11.785  0.1059  0.0499 -0.1703
   52loPI    C3  819   8.202  10.138  11.903  0.2614  0.2388  0.4043
   52loPI   PO4  820   8.587  10.647  11.668 -0.0312 -0.2158 -0.2011
   52loPI   GL1  821   8.812  10.684  11.212  0.0447 -0.1294 -0.1618
   52loPI   GL2  822   9.109  10.596  11.075 -0.0352 -0.1213  0.2842
   52loPI   C1A  823   8.591  10.636  10.705  0.2164  0.0942 -0.0859
   52loPI   C2A  824   8.418  10.833  10.303 -0.0450  0.1493  0.0611
   52loPI   C3A  825   8.231  10.909   9.891 -0.1982 -0.0922 -0.2150
   52loPI   C4A  826   8.253  10.824   9.443  0.0396 -0.0740  0.1724
   52loPI   C5A  827   8.544  10.636   9.133  0.2430  0.1500  0.2570
   52loPI   C6A  828   8.997  10.601   8.985 -0.1092 -0.0707 -0.1706
   52loPI   C1B  829   9.088  10.603  10.628  0.1012  0.4243  0.0964
   52loPI   C2B  830   9.275  10.586  10.267  0.0415 -0.1653  0.3508
   52loPI   C3B  831   9.198  10.672   9.885  0.1151 -0.3836  0.0713
   52loPI   C4B  832   9.112  10.713   9.596 -0.1332 -0.1046 -0.2398
   53loPI    C1  833   5.258  14.316  11.356  0.0541  0.0683  0.0170
   53loPI    C2  834   4.960  14.534  11.510  0.1236  0.1019  0.1051
   53loPI    C3  835   4.944  14.134  11.523 -0.0776  0.0969 -0.1960
   53loPI   PO4  836   5.259  14.355  11.122 -0.0365 -0.0922  0.1147
   53loPI   GL1  837   5.255  14.549  10.793  0.0132 -0.2124  0.1039
   53loPI   GL2  838   5.005  14.413  10.640  0.0711 -0.0641  0.1714
   53loPI   C1A  839   5.470  14.391  10.457 -0.1718 -0.1344 -0.1651
   53loPI   C2A  840   5.451  14.179  10.093 -0.0033 -0.2048  0.1095
   53loPI   C3A  841   5.464  14.145   9.668 -0.0266  0.2595 -0.0454
   53loPI   C4A  842   5.473  14.080   9.193 -0.1913  0.0448 -0.0200
   53loPI   C5A  843   5.783  13.698   9.068 -0.0549  0.1510 -0.0825
   53loPI   C6A  844   6.001  13.640   8.726 -0.1629 -0.1522  0.2091
   53loPI   C1B  845   4.970  14.319  10.248  0.1099 -0.1573  0.0007
   53loPI   C2B  846   4.964  14.116   9.837  0.1654  0.0985 -0.0143
   53loPI   C3B  847   4.962  14.149   9.410  0.3041  0.0003  0.1196
   53loPI   C4B  848   4.991  14.258   8.961 -0.3022  0.1792 -0.0882
   54loPI    C1  849   9.783  12.592  11.933  0.0708 -0.1175  0.2732
   54loPI    C2  850   9.784  12.928  12.150  0.1581  0.0726 -0.0150
   54loPI    C3  851   9.817  12.573  12.331  0.0954  0.2188  0.2904
   54loPI   PO4  852   9.786  12.672  11.646  0.2460 -0.1390  0.2646
   54loPI   GL1  853  10.010  12.828  11.262  0.0591  0.4384 -0.1417
   54loPI   GL2  854   9.998  12.517  11.235  0.0962  0.2069  0.1618
   54loPI   C1A  855  10.242  12.793  10.837 -0.0092 -0.0865 -0.2188
   54loPI   C2A  856  10.411  12.675  10.411 -0.2103  0.0397 -0.0584
   54loPI   C3A  857  10.541  12.657   9.997 -0.0200  0.0665 -0.1069
   54loPI   C4A  858  10.541  12.759   9.492 -0.0873 -0.0605 -0.0940
   54loPI   C5A  859  10.393  12.557   9.100  0.1595 -0.2018  0.0477
   54loPI   C6A  860  10.561  12.143   8.869 -0.4304  0.0736 -0.0744
   54loPI   C1B  861  10.093  12.334  10.904  0.0944  0.0595 -0.0359
   54loPI   C2B  862  10.192  12.131  10.421 -0.0321  0.2297 -0.1892
   54loPI   C3B  863  10.305  12.187   9.980  0.2494  0.0822  0.2080
   54loPI   C4B  864  10.273  12.203   9.389 -0.0943  0.0328 -0.1475
   55loPI    C1  865  11.696  11.401  11.967  0.0564 -0.2650  0.1008
   55loPI    C2  866  11.422  11.346  12.253  0.0732  0.0868  0.1891
   55loPI    C3  867  11.810  11.306  12.338  0.0632 -0.1654  0.1245
   55loPI   PO4  868  11.603  11.448  11.751  0.1531 -0.1664  0.1042
   55loPI   GL1  869  11.596  11.456  11.275  0.0534 -0.1547  0.4023
   55loPI   GL2  870  11.435  11.109  11.253  0.5705 -0.2045 -0.1867
   55loPI   C1A  871  11.845  11.603  11.011  0.0075 -0.0048  0.0381
   55loPI   C2A  872  11.891  11.672  10.564 -0.1583  0.0591  0.0290
   55loPI   C3A  873  11.889  11.551  10.063 -0.0985  0.1408  0.2734
   55loPI   C4A  874  11.934  11.594   9.578  0.0169  0.2834 -0.2489
   55loPI   C5A  875  11.853  11.445   9.144 -0.0181 -0.1981  0.2378
   55loPI   C6A  876  12.205  11.465   8.825  0.2042 -0.1649 -0.4557
   55loPI   C1B  877  11.571  11.063  10.910  0.0623 -0.0640 -0.0354
   55loPI   C2B  878  11.733  11.162  10.498 -0.1520  0.4212 -0.0853
   55loPI   C3B  879  11.700  11.039  10.110  0.2779  0.0150  0.0475
   55loPI   C4B  880  11.770  11.110   9.660 -0.0786 -0.0232 -0.0774
   56loPI    C1  881   8.094   5.004  11.167  0.0478 -0.0649 -0.0059
   56loPI    C2  882   8.167   5.030  11.560  0.0411 -0.0202 -0.0076
   56loPI    C3  883   7.794   5.076  11.422  0.0622  0.0834 -0.0303
   56loPI   PO4  884   8.201   4.754  10.991 -0.0847 -0.0868 -0.2942
   56loPI   GL1  885   8.232   4.638  10.635 -0.1647  0.3761  0.2253
   56loPI   GL2  886   8.456   4.383  10.496 -0.2566 -0.0566  0.0981
   56loPI   C1A  887   8.221   4.674  10.225 -0.0388 -0.4484 -0.3457
   56loPI   C2A  888   8.143   4.789   9.817 -0.1605  0.0436  0.1990
   56loPI   C3A  889   8.102   4.768   9.449 -0.1374  0.2244  0.0814
   56loPI   C4A  890   8.083   4.825   8.924 -0.1319 -0.3221 -0.5114
   56loPI   C5A  891   7.873   4.707   8.525  0.3427 -0.1757 -0.0397
   56loPI   C6A  892   7.672   4.675   8.166  0.1286  0.0811 -0.3790
   56loPI   C1B  893   8.524   4.311  10.061 -0.0814 -0.0759 -0.1513
   56loPI   C2B  894   8.454   4.404   9.614 -0.2241  0.0355 -0.1526
   56loPI   C3B  895   8.367   4.443   9.161  0.0220  0.2020 -0.1281
   56loPI   C4B  896   8.413   4.302   8.785  0.1002 -0.1130  0.2584
   57loPI    C1  897   6.193  15.359  11.165  0.1433 -0.1887 -0.1079
   57loPI    C2  898   6.339  15.565  11.475  0.0341  0.0496 -0.2119
   57loPI    C3  899   6.098  15.252  11.538  0.2962 -0.1239 -0.0496
   57loPI   PO4  900   6.126  15.500  11.007 -0.0253  0.0293  0.1403
   57loPI   GL1  901   5.976  15.650  10.632 -0.3165 -0.0786  0.0949
   57loPI   GL2  902   5.803  15.768  10.513  0.2848  0.0502 -0.0065
   57loPI   C1A  903   6.257  15.591  10.281  0.0291  0.1375 -0.2136
   57loPI   C2A  904   6.283  15.389   9.924  0.1968  0.0511 -0.0722
   57loPI   C3A  905   6.400  15.353   9.492 -0.0094  0.0042 -0.0672
   57loPI   C4A  906   6.548  15.338   9.140 -0.3914 -0.1576  0.1328
   57loPI   C5A  907   6.789  15.683   8.937 -0.3131 -0.1681  0.0995
   57loPI   C6A  908   7.066  15.945   9.016 -0.0519 -0.1643 -0.2982
   57loPI   C1B  909   5.810  15.663  10.067 -0.0078  0.3534 -0.0458
   57loPI   C2B  910   5.859  15.569   9.717 -0.0310  0.0737  0.3352
   57loPI   C3B  911   5.962  15.484   9.308 -0.1369  0.2538  0.0435
   57loPI   C4B  912   6.057  15.420   8.886 -0.1556  0.0135  0.0401
   58loPI    C1  913   3.506  10.638  11.043  0.0304  0.0690  0.0572
   58loPI    C2  914   3.426  10.292  11.227  0.1126 -0.0078 -0.0502
   58loPI    C3  915   3.580  10.598  11.434  0.4481 -0.1781 -0.0405
   58loPI   PO4  916   3.474  10.568  10.776  0.2541  0.0378 -0.0594
   58loPI   GL1  917   3.356  10.372  10.398  0.2113  0.1229 -0.0663
   58loPI   GL2  918   3.027  10.149  10.322  0.1506  0.2065  0.0468
   58loPI   C1A  919   3.350  10.279   9.993  0.0500 -0.1007 -0.2744
   58loPI   C2A  920   3.365  10.327   9.545 -0.0231  0.1956 -0.0111
   58loPI   C3A  921   3.361  10.315   8.986 -0.0049 -0.1589 -0.1966
   58loPI   C4A  922   3.452  10.287   8.574 -0.2058  0.0474  0.1223
   58loPI   C5A  923   3.230  10.121   8.266  0.0034 -0.0270 -0.2228
   58loPI   C6A  924   3.243   9.828   7.896  0.1077 -0.0701 -0.2010
   58loPI   C1B  925   2.933   9.993   9.905  0.1006  0.2913  0.1149
   58loPI   C2B  926   2.801  10.080   9.491 -0.3675 -0.0015  0.1687
   58loPI   C3B  927   2.891  10.184   9.065 -0.1625 -0.1337  0.0311
   58loPI   C4B  928   2.972  10.423   8.644  0.0627 -0.1857 -0.1154
   59loPI    C1  929   9.106   4.175  10.927 -0.2469 -0.1250  0.0529
   59loPI    C2  930   8.935   4.255  11.279 -0.0475 -0.2627  0.1834
   59loPI    C3  931   9.257   4.019  11.263 -0.0757 -0.2853 -0.0959
   59loPI   PO4  932   9.141   4.415  10.832 -0.1611 -0.0720 -0.0227
   59loPI   GL1  933   9.451   4.591  10.674 -0.0912  0.2485 -0.3836
   59loPI   GL2  934   9.446   4.268  10.511 -0.0611  0.2051 -0.0062
   59loPI   C1A  935   9.437   4.665  10.236  0.1538 -0.0524 -0.1214
   59loPI   C2A  936   9.476   4.686   9.801 -0.4184 -0.0476 -0.2692
   59loPI   C3A  937   9.557   4.595   9.382  0.0071 -0.1726 -0.1901
   59loPI   C4A  938   9.391   4.672   8.989 -0.1907 -0.0685  0.0884
   59loPI   C5A  939   9.315   4.591   8.629  0.1337 -0.0821 -0.3085
   59loPI   C6A  940   8.878   4.616   8.337 -0.0619 -0.0776  0.0134
   59loPI   C1B  941   9.544   4.170  10.173 -0.1245  0.0670  0.3892
   59loPI   C2B  942   9.534   4.202   9.827  0.0950 -0.3820  0.1902
   59loPI   C3B  943   9.435   4.152   9.512  0.0515 -0.1568  0.0295
   59loPI   C4B  944   9.270   4.141   9.218  0.1341 -0.1693 -0.1824
   60loPI    C1  945  13.794  15.718  11.434 -0.0515 -0.0680 -0.0753
   60loPI    C2  946  13.710  15.671  11.822 -0.0223  0.1609 -0.0396
   60loPI    C3  947  14.077  15.782  11.709 -0.0419  0.1337 -0.1306
   60loPI   PO4  948  13.534  15.847  11.364 -0.0227 -0.0221 -0.3773
   60loPI   GL1  949  13.303  15.899  11.053 -0.1253 -0.0294 -0.1229
   60loPI   GL2  950  13.187  16.006  10.905 -0.0195 -0.1458  0.2255
   60loPI   C1A  951  13.364  15.597  10.667 -0.2161  0.2657 -0.3765
   60loPI   C2A  952  13.258  15.590  10.292  0.1281 -0.0995 -0.1171
   60loPI   C3A  953  13.309  15.478   9.931 -0.1652  0.2401  0.0161
   60loPI   C4A  954  13.349  15.564   9.474  0.0034  0.0384  0.0956
   60loPI   C5A  955  13.355  15.433   9.122  0.2068  0.2577 -0.2409
   60loPI   C6A  956  13.174  15.173   8.687  0.0597  0.0374  0.2031
   60loPI   C1B  957  12.937  15.920  10.533  0.4412  0.0886  0.2951
   60loPI   C2B  958  12.928  15.970  10.118 -0.1120  0.3294 -0.2055
   60loPI   C3B  959  12.971  15.819   9.721  0.0866  0.1881  0.1166
   60loPI   C4B  960  13.027  15.876   9.281 -0.0904  0.1447  0.2665
   61loPI    C1  961  16.249  16.240  11.455 -0.1488  0.3077 -0.0742
   61loPI    C2  962  15.859  16.245  11.541 -0.1376  0.2073 -0.0162
   61loPI    C3  963  16.128  16.325  11.826 -0.0986 -0.1627  0.0568
   61loPI   PO4  964  16.308  16.340  11.231 -0.1165  0.1158 -0.1078
   61loPI   GL1  965  16.192  16.426  10.875  0.2327  0.3969  0.2574
   61loPI   GL2  966  16.091  16.744  10.923 -0.1035 -0.0327  0.4018
   61loPI   C1A  967  16.144  16.500  10.485 -0.3237  0.0140  0.0207
   61loPI   C2A  968  16.043  16.643  10.192 -0.0320  0.1575  0.0091
   61loPI   C3A  969  15.882  16.788   9.854  0.1312  0.0977  0.4129
   61loPI   C4A  970  15.855  16.890   9.421 -0.0164  0.0654 -0.1615
   61loPI   C5A  971  15.727  17.122   9.057  0.2484 -0.0034  0.0057
   61loPI   C6A  972  15.849  17.464   8.901 -0.4140 -0.0038 -0.0642
   61loPI   C1B  973  16.103  16.986  10.595  0.0593 -0.2694  0.0451
   61loPI   C2B  974  16.131  17.277  10.137 -0.2118 -0.2486 -0.2017
   61loPI   C3B  975  16.175  17.252   9.710  0.2289  0.1563  0.0585
   61loPI   C4B  976  16.219  17.281   9.276  0.1901 -0.0955  0.1462
   62loPI    C1  977  12.259   2.025  11.383 -0.0577 -0.3305  0.1276
   62loPI    C2  978  11.994   1.748  11.499 -0.2786 -0.0502  0.3043
   62loPI    C3  979  12.311   1.830  11.729 -0.1196 -0.2741  0.1688
   62loPI   PO4  980  12.310   2.026  11.181  0.1603  0.0580 -0.0249
   62loPI   GL1  981  12.598   1.910  10.943 -0.2888  0.1107 -0.0041
   62loPI   GL2  982  12.800   1.754  10.643 -0.4454 -0.1633 -0.2010
   62loPI   C1A  983  12.356   1.850  10.533 -0.2351 -0.4765  0.0543
   62loPI   C2A  984  12.334   1.854  10.110  0.2472 -0.0163  0.0420
   62loPI   C3A  985  12.340   1.857   9.664  0.1225  0.1847 -0.6024
   62loPI   C4A  986  12.473   1.792   9.199 -0.3056  0.0023 -0.2059
   62loPI   C5A  987  12.563   1.969   8.805 -0.0472  0.0773 -0.0009
   62loPI   C6A  988  12.517   2.300   8.573 -0.2508 -0.0294  0.0248
   62loPI   C1B  989  12.831   1.959  10.294  0.2721 -0.2800  0.0595
   62loPI   C2B  990  12.836   1.937   9.946 -0.0665 -0.0512 -0.2226
   62loPI   C3B  991  12.897   1.905   9.488 -0.1412  0.0206 -0.3502
   62loPI   C4B  992  12.940   1.859   9.085  0.1215  0.0355  0.0068
   63loPI    C1  993  16.621  17.660  11.392 -0.1703 -0.1279  0.0029
   63loPI    C2  994  16.975  17.679  11.576  0.1240  0.0817 -0.5602
   63loPI    C3  995  16.668  17.897  11.710  0.2209 -0.0501 -0.1070
   63loPI   PO4  996  16.707  17.628  11.146 -0.0656 -0.0606 -0.1409
   63loPI   GL1  997  16.659  17.320  10.875  0.1033  0.1757  0.1201
   63loPI   GL2  998  16.356  17.294  10.907 -0.0500 -0.4048 -0.0440
   63loPI   C1A  999  16.592  17.384  10.460 -0.0374  0.1630  0.1419
   63loPI   C2A 1000  16.619  17.337   9.997 -0.0061  0.2320 -0.2917
   63loPI   C3A 1001  16.687  17.465   9.685  0.0176  0.1114 -0.0580
   63loPI   C4A 1002  16.719  17.361   9.166  0.0327 -0.1768 -0.0284
   63loPI   C5A 1003  16.538  17.044   8.918  0.3073 -0.2680 -0.2263
   63loPI   C6A 1004  16.128  16.796   8.999 -0.1287  0.2127  0.4521
   63loPI   C1B 1005  16.204  17.575  10.667  0.2931  0.2385  0.0617
   63loPI   C2B 1006  15.896  17.785  10.308  0.0434  0.0538  0.0129
   63loPI   C3B 1007  15.786  17.638   9.958 -0.0655 -0.3237  0.1624
   63loPI   C4B 1008  15.791  17.598   9.521  0.1054 -0.2189  0.0507
   64loPI    C1 1009   1.170   3.165  11.161  0.1886  0.0107 -0.0018
   64loPI    C2 1010   1.479   2.944  11.036  0.0267 -0.1762 -0.0768
   64loPI    C3 1011   1.198   2.781  11.269 -0.0504 -0.0258 -0.0632
   64loPI   PO4 1012   1.054   3.262  10.964  0.1698  0.0737 -0.0637
   64loPI   GL1 1013   1.202   3.256  10.617  0.2172 -0.1357 -0.0181
   64loPI   GL2 1014   1.355   3.527  10.693  0.0447  0.0652  0.0444
   64loPI   C1A 1015   1.130   3.169  10.262 -0.0224  0.3014 -0.1027
   64loPI   C2A 1016   1.107   3.093   9.751  0.3184  0.0596  0.0469
   64loPI   C3A 1017   1.057   2.954   9.377 -0.1491  0.0729 -0.0266
   64loPI   C4A 1018   0.765   3.082   8.982 -0.1019  0.3786 -0.1988
   64loPI   C5A 1019   0.824   2.951   8.519 -0.2718 -0.2806 -0.1873
   64loPI   C6A 1020   0.679   2.718   8.172  0.2189  0.1865  0.2548
   64loPI   C1B 1021   1.522   3.474  10.292 -0.2151 -0.2305  0.0348
   64loPI   C2B 1022   1.578   3.289   9.825 -0.1621 -0.0924  0.1414
   64loPI   C3B 1023   1.525   2.830   9.635 -0.0546 -0.2294 -0.2193
   64loPI   C4B 1024   1.587   2.754   9.254 -0.1112 -0.2398  0.1060
   65loPI    C1 1025  13.497  16.362  11.219 -0.0362  0.1059  0.0021
   65loPI    C2 1026  13.622  16.406  11.597 -0.0942  0.2765  0.0020
   65loPI    C3 1027  13.256  16.262  11.523 -0.0351  0.1219  0.0082
   65loPI   PO4 1028  13.560  16.556  11.103 -0.1342 -0.0344  0.1870
   65loPI   GL1 1029  13.494  16.710  10.754 -0.0675 -0.4011 -0.0185
   65loPI   GL2 1030  13.400  16.974  10.766  0.2542  0.0872  0.1129
   65loPI   C1A 1031  13.653  16.548  10.407  0.2079  0.0805 -0.0500
   65loPI   C2A 1032  13.778  16.474   9.897 -0.1037  0.4064  0.2032
   65loPI   C3A 1033  13.769  16.480   9.464  0.0657  0.3023 -0.1440
   65loPI   C4A 1034  14.098  16.507   9.063  0.2976 -0.1279 -0.1439
   65loPI   C5A 1035  14.402  16.349   8.819  0.0944  0.0522  0.0479
   65loPI   C6A 1036  14.808  16.292   8.798  0.0292 -0.0492 -0.4416
   65loPI   C1B 1037  13.430  16.956  10.246  0.1581 -0.1040  0.3150
   65loPI   C2B 1038  13.449  16.869   9.885  0.0116 -0.0785 -0.3798
   65loPI   C3B 1039  13.479  16.858   9.400 -0.3128  0.1181  0.2150
   65loPI   C4B 1040  13.465  16.792   8.953 -0.2095  0.1207 -0.0885
   66loPI    C1 1041  15.221   5.660  11.326  0.0182 -0.1137 -0.0149
   66loPI    C2 1042  14.925   5.657  11.595  0.0758 -0.0353  0.0500
   66loPI    C3 1043  15.272   5.475  11.676  0.0117 -0.2127 -0.0658
   66loPI   PO4 1044  15.149   5.584  11.111  0.0091 -0.1621 -0.0341
   66loPI   GL1 1045  15.376   5.361  10.780  0.0700  0.1799  0.0499
   66loPI   GL2 1046  15.277   4.978  10.697 -0.2897  0.0329  0.0793
   66loPI   C1A 1047  15.211   5.531  10.349 -0.3492  0.0913 -0.1560
   66loPI   C2A 1048  15.251   5.546   9.976 -0.1097  0.3041  0.0265
   66loPI   C3A 1049  15.175   5.743   9.615 -0.1758  0.2238 -0.0852
   66loPI   C4A 1050  15.144   5.821   9.151 -0.2299  0.0337 -0.2463
   66loPI   C5A 1051  15.023   5.583   8.838 -0.0158  0.1763  0.0305
   66loPI   C6A 1052  14.920   5.583   8.446  0.0122  0.0536  0.3446
   66loPI   C1B 1053  15.183   5.027  10.379  0.1174  0.2705 -0.2953
   66loPI   C2B 1054  15.115   5.086  10.079 -0.1045 -0.1507 -0.0487
   66loPI   C3B 1055  14.920   5.140   9.714  0.0363  0.1431  0.1939
   66loPI   C4B 1056  15.034   5.240   9.324 -0.0026 -0.2173  0.0271
   67loPI    C1 1057   8.032  12.358  11.556  0.1950 -0.2415  0.2120
   67loPI    C2 1058   8.186  12.693  11.710  0.1324 -0.0621 -0.1062
   67loPI    C3 1059   8.117  12.378  11.946  0.0611  0.1947  0.2247
   67loPI   PO4 1060   8.126  12.371  11.309  0.2808 -0.0524 -0.1112
   67loPI   GL1 1061   8.308  12.552  10.950 -0.1387 -0.3078  0.3004
   67loPI   GL2 1062   8.023  12.698  10.853 -0.1035 -0.1080 -0.0103
   67loPI   C1A 1063   8.598  12.296  10.681 -0.0569  0.1007  0.1342
   67loPI   C2A 1064   8.760  12.192  10.342  0.0291  0.0956  0.0142
   67loPI   C3A 1065   8.689  12.083   9.931  0.2927  0.3982 -0.1928
   67loPI   C4A 1066   8.673  12.009   9.508  0.1370  0.2563  0.0167
   67loPI   C5A 1067   8.510  12.114   9.127 -0.1700  0.0469 -0.2773
   67loPI   C6A 1068   8.205  11.840   8.895 -0.3286  0.0294 -0.2105
   67loPI   C1B 1069   8.179  12.411  10.506  0.1832 -0.0555  0.4546
   67loPI   C2B 1070   8.326  12.369  10.053  0.1575 -0.3467  0.2648
   67loPI   C3B 1071   8.441  12.419   9.647 -0.1259  0.2368 -0.3321
   67loPI   C4B 1072   8.707  12.528   9.363  0.0413 -0.3120  0.1594
   68loPI    C1 1073   7.080  16.285  11.332 -0.0517  0.0572 -0.2463
   68loPI    C2 1074   6.893  15.932  11.319 -0.0144  0.0265  0.0038
   68loPI    C3 1075   7.092  16.041  11.648  0.0509  0.2426 -0.1052
   68loPI   PO4 1076   7.256  16.251  11.148 -0.1196 -0.1912  0.1940
   68loPI   GL1 1077   7.489  16.064  10.806  0.2669 -0.1045  0.2977
   68loPI   GL2 1078   7.619  15.778  10.850  0.1159  0.0163 -0.1151
   68loPI   C1A 1079   7.394  15.991  10.413 -0.0647  0.0469 -0.2072
   68loPI   C2A 1080   7.678  15.858  10.003  0.0074  0.0130 -0.2836
   68loPI   C3A 1081   7.766  15.905   9.531 -0.0471  0.0258  0.2292
   68loPI   C4A 1082   7.869  15.968   9.084 -0.2092 -0.1810  0.0745
   68loPI   C5A 1083   8.182  16.237   8.903 -0.0772 -0.1628 -0.2149
   68loPI   C6A 1084   8.227  16.697   9.021  0.2453 -0.1052 -0.0847
   68loPI   C1B 1085   7.813  15.716  10.472  0.3481  0.3585 -0.4105
   68loPI   C2B 1086   8.076  15.578  10.113  0.0342  0.2470 -0.4145
   68loPI   C3B 1087   7.975  15.467   9.780  0.0001  0.2262  0.1578
   68loPI   C4B 1088   8.186  15.596   9.393  0.0222  0.2415 -0.1609
   69loPI    C1 1089  12.259  11.321  11.891 -0.1135 -0.1456  0.0817
   69loPI    C2 1090  12.641  11.395  11.983 -0.1146  0.0149 -0.0389
   69loPI    C3 1091  12.503  11.020  11.990  0.1263 -0.0827 -0.2965
   69loPI   PO4 1092  12.257  11.410  11.620  0.0132 -0.0168  0.2752
   69loPI   GL1 1093  12.217  11.652  11.277  0.0839 -0.0326  0.0755
   69loPI   GL2 1094  12.515  11.435  11.214 -0.0194  0.0976  0.0510
   69loPI   C1A 1095  12.356  11.696  10.811  0.1470  0.1834  0.3734
   69loPI   C2A 1096  12.380  11.775  10.358  0.3254  0.0478 -0.0459
   69loPI   C3A 1097  12.424  11.596  10.061 -0.2025 -0.0233  0.2896
   69loPI   C4A 1098  12.389  11.675   9.704 -0.2299  0.1373 -0.1386
   69loPI   C5A 1099  12.426  11.663   9.265 -0.1635 -0.0441  0.1881
   69loPI   C6A 1100  12.705  11.527   8.954  0.0952 -0.0699  0.0944
   69loPI   C1B 1101  12.645  11.292  10.763  0.2116  0.3791 -0.1095
   69loPI   C2B 1102  12.679  11.314  10.343 -0.1375  0.1269 -0.4000
   69loPI   C3B 1103  12.793  11.258   9.863  0.1099  0.1691 -0.4253
   69loPI   C4B 1104  12.739  11.291   9.443 -0.0693  0.1447 -0.0052
   70loPI    C1 1105   7.444  10.128  11.457 -0.3197 -0.0779 -0.0756
   70loPI    C2 1106   7.075  10.264  11.532 -0.2388 -0.0053  0.2067
   70loPI    C3 1107   7.224   9.961  11.747 -0.1677 -0.0975  0.0300
   70loPI   PO4 1108   7.451  10.038  11.142  0.1061 -0.1339  0.2321
   70loPI   GL1 1109   7.388  10.176  10.767 -0.0430 -0.4020 -0.0259
   70loPI   GL2 1110   7.066  10.325  10.604  0.0265 -0.2668 -0.0302
   70loPI   C1A 1111   7.515  10.149  10.321 -0.2942  0.0121  0.0748
   70loPI   C2A 1112   7.438  10.064   9.959 -0.0006  0.2727  0.2170
   70loPI   C3A 1113   7.533  10.156   9.618 -0.2843 -0.2909  0.3321
   70loPI   C4A 1114   7.528  10.005   9.196 -0.1191 -0.2808 -0.0214
   70loPI   C5A 1115   7.500   9.779   8.923  0.0221  0.1583  0.0964
   70loPI   C6A 1116   7.864   9.519   8.757  0.0320  0.1671  0.0415
   70loPI   C1B 1117   7.084  10.354  10.222 -0.1646  0.1405 -0.0063
   70loPI   C2B 1118   7.106  10.400   9.814 -0.0774  0.0739 -0.0069
   70loPI   C3B 1119   7.117  10.375   9.342  0.2068 -0.1967  0.0792
   70loPI   C4B 1120   7.241  10.327   8.901  0.1086  0.2413  0.0762
   71loPI    C1 1121   5.349   1.918  11.232 -0.2033 -0.0111  0.2492
   71loPI    C2 1122   5.205   1.579  11.388  0.0510 -0.1239  0.2443
   71loPI    C3 1123   5.529   1.750  11.547 -0.0790  0.1224  0.2503
   71loPI   PO4 1124   5.371   1.930  10.993 -0.1620  0.2113  0.0253
   71loPI   GL1 1125   5.289   2.075  10.699 -0.0649  0.3949 -0.1304
   71loPI   GL2 1126   5.261   1.848  10.501 -0.1568  0.1767  0.0629
   71loPI   C1A 1127   5.023   2.222  10.273 -0.3335 -0.1456  0.1604
   71loPI   C2A 1128   5.168   2.304   9.791  0.2501 -0.0105 -0.0132
   71loPI   C3A 1129   5.213   2.306   9.338  0.3448 -0.1788  0.2493
   71loPI   C4A 1130   5.204   2.394   8.953 -0.4966  0.3088  0.0467
   71loPI   C5A 1131   5.326   2.637   8.759 -0.2732  0.1856 -0.2961
   71loPI   C6A 1132   5.522   2.950   8.801 -0.2837 -0.2573  0.0924
   71loPI   C1B 1133   5.440   1.864  10.051 -0.0901  0.0671 -0.0123
   71loPI   C2B 1134   5.411   1.886   9.589 -0.1974  0.3169 -0.0713
   71loPI   C3B 1135   5.498   1.949   9.193 -0.1643  0.1266  0.0298
   71loPI   C4B 1136   5.669   2.235   8.851  0.3652 -0.3915 -0.3613
   72loPI    C1 1137   6.420   8.893  11.213  0.1265 -0.1440 -0.1645
   72loPI    C2 1138   6.050   8.993  11.100  0.1386 -0.0000 -0.0789
   72loPI    C3 1139   6.141   8.970  11.489  0.2108 -0.0690 -0.0995
   72loPI   PO4 1140   6.553   8.983  10.953 -0.0745 -0.0741  0.3716
   72loPI   GL1 1141   6.646   8.988  10.477 -0.0123  0.1341 -0.0473
   72loPI   GL2 1142   6.580   8.705  10.481 -0.0386 -0.0967 -0.2603
   72loPI   C1A 1143   6.688   9.001  10.026 -0.1255 -0.0384  0.1692
   72loPI   C2A 1144   6.794   9.027   9.590 -0.0500 -0.0377 -0.2381
   72loPI   C3A 1145   6.672   9.131   9.185 -0.0604  0.0735  0.0143
   72loPI   C4A 1146   6.817   9.331   8.856  0.1509 -0.1295  0.1447
   72loPI   C5A 1147   7.141   9.413   8.662  0.0405 -0.2148  0.2709
   72loPI   C6A 1148   7.536   9.424   8.326 -0.0023  0.1828 -0.2413
   72loPI   C1B 1149   6.284   8.744  10.029 -0.1014  0.2591  0.1064
   72loPI   C2B 1150   6.308   8.899   9.629  0.0885 -0.1688  0.2725
   72loPI   C3B 1151   6.311   8.759   9.270 -0.1870  0.0013 -0.0154
   72loPI   C4B 1152   6.066   8.798   8.931  0.0062 -0.0016  0.0320
   73loPI    C1 1153  12.996  10.406  11.668 -0.4068 -0.2316 -0.0895
   73loPI    C2 1154  12.902  10.077  11.876 -0.1828 -0.1449  0.1547
   73loPI    C3 1155  13.137  10.357  12.039  0.0361 -0.0947 -0.2327
   73loPI   PO4 1156  12.738  10.424  11.459 -0.1480 -0.5064 -0.0370
   73loPI   GL1 1157  12.785  10.363  11.000  0.0292  0.0240 -0.3771
   73loPI   GL2 1158  13.021  10.173  11.088  0.0944  0.2018  0.1702
   73loPI   C1A 1159  12.806  10.429  10.572 -0.2994 -0.2061 -0.2530
   73loPI   C2A 1160  12.879  10.370  10.157 -0.1504  0.1088  0.0297
   73loPI   C3A 1161  12.913  10.353   9.694  0.1674  0.2168 -0.1727
   73loPI   C4A 1162  13.034  10.150   9.266 -0.3947  0.4478 -0.0635
   73loPI   C5A 1163  13.206   9.811   8.972 -0.1161  0.1161  0.0556
   73loPI   C6A 1164  12.996   9.519   8.751  0.0214 -0.2687  0.0179
   73loPI   C1B 1165  13.109   9.971  10.714  0.3154  0.0640 -0.1036
   73loPI   C2B 1166  13.179   9.914  10.272 -0.0680  0.2461  0.2128
   73loPI   C3B 1167  13.160   9.902   9.877 -0.1519 -0.2655  0.4228
   73loPI   C4B 1168  13.343   9.800   9.458  0.4266 -0.1267  0.3644
   74loPI    C1 1169   0.200  10.305  11.603 -0.2445 -0.0209  0.0044
   74loPI    C2 1170   0.534  10.114  11.711 -0.1697  0.0430 -0.1121
   74loPI    C3 1171   0.278  10.241  11.990 -0.1744 -0.1446 -0.0296
   74loPI   PO4 1172   0.187  10.563  11.342 -0.0776  0.0496 -0.0226
   74loPI   GL1 1173  -0.093  10.602  10.967 -0.0823 -0.0125  0.1198
   74loPI   GL2 1174   0.201  10.352  10.902 -0.1657 -0.2130 -0.0897
   74loPI   C1A 1175  -0.512  10.449  10.716  0.1417  0.4323 -0.0717
   74loPI   C2A 1176  -0.489  10.579  10.298 -0.2335 -0.1928  0.1231
   74loPI   C3A 1177  -0.361  10.650   9.825  0.1891 -0.1364 -0.0022
   74loPI   C4A 1178  -0.510  10.814   9.454  0.0665  0.3153 -0.0297
   74loPI   C5A 1179  -0.740  10.670   9.175 -0.0532  0.0786  0.1752
   74loPI   C6A 1180  -1.103  10.502   9.025  0.2584  0.1371  0.2043
   74loPI   C1B 1181   0.018  10.409  10.486 -0.1389  0.2800  0.1335
   74loPI   C2B 1182  -0.097  10.347  10.106  0.0975  0.1638 -0.3434
   74loPI   C3B 1183  -0.035  10.301   9.665  0.0244 -0.1660 -0.0829
   74loPI   C4B 1184   0.088  10.375   9.268 -0.0377 -0.0048 -0.0458
   75loPI    C1 1185   6.780   3.832  11.145 -0.2519  0.0261 -0.0759
   75loPI    C2 1186   6.791   3.907  11.538 -0.0787 -0.0829 -0.0588
   75loPI    C3 1187   6.461   3.753  11.372 -0.1703  0.0114  0.0346
   75loPI   PO4 1188   6.851   4.047  11.038 -0.0623 -0.1258  0.3091
   75loPI   GL1 1189   6.962   4.154  10.630  0.0595 -0.1567  0.0720
   75loPI   GL2 1190   7.077   4.024  10.361 -0.0765  0.0532 -0.0593
   75loPI   C1A 1191   6.709   4.352  10.307  0.1630 -0.0634  0.0378
   75loPI   C2A 1192   6.608   4.427   9.917  0.0531  0.0711 -0.5184
   75loPI   C3A 1193   6.525   4.586   9.514 -0.0901 -0.3555 -0.1721
   75loPI   C4A 1194   6.343   4.789   9.219  0.0597 -0.2424  0.1340
   75loPI   C5A 1195   6.012   4.626   8.923 -0.4243  0.3410 -0.0757
   75loPI   C6A 1196   5.610   4.752   8.939  0.0303 -0.1049 -0.1444
   75loPI   C1B 1197   6.956   4.045   9.954  0.0074  0.0535  0.3425
   75loPI   C2B 1198   6.952   4.016   9.463  0.1005 -0.1128 -0.1269
   75loPI   C3B 1199   6.931   3.864   9.066 -0.1280 -0.0620 -0.3037
   75loPI   C4B 1200   6.978   3.991   8.691  0.1578 -0.1801 -0.0098
   76loPI    C1 1201  10.929   6.465  11.765  0.4188 -0.2432  0.2293
   76loPI    C2 1202  11.037   6.673  12.089  0.3575 -0.0597  0.1332
   76loPI    C3 1203  10.675   6.503  12.072  0.1933  0.2948 -0.0124
   76loPI   PO4 1204  11.005   6.657  11.531  0.4237  0.0585 -0.0143
   76loPI   GL1 1205  11.240   6.618  11.121  0.1813 -0.2948 -0.0512
   76loPI   GL2 1206  11.252   6.322  10.957 -0.2965  0.1199 -0.1877
   76loPI   C1A 1207  11.210   6.700  10.590 -0.0425  0.1440 -0.4799
   76loPI   C2A 1208  11.085   6.712  10.254  0.0878 -0.1072  0.0973
   76loPI   C3A 1209  11.194   6.843   9.894 -0.1784 -0.1103 -0.1519
   76loPI   C4A 1210  11.144   6.864   9.475  0.0134 -0.1332 -0.0971
   76loPI   C5A 1211  11.210   6.791   8.983  0.0809 -0.1834  0.2325
   76loPI   C6A 1212  11.048   6.735   8.597 -0.1217  0.4268 -0.2113
   76loPI   C1B 1213  11.478   6.304  10.575 -0.1799 -0.1012 -0.3137
   76loPI   C2B 1214  11.491   6.451  10.170 -0.1052  0.3134  0.2123
   76loPI   C3B 1215  11.554   6.383   9.720  0.1411  0.2257 -0.0075
   76loPI   C4B 1216  11.415   6.449   9.342 -0.0457  0.1150 -0.1835
   77loPI    C1 1217  16.128  17.638  11.538  0.0310 -0.0060  0.1039
   77loPI    C2 1218  15.833  17.901  11.477  0.0562 -0.0338 -0.1485
   77loPI    C3 1219  16.164  18.014  11.671 -0.1000  0.0090  0.0986
   77loPI   PO4 1220  15.996  17.427  11.315  0.2983 -0.1389 -0.1478
   77loPI   GL1 1221  15.821  17.320  10.945  0.2088  0.1108 -0.0747
   77loPI   GL2 1222  15.495  17.390  10.976 -0.0678 -0.1218 -0.0097
   77loPI   C1A 1223  15.739  17.323  10.434 -0.2367  0.0796 -0.1680
   77loPI   C2A 1224  15.661  17.217   9.939  0.1800  0.4195 -0.1189
   77loPI   C3A 1225  15.466  17.207   9.641 -0.3332 -0.1533 -0.0791
   77loPI   C4A 1226  15.311  17.378   9.277  0.3785 -0.1543  0.1508
   77loPI   C5A 1227  15.507  17.839   9.068  0.0475  0.0938 -0.2663
   77loPI   C6A 1228  15.603  18.248   8.833  0.0126 -0.1499  0.4091
   77loPI   C1B 1229  15.386  17.169  10.704  0.1111 -0.2721 -0.2211
   77loPI   C2B 1230  15.044  17.159  10.348  0.2766  0.1801  0.0790
   77loPI   C3B 1231  15.022  17.067   9.937  0.2315 -0.3818  0.0521
   77loPI   C4B 1232  14.937  17.140   9.530 -0.1232  0.1860 -0.0313
   78loPI    C1 1233   1.004  13.537  11.367 -0.2268 -0.0717  0.2007
   78loPI    C2 1234   0.917  13.645  11.743 -0.0347  0.0787  0.2035
   78loPI    C3 1235   1.155  13.331  11.675 -0.0530  0.0639  0.2077
   78loPI   PO4 1236   0.873  13.547  11.222  0.1292  0.1106  0.0210
   78loPI   GL1 1237   0.741  13.410  10.886 -0.3575 -0.0505  0.0953
   78loPI   GL2 1238   0.477  13.213  10.854 -0.0263  0.2300 -0.3145
   78loPI   C1A 1239   0.956  13.432  10.553  0.0233 -0.1311  0.0520
   78loPI   C2A 1240   1.004  13.432  10.114  0.1593 -0.0803  0.0618
   78loPI   C3A 1241   0.960  13.502   9.643  0.1197  0.0574  0.0767
   78loPI   C4A 1242   0.800  13.662   9.309 -0.0926  0.0393  0.0440
   78loPI   C5A 1243   0.841  13.856   8.918 -0.4291  0.0623 -0.0663
   78loPI   C6A 1244   0.627  13.741   8.442 -0.3176  0.3133 -0.0407
   78loPI   C1B 1245   0.556  13.188  10.354  0.0410 -0.1057  0.1745
   78loPI   C2B 1246   0.569  13.253   9.883  0.0840  0.2616  0.1570
   78loPI   C3B 1247   0.423  13.333   9.508 -0.4108  0.0081  0.1188
   78loPI   C4B 1248   0.318  13.380   9.114  0.0886 -0.0266 -0.1682
   79loPI    C1 1249   0.891   7.897  11.113 -0.1572 -0.1749  0.2900
   79loPI    C2 1250   0.783   8.008  11.481  0.1018  0.0344  0.3066
   79loPI    C3 1251   1.163   7.911  11.406  0.1407  0.3991  0.0041
   79loPI   PO4 1252   0.721   7.744  10.995 -0.1637  0.2527  0.0309
   79loPI   GL1 1253   0.548   7.565  10.721  0.1370  0.0396 -0.0851
   79loPI   GL2 1254   0.274   7.512  10.606  0.1015 -0.2616  0.0991
   79loPI   C1A 1255   0.602   7.678  10.322 -0.1968  0.1970 -0.2941
   79loPI   C2A 1256   0.563   7.686   9.950  0.1119 -0.1034  0.4438
   79loPI   C3A 1257   0.605   7.704   9.560 -0.1522  0.1358  0.1831
   79loPI   C4A 1258   0.575   7.665   9.201 -0.2079 -0.2801 -0.0049
   79loPI   C5A 1259   0.759   7.679   8.865  0.1386 -0.0650 -0.0422
   79loPI   C6A 1260   0.671   7.390   8.602 -0.0093 -0.0750  0.0331
   79loPI   C1B 1261   0.107   7.621  10.199  0.2420 -0.0007  0.1409
   79loPI   C2B 1262   0.166   7.532   9.683 -0.1908 -0.0662 -0.3199
   79loPI   C3B 1263   0.091   7.415   9.241 -0.0076 -0.1661  0.1484
   79loPI   C4B 1264   0.230   7.571   8.825 -0.0304 -0.0617  0.1195
   80loPI    C1 1265   0.480  12.940  11.420 -0.0420 -0.0122  0.3158
   80loPI    C2 1266   0.431  13.313  11.283  0.1848 -0.1790 -0.2471
   80loPI    C3 1267   0.645  13.249  11.615  0.0446  0.1964 -0.0780
   80loPI   PO4 1268   0.496  12.763  11.126  0.0014 -0.0828 -0.0387
   80loPI   GL1 1269   0.288  12.476  10.937  0.0656 -0.0550  0.3530
   80loPI   GL2 1270   0.148  12.411  11.176 -0.0680 -0.1848 -0.0212
   80loPI   C1A 1271   0.224  12.389  10.472  0.0660  0.3286  0.3899
   80loPI   C2A 1272   0.170  12.347  10.041 -0.0528  0.1310  0.2551
   80loPI   C3A 1273   0.276  12.477   9.640 -0.2857  0.0028 -0.1741
   80loPI   C4A 1274   0.363  12.400   9.211  0.0849 -0.0798  0.0547
   80loPI   C5A 1275   0.544  12.572   8.890  0.1354 -0.1920  0.0861
   80loPI   C6A 1276   0.924  12.759   9.032 -0.2168  0.1525 -0.1016
   80loPI   C1B 1277  -0.215  12.537  10.829 -0.0502  0.1159  0.5640
   80loPI   C2B 1278  -0.233  12.605  10.516 -0.0821 -0.1844  0.0230
   80loPI   C3B 1279  -0.288  12.518  10.061  0.1725  0.1032  0.1322
   80loPI   C4B 1280  -0.256  12.577   9.601  0.3143  0.1014  0.2523
   81loPI    C1 1281  15.322   6.328  11.795 -0.0777 -0.0969  0.0931
   81loPI    C2 1282  14.983   6.118  11.825 -0.0157 -0.2215 -0.0650
   81loPI    C3 1283  15.337   5.931  11.841  0.0428 -0.1113 -0.0611
   81loPI   PO4 1284  15.328   6.490  11.588 -0.0155 -0.2779  0.1856
   81loPI   GL1 1285  15.380   6.467  11.206  0.0425  0.0694  0.0028
   81loPI   GL2 1286  15.583   6.362  11.002 -0.2964 -0.2474 -0.2416
   81loPI   C1A 1287  15.105   6.434  10.844 -0.1907 -0.0931  0.2029
   81loPI   C2A 1288  15.060   6.449  10.332  0.1120 -0.0754 -0.0681
   81loPI   C3A 1289  14.959   6.590  10.004 -0.2755  0.1025 -0.1587
   81loPI   C4A 1290  14.885   6.589   9.641 -0.1147 -0.0899 -0.0292
   81loPI   C5A 1291  14.982   6.588   9.090  0.0432 -0.1522  0.1807
   81loPI   C6A 1292  14.871   6.436   8.573 -0.0075 -0.1091 -0.0195
   81loPI   C1B 1293  15.479   6.609  10.511  0.0826 -0.1099 -0.1993
   81loPI   C2B 1294  15.515   6.533  10.096  0.1142 -0.3327  0.0441
   81loPI   C3B 1295  15.553   6.689   9.726 -0.0098  0.4863  0.2038
   81loPI   C4B 1296  15.492   6.781   9.251 -0.2909  0.0134 -0.1884
   82loPI    C1 1297   1.505  13.744  11.465  0.1892  0.0211 -0.2157
   82loPI    C2 1298   1.660  13.403  11.604 -0.0728  0.0743  0.2286
   82loPI    C3 1299   1.458  13.405  11.259 -0.0333 -0.2095  0.2011
   82loPI   PO4 1300   1.648  13.875  11.394  0.1423  0.0365 -0.2070
   82loPI   GL1 1301   1.512  14.074  11.026  0.1677  0.0048  0.6158
   82loPI   GL2 1302   1.321  14.235  10.954 -0.0388 -0.0781 -0.2898
   82loPI   C1A 1303   1.687  13.895  10.578  0.3599 -0.2963  0.1036
   82loPI   C2A 1304   1.708  13.817  10.149  0.0733  0.2112 -0.0441
   82loPI   C3A 1305   1.929  13.875   9.798  0.2958 -0.0109 -0.2201
   82loPI   C4A 1306   1.989  13.875   9.356 -0.0640  0.0427 -0.0174
   82loPI   C5A 1307   2.153  13.795   8.936  0.1737  0.2675  0.2823
   82loPI   C6A 1308   2.560  13.982   8.725  0.0451  0.3416 -0.3114
   82loPI   C1B 1309   1.209  14.093  10.537 -0.2201  0.1847  0.0216
   82loPI   C2B 1310   1.167  13.844  10.316  0.1297 -0.0239  0.0303
   82loPI   C3B 1311   1.300  13.904   9.965  0.0178  0.2452 -0.2763
   82loPI   C4B 1312   1.469  13.829   9.514 -0.2022 -0.0083 -0.1914
   83loPI    C1 1313  15.883  13.308  12.416  0.1117 -0.1518 -0.1518
   83loPI    C2 1314  16.134  12.996  12.423  0.3852  0.0689  0.3008
   83loPI    C3 1315  16.199  13.311  12.661 -0.0257  0.3681  0.0307
   83loPI   PO4 1316  15.831  13.297  12.107  0.1135  0.2842  0.0378
   83loPI   GL1 1317  15.576  13.133  11.733 -0.2896  0.0069  0.2485
   83loPI   GL2 1318  15.758  12.905  11.619 -0.2564  0.1269 -0.2262
   83loPI   C1A 1319  15.365  13.278  11.365  0.0961 -0.0936  0.0345
   83loPI   C2A 1320  15.259  13.180  10.903  0.2987  0.1578 -0.2135
   83loPI   C3A 1321  15.307  13.163  10.459 -0.0195 -0.1746 -0.0845
   83loPI   C4A 1322  15.326  13.024  10.051  0.0625 -0.0427  0.0304
   83loPI   C5A 1323  15.386  13.202   9.611 -0.4428  0.2629 -0.2279
   83loPI   C6A 1324  15.514  13.553   9.483 -0.2909 -0.1940 -0.1747
   83loPI   C1B 1325  15.803  13.106  11.208  0.1708 -0.1396  0.1054
   83loPI   C2B 1326  15.828  13.147  10.724 -0.1490 -0.1073 -0.1017
   83loPI   C3B 1327  15.810  13.198  10.348 -0.1308 -0.2545  0.1251
   83loPI   C4B 1328  15.832  13.146   9.917  0.0753  0.0120 -0.0406
   84loPI    C1 1329  11.527  16.110  11.557 -0.1242 -0.0687  0.0948
   84loPI    C2 1330  11.311  16.445  11.584  0.0692  0.0473  0.2360
   84loPI    C3 1331  11.477  16.288  11.912  0.1778 -0.0546  0.1332
   84loPI   PO4 1332  11.593  16.095  11.338 -0.1490  0.2262  0.1635
   84loPI   GL1 1333  11.700  15.934  10.973 -0.0683 -0.2868  0.3117
   84loPI   GL2 1334  11.778  15.678  11.091  0.3274 -0.0771  0.2109
   84loPI   C1A 1335  11.953  15.748  10.581  0.3097  0.1834  0.1437
   84loPI   C2A 1336  11.921  15.723  10.089  0.0440 -0.0577 -0.1751
   84loPI   C3A 1337  11.988  15.690   9.623  0.0391 -0.2130  0.2410
   84loPI   C4A 1338  11.838  15.603   9.157  0.0023 -0.1219 -0.2966
   84loPI   C5A 1339  12.032  15.836   8.818  0.1038  0.2173 -0.0468
   84loPI   C6A 1340  12.032  15.850   8.403  0.1329 -0.3552 -0.0419
   84loPI   C1B 1341  11.747  15.360  10.830  0.2008  0.2881  0.1064
   84loPI   C2B 1342  11.770  15.218  10.453 -0.0387 -0.0029 -0.0809
   84loPI   C3B 1343  11.782  15.218   9.990  0.1568 -0.0625  0.0647
   84loPI   C4B 1344  11.802  15.214   9.491  0.0761  0.0727 -0.3941
   85loPI    C1 1345   7.727   1.658  11.253  0.1315  0.0697  0.1793
   85loPI    C2 1346   8.036   1.441  11.383  0.0144 -0.1600  0.0815
   85loPI    C3 1347   7.684   1.419  11.571 -0.0632 -0.2372 -0.0714
   85loPI   PO4 1348   7.785   1.556  10.945  0.0419  0.0642 -0.0678
   85loPI   GL1 1349   7.567   1.721  10.511 -0.0278  0.0612  0.0181
   85loPI   GL2 1350   7.983   1.847  10.583 -0.3584 -0.0976  0.1063
   85loPI   C1A 1351   7.250   1.826  10.279 -0.1465 -0.1464  0.0419
   85loPI   C2A 1352   6.995   1.792   9.924  0.0024 -0.0082 -0.0116
   85loPI   C3A 1353   6.978   1.708   9.522 -0.1097 -0.1499  0.1014
   85loPI   C4A 1354   7.064   1.768   9.099  0.3751  0.2786 -0.0471
   85loPI   C5A 1355   7.060   1.575   8.681 -0.3362  0.1866  0.0684
   85loPI   C6A 1356   6.916   1.627   8.298  0.3413  0.3579  0.0794
   85loPI   C1B 1357   8.085   1.910  10.210 -0.1991 -0.2114 -0.0325
   85loPI   C2B 1358   8.119   2.017   9.750 -0.0454  0.3454 -0.1418
   85loPI   C3B 1359   8.277   2.088   9.355  0.0627  0.0252 -0.2707
   85loPI   C4B 1360   8.650   2.088   9.033  0.3406 -0.1028 -0.3130
   86loPI    C1 1361  10.892  12.128  11.933  0.1778 -0.2777  0.2074
   86loPI    C2 1362  10.699  12.476  11.972  0.0539 -0.3108 -0.0885
   86loPI    C3 1363  10.723  12.226  12.283  0.2079 -0.0086  0.1484
   86loPI   PO4 1364  10.828  11.995  11.642 -0.3448  0.2938 -0.0739
   86loPI   GL1 1365  10.850  11.932  11.217 -0.1194 -0.0349 -0.0615
   86loPI   GL2 1366  10.660  11.720  11.100  0.0939 -0.0929  0.0463
   86loPI   C1A 1367  10.966  11.987  10.810  0.0702 -0.0402  0.0383
   86loPI   C2A 1368  11.066  11.855  10.433  0.0700 -0.3925 -0.0232
   86loPI   C3A 1369  11.169  11.850  10.030  0.0923  0.0085  0.0405
   86loPI   C4A 1370  11.094  11.874   9.665 -0.0506  0.1107  0.1627
   86loPI   C5A 1371  11.113  12.032   9.204 -0.0686  0.1120 -0.2425
   86loPI   C6A 1372  11.341  12.030   8.867 -0.1210 -0.1305  0.2571
   86loPI   C1B 1373  10.809  11.397  10.653  0.0285  0.1535 -0.4026
   86loPI   C2B 1374  10.943  11.389  10.240  0.0204  0.0581 -0.0364
   86loPI   C3B 1375  10.877  11.369   9.916 -0.1073  0.0361 -0.0146
   86loPI   C4B 1376  10.932  11.323   9.495  0.1784 -0.3653  0.2377
   87loPI    C1 1377  16.918  12.341  11.832 -0.0290  0.0776  0.2166
   87loPI    C2 1378  16.569  12.526  11.891 -0.0579  0.0267  0.2062
   87loPI    C3 1379  16.743  12.329  12.192 -0.0538  0.0254  0.2031
   87loPI   PO4 1380  16.927  12.248  11.513 -0.0096  0.2709 -0.0412
   87loPI   GL1 1381  16.859  12.265  11.129 -0.0101  0.0281  0.2611
   87loPI   GL2 1382  16.974  11.933  11.091 -0.0502 -0.1160  0.0458
   87loPI   C1A 1383  16.989  12.363  10.720  0.0058 -0.0937  0.0187
   87loPI   C2A 1384  16.906  12.435  10.229 -0.2555 -0.2095 -0.1120
   87loPI   C3A 1385  16.982  12.371   9.835 -0.2352  0.0755 -0.0657
   87loPI   C4A 1386  16.911  12.417   9.431  0.1875 -0.1475 -0.0722
   87loPI   C5A 1387  16.884  12.806   9.142  0.0840 -0.3394 -0.2005
   87loPI   C6A 1388  16.590  12.988   8.786 -0.1958 -0.0470  0.0732
   87loPI   C1B 1389  16.950  11.890  10.750  0.2295  0.0045  0.2594
   87loPI   C2B 1390  16.770  11.995  10.323  0.0464  0.2470 -0.1331
   87loPI   C3B 1391  16.689  11.907   9.878 -0.3330 -0.1473 -0.1252
   87loPI   C4B 1392  16.815  11.899   9.464 -0.1613 -0.4171 -0.0798
   88loPI    C1 1393   0.636   7.325  11.222  0.1157  0.0995  0.0643
   88loPI    C2 1394   0.382   7.354  11.529  0.0115  0.1412 -0.0249
   88loPI    C3 1395   0.758   7.483  11.568  0.0809 -0.1117  0.1746
   88loPI   PO4 1396   0.475   7.214  11.060 -0.0139  0.0720 -0.2189
   88loPI   GL1 1397   0.567   7.043  10.689 -0.1919  0.0454 -0.0551
   88loPI   GL2 1398   0.763   6.837  10.566  0.0057  0.0626 -0.1600
   88loPI   C1A 1399   0.445   7.168  10.298 -0.1073 -0.2066  0.2632
   88loPI   C2A 1400   0.454   7.146   9.895 -0.0103 -0.2125 -0.1493
   88loPI   C3A 1401   0.526   7.141   9.424  0.1434  0.1139 -0.2217
   88loPI   C4A 1402   0.504   7.139   8.988 -0.1979 -0.0641 -0.1424
   88loPI   C5A 1403   0.418   6.827   8.669  0.1963 -0.0561 -0.2933
   88loPI   C6A 1404   0.682   6.806   8.317  0.1961 -0.4584  0.1733
   88loPI   C1B 1405   0.806   6.790  10.053  0.4855  0.3674  0.4433
   88loPI   C2B 1406   0.852   6.784   9.640 -0.0065  0.0770  0.2258
   88loPI   C3B 1407   0.909   6.867   9.200 -0.0445  0.0030  0.4539
   88loPI   C4B 1408   0.875   6.937   8.793  0.2260  0.1183  0.4242
   89loPI    C1 1409  14.552   6.351  11.519  0.0302 -0.1137 -0.0585
   89loPI    C2 1410  14.315   6.142  11.764  0.0493 -0.1001 -0.0282
   89loPI    C3 1411  14.547   5.952  11.498  0.0308 -0.1150 -0.0337
   89loPI   PO4 1412  14.352   6.553  11.374  0.1056 -0.0178 -0.2387
   89loPI   GL1 1413  14.083   6.590  10.995 -0.4192  0.0929 -0.2470
   89loPI   GL2 1414  14.168   6.317  10.823 -0.1064 -0.0433  0.0895
   89loPI   C1A 1415  13.983   6.924  10.768 -0.0421 -0.0030 -0.1504
   89loPI   C2A 1416  14.121   6.956  10.382  0.2049  0.2283  0.2880
   89loPI   C3A 1417  14.089   6.951   9.950 -0.2919 -0.1002  0.2171
   89loPI   C4A 1418  14.132   6.917   9.468  0.1964 -0.0493  0.2712
   89loPI   C5A 1419  14.224   6.873   9.105 -0.1131 -0.1046 -0.1035
   89loPI   C6A 1420  14.602   6.813   8.817 -0.0629  0.0979  0.4248
   89loPI   C1B 1421  14.128   6.439  10.482 -0.3773 -0.0897 -0.1092
   89loPI   C2B 1422  13.991   6.428  10.071 -0.2919 -0.0435  0.1044
   89loPI   C3B 1423  13.970   6.389   9.646  0.0593  0.2420  0.2735
   89loPI   C4B 1424  13.921   6.454   9.184  0.0483 -0.0233  0.2000
   90loPI    C1 1425  15.230  14.291  12.043  0.1309  0.0692  0.0817
   90loPI    C2 1426  14.935  14.345  12.306 -0.1862 -0.2596 -0.1963
   90loPI    C3 1427  14.938  14.553  11.964 -0.0639 -0.2160 -0.1690
   90loPI   PO4 1428  15.218  14.036  11.950 -0.1102 -0.0498  0.0129
   90loPI   GL1 1429  15.326  14.013  11.510 -0.0531  0.0045 -0.0044
   90loPI   GL2 1430  15.207  14.323  11.479 -0.0042  0.0762 -0.0243
   90loPI   C1A 1431  15.173  13.757  11.119 -0.1014  0.0348 -0.1393
   90loPI   C2A 1432  14.924  13.547  10.744  0.1577 -0.3054  0.0193
   90loPI   C3A 1433  14.982  13.504  10.225 -0.0324 -0.2028  0.1480
   90loPI   C4A 1434  14.988  13.450   9.798 -0.1836  0.1394 -0.1054
   90loPI   C5A 1435  15.033  13.578   9.283  0.1030 -0.0218 -0.0686
   90loPI   C6A 1436  15.218  13.311   8.940  0.0187  0.1305  0.0614
   90loPI   C1B 1437  15.093  14.211  11.084  0.2148 -0.2443  0.0159
   90loPI   C2B 1438  15.148  14.038  10.675 -0.0869 -0.2069 -0.0021
   90loPI   C3B 1439  15.124  13.970  10.251  0.1568  0.1038 -0.0315
   90loPI   C4B 1440  15.189  13.879   9.730 -0.1511 -0.1863 -0.1255
   91loPI    C1 1441   9.191   3.284  10.980  0.1292  0.0083  0.0353
   91loPI    C2 1442   9.477   3.462  11.197 -0.1898  0.2860  0.2387
   91loPI    C3 1443   9.137   3.344  11.372 -0.2502  0.0612 -0.0214
   91loPI   PO4 1444   9.220   3.334  10.807 -0.0330 -0.2349  0.1922
   91loPI   GL1 1445   9.456   3.271  10.484 -0.1664  0.1548 -0.1444
   91loPI   GL2 1446   9.809   3.280  10.446  0.0142  0.2562 -0.1642
   91loPI   C1A 1447   9.608   3.704  10.307  0.2991 -0.0415  0.1518
   91loPI   C2A 1448   9.649   3.736   9.812 -0.2390  0.1993 -0.1763
   91loPI   C3A 1449   9.634   3.722   9.381 -0.1776 -0.0685 -0.0134
   91loPI   C4A 1450   9.786   3.722   8.911  0.2809  0.1824 -0.1539
   91loPI   C5A 1451   9.737   3.421   8.616  0.1269  0.0900  0.0185
   91loPI   C6A 1452   9.679   3.000   8.621  0.2334  0.0111 -0.2038
   91loPI   C1B 1453   9.807   3.294   9.998  0.0042  0.4820  0.1773
   91loPI   C2B 1454   9.956   3.304   9.471  0.0977  0.1516 -0.1590
   91loPI   C3B 1455  10.168   3.478   9.204 -0.1250  0.3150  0.2521
   91loPI   C4B 1456  10.297   3.831   9.174 -0.0747 -0.0681  0.1777
   92loPI    C1 1457   1.841   8.197  11.222 -0.0194 -0.1263 -0.1090
   92loPI    C2 1458   1.678   7.839  11.289 -0.0135 -0.1183 -0.0508
   92loPI    C3 1459   1.947   7.986  11.545  0.0546 -0.1136 -0.1247
   92loPI   PO4 1460   1.901   8.192  10.979  0.1724 -0.3497  0.3328
   92loPI   GL1 1461   1.663   8.022  10.639 -0.2466  0.0426 -0.3381
   92loPI   GL2 1462   1.998   7.997  10.475  0.0226 -0.4596  0.0654
   92loPI   C1A 1463   1.291   8.049  10.255 -0.1032 -0.3876  0.3374
   92loPI   C2A 1464   1.296   8.169   9.886  0.0030  0.0822 -0.0388
   92loPI   C3A 1465   1.349   8.205   9.477  0.1561 -0.0315  0.0768
   92loPI   C4A 1466   1.324   8.370   9.095 -0.1003 -0.0140 -0.4608
   92loPI   C5A 1467   1.037   8.582   8.803  0.1812  0.0050  0.0294
   92loPI   C6A 1468   0.849   8.869   8.576  0.2055  0.0687  0.1759
   92loPI   C1B 1469   1.786   7.913  10.089 -0.2228 -0.3045  0.1601
   92loPI   C2B 1470   1.684   7.861   9.714  0.0605  0.2473  0.3619
   92loPI   C3B 1471   1.588   7.816   9.231  0.2513 -0.3690 -0.2561
   92loPI   C4B 1472   1.544   7.852   8.675  0.0584 -0.0136  0.0747
   93loPI    C1 1473  13.376   3.677  11.307  0.1210 -0.0772 -0.0313
   93loPI    C2 1474  12.995   3.576  11.240  0.1522 -0.1763 -0.0604
   93loPI    C3 1475  13.101   3.733  11.592  0.0180  0.1928 -0.1793
   93loPI   PO4 1476  13.475   3.831  11.198 -0.0122  0.0581 -0.1468
   93loPI   GL1 1477  13.627   3.811  10.798  0.0782 -0.0873 -0.0511
   93loPI   GL2 1478  13.383   3.487  10.824 -0.1382  0.0624 -0.2396
   93loPI   C1A 1479  13.631   4.022  10.395 -0.0400 -0.2005 -0.2258
   93loPI   C2A 1480  13.598   3.983   9.876  0.1129 -0.0143 -0.0503
   93loPI   C3A 1481  13.635   3.932   9.368  0.1253 -0.0941  0.1324
   93loPI   C4A 1482  13.654   3.789   8.916  0.0929  0.3163  0.2566
   93loPI   C5A 1483  13.487   3.903   8.507 -0.1234 -0.1524  0.0781
   93loPI   C6A 1484  13.774   3.941   8.203  0.2349 -0.0963 -0.2567
   93loPI   C1B 1485  13.464   3.346  10.358  0.1092  0.1451  0.0148
   93loPI   C2B 1486  13.440   3.420   9.999 -0.1671  0.2365  0.1276
   93loPI   C3B 1487  13.371   3.609   9.663 -0.0078  0.2053  0.1829
   93loPI   C4B 1488  13.385   3.402   9.177 -0.4238 -0.1141  0.3395
   94loPI    C1 1489  13.944   2.566  11.095  0.2297  0.2522 -0.0196
   94loPI    C2 1490  13.802   2.540  11.468  0.1740 -0.2610 -0.0694
   94loPI    C3 1491  14.196   2.560  11.405  0.1849 -0.2069  0.0152
   94loPI   PO4 1492  13.922   2.355  10.984 -0.0045  0.3498  0.0557
   94loPI   GL1 1493  14.096   2.260  10.611 -0.0621 -0.2699  0.3139
   94loPI   GL2 1494  14.087   2.632  10.561 -0.0019 -0.0573  0.1451
   94loPI   C1A 1495  13.962   2.187  10.260  0.1613 -0.0607  0.2874
   94loPI   C2A 1496  13.926   2.174   9.858  0.0220  0.0215  0.0237
   94loPI   C3A 1497  14.033   2.142   9.425  0.3313 -0.0331 -0.1106
   94loPI   C4A 1498  14.133   1.984   8.915 -0.2925 -0.1667 -0.2108
   94loPI   C5A 1499  13.821   2.218   8.628  0.1595 -0.0571  0.1151
   94loPI   C6A 1500  13.849   2.524   8.354  0.0792 -0.1142 -0.0081
   94loPI   C1B 1501  14.191   2.613  10.154  0.0628 -0.0653  0.2839
   94loPI   C2B 1502  14.130   2.632   9.652  0.0286  0.1979  0.0541
   94loPI   C3B 1503  14.135   2.630   9.221 -0.3414  0.0006 -0.2332
   94loPI   C4B 1504  14.274   2.437   8.835  0.0345  0.2353  0.1090
   95loPI    C1 1505  16.576   5.855  11.390 -0.0764  0.2387 -0.2054
   95loPI    C2 1506  16.564   5.667  11.743  0.2058  0.0125 -0.3121
   95loPI    C3 1507  16.615   6.064  11.729  0.2151  0.0198 -0.0999
   95loPI   PO4 1508  16.569   5.704  11.224 -0.3697  0.1881 -0.1740
   95loPI   GL1 1509  16.766   5.546  10.949  0.2329 -0.3080 -0.1762
   95loPI   GL2 1510  16.796   5.776  10.720  0.3149 -0.0031 -0.0204
   95loPI   C1A 1511  16.657   5.368  10.529 -0.1378  0.0137 -0.2041
   95loPI   C2A 1512  16.566   5.498  10.150 -0.2703  0.1885  0.2950
   95loPI   C3A 1513  16.748   5.516   9.754  0.1676  0.0470 -0.0420
   95loPI   C4A 1514  16.558   5.417   9.353 -0.1053 -0.2504  0.2826
   95loPI   C5A 1515  16.581   5.696   8.885 -0.3605 -0.1109  0.0731
   95loPI   C6A 1516  16.447   5.704   8.550 -0.0845 -0.2048 -0.1294
   95loPI   C1B 1517  16.890   5.858  10.294  0.0232 -0.0362  0.0285
   95loPI   C2B 1518  16.771   5.972   9.954  0.0520 -0.1152  0.0184
   95loPI   C3B 1519  16.868   5.968   9.538 -0.0753  0.0933  0.0506
   95loPI   C4B 1520  16.753   6.065   9.130 -0.0867  0.2417 -0.1685
   96loPI    C1 1521  16.560  10.040  11.896  0.2560  0.1554 -0.1727
   96loPI    C2 1522  16.957  10.029  11.945  0.2621  0.1466 -0.2244
   96loPI    C3 1523  16.772  10.379  11.892  0.2392  0.1684 -0.0053
   96loPI   PO4 1524  16.550   9.801  11.700 -0.0968 -0.1455 -0.2658
   96loPI   GL1 1525  16.411   9.770  11.295  0.0029  0.3832 -0.0502
   96loPI   GL2 1526  16.715   9.496  11.284 -0.0033  0.0965 -0.0790
   96loPI   C1A 1527  16.221   9.815  10.924 -0.1541 -0.0545  0.0868
   96loPI   C2A 1528  16.236  10.012  10.522  0.1423  0.1869  0.1283
   96loPI   C3A 1529  16.097   9.947  10.126 -0.0690  0.2790 -0.2777
   96loPI   C4A 1530  16.041   9.981   9.660 -0.0112 -0.0493  0.2264
   96loPI   C5A 1531  16.191  10.084   9.267  0.0590 -0.0104 -0.0902
   96loPI   C6A 1532  16.103  10.206   8.804 -0.1923  0.0403  0.0234
   96loPI   C1B 1533  16.576   9.518  10.843  0.3169  0.2578  0.0919
   96loPI   C2B 1534  16.451   9.488  10.375  0.0655 -0.0550  0.1636
   96loPI   C3B 1535  16.422   9.568   9.883  0.1342 -0.1674 -0.1077
   96loPI   C4B 1536  16.459   9.678   9.492  0.0434  0.1656 -0.0164
   97loPI    C1 1537   9.814   8.538  11.432  0.0621  0.0154  0.2643
   97loPI    C2 1538   9.557   8.765  11.638 -0.0360  0.0561  0.0988
   97loPI    C3 1539   9.552   8.367  11.682  0.0938  0.0798  0.3416
   97loPI   PO4 1540  10.025   8.825  11.340 -0.1068 -0.0729 -0.0641
   97loPI   GL1 1541   9.901   9.155  11.107  0.0761 -0.1622 -0.1497
   97loPI   GL2 1542  10.117   9.063  10.913  0.1464  0.3783  0.1396
   97loPI   C1A 1543   9.729   8.851  10.748  0.1327  0.0451 -0.0287
   97loPI   C2A 1544   9.922   8.889  10.413  0.2031  0.1973  0.3169
   97loPI   C3A 1545  10.016   8.873   9.865 -0.3219  0.0204 -0.2922
   97loPI   C4A 1546  10.024   8.929   9.411  0.1169 -0.1305 -0.2355
   97loPI   C5A 1547  10.311   9.142   9.022  0.0536  0.4470 -0.1708
   97loPI   C6A 1548  10.638   9.003   8.911  0.2381 -0.4152  0.0470
   97loPI   C1B 1549  10.408   9.014  10.516 -0.1979  0.2266 -0.2568
   97loPI   C2B 1550  10.455   8.851  10.234 -0.3771  0.1656 -0.1557
   97loPI   C3B 1551  10.495   9.007   9.800 -0.1291  0.2217  0.1579
   97loPI   C4B 1552  10.536   8.900   9.441  0.1869 -0.0552 -0.2331
   98loPI    C1 1553  11.200   7.500  11.180 -0.2912 -0.1267  0.0526
   98loPI    C2 1554  10.951   7.324  11.439  0.0436 -0.3129  0.2554
   98loPI    C3 1555  11.206   7.102  11.225 -0.1278 -0.1465 -0.1319
   98loPI   PO4 1556  10.989   7.654  11.004  0.1371  0.2372  0.2691
   98loPI   GL1 1557  10.890   7.765  10.617  0.1020  0.0527 -0.0359
   98loPI   GL2 1558  11.015   8.068  10.741  0.0039 -0.0571 -0.0794
   98loPI   C1A 1559  10.928   7.674  10.146  0.0220  0.0597  0.0673
   98loPI   C2A 1560  11.010   7.637   9.674 -0.1667 -0.1157  0.2043
   98loPI   C3A 1561  11.049   7.611   9.326 -0.1184 -0.0596 -0.0335
   98loPI   C4A 1562  11.085   7.653   9.002  0.2241  0.1096  0.2623
   98loPI   C5A 1563  11.463   7.742   8.660  0.0326 -0.1586 -0.0485
   98loPI   C6A 1564  11.802   7.995   8.666  0.0240  0.0150 -0.3809
   98loPI   C1B 1565  11.139   8.174  10.385 -0.2093 -0.2132 -0.0150
   98loPI   C2B 1566  11.149   8.241   9.909  0.1198 -0.0521  0.3418
   98loPI   C3B 1567  11.231   8.191   9.382  0.1757  0.0765 -0.3707
   98loPI   C4B 1568  11.230   8.115   8.983  0.2868 -0.0291  0.2403
   99loPI    C1 1569   8.767   5.206  10.887  0.3313 -0.4522  0.0010
   99loPI    C2 1570   8.528   5.202  11.208  0.0562 -0.0202 -0.1900
   99loPI    C3 1571   8.919   5.274  11.251  0.0449 -0.0989  0.0608
   99loPI   PO4 1572   8.678   4.990  10.796  0.2801  0.0907 -0.2105
   99loPI   GL1 1573   8.735   4.846  10.367  0.1733  0.0314  0.0930
   99loPI   GL2 1574   8.980   4.781  10.482 -0.1788  0.1742 -0.2308
   99loPI   C1A 1575   8.592   4.882   9.976 -0.1660 -0.0687 -0.2740
   99loPI   C2A 1576   8.653   4.866   9.563  0.1633 -0.1006  0.1570
   99loPI   C3A 1577   8.582   5.002   9.157 -0.1214 -0.1581 -0.2454
   99loPI   C4A 1578   8.578   4.888   8.705  0.0750  0.0275 -0.5864
   99loPI   C5A 1579   8.365   4.756   8.348  0.0379 -0.0115  0.0112
   99loPI   C6A 1580   8.197   4.484   8.117 -0.0555 -0.2239  0.1924
   99loPI   C1B 1581   9.074   4.899  10.006  0.1330 -0.0448 -0.0157
   99loPI   C2B 1582   9.157   4.998   9.531 -0.0089  0.1859  0.3489
   99loPI   C3B 1583   9.041   5.038   9.097 -0.0770  0.1656 -0.2149
   99loPI   C4B 1584   9.070   4.989   8.712 -0.2265 -0.2498 -0.1097
  100loPI    C1 1585  11.998  14.277  12.025  0.0017  0.0375 -0.1167
  100loPI    C2 1586  12.209  14.368  12.353  0.0949 -0.0316 -0.1571
  100loPI    C3 1587  11.885  14.582  12.258 -0.1223 -0.2128  0.1572
  100loPI   PO4 1588  12.069  14.315  11.827 -0.3514 -0.0356  0.1995
  100loPI   GL1 1589  12.090  14.248  11.352 -0.0202 -0.0675  0.1830
  100loPI   GL2 1590  11.798  14.287  11.275 -0.2699  0.0242 -0.3596
  100loPI   C1A 1591  12.282  14.034  10.987  0.2344  0.0926  0.2309
  100loPI   C2A 1592  12.231  14.012  10.476 -0.2896  0.2291  0.1504
  100loPI   C3A 1593  12.255  13.956  10.111 -0.0664 -0.0416 -0.1432
  100loPI   C4A 1594  12.342  13.828   9.701  0.1844  0.1529 -0.0934
  100loPI   C5A 1595  12.496  13.839   9.243  0.1518  0.1304  0.2102
  100loPI   C6A 1596  12.711  14.064   8.905 -0.1130 -0.2028 -0.4140
  100loPI   C1B 1597  11.942  14.434  10.896  0.2573 -0.1108 -0.0438
  100loPI   C2B 1598  11.950  14.387  10.424 -0.2219 -0.2482 -0.0197
  100loPI   C3B 1599  11.994  14.430  10.006 -0.1456 -0.3746 -0.2047
  100loPI   C4B 1600  12.016  14.304   9.573  0.1852  0.3059  0.1383
  101loPI    C1 1601   9.985  12.083  11.895 -0.1794 -0.0681  0.1621
  101loPI    C2 1602  10.376  12.088  11.812 -0.2299 -0.2975 -0.1044
  101loPI    C3 1603  10.239  12.269  12.141  0.0725 -0.0281 -0.1220
  101loPI   PO4 1604   9.955  12.122  11.597 -0.0173  0.3208 -0.0232
  101loPI   GL1 1605  10.251  12.001  11.319 -0.1160  0.4585 -0.0135
  101loPI   GL2 1606  10.427  12.245  11.273 -0.0991  0.1402 -0.0481
  101loPI   C1A 1607  10.222  11.877  10.863  0.1093  0.0861 -0.3492
  101loPI   C2A 1608  10.541  11.821  10.556 -0.1366  0.0922  0.1285
  101loPI   C3A 1609  10.598  11.778  10.145  0.0502  0.0779 -0.1589
  101loPI   C4A 1610  10.586  11.723   9.671 -0.3409  0.2362  0.2597
  101loPI   C5A 1611  10.578  11.739   9.217  0.1514  0.3906 -0.1147
  101loPI   C6A 1612  10.286  11.446   8.967 -0.1156 -0.1876 -0.1101
  101loPI   C1B 1613  10.581  12.345  10.769 -0.1403  0.0704 -0.2163
  101loPI   C2B 1614  10.691  12.270  10.296 -0.0372 -0.0446 -0.0172
  101loPI   C3B 1615  10.781  12.179   9.896 -0.0455 -0.1397 -0.2000
  101loPI   C4B 1616  10.764  12.255   9.417  0.0616  0.0790 -0.0495
  102loPI    C1 1617  13.734  11.984  11.723  0.1195  0.0340  0.2451
  102loPI    C2 1618  13.684  12.376  11.786  0.0104  0.0364  0.1478
  102loPI    C3 1619  13.949  12.170  12.004  0.1707  0.1923  0.1030
  102loPI   PO4 1620  13.897  11.932  11.517  0.0537 -0.2560  0.2075
  102loPI   GL1 1621  14.063  12.190  11.201  0.1444 -0.0247 -0.0012
  102loPI   GL2 1622  14.044  12.532  11.117 -0.0572 -0.0122  0.0944
  102loPI   C1A 1623  13.840  11.976  10.777 -0.2039  0.3511 -0.0299
  102loPI   C2A 1624  13.852  11.941  10.289  0.2158  0.0963  0.1873
  102loPI   C3A 1625  13.911  11.880   9.824  0.0340  0.1274  0.0869
  102loPI   C4A 1626  13.881  11.785   9.465  0.0418 -0.2687 -0.0926
  102loPI   C5A 1627  13.924  12.044   9.115  0.0486 -0.0399 -0.2189
  102loPI   C6A 1628  13.998  12.471   8.851  0.0809 -0.0650  0.1331
  102loPI   C1B 1629  14.022  12.439  10.633 -0.1045 -0.5333  0.1794
  102loPI   C2B 1630  14.089  12.328  10.197 -0.0673 -0.0992 -0.2087
  102loPI   C3B 1631  14.084  12.349   9.845  0.0632  0.2486  0.0401
  102loPI   C4B 1632  14.127  12.457   9.392 -0.2684  0.3223  0.2659
  103loPI    C1 1633   6.613   8.443  11.154 -0.0331 -0.1616 -0.1389
  103loPI    C2 1634   6.700   8.127  11.384 -0.0588  0.0361  0.1491
  103loPI    C3 1635   6.850   8.487  11.474 -0.1911  0.1455 -0.0597
  103loPI   PO4 1636   6.629   8.348  10.974  0.0095 -0.1248  0.4296
  103loPI   GL1 1637   7.037   8.297  10.683 -0.0814 -0.1714  0.2710
  103loPI   GL2 1638   7.046   8.649  10.455 -0.1836 -0.2263  0.1370
  103loPI   C1A 1639   7.016   8.132  10.261 -0.0182 -0.1084  0.2353
  103loPI   C2A 1640   7.174   8.184   9.918 -0.0525  0.0924  0.3512
  103loPI   C3A 1641   7.214   8.241   9.449  0.1362 -0.0523  0.0118
  103loPI   C4A 1642   7.244   8.384   9.100  0.0906 -0.0513  0.1216
  103loPI   C5A 1643   6.968   8.345   8.735 -0.1796 -0.1857  0.1368
  103loPI   C6A 1644   6.684   8.353   8.472  0.2188  0.0515  0.0724
  103loPI   C1B 1645   7.164   8.784  10.092  0.1939  0.4457  0.1013
  103loPI   C2B 1646   7.193   8.762   9.671  0.1821  0.0951 -0.0141
  103loPI   C3B 1647   7.198   8.783   9.362  0.2251 -0.1301  0.1952
  103loPI   C4B 1648   7.129   8.895   8.991  0.2388 -0.0106  0.0352
  104loPI    C1 1649  11.890   7.620  11.759  0.0338 -0.1532 -0.0148
  104loPI    C2 1650  12.106   7.759  12.067  0.0190  0.2031 -0.1607
  104loPI    C3 1651  11.717   7.850  12.037 -0.0070  0.0736 -0.2247
  104loPI   PO4 1652  12.083   7.661  11.475  0.0595  0.0763 -0.2258
  104loPI   GL1 1653  12.057   7.673  10.983  0.1578 -0.4265 -0.1470
  104loPI   GL2 1654  12.315   7.499  11.024 -0.0219 -0.1588  0.0467
  104loPI   C1A 1655  12.080   7.834  10.596  0.0337  0.0864  0.1516
  104loPI   C2A 1656  12.054   7.886  10.098 -0.3166  0.2275  0.0645
  104loPI   C3A 1657  12.023   7.866   9.547 -0.0279 -0.0016 -0.3899
  104loPI   C4A 1658  12.014   7.808   9.168  0.0299 -0.1490 -0.0313
  104loPI   C5A 1659  12.196   7.645   8.840 -0.2643 -0.1539 -0.0840
  104loPI   C6A 1660  12.373   7.288   8.851 -0.0266  0.0081  0.0639
  104loPI   C1B 1661  12.389   7.428  10.623 -0.0201 -0.1116 -0.0380
  104loPI   C2B 1662  12.310   7.483  10.307 -0.0455  0.3279 -0.1135
  104loPI   C3B 1663  12.335   7.515   9.794 -0.1500  0.1267  0.0071
  104loPI   C4B 1664  12.361   7.442   9.319 -0.2108 -0.3603  0.0907
  105loPI    C1 1665   8.116   7.432  10.787 -0.1823  0.0614 -0.1383
  105loPI    C2 1666   8.286   7.458  11.148  0.2071 -0.1684 -0.2991
  105loPI    C3 1667   7.936   7.268  11.104  0.1130 -0.0616 -0.0316
  105loPI   PO4 1668   8.322   7.331  10.631  0.5083  0.0099 -0.3921
  105loPI   GL1 1669   8.452   6.927  10.495 -0.3382 -0.0031 -0.0073
  105loPI   GL2 1670   8.761   6.655  10.577 -0.0990  0.0822  0.1783
  105loPI   C1A 1671   8.639   6.903  10.146 -0.0539 -0.0098 -0.0456
  105loPI   C2A 1672   8.741   6.778   9.765 -0.4115  0.2038 -0.0345
  105loPI   C3A 1673   8.778   6.842   9.294  0.1551  0.1810  0.0774
  105loPI   C4A 1674   8.816   6.764   8.830 -0.0052 -0.0842  0.0480
  105loPI   C5A 1675   8.931   6.934   8.508 -0.1653  0.0641  0.3924
  105loPI   C6A 1676   9.062   6.817   8.088 -0.1985  0.1709  0.1351
  105loPI   C1B 1677   8.849   6.458  10.260 -0.1306  0.2940 -0.0701
  105loPI   C2B 1678   9.039   6.358   9.976  0.0292 -0.3675 -0.1746
  105loPI   C3B 1679   9.104   6.359   9.527  0.0507 -0.2390  0.0658
  105loPI   C4B 1680   9.070   6.425   9.214  0.3203  0.0450  0.1548
  106loPI    C1 1681  12.467  14.815  11.864 -0.0887  0.2881 -0.1706
  106loPI    C2 1682  12.380  15.114  12.115 -0.0420  0.0974  0.0773
  106loPI    C3 1683  12.085  14.905  11.942 -0.0754  0.0818  0.1526
  106loPI   PO4 1684  12.651  14.994  11.663 -0.0803 -0.1660 -0.4202
  106loPI   GL1 1685  12.763  15.008  11.202  0.1102 -0.0258  0.3545
  106loPI   GL2 1686  12.398  15.044  11.172 -0.3450 -0.1441 -0.2160
  106loPI   C1A 1687  12.648  15.001  10.714  0.0585 -0.0490 -0.2138
  106loPI   C2A 1688  12.615  14.915  10.272 -0.0697 -0.1672  0.0979
  106loPI   C3A 1689  12.594  14.921   9.807  0.0608  0.1206  0.2076
  106loPI   C4A 1690  12.701  14.835   9.392 -0.0264  0.0170  0.0033
  106loPI   C5A 1691  12.828  14.851   8.973 -0.4976 -0.0171  0.0205
  106loPI   C6A 1692  12.645  15.149   8.717 -0.1180  0.0470  0.0570
  106loPI   C1B 1693  12.373  14.618  11.050 -0.2638 -0.2074 -0.2586
  106loPI   C2B 1694  12.409  14.417  10.639 -0.1445 -0.1129  0.1304
  106loPI   C3B 1695  12.446  14.407  10.204 -0.2606 -0.0058 -0.1610
  106loPI   C4B 1696  12.453  14.429   9.809  0.1712 -0.0177 -0.0524
  107loPI    C1 1697   2.712   3.501  11.318  0.1374  0.0426  0.1260
  107loPI    C2 1698   2.756   3.151  11.506 -0.0600  0.0869  0.2574
  107loPI    C3 1699   2.390   3.302  11.447 -0.0078  0.0388 -0.2299
  107loPI   PO4 1700   2.935   3.521  11.192 -0.1622  0.0515  0.0463
  107loPI   GL1 1701   3.007   3.698  10.706 -0.1810  0.1935 -0.1670
  107loPI   GL2 1702   2.775   3.573  10.569  0.1739 -0.3621 -0.2435
  107loPI   C1A 1703   3.132   3.803  10.304 -0.0843  0.1471 -0.0110
  107loPI   C2A 1704   3.030   3.749   9.829  0.1702 -0.0636 -0.1734
  107loPI   C3A 1705   2.886   3.639   9.464 -0.1233 -0.2653  0.3070
  107loPI   C4A 1706   3.075   3.582   9.131  0.1281  0.2384  0.0321
  107loPI   C5A 1707   3.234   3.490   8.703  0.2056 -0.0272  0.0716
  107loPI   C6A 1708   3.559   3.397   8.554 -0.2964  0.0599  0.0636
  107loPI   C1B 1709   2.673   3.544  10.171 -0.2644 -0.0718 -0.2122
  107loPI   C2B 1710   2.680   3.354   9.806  0.0788 -0.0507 -0.0892
  107loPI   C3B 1711   2.697   3.207   9.433 -0.1828  0.1950  0.4382
  107loPI   C4B 1712   2.809   3.108   8.996  0.2704 -0.1017  0.0962
  108loPI    C1 1713  12.284   4.654  11.412 -0.1012 -0.1152  0.1969
  108loPI    C2 1714  12.625   4.666  11.620  0.1267  0.2051 -0.1792
  108loPI    C3 1715  12.587   4.412  11.314 -0.1047 -0.0694  0.0705
  108loPI   PO4 1716  12.086   4.855  11.346 -0.1238  0.1681  0.3423
  108loPI   GL1 1717  11.803   4.938  11.082  0.0267  0.0568  0.0462
  108loPI   GL2 1718  11.907   4.589  10.946 -0.0880  0.1058  0.1080
  108loPI   C1A 1719  11.531   5.018  10.657 -0.1612 -0.0256  0.2372
  108loPI   C2A 1720  11.570   5.037  10.227  0.1764  0.0592 -0.0616
  108loPI   C3A 1721  11.617   5.018   9.750  0.1582  0.0651  0.0495
  108loPI   C4A 1722  11.604   4.981   9.257 -0.0309 -0.4493  0.0290
  108loPI   C5A 1723  11.726   5.103   8.934  0.1254 -0.1962  0.2173
  108loPI   C6A 1724  11.827   5.371   8.480 -0.0167  0.0584 -0.1563
  108loPI   C1B 1725  11.865   4.553  10.530  0.1585 -0.2482  0.1176
  108loPI   C2B 1726  11.893   4.661  10.062  0.2006 -0.1403 -0.1138
  108loPI   C3B 1727  11.932   4.648   9.531 -0.0912 -0.2102  0.4558
  108loPI   C4B 1728  11.996   4.692   9.062  0.1402 -0.2618  0.0816
  109loPI    C1 1729   4.049  11.219  11.075  0.1375 -0.0826  0.0375
  109loPI    C2 1730   3.949  10.864  11.230 -0.0423 -0.0527 -0.0089
  109loPI    C3 1731   4.119  11.142  11.461 -0.5262  0.0792  0.2020
  109loPI   PO4 1732   4.155  11.164  10.805 -0.0971  0.0160 -0.3646
  109loPI   GL1 1733   4.277  11.057  10.434 -0.3472  0.0677 -0.1308
  109loPI   GL2 1734   3.940  11.062  10.260  0.0452  0.5010  0.1570
  109loPI   C1A 1735   4.314  10.899  10.009 -0.3087 -0.1003  0.0399
  109loPI   C2A 1736   4.355  10.867   9.625 -0.0953  0.0252  0.0714
  109loPI   C3A 1737   4.382  11.199   9.302  0.0275  0.1428 -0.0821
  109loPI   C4A 1738   4.431  11.198   8.926 -0.0049  0.2615 -0.3922
  109loPI   C5A 1739   4.124  10.854   8.720 -0.0798  0.0192  0.3880
  109loPI   C6A 1740   3.815  10.779   8.512 -0.0659  0.1961 -0.0174
  109loPI   C1B 1741   3.891  11.085   9.893  0.0396  0.3822 -0.0918
  109loPI   C2B 1742   3.916  11.077   9.525  0.0258  0.3219 -0.0566
  109loPI   C3B 1743   3.882  11.132   9.131  0.0015  0.2661 -0.2658
  109loPI   C4B 1744   3.770  11.205   8.736  0.3904 -0.3568 -0.2299
  110loPI    C1 1745   9.120  10.672  11.640  0.2183 -0.1566 -0.0229
  110loPI    C2 1746   9.352  10.557  11.945  0.0209 -0.0258  0.1801
  110loPI    C3 1747   8.954  10.543  11.981 -0.0040  0.0837 -0.0371
  110loPI   PO4 1748   9.141  10.910  11.593  0.2221  0.1569  0.0270
  110loPI   GL1 1749   9.260  11.048  11.185 -0.1126  0.0906  0.1190
  110loPI   GL2 1750   9.287  11.397  11.263 -0.0083  0.0132 -0.3152
  110loPI   C1A 1751   9.310  11.050  10.812  0.4748 -0.1154 -0.2250
  110loPI   C2A 1752   9.344  11.088  10.287 -0.1193 -0.0137 -0.0281
  110loPI   C3A 1753   9.437  11.111   9.846  0.1630  0.1608 -0.2145
  110loPI   C4A 1754   9.527  11.236   9.475 -0.1319 -0.0244 -0.3056
  110loPI   C5A 1755   9.582  11.440   9.061 -0.1158 -0.0798 -0.1694
  110loPI   C6A 1756   9.824  11.500   8.799 -0.1940 -0.0257  0.0605
  110loPI   C1B 1757   9.276  11.575  10.927 -0.0350 -0.1291 -0.0439
  110loPI   C2B 1758   9.272  11.536  10.419 -0.1686 -0.0753  0.0029
  110loPI   C3B 1759   9.585  11.549  10.077 -0.0349  0.0506 -0.1869
  110loPI   C4B 1760   9.574  11.691   9.644 -0.3622 -0.1979 -0.0929
  111loPI    C1 1761  11.947  15.928  11.728 -0.0290  0.0457 -0.1798
  111loPI    C2 1762  11.627  15.784  11.920  0.0742  0.0097 -0.0336
  111loPI    C3 1763  11.936  15.930  12.128  0.1040  0.1510 -0.1762
  111loPI   PO4 1764  11.954  15.725  11.542 -0.1499 -0.0340  0.0803
  111loPI   GL1 1765  12.244  15.596  11.192  0.0450  0.0882 -0.3190
  111loPI   GL2 1766  12.485  15.871  11.117  0.2445  0.2056  0.1594
  111loPI   C1A 1767  12.247  15.323  10.819 -0.0643  0.0987  0.1914
  111loPI   C2A 1768  12.275  15.277  10.437 -0.0240  0.1680  0.0481
  111loPI   C3A 1769  12.324  15.307   9.900 -0.0003 -0.2079  0.1052
  111loPI   C4A 1770  12.344  15.377   9.508  0.1361  0.1890 -0.4183
  111loPI   C5A 1771  12.325  15.537   9.135 -0.2562 -0.0347  0.2523
  111loPI   C6A 1772  12.682  15.607   8.820 -0.1542 -0.3371 -0.0286
  111loPI   C1B 1773  12.399  15.807  10.708 -0.3391  0.3897  0.0233
  111loPI   C2B 1774  12.396  15.812  10.252  0.2362  0.0599  0.0512
  111loPI   C3B 1775  12.454  15.812   9.748 -0.0969 -0.1574  0.1285
  111loPI   C4B 1776  12.553  15.942   9.273 -0.1436 -0.0004 -0.4718
  112loPI    C1 1777  10.553  13.008  11.980 -0.1363 -0.1505 -0.1276
  112loPI    C2 1778  10.273  12.789  12.163 -0.1386 -0.0119  0.0368
  112loPI    C3 1779  10.279  13.186  12.210  0.3332 -0.0505  0.3772
  112loPI   PO4 1780  10.536  12.933  11.690 -0.2522  0.2139 -0.1316
  112loPI   GL1 1781  10.413  13.161  11.231  0.1318 -0.0432 -0.0598
  112loPI   GL2 1782  10.707  13.238  11.266 -0.1987  0.1398 -0.4016
  112loPI   C1A 1783  10.433  13.270  10.777 -0.0248  0.0580  0.4317
  112loPI   C2A 1784  10.610  13.158  10.381  0.3270  0.0249  0.3312
  112loPI   C3A 1785  10.700  13.142   9.912  0.0261 -0.0311 -0.2050
  112loPI   C4A 1786  10.825  13.142   9.507 -0.0188  0.1366  0.0021
  112loPI   C5A 1787  11.133  13.308   9.280  0.0907  0.0654 -0.1943
  112loPI   C6A 1788  11.170  13.622   9.122 -0.1282 -0.4479  0.2719
  112loPI   C1B 1789  10.994  13.302  10.856  0.0625  0.1789  0.2447
  112loPI   C2B 1790  11.079  13.237  10.510 -0.3510 -0.1493 -0.2216
  112loPI   C3B 1791  11.110  13.228  10.200  0.0605  0.1687  0.1272
  112loPI   C4B 1792  11.226  13.217   9.800 -0.1907  0.0908  0.0405
  113loPI    C1 1793  14.070  16.628  11.600 -0.0220  0.0246 -0.2221
  113loPI    C2 1794  14.377  16.478  11.808 -0.0821 -0.0119 -0.1593
  113loPI    C3 1795  14.025  16.287  11.804 -0.1770  0.1584 -0.0288
  113loPI   PO4 1796  14.217  16.654  11.302  0.0544 -0.1615 -0.0062
  113loPI   GL1 1797  13.995  16.639  10.894 -0.4347  0.0853  0.2793
  113loPI   GL2 1798  14.153  16.290  10.897  0.1412  0.2606  0.2003
  113loPI   C1A 1799  13.892  16.880  10.596  0.0879 -0.2875  0.2423
  113loPI   C2A 1800  13.870  17.035  10.142 -0.1059  0.2190  0.1026
  113loPI   C3A 1801  13.921  16.946   9.874  0.0010  0.0129 -0.0018
  113loPI   C4A 1802  13.994  17.007   9.494  0.0612  0.1137  0.4695
  113loPI   C5A 1803  13.952  16.958   9.102 -0.0592  0.1931  0.1068
  113loPI   C6A 1804  14.038  17.246   8.765 -0.2595 -0.2752 -0.0294
  113loPI   C1B 1805  14.082  16.193  10.503 -0.1537 -0.3673 -0.0117
  113loPI   C2B 1806  14.130  16.099  10.085  0.1371  0.0434 -0.0491
  113loPI   C3B 1807  14.117  16.056   9.680  0.0226  0.0012 -0.1518
  113loPI   C4B 1808  14.024  16.049   9.293  0.0277 -0.0922 -0.1931
  114loPI    C1 1809   9.716  15.508  11.539 -0.1897  0.0423  0.1295
  114loPI    C2 1810   9.989  15.409  11.813 -0.0727 -0.1397 -0.0503
  114loPI    C3 1811   9.631  15.546  11.928  0.1110  0.1547  0.1867
  114loPI   PO4 1812   9.869  15.334  11.299 -0.3183  0.0465  0.1166
  114loPI   GL1 1813  10.080  15.472  10.965 -0.0496 -0.0184 -0.0343
  114loPI   GL2 1814  10.408  15.424  10.827  0.0846 -0.2034 -0.2170
  114loPI   C1A 1815   9.971  15.299  10.609  0.3249  0.1884 -0.0577
  114loPI   C2A 1816  10.026  15.330  10.205 -0.1931 -0.1604 -0.3244
  114loPI   C3A 1817   9.906  15.291   9.812  0.3756 -0.1227 -0.0700
  114loPI   C4A 1818   9.941  15.268   9.454  0.2124  0.1556  0.1508
  114loPI   C5A 1819   9.842  15.436   9.098  0.0235 -0.1457  0.0190
  114loPI   C6A 1820   9.753  15.897   9.142 -0.0900  0.1656  0.1926
  114loPI   C1B 1821  10.462  15.398  10.408  0.2899  0.0983 -0.0909
  114loPI   C2B 1822  10.495  15.456  10.039  0.0363 -0.4274  0.0679
  114loPI   C3B 1823  10.488  15.467   9.588  0.0982  0.0247 -0.2882
  114loPI   C4B 1824  10.391  15.500   9.205  0.0503 -0.2740  0.6405
  115loPI    C1 1825  13.551  10.094  11.915  0.0558 -0.0917 -0.1415
  115loPI    C2 1826  13.646   9.733  12.059  0.0467 -0.0317  0.0171
  115loPI    C3 1827  13.329   9.928  12.204 -0.1801 -0.1256 -0.3386
  115loPI   PO4 1828  13.743  10.133  11.794  0.3194 -0.2873 -0.4702
  115loPI   GL1 1829  13.768  10.195  11.306  0.0356  0.0538 -0.0535
  115loPI   GL2 1830  13.726   9.885  11.251  0.2337 -0.4031  0.5707
  115loPI   C1A 1831  14.093  10.157  10.951  0.0066 -0.6907 -0.2928
  115loPI   C2A 1832  14.168  10.118  10.522 -0.0368  0.1827 -0.0495
  115loPI   C3A 1833  14.295  10.173  10.163 -0.0125 -0.0736  0.1516
  115loPI   C4A 1834  14.228  10.043   9.702 -0.3289 -0.1694 -0.0825
  115loPI   C5A 1835  14.265  10.126   9.316  0.1281  0.0409  0.0400
  115loPI   C6A 1836  14.102  10.097   9.003 -0.2693 -0.2271  0.0706
  115loPI   C1B 1837  13.543  10.065  10.904 -0.1354  0.0571  0.2402
  115loPI   C2B 1838  13.613  10.035  10.472  0.2954 -0.1037 -0.0492
  115loPI   C3B 1839  13.755  10.016  10.054  0.0552 -0.0509  0.2364
  115loPI   C4B 1840  13.796   9.926   9.564  0.5354  0.5043 -0.0465
  116loPI    C1 1841  14.650   5.327  11.190 -0.1092 -0.1124  0.1087
  116loPI    C2 1842  14.920   5.189  11.451  0.4705  0.4317 -0.1758
  116loPI    C3 1843  14.917   5.051  11.075 -0.0174  0.0357 -0.0376
  116loPI   PO4 1844  14.659   5.532  11.156 -0.2619  0.0065  0.1098
  116loPI   GL1 1845  14.760   5.862  10.916  0.0085 -0.0127  0.1083
  116loPI   GL2 1846  14.561   6.119  11.020  0.2094 -0.1918 -0.1213
  116loPI   C1A 1847  14.989   5.910  10.504  0.0087  0.3921 -0.2352
  116loPI   C2A 1848  14.881   6.006  10.103 -0.2477 -0.5846 -0.1044
  116loPI   C3A 1849  14.789   6.116   9.738 -0.1597 -0.1948 -0.1099
  116loPI   C4A 1850  14.834   6.159   9.405 -0.0086  0.1047  0.0396
  116loPI   C5A 1851  14.693   6.108   8.908 -0.2310  0.2058 -0.0406
  116loPI   C6A 1852  14.228   6.084   8.944  0.1738  0.2005 -0.2980
  116loPI   C1B 1853  14.646   6.318  10.554  0.0698  0.1369  0.0073
  116loPI   C2B 1854  14.549   6.456  10.214 -0.0151 -0.2237  0.1962
  116loPI   C3B 1855  14.378   6.527   9.794 -0.3183  0.0073  0.1572
  116loPI   C4B 1856  14.461   6.525   9.384 -0.1035 -0.4080  0.1959
  117loPI    C1 1857   6.291  12.217  10.989 -0.1595 -0.1282 -0.0856
  117loPI    C2 1858   6.149  12.028  11.311 -0.1751 -0.1921 -0.1300
  117loPI    C3 1859   6.502  12.216  11.329 -0.2547 -0.0512 -0.0259
  117loPI   PO4 1860   6.176  12.044  10.834  0.0907  0.1749  0.0566
  117loPI   GL1 1861   6.350  11.751  10.730 -0.0288  0.0875 -0.0313
  117loPI   GL2 1862   6.569  11.729  10.517 -0.0209 -0.2640 -0.0800
  117loPI   C1A 1863   6.269  11.437  10.366  0.4005 -0.0190 -0.2315
  117loPI   C2A 1864   6.260  11.255   9.965 -0.2816  0.1041 -0.1583
  117loPI   C3A 1865   6.347  11.155   9.621 -0.2088  0.2980  0.2215
  117loPI   C4A 1866   6.279  10.826   9.355 -0.1513 -0.0849 -0.1463
  117loPI   C5A 1867   6.206  10.497   9.093 -0.0739  0.0618  0.4633
  117loPI   C6A 1868   6.247  10.204   8.753 -0.3229  0.1320 -0.0372
  117loPI   C1B 1869   6.836  11.841  10.299  0.0534  0.1083  0.2813
  117loPI   C2B 1870   7.064  11.770   9.937  0.0377 -0.2046  0.2065
  117loPI   C3B 1871   7.135  11.653   9.533  0.0093  0.1010  0.1694
  117loPI   C4B 1872   7.377  11.262   9.191 -0.2085 -0.1920 -0.2345
  118loPI    C1 1873  13.556   3.080  11.490  0.0105  0.1340  0.0227
  118loPI    C2 1874  13.191   3.239  11.528  0.0493  0.2107  0.0780
  118loPI    C3 1875  13.501   3.404  11.718  0.0810  0.0375  0.1790
  118loPI   PO4 1876  13.608   3.036  11.216  0.0624 -0.1953  0.1727
  118loPI   GL1 1877  13.718   2.926  10.849  0.1489  0.1891  0.0634
  118loPI   GL2 1878  13.415   2.982  10.747 -0.1213  0.2373 -0.0247
  118loPI   C1A 1879  13.818   2.994  10.485 -0.0815 -0.2159  0.1604
  118loPI   C2A 1880  13.758   3.056  10.048 -0.0443  0.0738 -0.0091
  118loPI   C3A 1881  13.683   3.092   9.655 -0.0694  0.0403  0.1552
  118loPI   C4A 1882  13.819   2.956   9.199  0.2810  0.1468 -0.1339
  118loPI   C5A 1883  13.830   2.765   8.769  0.2178 -0.4495  0.0188
  118loPI   C6A 1884  13.493   2.491   8.768  0.0301 -0.0113 -0.2225
  118loPI   C1B 1885  13.211   2.919  10.423  0.0525 -0.0838  0.0601
  118loPI   C2B 1886  13.228   2.977   9.926 -0.0528 -0.1907 -0.2135
  118loPI   C3B 1887  13.277   2.878   9.506  0.1020  0.2943 -0.1345
  118loPI   C4B 1888  13.250   2.880   9.175  0.0684  0.3130  0.2077
  119loPI    C1 1889   3.218   9.663  10.820 -0.0024  0.1172  0.0926
  119loPI    C2 1890   3.040   9.376  11.035 -0.0668  0.1317  0.0590
  119loPI    C3 1891   3.431   9.351  10.951 -0.1016 -0.0174 -0.0626
  119loPI   PO4 1892   3.146   9.720  10.550 -0.4096  0.0585 -0.3184
  119loPI   GL1 1893   3.050   9.614  10.216 -0.2814  0.0352  0.1429
  119loPI   GL2 1894   3.376   9.662  10.025  0.3538 -0.1413 -0.1974
  119loPI   C1A 1895   2.872   9.527   9.856 -0.0762 -0.0035  0.1531
  119loPI   C2A 1896   2.843   9.512   9.434 -0.3912 -0.0643  0.4160
  119loPI   C3A 1897   2.736   9.722   9.111 -0.2473 -0.0685  0.0562
  119loPI   C4A 1898   2.629   9.858   8.739 -0.2016 -0.0936 -0.2041
  119loPI   C5A 1899   2.176   9.810   8.573  0.4259 -0.2291  0.3396
  119loPI   C6A 1900   1.884   9.405   8.548  0.2383 -0.0883 -0.2089
  119loPI   C1B 1901   3.300   9.759   9.623  0.1994  0.0442 -0.0791
  119loPI   C2B 1902   3.298   9.897   9.174  0.2749  0.3556 -0.1835
  119loPI   C3B 1903   3.176   9.935   8.752  0.3220 -0.1898  0.3423
  119loPI   C4B 1904   3.078   9.685   8.404 -0.2559 -0.2440  0.0793
  120loPI    C1 1905  13.125  11.520  11.852  0.1126  0.2970  0.1254
  120loPI    C2 1906  13.410  11.258  11.954 -0.0602  0.1060  0.1241
  120loPI    C3 1907  13.464  11.649  12.021  0.1684  0.0633  0.1955
  120loPI   PO4 1908  13.019  11.364  11.627 -0.4031 -0.2826  0.1283
  120loPI   GL1 1909  13.035  11.380  11.227  0.4239  0.1491  0.3563
  120loPI   GL2 1910  13.041  11.771  11.251  0.1859 -0.2822 -0.4152
  120loPI   C1A 1911  13.126  11.388  10.743  0.4650 -0.1795 -0.1169
  120loPI   C2A 1912  13.254  11.404  10.353  0.1962 -0.3047 -0.0731
  120loPI   C3A 1913  13.271  11.265   9.902  0.1705 -0.2120  0.1859
  120loPI   C4A 1914  13.233  11.265   9.327 -0.3413  0.0338 -0.3160
  120loPI   C5A 1915  12.938  11.072   9.054 -0.0622  0.0537 -0.0425
  120loPI   C6A 1916  12.603  10.979   8.854 -0.0483 -0.3450  0.1640
  120loPI   C1B 1917  12.842  11.744  10.855  0.2491 -0.1240 -0.0524
  120loPI   C2B 1918  12.855  11.784  10.497  0.2121  0.2297  0.0112
  120loPI   C3B 1919  12.924  11.716  10.069 -0.0153 -0.2675  0.3101
  120loPI   C4B 1920  12.904  11.717   9.653 -0.2489  0.2594 -0.1166
  121loPI    C1 1921   0.802  17.204  11.038  0.1816 -0.0007 -0.0338
  121loPI    C2 1922   1.068  17.366  11.289 -0.0002 -0.0821  0.2152
  121loPI    C3 1923   0.677  17.393  11.368 -0.0698  0.0538 -0.1580
  121loPI   PO4 1924   0.850  17.085  10.867 -0.3210  0.2122 -0.0395
  121loPI   GL1 1925   0.673  16.893  10.517  0.2339 -0.2114 -0.2671
  121loPI   GL2 1926   1.015  16.735  10.506 -0.0989  0.0636 -0.3476
  121loPI   C1A 1927   0.346  16.881  10.274  0.0566 -0.0484 -0.2010
  121loPI   C2A 1928   0.332  16.827   9.751 -0.1714 -0.2734  0.2979
  121loPI   C3A 1929   0.248  16.824   9.364  0.1440  0.3073 -0.1350
  121loPI   C4A 1930   0.355  16.561   9.057 -0.0009 -0.0413 -0.0634
  121loPI   C5A 1931   0.594  16.208   9.001  0.1390  0.1442  0.3221
  121loPI   C6A 1932   0.828  16.111   9.400 -0.0503 -0.1988 -0.0964
  121loPI   C1B 1933   0.750  16.689  10.060  0.1885  0.0505  0.1253
  121loPI   C2B 1934   0.811  16.558   9.585  0.4315 -0.3488 -0.0532
  121loPI   C3B 1935   0.897  16.588   9.108  0.0462  0.3352  0.0885
  121loPI   C4B 1936   0.730  16.604   8.756 -0.0855 -0.3472  0.3428
  122loPI    C1 1937   3.808  16.174  11.256  0.0697 -0.2742  0.1543
  122loPI    C2 1938   4.159  15.984  11.273  0.1197 -0.1928  0.0424
  122loPI    C3 1939   3.900  15.951  11.576  0.2983 -0.1088  0.2068
  122loPI   PO4 1940   3.661  16.084  11.011  0.1898 -0.1719 -0.4062
  122loPI   GL1 1941   3.630  16.298  10.626 -0.2300  0.1729  0.2531
  122loPI   GL2 1942   3.301  16.186  10.501 -0.0686  0.0910  0.1235
  122loPI   C1A 1943   3.716  16.423  10.230  0.1198 -0.3241  0.1538
  122loPI   C2A 1944   3.779  16.423   9.820 -0.1371 -0.2805  0.3507
  122loPI   C3A 1945   3.903  16.504   9.420 -0.1751  0.6025  0.1205
  122loPI   C4A 1946   4.163  16.511   8.967 -0.0617  0.4107 -0.4821
  122loPI   C5A 1947   4.388  16.464   8.640  0.1866 -0.2348  0.0909
  122loPI   C6A 1948   4.698  16.564   8.708 -0.0579 -0.1216 -0.0131
  122loPI   C1B 1949   3.378  16.176  10.021 -0.1516 -0.0948  0.0550
  122loPI   C2B 1950   3.458  16.172   9.545  0.2968 -0.0402  0.2699
  122loPI   C3B 1951   3.228  16.169   9.139  0.1726 -0.0666 -0.0084
  122loPI   C4B 1952   3.293  16.434   8.739  0.2680 -0.2492  0.1452
  123loPI    C1 1953   9.261  17.670  11.047  0.0810  0.1417 -0.1308
  123loPI    C2 1954   9.464  17.820  11.358 -0.0417  0.0681 -0.0144
  123loPI    C3 1955   9.470  18.009  11.005  0.3754 -0.0283 -0.0638
  123loPI   PO4 1956   9.327  17.341  11.107  0.0633  0.0964 -0.2767
  123loPI   GL1 1957   9.522  17.155  10.836  0.0958  0.1243  0.0010
  123loPI   GL2 1958   9.761  17.194  10.674 -0.0011 -0.0618  0.0620
  123loPI   C1A 1959   9.166  17.321  10.511  0.1450  0.2795  0.0060
  123loPI   C2A 1960   9.180  17.179   9.997  0.2670  0.3376 -0.2034
  123loPI   C3A 1961   9.247  17.194   9.553 -0.1747 -0.0210 -0.5637
  123loPI   C4A 1962   9.224  16.984   9.118  0.1113 -0.1400 -0.0215
  123loPI   C5A 1963   9.267  17.112   8.643 -0.0724 -0.0112  0.0587
  123loPI   C6A 1964   9.120  17.301   8.325 -0.1808 -0.0077  0.3964
  123loPI   C1B 1965   9.545  17.008  10.344  0.1800 -0.2417 -0.1304
  123loPI   C2B 1966   9.623  17.030   9.869 -0.0855  0.4650 -0.2288
  123loPI   C3B 1967   9.793  17.181   9.424 -0.0782 -0.0348 -0.1284
  123loPI   C4B 1968   9.719  17.224   8.939  0.2694  0.1163  0.1426
  124loPI    C1 1969  14.147  15.214  11.787 -0.0713 -0.1077 -0.0300
  124loPI    C2 1970  13.805  15.176  11.992 -0.0145  0.1123  0.1092
  124loPI    C3 1971  14.091  15.423  12.124  0.1651 -0.0069 -0.0513
  124loPI   PO4 1972  14.116  15.270  11.565  0.0275 -0.0179  0.2596
  124loPI   GL1 1973  13.981  15.149  11.237 -0.2632  0.1333  0.2081
  124loPI   GL2 1974  13.733  15.380  11.040  0.0799  0.1180 -0.0577
  124loPI   C1A 1975  13.981  14.845  10.912 -0.2418 -0.2657  0.1833
  124loPI   C2A 1976  13.907  14.813  10.512  0.1068  0.0711 -0.1987
  124loPI   C3A 1977  13.966  14.616  10.098 -0.1356  0.2117  0.1042
  124loPI   C4A 1978  14.059  14.663   9.551 -0.0794 -0.1342 -0.0608
  124loPI   C5A 1979  14.428  14.760   9.267  0.1122  0.2356 -0.2543
  124loPI   C6A 1980  14.819  14.675   9.193 -0.1479 -0.3180  0.1902
  124loPI   C1B 1981  13.648  15.170  10.675  0.2466  0.2960  0.1945
  124loPI   C2B 1982  13.618  15.073  10.210 -0.3566 -0.0921 -0.1996
  124loPI   C3B 1983  13.777  15.100   9.836  0.1728  0.1124  0.2659
  124loPI   C4B 1984  13.703  14.995   9.449 -0.1701  0.2359 -0.2627
  125loPI    C1 1985  16.468   4.889  11.351  0.1865  0.3185 -0.2065
  125loPI    C2 1986  16.689   5.223  11.358  0.3553  0.2048  0.0959
  125loPI    C3 1987  16.838   4.881  11.503  0.0516  0.0803  0.1237
  125loPI   PO4 1988  16.390   4.856  11.046 -0.2687 -0.3327  0.0972
  125loPI   GL1 1989  16.219   5.110  10.694 -0.1982 -0.0951  0.0705
  125loPI   GL2 1990  15.881   5.155  10.746  0.1449  0.1807  0.0813
  125loPI   C1A 1991  16.112   5.284  10.294  0.3643  0.0671 -0.1729
  125loPI   C2A 1992  16.117   5.410   9.889 -0.0531  0.2361 -0.1608
  125loPI   C3A 1993  16.049   5.408   9.418 -0.0282 -0.0355  0.0916
  125loPI   C4A 1994  16.133   5.507   9.052  0.1453  0.0896 -0.0454
  125loPI   C5A 1995  15.958   5.588   8.656  0.0996 -0.2363 -0.2752
  125loPI   C6A 1996  15.982   5.464   8.289  0.0311 -0.0918 -0.0113
  125loPI   C1B 1997  15.630   5.205  10.323 -0.0245  0.0329  0.1000
  125loPI   C2B 1998  15.607   5.169   9.871 -0.0028  0.2193 -0.0602
  125loPI   C3B 1999  15.553   5.397   9.505  0.0023  0.2848  0.0939
  125loPI   C4B 2000  15.604   5.435   9.045  0.0656 -0.0640 -0.0981
  126loPI    C1 2001  14.285   9.250  12.038  0.1827 -0.0869 -0.0576
  126loPI    C2 2002  14.197   8.987  12.326 -0.3008  0.1961  0.0642
  126loPI    C3 2003  14.519   9.221  12.361 -0.2704  0.1208  0.3005
  126loPI   PO4 2004  14.313   9.133  11.818  0.0066  0.2869  0.1217
  126loPI   GL1 2005  14.145   9.240  11.397  0.1120  0.0777  0.2289
  126loPI   GL2 2006  14.236   9.578  11.354  0.2622 -0.1529  0.2219
  126loPI   C1A 2007  14.304   9.316  10.951 -0.0113  0.0774  0.3281
  126loPI   C2A 2008  14.371   9.227  10.532 -0.1212 -0.1204  0.3028
  126loPI   C3A 2009  14.418   9.252  10.110 -0.0864 -0.0799 -0.1546
  126loPI   C4A 2010  14.493   9.069   9.666 -0.0324 -0.0938 -0.1323
  126loPI   C5A 2011  14.404   9.238   9.236 -0.0587  0.0403  0.4123
  126loPI   C6A 2012  14.509   9.323   8.824 -0.1390 -0.1918 -0.2476
  126loPI   C1B 2013  13.907   9.684  10.859 -0.1361  0.0937  0.2494
  126loPI   C2B 2014  14.004   9.534  10.397  0.0612  0.3740  0.1084
  126loPI   C3B 2015  13.990   9.619   9.965 -0.1768 -0.0110  0.0792
  126loPI   C4B 2016  14.123   9.497   9.659 -0.2445 -0.3874 -0.0599
  127loPI    C1 2017  11.832   4.470  11.865  0.0447 -0.1058 -0.0508
  127loPI    C2 2018  12.111   4.335  12.119 -0.2544 -0.2629  0.2016
  127loPI    C3 2019  12.171   4.676  11.918 -0.0303 -0.1114  0.5168
  127loPI   PO4 2020  11.814   4.174  11.693  0.1697 -0.2331 -0.1688
  127loPI   GL1 2021  11.859   4.034  11.274  0.0599 -0.1170 -0.0173
  127loPI   GL2 2022  12.122   4.242  11.195  0.1642 -0.1444 -0.0171
  127loPI   C1A 2023  11.611   4.105  10.863 -0.4359  0.3016 -0.1102
  127loPI   C2A 2024  11.616   4.147  10.409 -0.3085  0.0319  0.1264
  127loPI   C3A 2025  11.766   4.152  10.019  0.2136 -0.1781  0.0078
  127loPI   C4A 2026  11.801   4.121   9.601  0.2702 -0.1015 -0.0902
  127loPI   C5A 2027  11.891   4.038   9.140 -0.0643  0.2710  0.1390
  127loPI   C6A 2028  12.160   3.670   8.961 -0.1501 -0.1136  0.1786
  127loPI   C1B 2029  12.103   4.112  10.745  0.0960 -0.0141  0.1932
  127loPI   C2B 2030  12.146   4.210  10.315 -0.1748  0.1929 -0.1103
  127loPI   C3B 2031  12.250   4.281   9.916  0.0423  0.0728 -0.1742
  127loPI   C4B 2032  12.245   4.212   9.513  0.2859  0.0683 -0.1579
  128loPI    C1 2033  15.764   2.305  11.257 -0.1524 -0.0794 -0.0400
  128loPI    C2 2034  15.538   2.151  11.550 -0.1147  0.1736  0.1249
  128loPI    C3 2035  15.789   2.453  11.628  0.1383  0.0258 -0.0993
  128loPI   PO4 2036  15.646   2.349  11.018 -0.0462  0.0857 -0.0205
  128loPI   GL1 2037  15.844   2.479  10.679 -0.4372 -0.0922  0.1004
  128loPI   GL2 2038  15.807   2.217  10.601  0.0344  0.3922  0.0733
  128loPI   C1A 2039  16.129   2.575  10.177 -0.1250 -0.0620  0.3279
  128loPI   C2A 2040  16.246   2.535   9.749  0.2100 -0.4111  0.0023
  128loPI   C3A 2041  16.153   2.506   9.390  0.1940  0.1599 -0.1825
  128loPI   C4A 2042  16.398   2.585   9.066  0.0653 -0.1675 -0.1025
  128loPI   C5A 2043  16.769   2.553   8.759  0.2119  0.1076  0.2153
  128loPI   C6A 2044  16.625   2.402   8.320 -0.2645 -0.0371  0.1025
  128loPI   C1B 2045  15.618   2.484  10.205 -0.2898 -0.1907  0.1837
  128loPI   C2B 2046  15.489   2.473   9.750 -0.0176 -0.0610 -0.3488
  128loPI   C3B 2047  15.550   2.419   9.320 -0.1601 -0.0821  0.1001
  128loPI   C4B 2048  15.556   2.194   8.919 -0.2212  0.0297  0.0270
  129loPI    C1 2049   9.368   5.476  11.344 -0.0794 -0.1250 -0.0397
  129loPI    C2 2050   9.084   5.748  11.270  0.1176  0.1566  0.2154
  129loPI    C3 2051   9.104   5.572  11.629 -0.2286 -0.4710 -0.0566
  129loPI   PO4 2052   9.457   5.384  11.143  0.1773 -0.4215 -0.0199
  129loPI   GL1 2053   9.409   5.390  10.674 -0.1092 -0.5491  0.0313
  129loPI   GL2 2054   9.526   5.114  10.463 -0.3394  0.1653 -0.1382
  129loPI   C1A 2055   9.449   5.695  10.448  0.0703  0.0935 -0.3534
  129loPI   C2A 2056   9.392   5.860  10.116  0.3482 -0.0861 -0.2549
  129loPI   C3A 2057   9.472   5.962   9.600 -0.0607  0.3207 -0.0859
  129loPI   C4A 2058   9.479   5.978   9.091 -0.1042  0.0991  0.0938
  129loPI   C5A 2059   9.734   5.865   8.753  0.0923 -0.1379 -0.2197
  129loPI   C6A 2060  10.189   5.749   8.727  0.1997  0.2515  0.1922
  129loPI   C1B 2061   9.696   5.044  10.021  0.1629  0.2023  0.0557
  129loPI   C2B 2062   9.728   5.066   9.548 -0.0177  0.1331  0.0007
  129loPI   C3B 2063   9.616   5.114   9.267 -0.3176  0.0594 -0.1969
  129loPI   C4B 2064   9.536   5.137   8.815  0.0285 -0.0168 -0.0041
  130loPI    C1 2065  12.085   9.701  11.579 -0.1594 -0.2440 -0.1770
  130loPI    C2 2066  11.769   9.516  11.740 -0.1118 -0.0925  0.0947
  130loPI    C3 2067  11.982   9.775  11.958  0.0197  0.0345 -0.1804
  130loPI   PO4 2068  11.982   9.809  11.297  0.1978  0.2522 -0.4425
  130loPI   GL1 2069  11.958   9.613  10.946 -0.1044 -0.1181 -0.0338
  130loPI   GL2 2070  11.595   9.609  10.802 -0.1665 -0.1806 -0.1468
  130loPI   C1A 2071  12.176   9.740  10.547  0.0568  0.1397  0.0489
  130loPI   C2A 2072  12.236   9.638  10.132  0.0310  0.3760  0.2339
  130loPI   C3A 2073  12.135   9.715   9.730  0.0520  0.2284  0.1345
  130loPI   C4A 2074  12.307   9.867   9.346 -0.0602  0.2830  0.0702
  130loPI   C5A 2075  12.336   9.783   9.050 -0.1449 -0.1471 -0.1798
  130loPI   C6A 2076  12.028   9.597   8.752 -0.1581 -0.2129  0.0551
  130loPI   C1B 2077  11.550   9.589  10.442 -0.0947 -0.0133 -0.0569
  130loPI   C2B 2078  11.630   9.634  10.075 -0.1517 -0.3336  0.0519
  130loPI   C3B 2079  11.612   9.622   9.718  0.0756 -0.1911  0.0755
  130loPI   C4B 2080  11.835   9.776   9.236 -0.0016  0.1801  0.1044
  131loPI    C1 2081  16.980  15.995  11.724  0.2116  0.0337 -0.0361
  131loPI    C2 2082  16.760  15.677  11.828  0.0303  0.1238 -0.1380
  131loPI    C3 2083  16.947  15.892  12.109 -0.0594  0.0805 -0.0445
  131loPI   PO4 2084  17.103  15.950  11.537  0.1684  0.2557 -0.1701
  131loPI   GL1 2085  17.160  15.908  11.163 -0.3120 -0.0398  0.2244
  131loPI   GL2 2086  17.020  15.727  11.041  0.0604  0.2296  0.1392
  131loPI   C1A 2087  17.381  15.866  10.711 -0.0053  0.1387 -0.1496
  131loPI   C2A 2088  17.272  15.924  10.304  0.0620 -0.0875 -0.2892
  131loPI   C3A 2089  17.290  15.973   9.937 -0.1302 -0.2164 -0.1886
  131loPI   C4A 2090  17.026  15.831   9.590  0.2413  0.1614 -0.1460
  131loPI   C5A 2091  16.789  15.771   9.297 -0.0324  0.1060  0.3039
  131loPI   C6A 2092  16.754  15.342   9.088 -0.2340  0.0178  0.2236
  131loPI   C1B 2093  16.850  15.781  10.548  0.0883  0.2654 -0.3716
  131loPI   C2B 2094  16.720  15.872  10.100 -0.2337 -0.0099  0.0705
  131loPI   C3B 2095  16.470  15.954   9.724 -0.3830  0.0310 -0.2502
  131loPI   C4B 2096  16.347  15.933   9.245  0.2781  0.3643 -0.3387
  132loPI    C1 2097  13.640   7.762  11.965 -0.1921 -0.0747  0.0135
  132loPI    C2 2098  13.703   7.914  12.330  0.0539  0.0249 -0.0682
  132loPI    C3 2099  13.983   7.687  12.157 -0.0116  0.0751 -0.2432
  132loPI   PO4 2100  13.584   8.018  11.687 -0.2268  0.2461 -0.2404
  132loPI   GL1 2101  13.842   8.202  11.271  0.0189  0.4027  0.4549
  132loPI   GL2 2102  13.830   8.557  11.166 -0.1981 -0.1718 -0.0364
  132loPI   C1A 2103  13.576   8.155  10.950  0.2656  0.0638  0.1538
  132loPI   C2A 2104  13.517   8.241  10.506  0.4689  0.1239 -0.1244
  132loPI   C3A 2105  13.462   8.158  10.081  0.0375  0.2788 -0.2155
  132loPI   C4A 2106  13.561   8.158   9.675  0.2757 -0.0331  0.2756
  132loPI   C5A 2107  13.506   8.197   9.196 -0.0528 -0.0804 -0.1511
  132loPI   C6A 2108  13.407   8.386   8.790 -0.0893 -0.0161  0.2458
  132loPI   C1B 2109  13.694   8.661  10.700  0.1158  0.0017  0.1174
  132loPI   C2B 2110  13.773   8.581  10.222 -0.3915  0.2166 -0.2385
  132loPI   C3B 2111  13.699   8.661   9.838 -0.0713 -0.2225  0.0255
  132loPI   C4B 2112  13.748   8.585   9.438  0.1322 -0.0638 -0.1187
  133loPI    C1 2113   9.628   6.741  11.219 -0.0562  0.1277  0.0746
  133loPI    C2 2114   9.276   6.918  11.151 -0.1738 -0.0935  0.0996
  133loPI    C3 2115   9.430   6.915  11.520 -0.0881  0.1051  0.0667
  133loPI   PO4 2116   9.773   6.781  11.025 -0.0089 -0.1015  0.2019
  133loPI   GL1 2117  10.087   7.026  10.660 -0.0703  0.2853 -0.1919
  133loPI   GL2 2118  10.033   7.339  10.624 -0.1917 -0.4098  0.0433
  133loPI   C1A 2119  10.262   6.975  10.265  0.1958 -0.2534  0.2423
  133loPI   C2A 2120  10.263   7.129   9.826  0.0343 -0.0394  0.0852
  133loPI   C3A 2121  10.334   7.087   9.396  0.0607  0.1708  0.0308
  133loPI   C4A 2122  10.342   7.103   8.981  0.0775  0.3218  0.0701
  133loPI   C5A 2123  10.125   7.322   8.606 -0.0576 -0.3400 -0.1436
  133loPI   C6A 2124   9.938   7.200   8.306 -0.0411  0.2063 -0.2624
  133loPI   C1B 2125   9.978   7.413  10.241 -0.3531  0.1826 -0.0383
  133loPI   C2B 2126   9.880   7.516   9.821  0.1405  0.5059  0.1216
  133loPI   C3B 2127   9.933   7.501   9.440  0.0107 -0.1436  0.1383
  133loPI   C4B 2128  10.029   7.590   9.011 -0.1283 -0.0745 -0.1514
  134loPI    C1 2129   9.439  16.170  11.449  0.0870 -0.1099 -0.0674
  134loPI    C2 2130   9.711  15.987  11.679 -0.1291 -0.0240  0.2646
  134loPI    C3 2131   9.335  15.851  11.667 -0.0901 -0.1090 -0.1495
  134loPI   PO4 2132   9.600  16.198  11.215  0.0402 -0.1461  0.1776
  134loPI   GL1 2133   9.738  16.230  10.820  0.2298 -0.3962 -0.0964
  134loPI   GL2 2134   9.972  15.946  10.789 -0.0216  0.1587  0.2029
  134loPI   C1A 2135   9.755  16.199  10.443  0.0450  0.1840  0.0921
  134loPI   C2A 2136   9.724  16.227  10.029  0.0327  0.2692 -0.1204
  134loPI   C3A 2137   9.762  16.300   9.595 -0.3325 -0.2299 -0.1285
  134loPI   C4A 2138   9.905  16.317   9.269  0.0297 -0.2072 -0.2443
  134loPI   C5A 2139   9.964  16.393   8.864  0.2671  0.1302  0.2816
  134loPI   C6A 2140   9.847  16.491   8.414 -0.2497 -0.0046  0.0388
  134loPI   C1B 2141  10.100  15.790  10.421  0.1090  0.0248  0.0906
  134loPI   C2B 2142  10.083  15.822   9.945  0.1137  0.2118 -0.1297
  134loPI   C3B 2143  10.173  15.906   9.475 -0.0462  0.2040  0.3530
  134loPI   C4B 2144  10.255  15.953   9.066  0.3252 -0.0381 -0.0795
  135loPI    C1 2145   4.876  11.608  11.204 -0.0439  0.1475  0.2660
  135loPI    C2 2146   5.238  11.511  11.345  0.0571  0.0223 -0.0676
  135loPI    C3 2147   4.937  11.249  11.370  0.0722  0.0042 -0.0755
  135loPI   PO4 2148   4.922  11.728  10.995  0.0267 -0.0435  0.1043
  135loPI   GL1 2149   4.866  11.838  10.552 -0.1797  0.1137  0.0195
  135loPI   GL2 2150   4.957  12.156  10.441 -0.1118  0.4410  0.1884
  135loPI   C1A 2151   5.390  11.772  10.380  0.2517  0.0994 -0.2610
  135loPI   C2A 2152   5.784  11.667  10.196 -0.1381  0.3077 -0.1901
  135loPI   C3A 2153   5.875  11.604   9.840  0.2852 -0.1765  0.1225
  135loPI   C4A 2154   5.908  11.888   9.586 -0.0221 -0.1107 -0.0122
  135loPI   C5A 2155   5.875  12.100   9.214  0.0745 -0.2440  0.1117
  135loPI   C6A 2156   5.663  12.106   8.851 -0.1661  0.0759 -0.0659
  135loPI   C1B 2157   4.686  12.175  10.016  0.0586  0.0747 -0.2161
  135loPI   C2B 2158   4.613  11.845   9.670 -0.0932  0.1492 -0.1953
  135loPI   C3B 2159   4.523  11.808   9.233  0.1127 -0.3125  0.0776
  135loPI   C4B 2160   4.597  11.667   8.952 -0.0900  0.0468  0.2508
  136loPI    C1 2161  11.569  10.580  11.865 -0.1455  0.0763 -0.1326
  136loPI    C2 2162  11.526  10.843  12.163  0.1037 -0.0111 -0.0164
  136loPI    C3 2163  11.365  10.477  12.193  0.1351 -0.0224  0.0143
  136loPI   PO4 2164  11.513  10.733  11.667  0.0859  0.2937  0.1517
  136loPI   GL1 2165  11.748  10.614  11.232 -0.1300 -0.1862  0.0526
  136loPI   GL2 2166  11.461  10.588  11.139 -0.1336  0.0601  0.0814
  136loPI   C1A 2167  11.936  10.641  10.777  0.3765  0.0149 -0.0131
  136loPI   C2A 2168  12.052  10.705  10.328  0.0398  0.1603 -0.2504
  136loPI   C3A 2169  12.033  10.628   9.936  0.0172 -0.0039 -0.2038
  136loPI   C4A 2170  12.141  10.671   9.508 -0.3627  0.0081 -0.0191
  136loPI   C5A 2171  12.246  10.647   9.070  0.1546  0.1319  0.3832
  136loPI   C6A 2172  12.066  10.621   8.746  0.2505 -0.3728  0.2161
  136loPI   C1B 2173  11.494  10.564  10.735  0.0092 -0.2738  0.0124
  136loPI   C2B 2174  11.580  10.546  10.334 -0.3759 -0.1228  0.0412
  136loPI   C3B 2175  11.539  10.506   9.901 -0.2700  0.0365  0.0737
  136loPI   C4B 2176  11.656  10.630   9.502  0.0507 -0.0819 -0.0174
  137loPI    C1 2177   2.485   7.655  10.935 -0.1506 -0.3264  0.0553
  137loPI    C2 2178   2.353   7.999  11.091  0.1651 -0.1385 -0.0822
  137loPI    C3 2179   2.326   7.660  11.302  0.0635  0.0106  0.1480
  137loPI   PO4 2180   2.395   7.585  10.658  0.1902 -0.0238 -0.2644
  137loPI   GL1 2181   2.480   7.693  10.260  0.2558 -0.0669 -0.0334
  137loPI   GL2 2182   2.536   7.309  10.112 -0.2796 -0.1985  0.1130
  137loPI   C1A 2183   2.788   8.006  10.102 -0.2027 -0.0229  0.1194
  137loPI   C2A 2184   2.978   8.020   9.733 -0.1647  0.1857  0.1268
  137loPI   C3A 2185   2.933   8.170   9.347  0.1755 -0.1626 -0.3083
  137loPI   C4A 2186   2.899   8.277   8.992  0.0091  0.0095  0.1264
  137loPI   C5A 2187   2.734   8.263   8.696 -0.1043 -0.0846 -0.0097
  137loPI   C6A 2188   2.417   8.153   8.433  0.0879 -0.0181 -0.0773
  137loPI   C1B 2189   2.381   7.231   9.650 -0.0867  0.1481  0.1597
  137loPI   C2B 2190   2.480   7.141   9.184  0.0789 -0.1979  0.0462
  137loPI   C3B 2191   2.541   7.392   8.825  0.0425 -0.0093 -0.3039
  137loPI   C4B 2192   2.732   7.770   8.554  0.2616 -0.0746  0.1742
  138loPI    C1 2193   9.998  10.786  11.494 -0.1672  0.1044  0.1899
  138loPI    C2 2194   9.823  10.503  11.716  0.1021 -0.1868  0.0383
  138loPI    C3 2195  10.163  10.673  11.841  0.0064 -0.0165  0.0696
  138loPI   PO4 2196  10.049  10.682  11.277  0.2499  0.0085 -0.0367
  138loPI   GL1 2197   9.839  10.470  10.922 -0.1629 -0.2413 -0.3669
  138loPI   GL2 2198   9.605  10.630  10.798  0.0947  0.0389  0.1885
  138loPI   C1A 2199   9.934  10.289  10.579 -0.1904  0.2962  0.0911
  138loPI   C2A 2200  10.024  10.311  10.075 -0.1145 -0.1241 -0.0339
  138loPI   C3A 2201   9.986  10.306   9.664  0.0246 -0.0779  0.1807
  138loPI   C4A 2202   9.917  10.380   9.209  0.1161 -0.1030  0.0008
  138loPI   C5A 2203  10.269  10.420   9.039 -0.1643  0.1465 -0.3246
  138loPI   C6A 2204  10.155  10.474   8.583  0.2056  0.1026  0.1373
  138loPI   C1B 2205   9.711  10.734  10.371 -0.0227 -0.1043 -0.1361
  138loPI   C2B 2206   9.689  10.648   9.973 -0.0982  0.0885 -0.0060
  138loPI   C3B 2207   9.663  10.716   9.549 -0.0601 -0.2233  0.1339
  138loPI   C4B 2208   9.412  10.838   9.161 -0.0491  0.0963 -0.1192
  139loPI    C1 2209  15.177   1.488  11.098  0.1802 -0.2793 -0.1085
  139loPI    C2 2210  15.312   1.711  11.402 -0.1620  0.0794 -0.2121
  139loPI    C3 2211  15.024   1.441  11.465 -0.1033  0.0236 -0.1829
  139loPI   PO4 2212  15.156   1.640  10.938  0.0420  0.2957  0.3231
  139loPI   GL1 2213  15.296   1.576  10.557  0.3954 -0.1134 -0.0086
  139loPI   GL2 2214  15.355   1.940  10.460 -0.3308  0.0869  0.1494
  139loPI   C1A 2215  15.561   1.560  10.152  0.1529 -0.2335  0.2601
  139loPI   C2A 2216  15.412   1.505   9.738  0.1352  0.1595 -0.0655
  139loPI   C3A 2217  15.290   1.387   9.390 -0.0224  0.0556  0.3337
  139loPI   C4A 2218  15.262   1.435   8.913  0.0774  0.1079  0.1841
  139loPI   C5A 2219  15.582   1.166   8.636  0.1751 -0.0563  0.2363
  139loPI   C6A 2220  15.905   0.881   8.534  0.0813 -0.0768  0.0134
  139loPI   C1B 2221  15.485   2.038   9.973  0.0035  0.1634 -0.0676
  139loPI   C2B 2222  15.405   2.004   9.608  0.4240  0.1127  0.0517
  139loPI   C3B 2223  15.403   1.845   9.217 -0.1069 -0.1858 -0.0007
  139loPI   C4B 2224  15.675   1.717   8.875 -0.2335  0.2839  0.1849
  140loPI    C1 2225  14.385   3.514  11.164 -0.0320 -0.2451  0.0315
  140loPI    C2 2226  14.385   3.461  11.561 -0.0668 -0.1922  0.0387
  140loPI    C3 2227  14.697   3.636  11.383 -0.0986 -0.1174  0.0561
  140loPI   PO4 2228  14.240   3.667  11.073 -0.0817 -0.0144 -0.0723
  140loPI   GL1 2229  14.282   3.874  10.715 -0.0164  0.0094  0.0186
  140loPI   GL2 2230  14.070   4.065  10.687 -0.0515  0.2956  0.4795
  140loPI   C1A 2231  14.477   3.610  10.497 -0.1106  0.2976  0.0701
  140loPI   C2A 2232  14.519   3.527  10.028 -0.2012  0.1674 -0.1392
  140loPI   C3A 2233  14.501   3.772   9.701  0.1080 -0.0155 -0.4125
  140loPI   C4A 2234  14.522   3.573   9.311  0.3265 -0.0180 -0.0541
  140loPI   C5A 2235  14.610   3.413   8.911 -0.3408 -0.3018  0.0895
  140loPI   C6A 2236  14.294   3.346   8.572  0.2535 -0.0664 -0.2107
  140loPI   C1B 2237  14.169   4.123  10.240  0.0878  0.0184  0.0518
  140loPI   C2B 2238  14.111   4.098   9.802 -0.1719 -0.0774  0.2781
  140loPI   C3B 2239  14.151   4.054   9.297 -0.2922  0.3198 -0.0541
  140loPI   C4B 2240  14.191   3.680   8.938  0.2985  0.1283 -0.0433
  141loPI    C1 2241  10.487   6.501  11.349 -0.1124 -0.0196 -0.0821
  141loPI    C2 2242  10.094   6.498  11.425 -0.0851 -0.0682  0.0586
  141loPI    C3 2243  10.335   6.750  11.622 -0.0777  0.1267 -0.1948
  141loPI   PO4 2244  10.510   6.256  11.233  0.0090 -0.2868 -0.0477
  141loPI   GL1 2245  10.644   6.292  10.901 -0.1520  0.3081  0.1450
  141loPI   GL2 2246  10.765   6.589  10.943  0.0120 -0.2838  0.0839
  141loPI   C1A 2247  10.970   6.244  10.596  0.0122 -0.1180  0.3697
  141loPI   C2A 2248  11.065   6.220  10.094  0.2239  0.3836 -0.1655
  141loPI   C3A 2249  11.043   6.331   9.666 -0.1058  0.3006 -0.0169
  141loPI   C4A 2250  10.971   6.264   9.225 -0.2462 -0.0135  0.1260
  141loPI   C5A 2251  10.838   5.940   8.954  0.2817  0.1551  0.0743
  141loPI   C6A 2252  10.932   5.478   8.936  0.0714  0.0453  0.0903
  141loPI   C1B 2253  10.556   6.701  10.582  0.0476 -0.1866  0.1594
  141loPI   C2B 2254  10.605   6.697  10.126  0.0195  0.4298  0.0166
  141loPI   C3B 2255  10.640   6.748   9.782  0.2054  0.2421 -0.0874
  141loPI   C4B 2256  10.658   6.626   9.423  0.3572 -0.4121  0.1840
  142loPI    C1 2257  10.267  14.363  11.989  0.0561  0.1331  0.0384
  142loPI    C2 2258   9.990  14.496  12.245 -0.1965 -0.3144  0.0091
  142loPI    C3 2259  10.217  14.182  12.343  0.3456  0.0772  0.0527
  142loPI   PO4 2260  10.090  14.397  11.756 -0.0193 -0.0927  0.1617
  142loPI   GL1 2261   9.935  14.376  11.277  0.0979 -0.2903 -0.3958
  142loPI   GL2 2262  10.165  14.573  11.218  0.2679 -0.1400 -0.0969
  142loPI   C1A 2263   9.924  14.078  10.982 -0.0488 -0.0729  0.2089
  142loPI   C2A 2264   9.958  14.064  10.517 -0.1565  0.0063 -0.0202
  142loPI   C3A 2265  10.020  13.912  10.054  0.0565  0.0586 -0.0139
  142loPI   C4A 2266   9.998  13.889   9.651  0.0983  0.1241 -0.2521
  142loPI   C5A 2267   9.738  13.997   9.317 -0.1612  0.1011 -0.2005
  142loPI   C6A 2268   9.442  14.093   8.941 -0.0456 -0.5014  0.2591
  142loPI   C1B 2269  10.203  14.465  10.809  0.3331  0.1204 -0.1391
  142loPI   C2B 2270  10.212  14.459  10.390  0.1116 -0.0101 -0.0792
  142loPI   C3B 2271  10.143  14.412   9.990 -0.2359  0.1401  0.3821
  142loPI   C4B 2272  10.042  14.367   9.682  0.0492  0.2374  0.3833
  143loPI    C1 2273  16.546   1.984  11.175  0.3100  0.0626  0.0387
  143loPI    C2 2274  16.767   1.666  11.073  0.2239  0.0633 -0.1536
  143loPI    C3 2275  16.509   1.641  11.378  0.0855 -0.1090 -0.2822
  143loPI   PO4 2276  16.690   2.158  11.005  0.1308  0.4003  0.4884
  143loPI   GL1 2277  16.397   2.314  10.691 -0.0951  0.2282  0.3020
  143loPI   GL2 2278  16.320   2.667  10.621  0.1198  0.0744 -0.3994
  143loPI   C1A 2279  16.474   2.186  10.248 -0.0758  0.1348  0.1418
  143loPI   C2A 2280  16.435   2.106   9.795 -0.1519 -0.2078  0.0999
  143loPI   C3A 2281  16.461   2.049   9.334 -0.1075  0.1670 -0.0225
  143loPI   C4A 2282  16.520   2.134   8.868  0.0465  0.2565 -0.0971
  143loPI   C5A 2283  16.765   1.921   8.495 -0.1975  0.3410  0.1772
  143loPI   C6A 2284  17.106   1.857   8.285  0.1292  0.3746 -0.0427
  143loPI   C1B 2285  16.295   3.071  10.385  0.1803  0.0032  0.1330
  143loPI   C2B 2286  16.421   3.034  10.007  0.0329 -0.1327  0.6589
  143loPI   C3B 2287  16.409   3.005   9.623 -0.1342  0.0587 -0.0452
  143loPI   C4B 2288  16.234   3.018   9.203  0.2713  0.0872 -0.2715
  144loPI    C1 2289   7.036  15.193  11.579  0.1373 -0.0342 -0.1312
  144loPI    C2 2290   6.796  15.501  11.666  0.2460 -0.0000  0.0526
  144loPI    C3 2291   6.641  15.136  11.615  0.1566  0.0173  0.1937
  144loPI   PO4 2292   7.189  15.312  11.372  0.3234 -0.1148 -0.2477
  144loPI   GL1 2293   7.358  15.398  11.052  0.0005  0.0657  0.1165
  144loPI   GL2 2294   7.124  15.672  10.954  0.1660 -0.0934 -0.0260
  144loPI   C1A 2295   7.410  15.407  10.551  0.0379 -0.0528 -0.2479
  144loPI   C2A 2296   7.532  15.351  10.168  0.2815 -0.2869 -0.0662
  144loPI   C3A 2297   7.575  15.143   9.801  0.0125 -0.1394  0.0609
  144loPI   C4A 2298   7.455  15.147   9.448  0.1971  0.1366  0.1612
  144loPI   C5A 2299   7.174  14.925   9.053 -0.1624 -0.1985  0.1085
  144loPI   C6A 2300   6.893  15.179   8.833  0.1729  0.0755 -0.1771
  144loPI   C1B 2301   6.963  15.730  10.570 -0.0258 -0.1547  0.0469
  144loPI   C2B 2302   6.935  15.537  10.078 -0.0493  0.0777  0.0158
  144loPI   C3B 2303   7.232  15.508   9.831 -0.4777 -0.1273 -0.0035
  144loPI   C4B 2304   7.346  15.651   9.444  0.1120  0.3112  0.0683
  145loPI    C1 2305   7.535  14.050  11.287 -0.2383 -0.1089  0.1206
  145loPI    C2 2306   7.669  14.078  11.663 -0.1607 -0.0411  0.0881
  145loPI    C3 2307   7.288  13.980  11.594 -0.1856 -0.0136  0.1853
  145loPI   PO4 2308   7.757  13.940  11.202 -0.0687  0.2134 -0.1462
  145loPI   GL1 2309   7.867  13.808  10.832 -0.2321  0.3013 -0.1375
  145loPI   GL2 2310   7.743  13.852  10.593  0.0109 -0.3012  0.0345
  145loPI   C1A 2311   8.197  13.596  10.744  0.1355  0.2857 -0.1382
  145loPI   C2A 2312   8.700  13.494  10.716  0.3411  0.0017 -0.0676
  145loPI   C3A 2313   9.090  13.611  10.474 -0.0762 -0.1794  0.1498
  145loPI   C4A 2314   9.270  13.474  10.070  0.0252  0.0753 -0.1957
  145loPI   C5A 2315   9.240  13.422   9.705 -0.0408  0.0826 -0.1840
  145loPI   C6A 2316   9.361  13.542   9.299 -0.1119 -0.3638  0.2546
  145loPI   C1B 2317   7.979  13.671  10.286 -0.1325 -0.2261 -0.1054
  145loPI   C2B 2318   8.169  13.559  10.015  0.1427  0.0999  0.1261
  145loPI   C3B 2319   8.121  13.367   9.722  0.2373 -0.0223 -0.0289
  145loPI   C4B 2320   8.277  13.331   9.351  0.1357  0.2829  0.0811
  146loPI    C1 2321  13.729   6.517  11.371  0.0668  0.2282 -0.1424
  146loPI    C2 2322  13.552   6.484  11.728  0.0300  0.1937 -0.1637
  146loPI    C3 2323  13.951   6.500  11.703  0.0439 -0.0783 -0.1403
  146loPI   PO4 2324  13.609   6.371  11.215 -0.1092 -0.2175 -0.0286
  146loPI   GL1 2325  13.668   6.228  10.839 -0.0886 -0.0663 -0.0965
  146loPI   GL2 2326  13.481   5.920  10.935 -0.2845  0.3547  0.0932
  146loPI   C1A 2327  13.555   6.244  10.403  0.0985 -0.1784  0.2864
  146loPI   C2A 2328  13.495   6.275   9.912 -0.3169 -0.1543 -0.0817
  146loPI   C3A 2329  13.510   6.266   9.448 -0.2715 -0.1450  0.0761
  146loPI   C4A 2330  13.324   6.048   9.020  0.2102 -0.1804  0.0408
  146loPI   C5A 2331  13.046   6.142   8.722  0.0312  0.0837  0.2565
  146loPI   C6A 2332  12.859   5.928   8.379 -0.0690 -0.0080  0.0801
  146loPI   C1B 2333  13.452   5.726  10.621 -0.1098  0.2371 -0.0639
  146loPI   C2B 2334  13.336   5.737  10.173  0.0621 -0.1193  0.0205
  146loPI   C3B 2335  13.264   5.730   9.785 -0.0079 -0.0933  0.1247
  146loPI   C4B 2336  13.328   5.628   9.305 -0.0398  0.1122 -0.2313
  147loPI    C1 2337  17.471   0.964  11.120  0.0634 -0.0440 -0.0907
  147loPI    C2 2338  17.282   0.968  11.472  0.3373  0.1337  0.0582
  147loPI    C3 2339  17.445   0.629  11.336  0.0457  0.0143 -0.0020
  147loPI   PO4 2340  17.554   1.222  11.013 -0.0484 -0.0568 -0.3034
  147loPI   GL1 2341  17.495   1.394  10.710  0.0416 -0.3321 -0.0745
  147loPI   GL2 2342  17.153   1.568  10.672 -0.0744  0.4503 -0.1284
  147loPI   C1A 2343  17.691   1.242  10.334  0.2704 -0.1664 -0.2714
  147loPI   C2A 2344  17.538   1.201   9.969  0.0564  0.3554 -0.2052
  147loPI   C3A 2345  17.740   1.143   9.645 -0.0997 -0.1344 -0.0321
  147loPI   C4A 2346  17.813   1.095   9.253 -0.1276  0.0934 -0.1276
  147loPI   C5A 2347  17.791   1.409   8.944  0.1246  0.0590 -0.0009
  147loPI   C6A 2348  17.820   1.413   8.437 -0.0836 -0.1399  0.2727
  147loPI   C1B 2349  17.189   1.370  10.310  0.1462  0.2066  0.2356
  147loPI   C2B 2350  17.145   1.547   9.921  0.2461  0.1404  0.2778
  147loPI   C3B 2351  17.182   1.528   9.439  0.4309  0.3975 -0.0598
  147loPI   C4B 2352  17.373   1.392   9.155 -0.1491 -0.1045  0.0657
  148loPI    C1 2353  15.155   0.031  11.256  0.1620  0.1211  0.0162
  148loPI    C2 2354  15.086  -0.361  11.291  0.1624  0.1095 -0.1103
  148loPI    C3 2355  15.362  -0.186  11.521  0.0326  0.0707  0.0767
  148loPI   PO4 2356  15.092   0.068  10.997 -0.0343 -0.0727  0.2680
  148loPI   GL1 2357  14.909   0.324  10.741  0.0988  0.0110  0.0839
  148loPI   GL2 2358  14.676   0.094  10.722 -0.0477 -0.1209 -0.1354
  148loPI   C1A 2359  14.945   0.255  10.261  0.2184 -0.0117  0.0880
  148loPI   C2A 2360  14.825   0.317   9.835  0.0149  0.0154  0.4256
  148loPI   C3A 2361  14.772   0.526   9.376 -0.0519  0.1180 -0.2232
  148loPI   C4A 2362  14.878   0.615   8.971 -0.3676 -0.2279  0.0561
  148loPI   C5A 2363  15.104   0.349   8.627 -0.0811  0.0994 -0.1117
  148loPI   C6A 2364  15.409   0.084   8.591  0.0363  0.1826 -0.0823
  148loPI   C1B 2365  14.683  -0.128  10.387 -0.1282 -0.1447 -0.2941
  148loPI   C2B 2366  14.783  -0.145  10.078 -0.0303 -0.0822  0.0221
  148loPI   C3B 2367  14.622  -0.219   9.769  0.2428  0.4306  0.0921
  148loPI   C4B 2368  14.605  -0.008   9.436  0.0301 -0.1166 -0.0991
  149loPI    C1 2369  14.221  12.902  11.847  0.2879 -0.2098 -0.0784
  149loPI    C2 2370  14.156  12.690  12.180  0.1757  0.1680  0.1462
  149loPI    C3 2371  14.403  13.004  12.188  0.0672  0.2619 -0.0946
  149loPI   PO4 2372  13.971  12.900  11.723  0.1275  0.1381  0.1863
  149loPI   GL1 2373  13.587  12.779  11.398  0.0546  0.3122  0.1215
  149loPI   GL2 2374  13.310  12.895  11.264 -0.2852  0.1544  0.0378
  149loPI   C1A 2375  13.750  12.886  10.943 -0.0941 -0.4892 -0.0292
  149loPI   C2A 2376  13.702  12.848  10.523 -0.1813  0.1924 -0.2230
  149loPI   C3A 2377  13.763  12.772  10.219 -0.1336  0.3339  0.3095
  149loPI   C4A 2378  13.804  12.733   9.735  0.0040 -0.0199 -0.1264
  149loPI   C5A 2379  13.814  12.782   9.310  0.1588 -0.1767  0.3366
  149loPI   C6A 2380  13.807  13.007   8.908 -0.1336  0.1384 -0.1209
  149loPI   C1B 2381  13.184  12.787  10.789 -0.0948 -0.1665 -0.0145
  149loPI   C2B 2382  13.238  12.773  10.354 -0.1744  0.0195  0.0241
  149loPI   C3B 2383  13.286  12.726  10.009 -0.1192 -0.0650 -0.0314
  149loPI   C4B 2384  13.328  12.705   9.515 -0.0074  0.3178  0.1641
  150loPI    C1 2385  12.794   2.167  11.306 -0.0730 -0.0614  0.1561
  150loPI    C2 2386  13.086   1.987  11.511 -0.0049 -0.0631  0.0585
  150loPI    C3 2387  12.739   1.798  11.452  0.0372 -0.1305  0.0257
  150loPI   PO4 2388  12.941   2.252  11.115  0.1990 -0.1010 -0.6323
  150loPI   GL1 2389  13.039   2.456  10.743 -0.3262  0.2319 -0.1280
  150loPI   GL2 2390  13.118   2.112  10.683 -0.1696 -0.3629  0.0634
  150loPI   C1A 2391  12.959   2.468  10.353 -0.0992 -0.0810 -0.3143
  150loPI   C2A 2392  13.025   2.478   9.966 -0.0014  0.0111 -0.3917
  150loPI   C3A 2393  13.092   2.382   9.559  0.2419 -0.1633 -0.2391
  150loPI   C4A 2394  13.089   2.416   9.211  0.1957  0.0917 -0.0549
  150loPI   C5A 2395  12.967   2.239   8.794 -0.0885 -0.1579 -0.0678
  150loPI   C6A 2396  12.981   1.807   8.592 -0.0682  0.0722 -0.2178
  150loPI   C1B 2397  13.285   2.090  10.242 -0.4238 -0.0833 -0.4450
  150loPI   C2B 2398  13.306   2.070   9.834  0.1040  0.0713  0.2353
  150loPI   C3B 2399  13.393   2.041   9.323  0.2579  0.1416 -0.2263
  150loPI   C4B 2400  13.400   1.991   8.876 -0.1912  0.0026 -0.2099
  151loPI    C1 2401  17.114   9.774  11.511 -0.1211 -0.0435 -0.1976
  151loPI    C2 2402  17.313   9.434  11.578 -0.2896 -0.1313 -0.1365
  151loPI    C3 2403  17.037   9.558  11.839  0.0475  0.2575  0.0458
  151loPI   PO4 2404  17.157   9.791  11.267  0.2179  0.0356  0.2986
  151loPI   GL1 2405  17.161   9.636  10.924  0.2407  0.1995  0.0031
  151loPI   GL2 2406  17.306   9.294  11.087 -0.1379 -0.1587  0.0787
  151loPI   C1A 2407  16.980   9.603  10.463  0.2900 -0.1979  0.0128
  151loPI   C2A 2408  16.893   9.690   9.973  0.1741  0.0983 -0.1005
  151loPI   C3A 2409  16.977   9.713   9.543  0.1337 -0.0249 -0.2519
  151loPI   C4A 2410  16.944   9.506   9.046  0.3634  0.0573  0.0620
  151loPI   C5A 2411  16.920   9.186   8.819  0.1383  0.0535 -0.0197
  151loPI   C6A 2412  16.925   8.825   8.987 -0.0442  0.2155 -0.0583
  151loPI   C1B 2413  16.949   9.183  10.768 -0.0712  0.1722 -0.1749
  151loPI   C2B 2414  16.824   9.138  10.257  0.2782 -0.0086 -0.1131
  151loPI   C3B 2415  16.775   9.213   9.846 -0.3409  0.4338  0.3832
  151loPI   C4B 2416  16.820   9.187   9.367 -0.0548  0.1575  0.1317
  152loPI    C1 2417  14.398  14.516  12.171 -0.0492 -0.0095  0.3967
  152loPI    C2 2418  14.077  14.291  12.249  0.0231 -0.1818  0.2077
  152loPI    C3 2419  14.424  14.214  12.432  0.0908 -0.3331  0.0192
  152loPI   PO4 2420  14.438  14.511  11.844  0.0221 -0.1696 -0.2199
  152loPI   GL1 2421  14.201  14.665  11.378  0.1786 -0.5438  0.1006
  152loPI   GL2 2422  14.452  15.003  11.300 -0.2077  0.0587  0.1005
  152loPI   C1A 2423  14.257  14.387  11.021 -0.0599  0.2946 -0.3124
  152loPI   C2A 2424  14.276  14.238  10.540 -0.1861 -0.1103  0.0330
  152loPI   C3A 2425  14.327  14.309  10.085 -0.1733 -0.0585  0.1009
  152loPI   C4A 2426  14.367  14.244   9.730  0.1342  0.0565  0.1936
  152loPI   C5A 2427  14.550  14.282   9.248  0.0465 -0.0252 -0.2486
  152loPI   C6A 2428  14.626  14.208   8.915  0.0942  0.2673 -0.2422
  152loPI   C1B 2429  14.496  14.884  10.978 -0.2176  0.0358  0.1748
  152loPI   C2B 2430  14.384  14.765  10.569 -0.3010 -0.1181  0.2217
  152loPI   C3B 2431  14.479  14.785  10.196  0.2017  0.1260  0.4228
  152loPI   C4B 2432  14.529  14.775   9.804  0.1741  0.0665  0.2407
  153loPI    C1 2433   9.705   6.199  11.157  0.1554  0.0317 -0.1548
  153loPI    C2 2434   9.542   5.863  11.013  0.0013  0.0444 -0.0131
  153loPI    C3 2435   9.581   5.913  11.408  0.1798  0.1216 -0.0396
  153loPI   PO4 2436   9.905   6.224  11.049 -0.2968  0.1058  0.0393
  153loPI   GL1 2437  10.139   5.927  10.915  0.2906  0.2578 -0.0926
  153loPI   GL2 2438  10.358   5.741  10.967  0.3015  0.1783 -0.0420
  153loPI   C1A 2439  10.334   6.093  10.582 -0.1027  0.2222 -0.1610
  153loPI   C2A 2440  10.533   6.070  10.255 -0.0978 -0.0510 -0.1261
  153loPI   C3A 2441  10.628   6.219   9.816  0.3110  0.1319 -0.1040
  153loPI   C4A 2442  10.411   6.188   9.525  0.3439  0.0135  0.3098
  153loPI   C5A 2443  10.444   6.183   9.174 -0.0275  0.0111  0.1017
  153loPI   C6A 2444  10.328   6.200   8.807 -0.0576  0.1063  0.0511
  153loPI   C1B 2445  10.318   5.636  10.494 -0.0052 -0.0368  0.1041
  153loPI   C2B 2446  10.369   5.634  10.074 -0.1515 -0.1948  0.0901
  153loPI   C3B 2447  10.454   5.628   9.679 -0.0365  0.2955  0.0527
  153loPI   C4B 2448  10.340   5.691   9.207 -0.1356  0.1120 -0.2832
  154loPI    C1 2449   1.387   9.847  11.051  0.1067 -0.0361 -0.1140
  154loPI    C2 2450   1.486   9.717  11.416  0.0738  0.2931  0.0163
  154loPI    C3 2451   1.571   9.495  11.094  0.1247  0.0107  0.2206
  154loPI   PO4 2452   1.228   9.869  11.051 -0.0775 -0.0263 -0.3022
  154loPI   GL1 2453   0.925  10.141  10.857 -0.1260  0.1091  0.1573
  154loPI   GL2 2454   0.757  10.373  10.752  0.2113 -0.1556 -0.1209
  154loPI   C1A 2455   1.022  10.038  10.467  0.0566  0.4056 -0.2550
  154loPI   C2A 2456   0.919  10.101  10.042  0.2518 -0.2458  0.0833
  154loPI   C3A 2457   0.973  10.184   9.537 -0.2042 -0.0847  0.2100
  154loPI   C4A 2458   0.797  10.174   9.153 -0.0713 -0.1272  0.0898
  154loPI   C5A 2459   0.761   9.841   8.769  0.2409  0.2415 -0.1236
  154loPI   C6A 2460   0.802   9.648   8.373  0.2204  0.4846  0.0436
  154loPI   C1B 2461   0.550  10.218  10.397  0.2219 -0.1482  0.0924
  154loPI   C2B 2462   0.401  10.250   9.928  0.1097  0.1453 -0.0969
  154loPI   C3B 2463   0.435  10.126   9.540  0.1745  0.3008  0.1548
  154loPI   C4B 2464   0.366   9.934   9.183 -0.2372 -0.0093 -0.2006
  155loPI    C1 2465  12.942  17.372  11.662 -0.3210  0.0733 -0.2147
  155loPI    C2 2466  12.986  17.057  11.904 -0.1720  0.0078 -0.3257
  155loPI    C3 2467  13.086  17.423  12.032 -0.2191 -0.0082 -0.2427
  155loPI   PO4 2468  12.884  17.280  11.433  0.3416  0.1533  0.0022
  155loPI   GL1 2469  12.852  17.360  11.072  0.1753  0.0960 -0.1305
  155loPI   GL2 2470  12.998  17.371  10.802 -0.1268  0.3251 -0.3601
  155loPI   C1A 2471  12.553  17.300  10.643  0.0421 -0.2175  0.2701
  155loPI   C2A 2472  12.649  17.254  10.234  0.0972 -0.0899 -0.1881
  155loPI   C3A 2473  12.523  17.296   9.798 -0.1485  0.3356 -0.2729
  155loPI   C4A 2474  12.595  17.247   9.392 -0.1093  0.3133 -0.1263
  155loPI   C5A 2475  12.474  17.333   9.004  0.1827 -0.3338  0.1175
  155loPI   C6A 2476  12.423  17.485   8.579  0.1334  0.0265  0.0584
  155loPI   C1B 2477  13.084  17.385  10.466 -0.1916  0.1059 -0.1534
  155loPI   C2B 2478  13.118  17.301  10.023 -0.1214 -0.1784  0.0958
  155loPI   C3B 2479  13.167  17.183   9.578  0.0467  0.1649 -0.2291
  155loPI   C4B 2480  13.012  17.327   9.118 -0.0705  0.2089 -0.0868
  156loPI    C1 2481  11.806   6.289  11.418  0.1495 -0.2160  0.1307
  156loPI    C2 2482  11.443   6.354  11.572  0.0712 -0.1946 -0.0594
  156loPI    C3 2483  11.693   6.097  11.750 -0.0287 -0.1947  0.0832
  156loPI   PO4 2484  11.785   6.317  11.208 -0.0669  0.0869  0.3639
  156loPI   GL1 2485  11.883   6.647  10.912  0.0946 -0.0263 -0.1037
  156loPI   GL2 2486  12.083   6.424  10.729 -0.1943 -0.0676  0.1822
  156loPI   C1A 2487  11.735   6.855  10.532 -0.0067  0.0732 -0.0786
  156loPI   C2A 2488  11.758   6.885  10.098  0.2358  0.2311 -0.1788
  156loPI   C3A 2489  11.732   6.850   9.636  0.2258 -0.0615 -0.0313
  156loPI   C4A 2490  11.692   6.836   9.221  0.1145  0.0560  0.0957
  156loPI   C5A 2491  11.710   6.599   8.906  0.2218  0.0916 -0.4710
  156loPI   C6A 2492  11.838   6.202   8.820 -0.3194  0.0793 -0.0007
  156loPI   C1B 2493  12.091   6.523  10.302  0.1301  0.2221 -0.0681
  156loPI   C2B 2494  12.007   6.534   9.911  0.1024 -0.2147 -0.3884
  156loPI   C3B 2495  11.945   6.423   9.426  0.3705  0.2021 -0.1406
  156loPI   C4B 2496  12.231   6.524   8.965 -0.1369  0.1260  0.0658
  157loPI    C1 2497   1.293   6.786  11.041 -0.0730  0.0491 -0.0210
  157loPI    C2 2498   1.082   6.446  11.058 -0.4971  0.3108  0.0951
  157loPI    C3 2499   1.310   6.556  11.368 -0.3942  0.1558  0.0750
  157loPI   PO4 2500   1.282   6.770  10.780 -0.1428  0.0220 -0.2090
  157loPI   GL1 2501   1.427   7.000  10.503  0.0101 -0.1414 -0.0242
  157loPI   GL2 2502   1.513   7.367  10.500  0.1260  0.4706 -0.1024
  157loPI   C1A 2503   1.328   6.872  10.085  0.0484 -0.1946 -0.0255
  157loPI   C2A 2504   1.403   6.901   9.634  0.1678 -0.0619  0.1256
  157loPI   C3A 2505   1.391   6.886   9.271 -0.1505 -0.1853  0.0067
  157loPI   C4A 2506   1.685   6.691   8.945 -0.2589  0.2089 -0.1101
  157loPI   C5A 2507   1.892   6.667   8.591  0.3077  0.2463  0.1333
  157loPI   C6A 2508   2.346   6.570   8.439 -0.0543 -0.0689 -0.0322
  157loPI   C1B 2509   1.502   7.421  10.105 -0.1269  0.1339 -0.0134
  157loPI   C2B 2510   1.611   7.334   9.623  0.3867 -0.1466 -0.1992
  157loPI   C3B 2511   1.674   7.258   9.190  0.0642  0.1296 -0.1202
  157loPI   C4B 2512   1.573   7.270   8.718  0.1044 -0.1913  0.0053
  158loPI    C1 2513   6.417   2.622  11.073 -0.1681  0.0338  0.0635
  158loPI    C2 2514   6.772   2.500  11.211 -0.0365  0.0994 -0.2100
  158loPI    C3 2515   6.507   2.669  11.460  0.0149 -0.1949  0.0504
  158loPI   PO4 2516   6.333   2.408  10.960  0.0097  0.1438  0.0303
  158loPI   GL1 2517   6.264   2.292  10.554 -0.0097 -0.2449 -0.3231
  158loPI   GL2 2518   6.046   2.570  10.536  0.3010 -0.0553  0.2247
  158loPI   C1A 2519   6.397   2.346  10.266  0.0162 -0.2627 -0.0550
  158loPI   C2A 2520   6.550   2.289  10.012 -0.1205  0.1309  0.3752
  158loPI   C3A 2521   6.602   2.026   9.684  0.0896 -0.0439  0.0753
  158loPI   C4A 2522   6.465   1.942   9.278  0.2595 -0.1613  0.0315
  158loPI   C5A 2523   6.402   2.274   8.888 -0.7396  0.0524 -0.0480
  158loPI   C6A 2524   6.055   2.558   8.696 -0.1364 -0.1847 -0.0375
  158loPI   C1B 2525   6.049   2.686  10.132 -0.2325 -0.3638 -0.1527
  158loPI   C2B 2526   6.184   2.554   9.793  0.1850  0.0402 -0.0065
  158loPI   C3B 2527   6.447   2.462   9.457  0.1355  0.2375  0.0373
  158loPI   C4B 2528   6.801   2.270   9.296  0.1137 -0.0422  0.1403
  159loPI    C1 2529  17.672  15.955  11.201  0.2440 -0.0944  0.0149
  159loPI    C2 2530  17.597  15.922  11.593 -0.0996  0.1026 -0.0297
  159loPI    C3 2531  17.534  15.611  11.350 -0.3950  0.1395 -0.0037
  159loPI   PO4 2532  17.864  16.051  11.194 -0.1305 -0.1360  0.0378
  159loPI   GL1 2533  18.027  16.268  10.843 -0.0464  0.2541  0.1127
  159loPI   GL2 2534  18.079  16.467  10.595 -0.1322 -0.1449  0.1197
  159loPI   C1A 2535  17.820  16.018  10.549 -0.0878  0.0409 -0.0232
  159loPI   C2A 2536  17.777  15.903  10.217  0.1974  0.4928 -0.2043
  159loPI   C3A 2537  17.756  15.868   9.787 -0.0032  0.0130  0.1253
  159loPI   C4A 2538  17.622  15.807   9.438 -0.2448 -0.1045 -0.1969
  159loPI   C5A 2539  17.325  15.744   9.212  0.0325 -0.3513  0.1684
  159loPI   C6A 2540  17.247  15.358   9.081  0.6344  0.1316  0.1712
  159loPI   C1B 2541  18.064  16.317  10.198 -0.1252 -0.2377  0.2577
  159loPI   C2B 2542  18.088  16.311   9.745 -0.1447 -0.1783  0.1778
  159loPI   C3B 2543  17.940  16.145   9.380  0.1803 -0.2989 -0.1964
  159loPI   C4B 2544  17.770  16.005   9.002  0.0704 -0.1691  0.1798
  160loPI    C1 2545   7.350   8.751  11.351  0.3387  0.0029  0.1144
  160loPI    C2 2546   7.253   8.903  11.709  0.2087 -0.1112  0.1286
  160loPI    C3 2547   7.348   8.516  11.674  0.3496 -0.0712  0.0607
  160loPI   PO4 2548   7.329   9.024  11.162 -0.5298 -0.2537  0.0595
  160loPI   GL1 2549   7.323   9.257  10.737 -0.2151  0.0663 -0.0939
  160loPI   GL2 2550   7.036   9.166  10.702 -0.0016 -0.0215 -0.0726
  160loPI   C1A 2551   7.495   9.019  10.362  0.2893 -0.2548  0.0654
  160loPI   C2A 2552   7.617   9.034   9.904  0.0164 -0.0260 -0.0288
  160loPI   C3A 2553   7.637   9.043   9.446  0.1606  0.0804  0.3298
  160loPI   C4A 2554   7.749   9.058   9.022  0.0350 -0.0248 -0.1570
  160loPI   C5A 2555   7.903   8.942   8.601 -0.0188 -0.2343  0.2717
  160loPI   C6A 2556   8.279   8.828   8.474 -0.3667  0.0870 -0.1836
  160loPI   C1B 2557   7.049   9.268  10.285 -0.1950 -0.1956 -0.0315
  160loPI   C2B 2558   7.191   9.248   9.962  0.2873  0.2380  0.0020
  160loPI   C3B 2559   7.253   9.267   9.567  0.1453 -0.0130  0.2578
  160loPI   C4B 2560   7.208   9.450   9.203 -0.1892 -0.0056 -0.0931
  161loPI    C1 2561  10.896  14.692  12.131  0.0054 -0.0612 -0.1595
  161loPI    C2 2562  10.877  14.925  12.455 -0.2050 -0.0298 -0.1935
  161loPI    C3 2563  10.942  14.533  12.495 -0.2176 -0.0241 -0.1139
  161loPI   PO4 2564  10.710  14.640  12.010 -0.1861  0.0988  0.1645
  161loPI   GL1 2565  10.625  14.574  11.556 -0.0849  0.1333  0.1387
  161loPI   GL2 2566  10.545  14.271  11.560 -0.2163  0.0141  0.0417
  161loPI   C1A 2567  10.610  14.574  11.098 -0.1546 -0.0417  0.0932
  161loPI   C2A 2568  10.670  14.640  10.713  0.0294 -0.1809  0.2238
  161loPI   C3A 2569  10.682  14.615  10.254 -0.0937 -0.2541 -0.1969
  161loPI   C4A 2570  10.646  14.614   9.859 -0.1075 -0.3049  0.2177
  161loPI   C5A 2571  10.658  14.522   9.479 -0.2926  0.3827  0.1127
  161loPI   C6A 2572  10.394  14.211   9.378  0.3196  0.3375 -0.0525
  161loPI   C1B 2573  10.429  14.108  11.151  0.1739  0.2089 -0.0554
  161loPI   C2B 2574  10.536  14.124  10.658  0.1063 -0.1763 -0.3584
  161loPI   C3B 2575  10.460  14.034  10.283  0.2122 -0.0269 -0.0630
  161loPI   C4B 2576  10.487  13.972   9.813  0.2518  0.1501 -0.1240
  162loPI    C1 2577  11.081  15.000  11.792  0.0485 -0.2794  0.2139
  162loPI    C2 2578  10.706  15.033  11.658  0.1368 -0.1198  0.0010
  162loPI    C3 2579  10.807  15.196  12.008  0.0082 -0.1635  0.0592
  162loPI   PO4 2580  11.184  14.777  11.729  0.0325 -0.1101  0.0587
  162loPI   GL1 2581  11.243  14.615  11.272  0.1128  0.5234 -0.0251
  162loPI   GL2 2582  11.045  14.867  11.224 -0.0176  0.0728 -0.1263
  162loPI   C1A 2583  11.498  14.642  11.029  0.0919 -0.6639  0.2896
  162loPI   C2A 2584  11.605  14.741  10.576  0.1005 -0.1338 -0.1743
  162loPI   C3A 2585  11.646  14.796  10.247  0.2401 -0.2191  0.0720
  162loPI   C4A 2586  11.569  14.716   9.823 -0.0321 -0.1018 -0.3205
  162loPI   C5A 2587  11.638  14.672   9.336 -0.0430 -0.0928  0.1395
  162loPI   C6A 2588  11.910  14.508   9.024  0.0327  0.2521  0.0116
  162loPI   C1B 2589  11.116  14.714  10.715 -0.1368 -0.3013  0.1840
  162loPI   C2B 2590  11.172  14.718  10.282 -0.0426 -0.2582  0.1535
  162loPI   C3B 2591  11.118  14.590   9.813 -0.3270  0.5832 -0.0262
  162loPI   C4B 2592  11.156  14.544   9.450  0.0244 -0.0305 -0.0396
  163loPI    C1 2593  16.227   7.669  11.743 -0.0571 -0.0209  0.0468
  163loPI    C2 2594  16.206   7.865  12.091  0.0193 -0.2027  0.1552
  163loPI    C3 2595  16.401   7.517  12.069  0.1032 -0.1421 -0.0934
  163loPI   PO4 2596  16.236   7.997  11.561 -0.0087  0.0606  0.0755
  163loPI   GL1 2597  16.180   7.809  11.129 -0.0072  0.1014  0.4921
  163loPI   GL2 2598  16.383   7.766  10.957  0.0231  0.1977  0.1216
  163loPI   C1A 2599  16.054   8.059  10.717  0.3517 -0.0787 -0.0780
  163loPI   C2A 2600  16.042   8.103  10.308 -0.3146  0.0707 -0.0325
  163loPI   C3A 2601  16.066   8.094   9.960  0.4564  0.1787 -0.1043
  163loPI   C4A 2602  15.962   8.194   9.617 -0.0981 -0.0533 -0.0817
  163loPI   C5A 2603  16.141   8.326   9.235 -0.3718  0.0834 -0.1502
  163loPI   C6A 2604  16.264   8.481   8.763 -0.1142  0.1957  0.0735
  163loPI   C1B 2605  16.291   7.637  10.467  0.0431 -0.3718  0.0839
  163loPI   C2B 2606  16.362   7.618  10.060  0.0325  0.1000 -0.3611
  163loPI   C3B 2607  16.381   7.753   9.628 -0.1579 -0.0492  0.0780
  163loPI   C4B 2608  16.435   7.770   9.239 -0.2633  0.1371 -0.0859
  164loPI    C1 2609  10.566   2.860  11.532 -0.2159  0.0145 -0.3755
  164loPI    C2 2610  10.407   3.191  11.375 -0.2659  0.1790  0.0106
  164loPI    C3 2611  10.346   3.104  11.761 -0.3015 -0.3128 -0.1003
  164loPI   PO4 2612  10.621   2.660  11.325  0.2884  0.0282 -0.0960
  164loPI   GL1 2613  10.653   2.736  10.842 -0.1110  0.3375  0.0555
  164loPI   GL2 2614  10.606   3.064  10.787 -0.2264  0.0765 -0.0084
  164loPI   C1A 2615  10.704   2.429  10.505  0.0613 -0.0253 -0.2498
  164loPI   C2A 2616  10.929   2.118  10.185 -0.0148 -0.0161  0.0777
  164loPI   C3A 2617  10.980   2.121   9.794 -0.0541 -0.1790  0.2483
  164loPI   C4A 2618  11.147   2.033   9.394 -0.2501  0.1190  0.0204
  164loPI   C5A 2619  11.243   2.156   9.036 -0.4091  0.0111  0.0718
  164loPI   C6A 2620  11.471   1.984   8.786 -0.1393  0.1232  0.2307
  164loPI   C1B 2621  10.812   3.097  10.331 -0.1806  0.2339  0.1979
  164loPI   C2B 2622  10.668   2.993   9.956  0.2494  0.1159  0.0773
  164loPI   C3B 2623  10.817   3.100   9.562  0.0690  0.1978  0.0100
  164loPI   C4B 2624  11.079   3.032   9.218 -0.0332  0.3541  0.2359
  165loPI    C1 2625  11.163   8.021  11.310 -0.0228 -0.2752 -0.0228
  165loPI    C2 2626  10.879   8.234  11.493  0.0797 -0.1486 -0.0091
  165loPI    C3 2627  10.877   7.835  11.519 -0.0164 -0.1413  0.1071
  165loPI   PO4 2628  11.372   8.169  11.334  0.3447  0.1204  0.2257
  165loPI   GL1 2629  11.509   8.375  10.998 -0.0245 -0.1048  0.1691
  165loPI   GL2 2630  11.496   8.126  10.808  0.1573 -0.3075 -0.0130
  165loPI   C1A 2631  11.688   8.646  10.751  0.2235 -0.2476  0.0667
  165loPI   C2A 2632  11.746   8.784  10.348  0.1028  0.2474 -0.2717
  165loPI   C3A 2633  11.921   8.795   9.966  0.0801 -0.1595  0.3431
  165loPI   C4A 2634  11.804   8.762   9.509  0.1855  0.2360 -0.3135
  165loPI   C5A 2635  11.985   8.737   9.147  0.3009 -0.4154 -0.2172
  165loPI   C6A 2636  12.383   8.842   8.960  0.3158  0.0582 -0.2133
  165loPI   C1B 2637  11.621   8.311  10.438  0.1908  0.2629  0.3162
  165loPI   C2B 2638  11.706   8.260  10.021  0.0266  0.2709  0.0067
  165loPI   C3B 2639  11.665   8.258   9.570 -0.0256 -0.0858  0.3958
  165loPI   C4B 2640  11.757   8.259   9.097 -0.2131 -0.4490  0.1837
  166loPI    C1 2641  14.800   8.881  11.725  0.0977  0.1447  0.0049
  166loPI    C2 2642  14.963   8.582  11.934 -0.1447 -0.0047 -0.0165
  166loPI    C3 2643  14.809   8.899  12.124 -0.1908 -0.0506  0.0232
  166loPI   PO4 2644  14.626   8.735  11.554 -0.1641  0.2421 -0.2512
  166loPI   GL1 2645  14.478   8.854  11.096  0.1552 -0.0804  0.0461
  166loPI   GL2 2646  14.173   8.833  10.943 -0.2238  0.2020  0.0194
  166loPI   C1A 2647  14.681   8.826  10.781  0.0834 -0.2422  0.1535
  166loPI   C2A 2648  14.684   8.899  10.390  0.3403 -0.0267 -0.0802
  166loPI   C3A 2649  14.777   8.814   9.965  0.0358  0.3094  0.2127
  166loPI   C4A 2650  14.784   8.764   9.423 -0.1263  0.1201 -0.0301
  166loPI   C5A 2651  14.642   8.856   9.018 -0.0780  0.1689  0.3058
  166loPI   C6A 2652  14.317   8.880   8.717 -0.1522 -0.1910 -0.0028
  166loPI   C1B 2653  14.218   8.766  10.545 -0.3101  0.0025 -0.0076
  166loPI   C2B 2654  14.251   8.737  10.087  0.0558 -0.1581 -0.3142
  166loPI   C3B 2655  14.229   8.676   9.650  0.1361  0.0476  0.1850
  166loPI   C4B 2656  14.277   8.665   9.226  0.2504 -0.1792  0.0027
  167loPI    C1 2657   1.368  12.889  11.278 -0.0721  0.2472  0.0152
  167loPI    C2 2658   1.372  12.575  11.526 -0.1716 -0.0395 -0.3371
  167loPI    C3 2659   1.555  12.915  11.630 -0.2397 -0.1419  0.1386
  167loPI   PO4 2660   1.330  12.867  11.006  0.0590 -0.0429 -0.0025
  167loPI   GL1 2661   1.292  13.209  10.783 -0.0921 -0.0456 -0.2502
  167loPI   GL2 2662   1.687  13.440  10.761 -0.0984  0.1245  0.4238
  167loPI   C1A 2663   1.197  13.014  10.407 -0.0819 -0.1650  0.1521
  167loPI   C2A 2664   1.096  13.019   9.882 -0.1879  0.0211  0.1961
  167loPI   C3A 2665   1.059  13.108   9.404  0.0698  0.2833  0.2660
  167loPI   C4A 2666   0.951  13.216   9.015  0.3072 -0.2706  0.1114
  167loPI   C5A 2667   0.599  13.142   8.776 -0.4268  0.0827 -0.0058
  167loPI   C6A 2668   0.209  12.973   8.862  0.2747  0.0786  0.1385
  167loPI   C1B 2669   1.583  13.385  10.361  0.1520 -0.1544 -0.0423
  167loPI   C2B 2670   1.463  13.405   9.893  0.0565 -0.2505 -0.1600
  167loPI   C3B 2671   1.479  13.321   9.451  0.2216  0.2568  0.1700
  167loPI   C4B 2672   1.461  13.080   9.107 -0.1331  0.0063 -0.2630
  168loPI    C1 2673  17.238  14.134  11.546  0.1080  0.0031  0.0737
  168loPI    C2 2674  17.472  14.397  11.736 -0.2673  0.2904  0.1516
  168loPI    C3 2675  17.146  14.251  11.917 -0.1837 -0.0640  0.0255
  168loPI   PO4 2676  17.227  14.248  11.317 -0.1999 -0.1187 -0.1440
  168loPI   GL1 2677  16.813  14.158  11.154 -0.3551 -0.0611 -0.3414
  168loPI   GL2 2678  17.036  13.826  11.070  0.1643 -0.1349  0.0062
  168loPI   C1A 2679  16.815  14.419  10.776  0.1306  0.1591  0.0082
  168loPI   C2A 2680  16.705  14.477  10.370 -0.1742  0.3974 -0.1286
  168loPI   C3A 2681  16.618  14.457  10.041 -0.3292  0.0669 -0.1833
  168loPI   C4A 2682  16.373  14.469   9.728 -0.2337 -0.1001 -0.1191
  168loPI   C5A 2683  16.536  14.204   9.387  0.0642  0.0770 -0.1352
  168loPI   C6A 2684  16.339  13.790   9.284 -0.1652  0.1670 -0.1211
  168loPI   C1B 2685  16.787  13.891  10.656  0.0600 -0.0042 -0.2529
  168loPI   C2B 2686  16.611  13.879  10.173 -0.1283 -0.1228  0.1843
  168loPI   C3B 2687  16.370  13.708   9.797  0.0153 -0.0635  0.0586
  168loPI   C4B 2688  15.986  13.607   9.589 -0.2815 -0.0471 -0.0637
  169loPI    C1 2689   9.547   9.735  11.493  0.2164 -0.0284 -0.0045
  169loPI    C2 2690   9.765   9.663  11.820 -0.1125  0.1918  0.2708
  169loPI    C3 2691   9.368   9.617  11.830 -0.0931 -0.1665 -0.2123
  169loPI   PO4 2692   9.788   9.661  11.293  0.2003 -0.1229  0.2242
  169loPI   GL1 2693  10.063   9.602  10.899 -0.2356  0.1660 -0.0189
  169loPI   GL2 2694  10.181   9.865  10.939  0.0580 -0.1013 -0.0032
  169loPI   C1A 2695  10.057   9.398  10.512 -0.1148  0.0610  0.0523
  169loPI   C2A 2696  10.169   9.272  10.122  0.0062 -0.1879 -0.0916
  169loPI   C3A 2697  10.181   9.393   9.685 -0.0371 -0.0913  0.4575
  169loPI   C4A 2698  10.121   9.594   9.269 -0.1732 -0.2144 -0.0047
  169loPI   C5A 2699  10.358   9.593   8.883 -0.0745 -0.1665 -0.2914
  169loPI   C6A 2700  10.610   9.380   8.536 -0.0175 -0.0139 -0.1242
  169loPI   C1B 2701  10.274   9.892  10.528  0.2147  0.1943 -0.0766
  169loPI   C2B 2702  10.334   9.902  10.125 -0.0473  0.2319 -0.2133
  169loPI   C3B 2703  10.336   9.870   9.701 -0.2007  0.0306  0.0049
  169loPI   C4B 2704  10.331  10.027   9.333 -0.2265 -0.0952 -0.3073
  170loPI    C1 2705  13.217  15.714  11.863  0.3427  0.1542 -0.0781
  170loPI    C2 2706  12.957  16.014  11.816  0.0856 -0.0738 -0.1381
  170loPI    C3 2707  13.045  15.882  12.183  0.1736  0.0514 -0.1135
  170loPI   PO4 2708  13.141  15.607  11.630  0.3646  0.2185  0.0155
  170loPI   GL1 2709  13.194  15.392  11.183 -0.1080 -0.1679 -0.3137
  170loPI   GL2 2710  12.905  15.533  10.952  0.2101 -0.0448  0.2836
  170loPI   C1A 2711  13.129  15.073  10.806 -0.1228  0.1894  0.0440
  170loPI   C2A 2712  13.091  15.049  10.345  0.0391  0.1790  0.0889
  170loPI   C3A 2713  13.173  14.999   9.914  0.1223 -0.0625 -0.0652
  170loPI   C4A 2714  13.214  14.885   9.482 -0.0408 -0.1263 -0.2179
  170loPI   C5A 2715  13.326  14.875   9.040 -0.1484 -0.0538 -0.0352
  170loPI   C6A 2716  13.789  14.692   8.915 -0.1701 -0.2371  0.0303
  170loPI   C1B 2717  12.775  15.445  10.462 -0.1382 -0.1476  0.1662
  170loPI   C2B 2718  12.777  15.348  10.042 -0.0889 -0.1686 -0.0432
  170loPI   C3B 2719  12.880  15.313   9.639 -0.1235 -0.5133 -0.2390
  170loPI   C4B 2720  12.820  15.326   9.190 -0.5469 -0.0609  0.0091
  171loPI    C1 2721  15.192  11.671  12.030 -0.0293  0.0159 -0.1500
  171loPI    C2 2722  15.460  11.904  12.214  0.0323 -0.1389 -0.0413
  171loPI    C3 2723  15.076  12.014  12.200  0.0309 -0.1144  0.1609
  171loPI   PO4 2724  15.343  11.526  11.773  0.3550 -0.1594 -0.4220
  171loPI   GL1 2725  15.147  11.440  11.505 -0.0112  0.3021  0.0514
  171loPI   GL2 2726  15.054  11.208  11.287  0.0503 -0.0410 -0.2533
  171loPI   C1A 2727  15.176  11.624  11.045 -0.1275  0.1350  0.0129
  171loPI   C2A 2728  15.165  11.673  10.655 -0.1815 -0.1029 -0.0716
  171loPI   C3A 2729  15.205  11.659  10.171  0.0041 -0.1194  0.2169
  171loPI   C4A 2730  15.181  11.706   9.773  0.3541 -0.1485  0.1606
  171loPI   C5A 2731  15.127  11.598   9.265  0.0769 -0.2493 -0.1819
  171loPI   C6A 2732  14.887  11.257   9.116 -0.0167  0.2661  0.2864
  171loPI   C1B 2733  14.951  11.127  10.878 -0.1793 -0.1807 -0.1116
  171loPI   C2B 2734  14.974  11.240  10.483 -0.1087  0.0076  0.2386
  171loPI   C3B 2735  15.074  11.182  10.036 -0.0569  0.1116 -0.1749
  171loPI   C4B 2736  15.040  11.242   9.629  0.1904  0.2549 -0.2845
  172loPI    C1 2737  11.476  15.286  11.932 -0.0621  0.1204  0.0414
  172loPI    C2 2738  11.642  15.021  12.181  0.1806  0.1407 -0.0948
  172loPI    C3 2739  11.262  15.135  12.234  0.1283 -0.1003  0.0690
  172loPI   PO4 2740  11.732  15.294  11.821  0.2724  0.0711  0.3721
  172loPI   GL1 2741  11.800  15.266  11.347  0.0626  0.1777  0.0661
  172loPI   GL2 2742  11.436  15.120  11.446  0.0283  0.0228 -0.2347
  172loPI   C1A 2743  11.913  14.946  11.033 -0.0092 -0.0422  0.1287
  172loPI   C2A 2744  12.128  14.825  10.615 -0.0248  0.0437 -0.2750
  172loPI   C3A 2745  12.170  14.855  10.147  0.0928  0.0665  0.0657
  172loPI   C4A 2746  12.056  14.834   9.737 -0.0052 -0.2128 -0.0078
  172loPI   C5A 2747  12.204  14.773   9.370 -0.0994  0.1101  0.1061
  172loPI   C6A 2748  12.214  15.102   9.058  0.1497 -0.2417 -0.3571
  172loPI   C1B 2749  11.238  15.278  11.029 -0.2838  0.2246 -0.2025
  172loPI   C2B 2750  11.292  15.191  10.555 -0.3851  0.1312 -0.3147
  172loPI   C3B 2751  11.344  15.134  10.092 -0.2272  0.2019 -0.0350
  172loPI   C4B 2752  11.321  15.103   9.577 -0.0822 -0.0001 -0.2770
  173loPI    C1 2753   7.552   7.143  10.714 -0.3719 -0.0230 -0.1158
  173loPI    C2 2754   7.533   6.994  11.085  0.2209  0.0231 -0.0567
  173loPI    C3 2755   7.526   6.748  10.770  0.2547 -0.0578  0.0053
  173loPI   PO4 2756   7.598   7.401  10.729 -0.0436  0.1090 -0.0182
  173loPI   GL1 2757   7.836   7.419  10.347  0.2061  0.3907  0.0435
  173loPI   GL2 2758   8.021   7.123  10.249  0.1345  0.0745  0.1332
  173loPI   C1A 2759   7.976   7.680   9.957 -0.2222  0.0983 -0.0991
  173loPI   C2A 2760   7.868   7.581   9.558 -0.1161 -0.0266  0.2101
  173loPI   C3A 2761   8.026   7.681   9.202  0.2605  0.2404  0.0833
  173loPI   C4A 2762   8.268   7.795   8.836  0.0484 -0.3565 -0.3849
  173loPI   C5A 2763   8.485   7.897   8.527  0.1479 -0.2008  0.3304
  173loPI   C6A 2764   8.333   7.765   8.087 -0.0598 -0.0908 -0.1042
  173loPI   C1B 2765   7.860   7.112   9.905 -0.0527 -0.0081  0.1221
  173loPI   C2B 2766   7.843   7.103   9.465  0.4649  0.0252  0.1882
  173loPI   C3B 2767   7.656   7.313   9.099  0.0337  0.0423 -0.1545
  173loPI   C4B 2768   7.558   7.604   9.044 -0.1313 -0.0282  0.0681
  174loPI    C1 2769   3.283  14.318  11.329  0.1432 -0.2193 -0.1630
  174loPI    C2 2770   3.138  14.014  11.113 -0.1429 -0.2350  0.0459
  174loPI    C3 2771   3.096  14.015  11.511  0.0013  0.0001  0.0623
  174loPI   PO4 2772   3.197  14.492  11.227 -0.1677  0.3515  0.1747
  174loPI   GL1 2773   2.974  14.488  10.793  0.0795 -0.0792 -0.1595
  174loPI   GL2 2774   2.726  14.730  10.913 -0.1931  0.1934  0.1102
  174loPI   C1A 2775   3.206  14.435  10.380 -0.1886 -0.0700 -0.2359
  174loPI   C2A 2776   3.394  14.264  10.130  0.0736 -0.3649  0.0447
  174loPI   C3A 2777   3.393  14.202   9.730 -0.2280 -0.2506  0.2206
  174loPI   C4A 2778   3.373  14.343   9.286 -0.0090  0.4299 -0.3395
  174loPI   C5A 2779   3.294  14.317   8.865  0.0915  0.1941  0.0034
  174loPI   C6A 2780   2.814  14.423   8.750 -0.3133 -0.1003 -0.4760
  174loPI   C1B 2781   2.852  14.745  10.428  0.1123 -0.1137  0.0550
  174loPI   C2B 2782   2.990  14.750  10.079  0.0287  0.1519 -0.0045
  174loPI   C3B 2783   3.068  14.641   9.665 -0.0340 -0.0323 -0.2070
  174loPI   C4B 2784   2.972  14.666   9.215 -0.3307 -0.0584 -0.0181
  175loPI    C1 2785  11.960   1.259  11.183 -0.0006 -0.0712 -0.0125
  175loPI    C2 2786  12.050   0.961  11.434  0.0576 -0.2567 -0.2488
  175loPI    C3 2787  11.842   1.277  11.564  0.1585 -0.3101  0.0505
  175loPI   PO4 2788  12.062   1.108  10.972 -0.2685 -0.1772 -0.2542
  175loPI   GL1 2789  12.237   1.291  10.717 -0.2311 -0.2351 -0.1801
  175loPI   GL2 2790  12.462   1.402  10.790  0.1620  0.1376  0.0747
  175loPI   C1A 2791  12.211   1.407  10.263 -0.0763  0.0084  0.1305
  175loPI   C2A 2792  12.139   1.370   9.848 -0.1075 -0.3208  0.2794
  175loPI   C3A 2793  12.295   1.347   9.499  0.1548  0.2689  0.3345
  175loPI   C4A 2794  12.231   1.358   9.020  0.1297  0.0360  0.0503
  175loPI   C5A 2795  12.354   1.413   8.680  0.1165  0.1888  0.0051
  175loPI   C6A 2796  12.542   1.701   8.387  0.1771 -0.0781  0.1447
  175loPI   C1B 2797  12.665   1.512  10.278 -0.0324  0.0905 -0.3010
  175loPI   C2B 2798  12.650   1.504   9.762  0.1352  0.0403  0.1795
  175loPI   C3B 2799  12.802   1.368   9.379  0.3307  0.3198 -0.3221
  175loPI   C4B 2800  12.725   1.434   8.982 -0.0220  0.0944  0.1119
  176loPI    C1 2801  13.313  12.152  11.912 -0.0454  0.1703 -0.1520
  176loPI    C2 2802  13.112  12.431  12.117  0.1153  0.1951 -0.0263
  176loPI    C3 2803  13.217  12.088  12.295  0.1861  0.1832 -0.0900
  176loPI   PO4 2804  13.219  12.072  11.693 -0.2166  0.0888 -0.0959
  176loPI   GL1 2805  13.391  12.266  11.351  0.1809  0.2489 -0.2452
  176loPI   GL2 2806  13.503  12.039  11.155  0.0871 -0.1131  0.2529
  176loPI   C1A 2807  13.558  12.404  10.862  0.0685  0.0606  0.0207
  176loPI   C2A 2808  13.564  12.373  10.442  0.2506 -0.3512  0.1311
  176loPI   C3A 2809  13.590  12.253  10.016  0.0257  0.0017  0.0757
  176loPI   C4A 2810  13.650  12.281   9.538 -0.2943  0.3192  0.0205
  176loPI   C5A 2811  13.509  12.355   9.176  0.2766 -0.2583  0.2930
  176loPI   C6A 2812  13.399  12.747   8.991 -0.1729  0.1894  0.0712
  176loPI   C1B 2813  13.330  11.916  10.854  0.0303  0.3074 -0.0096
  176loPI   C2B 2814  13.347  11.887  10.385 -0.0130  0.0011  0.0517
  176loPI   C3B 2815  13.423  11.752   9.987  0.1191 -0.0336  0.2291
  176loPI   C4B 2816  13.369  11.674   9.518  0.2768 -0.3027 -0.1584
  177loPI    C1 2817  15.212   9.296  12.153  0.0468  0.1343 -0.1650
  177loPI    C2 2818  15.279   8.903  12.191 -0.1259  0.1331  0.1708
  177loPI    C3 2819  15.540   9.166  12.342  0.1071  0.1556 -0.2547
  177loPI   PO4 2820  15.196   9.360  11.908 -0.1386 -0.0144  0.0699
  177loPI   GL1 2821  15.089   9.507  11.542  0.0397  0.1602  0.1398
  177loPI   GL2 2822  15.223   9.740  11.241 -0.2517  0.3114  0.1681
  177loPI   C1A 2823  15.026   9.266  11.127 -0.0773 -0.1179  0.2382
  177loPI   C2A 2824  14.866   9.360  10.699  0.1706  0.0446  0.0280
  177loPI   C3A 2825  14.966   9.289  10.214  0.0156 -0.1242 -0.0966
  177loPI   C4A 2826  14.874   9.406   9.781 -0.0409  0.0727 -0.0568
  177loPI   C5A 2827  14.859   9.352   9.320  0.1618  0.3102 -0.0435
  177loPI   C6A 2828  15.070   9.097   9.016 -0.0880  0.0710 -0.0918
  177loPI   C1B 2829  15.157   9.806  10.887 -0.0735 -0.3933 -0.0601
  177loPI   C2B 2830  15.009   9.811  10.429 -0.0179 -0.0070  0.1156
  177loPI   C3B 2831  15.087   9.837  10.081 -0.0116 -0.2875  0.2733
  177loPI   C4B 2832  15.032   9.878   9.679  0.3766  0.1272  0.0370
  178loPI    C1 2833  12.083   2.418  11.630 -0.0290  0.0215 -0.0179
  178loPI    C2 2834  11.829   2.127  11.731  0.2366 -0.2090 -0.0030
  178loPI    C3 2835  12.102   2.254  11.994  0.0904  0.0910  0.0075
  178loPI   PO4 2836  11.976   2.576  11.417  0.1305 -0.2032 -0.0177
  178loPI   GL1 2837  11.706   2.569  11.033  0.2150 -0.0422  0.0967
  178loPI   GL2 2838  11.533   2.369  10.834 -0.0230 -0.1319 -0.2069
  178loPI   C1A 2839  11.726   2.739  10.626  0.1028 -0.1416 -0.1929
  178loPI   C2A 2840  11.576   2.742  10.277 -0.0072  0.0712 -0.0500
  178loPI   C3A 2841  11.664   2.726   9.831  0.1627  0.3094 -0.1192
  178loPI   C4A 2842  11.817   2.780   9.416  0.0784  0.0249  0.1729
  178loPI   C5A 2843  11.827   2.788   8.988 -0.1490 -0.0470  0.0225
  178loPI   C6A 2844  11.517   2.531   8.814 -0.0974 -0.1148 -0.2478
  178loPI   C1B 2845  11.464   2.243  10.354  0.3429  0.0148  0.3082
  178loPI   C2B 2846  11.405   2.237   9.957 -0.1562 -0.1353 -0.1814
  178loPI   C3B 2847  11.585   2.244   9.634  0.0238  0.0282  0.1157
  178loPI   C4B 2848  11.718   2.294   9.198  0.1824 -0.3805 -0.0606
  179loPI    C1 2849  13.411  17.049  11.235  0.0222  0.1550  0.0747
  179loPI    C2 2850  13.792  17.032  11.113  0.0081 -0.1349  0.0660
  179loPI    C3 2851  13.685  16.863  11.460 -0.0564  0.2132  0.2199
  179loPI   PO4 2852  13.379  17.352  11.208  0.0398 -0.2098 -0.1977
  179loPI   GL1 2853  13.451  17.541  10.912 -0.2851  0.1562 -0.1581
  179loPI   GL2 2854  13.683  17.401  10.663 -0.0323  0.1483  0.2271
  179loPI   C1A 2855  13.340  17.777  10.634  0.1542 -0.0045  0.3538
  179loPI   C2A 2856  13.278  17.868  10.249  0.0650  0.1644  0.1302
  179loPI   C3A 2857  13.246  17.751   9.785 -0.0074 -0.0368  0.0668
  179loPI   C4A 2858  13.238  17.658   9.382  0.0037 -0.1333  0.4649
  179loPI   C5A 2859  13.118  17.823   9.089  0.0123  0.1524  0.1054
  179loPI   C6A 2860  13.291  17.794   8.623 -0.2097  0.3613 -0.0709
  179loPI   C1B 2861  13.613  17.489  10.218  0.3007 -0.0136 -0.0636
  179loPI   C2B 2862  13.580  17.346   9.840  0.1228 -0.2211  0.0393
  179loPI   C3B 2863  13.643  17.403   9.473 -0.0544 -0.1763 -0.1626
  179loPI   C4B 2864  13.597  17.265   9.053 -0.5010 -0.4808 -0.2327
  180loPI    C1 2865   8.172   4.235  11.090  0.1436  0.1977  0.0015
  180loPI    C2 2866   8.488   4.048  11.250  0.1081  0.0780 -0.0675
  180loPI    C3 2867   8.198   4.189  11.487 -0.0501 -0.2890 -0.0359
  180loPI   PO4 2868   8.197   4.200  10.891 -0.1403  0.0643 -0.3197
  180loPI   GL1 2869   8.262   3.969  10.532 -0.0548  0.2320  0.0920
  180loPI   GL2 2870   8.508   3.883  10.262  0.4325  0.0587 -0.1159
  180loPI   C1A 2871   8.038   3.769  10.100 -0.0724 -0.0385 -0.3001
  180loPI   C2A 2872   7.867   3.686   9.711 -0.0817  0.0132  0.0997
  180loPI   C3A 2873   7.792   3.648   9.262  0.0356 -0.0670 -0.3988
  180loPI   C4A 2874   7.964   3.703   8.715  0.3091 -0.0997 -0.2387
  180loPI   C5A 2875   8.138   3.973   8.393 -0.0435 -0.3357  0.0511
  180loPI   C6A 2876   7.733   4.041   8.084 -0.1698  0.1649 -0.1014
  180loPI   C1B 2877   8.501   3.828   9.780 -0.0337 -0.1001  0.2003
  180loPI   C2B 2878   8.658   3.905   9.472  0.1750  0.2651  0.0018
  180loPI   C3B 2879   8.778   4.086   9.117 -0.0725 -0.0301  0.0474
  180loPI   C4B 2880   8.918   4.203   8.711 -0.2410 -0.1972  0.1076
  181loPI    C1 2881  12.042  10.584  11.792 -0.2391 -0.0431 -0.1849
  181loPI    C2 2882  11.967  10.932  11.975  0.0025 -0.0669 -0.0350
  181loPI    C3 2883  12.039  10.604  12.192 -0.0350 -0.1690 -0.1753
  181loPI   PO4 2884  12.227  10.740  11.598  0.2156 -0.0018 -0.3266
  181loPI   GL1 2885  12.181  10.864  11.139 -0.3046 -0.4423  0.1773
  181loPI   GL2 2886  12.453  10.739  11.030 -0.0132  0.0354 -0.2449
  181loPI   C1A 2887  12.171  11.182  10.793  0.0699  0.1330 -0.0782
  181loPI   C2A 2888  12.203  11.293  10.326 -0.0279  0.1335  0.0903
  181loPI   C3A 2889  12.168  11.113   9.979 -0.2361 -0.1167  0.0414
  181loPI   C4A 2890  12.291  11.160   9.596 -0.1904 -0.1481 -0.1167
  181loPI   C5A 2891  12.245  11.120   9.264  0.1010 -0.2477 -0.2083
  181loPI   C6A 2892  11.851  10.950   9.123  0.0667 -0.2103 -0.0646
  181loPI   C1B 2893  12.442  10.784  10.659  0.3617  0.0477 -0.2780
  181loPI   C2B 2894  12.521  10.845  10.248  0.2515 -0.1181 -0.1497
  181loPI   C3B 2895  12.557  10.737   9.907 -0.0149  0.1684 -0.0296
  181loPI   C4B 2896  12.648  10.830   9.399  0.1262  0.2055 -0.0749
  182loPI    C1 2897   5.606  15.512  10.931  0.1636 -0.1307  0.0309
  182loPI    C2 2898   5.733  15.644  11.286 -0.1504  0.0140  0.0934
  182loPI    C3 2899   5.669  15.253  11.229 -0.0118 -0.0200  0.1662
  182loPI   PO4 2900   5.434  15.610  10.874  0.0135 -0.4160 -0.1764
  182loPI   GL1 2901   5.141  15.596  10.512 -0.2507 -0.1351 -0.0855
  182loPI   GL2 2902   5.312  15.781  10.223  0.1833  0.1017  0.0004
  182loPI   C1A 2903   4.921  15.410  10.101  0.2694 -0.1164 -0.2104
  182loPI   C2A 2904   4.751  15.429   9.743  0.0371  0.2601 -0.2331
  182loPI   C3A 2905   4.943  15.462   9.283  0.1864 -0.3106  0.0001
  182loPI   C4A 2906   5.189  15.797   9.095 -0.0144 -0.0024 -0.3764
  182loPI   C5A 2907   5.377  16.121   8.941  0.2209  0.2604  0.2078
  182loPI   C6A 2908   5.484  16.595   8.943 -0.1502 -0.1475  0.0905
  182loPI   C1B 2909   5.201  15.676   9.754  0.2515 -0.4349 -0.1420
  182loPI   C2B 2910   5.425  15.409   9.374 -0.0499  0.1342  0.1027
  182loPI   C3B 2911   5.473  15.327   8.920  0.0604 -0.0146  0.0130
  182loPI   C4B 2912   5.754  15.199   8.530  0.1607 -0.0682 -0.0515
  183loPI    C1 2913   8.771   7.150  10.796 -0.1689  0.3055 -0.0475
  183loPI    C2 2914   8.793   7.134  11.195 -0.0471  0.0525 -0.0624
  183loPI    C3 2915   8.483   6.968  11.005 -0.1607  0.2681 -0.0686
  183loPI   PO4 2916   9.034   7.026  10.708  0.0491 -0.2035  0.2240
  183loPI   GL1 2917   9.175   6.829  10.280 -0.1678 -0.1134 -0.0535
  183loPI   GL2 2918   9.512   6.784  10.378  0.0477 -0.4526  0.0015
  183loPI   C1A 2919   9.248   6.877   9.810  0.0552 -0.1806  0.0349
  183loPI   C2A 2920   9.362   6.906   9.303  0.1512  0.0628  0.0376
  183loPI   C3A 2921   9.370   6.834   8.846  0.0318 -0.4494 -0.3646
  183loPI   C4A 2922   9.457   6.859   8.412  0.2096 -0.1126 -0.2426
  183loPI   C5A 2923   9.593   6.874   7.984 -0.1750  0.2640  0.0375
  183loPI   C6A 2924   9.718   6.815   7.538  0.1844 -0.1348  0.2204
  183loPI   C1B 2925   9.699   6.999  10.075  0.2591 -0.1145 -0.0052
  183loPI   C2B 2926   9.779   7.039   9.681 -0.0370 -0.0791  0.1422
  183loPI   C3B 2927   9.869   7.003   9.244  0.0951  0.0229  0.0550
  183loPI   C4B 2928   9.838   6.955   8.878  0.0665  0.0608  0.0991
  184loPI    C1 2929  16.344   3.916  11.375 -0.1033  0.0797 -0.3931
  184loPI    C2 2930  15.979   4.028  11.256 -0.2448 -0.0028 -0.0474
  184loPI    C3 2931  16.041   3.921  11.637  0.2287  0.4015 -0.0017
  184loPI   PO4 2932  16.405   3.711  11.159 -0.2695  0.1844 -0.0020
  184loPI   GL1 2933  16.276   3.441  10.769 -0.1268 -0.1997 -0.1174
  184loPI   GL2 2934  16.369   3.600  10.583  0.0190  0.1142  0.2793
  184loPI   C1A 2935  15.940   3.437  10.464  0.2011  0.0502  0.2830
  184loPI   C2A 2936  15.924   3.463  10.074  0.3228 -0.2324  0.0821
  184loPI   C3A 2937  16.013   3.412   9.685  0.3902 -0.0224 -0.2784
  184loPI   C4A 2938  15.798   3.397   9.295 -0.0600  0.0076  0.0779
  184loPI   C5A 2939  15.756   3.538   8.793 -0.2020  0.1719  0.0458
  184loPI   C6A 2940  15.573   3.459   8.386  0.1243  0.2334  0.0523
  184loPI   C1B 2941  16.420   3.532  10.195 -0.0693 -0.0035 -0.1709
  184loPI   C2B 2942  16.516   3.551   9.678 -0.1560  0.0387 -0.2538
  184loPI   C3B 2943  16.334   3.502   9.345 -0.0022  0.0661  0.0216
  184loPI   C4B 2944  16.293   3.457   8.909  0.0385  0.0152  0.5007
  185loPI    C1 2945  17.212  11.516  12.015 -0.1178  0.2592 -0.1880
  185loPI    C2 2946  17.350  11.886  12.081 -0.0778  0.2570 -0.2583
  185loPI    C3 2947  16.956  11.821  12.053 -0.0950  0.2590 -0.0309
  185loPI   PO4 2948  17.290  11.443  11.816 -0.1174  0.1931  0.0620
  185loPI   GL1 2949  17.071  11.259  11.445 -0.1759  0.0918  0.1433
  185loPI   GL2 2950  17.271  11.540  11.202 -0.0660  0.0928  0.1044
  185loPI   C1A 2951  16.775  11.464  11.144 -0.1463  0.1698 -0.4032
  185loPI   C2A 2952  16.561  11.445  10.713  0.2849  0.2593 -0.0996
  185loPI   C3A 2953  16.563  11.500  10.231  0.4099 -0.2664  0.0395
  185loPI   C4A 2954  16.446  11.430   9.800  0.1901  0.0071 -0.0474
  185loPI   C5A 2955  16.316  11.219   9.341  0.1428  0.1381  0.1509
  185loPI   C6A 2956  16.220  10.867   9.165 -0.0427  0.2531  0.0280
  185loPI   C1B 2957  17.268  11.558  10.803  0.0166  0.2602  0.2414
  185loPI   C2B 2958  17.043  11.562  10.344 -0.2322 -0.1180 -0.2406
  185loPI   C3B 2959  16.998  11.458  10.001  0.0666  0.0387 -0.0595
  185loPI   C4B 2960  16.856  11.161   9.855  0.0739 -0.0901  0.1796
  186loPI    C1 2961  12.101  12.196  12.081  0.0581 -0.0730  0.0153
  186loPI    C2 2962  12.331  12.494  12.218  0.0062  0.0656 -0.1934
  186loPI    C3 2963  12.212  12.203  12.465  0.0441  0.2260  0.0168
  186loPI   PO4 2964  11.978  12.296  11.854  0.0095  0.0843 -0.1336
  186loPI   GL1 2965  12.019  12.397  11.430  0.1597  0.3112 -0.2146
  186loPI   GL2 2966  11.938  12.071  11.259  0.0152 -0.1800 -0.2539
  186loPI   C1A 2967  12.142  12.573  10.930 -0.2985  0.0804 -0.2208
  186loPI   C2A 2968  12.248  12.644  10.544  0.0327 -0.1190  0.2452
  186loPI   C3A 2969  12.299  12.499  10.163 -0.1077  0.2996 -0.2242
  186loPI   C4A 2970  12.267  12.398   9.773 -0.1548  0.3137 -0.0441
  186loPI   C5A 2971  12.391  12.438   9.307  0.0723 -0.2825 -0.1045
  186loPI   C6A 2972  12.479  12.790   9.062 -0.1302 -0.2787 -0.1698
  186loPI   C1B 2973  11.951  12.111  10.784  0.2066 -0.0541 -0.2103
  186loPI   C2B 2974  12.048  12.173  10.470 -0.0489  0.0469  0.0631
  186loPI   C3B 2975  12.068  12.027  10.011 -0.2589 -0.1197  0.2092
  186loPI   C4B 2976  12.053  12.036   9.513  0.0473 -0.0001  0.2347
  187loPI    C1 2977  14.280   1.604  11.211  0.0504 -0.0751 -0.0255
  187loPI    C2 2978  14.511   1.579  11.536  0.0628  0.1232 -0.0176
  187loPI    C3 2979  14.112   1.583  11.573  0.0635  0.0969 -0.0083
  187loPI   PO4 2980  14.410   1.510  11.009  0.0114  0.0417  0.2971
  187loPI   GL1 2981  14.239   1.228  10.577  0.1557 -0.0193  0.4969
  187loPI   GL2 2982  14.022   1.300  10.383  0.4352  0.2640  0.0897
  187loPI   C1A 2983  14.503   1.236  10.115  0.3990 -0.0226 -0.0877
  187loPI   C2A 2984  14.500   1.346   9.691  0.0636 -0.1293  0.0353
  187loPI   C3A 2985  14.523   1.273   9.283  0.1077  0.2039 -0.0583
  187loPI   C4A 2986  14.834   1.260   9.006 -0.1092  0.3185  0.2811
  187loPI   C5A 2987  14.880   1.107   8.665  0.1196 -0.0511 -0.1973
  187loPI   C6A 2988  14.808   1.196   8.201 -0.0750  0.2598  0.3063
  187loPI   C1B 2989  13.979   1.360   9.926  0.2484 -0.0480 -0.1588
  187loPI   C2B 2990  14.060   1.210   9.483 -0.0774  0.0436 -0.1697
  187loPI   C3B 2991  14.085   1.115   9.030 -0.3373 -0.1665 -0.3053
  187loPI   C4B 2992  13.992   0.851   8.616 -0.0344 -0.2526  0.3081
  188loPI    C1 2993  16.781   1.021  11.440  0.0384 -0.1501 -0.0091
  188loPI    C2 2994  16.534   1.186  11.172  0.1812  0.1127  0.0173
  188loPI    C3 2995  16.424   1.158  11.555  0.0567 -0.0832 -0.0312
  188loPI   PO4 2996  16.854   0.826  11.222  0.0371 -0.0651  0.1065
  188loPI   GL1 2997  16.978   0.825  10.837  0.3177 -0.0721  0.1329
  188loPI   GL2 2998  17.177   1.012  10.661 -0.1082  0.0620 -0.0743
  188loPI   C1A 2999  16.795   0.610  10.477 -0.3202  0.0576 -0.0351
  188loPI   C2A 3000  16.731   0.556  10.076 -0.0176  0.2855  0.2266
  188loPI   C3A 3001  16.707   0.716   9.705 -0.1989  0.0536  0.1601
  188loPI   C4A 3002  16.887   0.763   9.256  0.2057  0.1195  0.1151
  188loPI   C5A 3003  17.008   1.081   9.071 -0.0264 -0.1456 -0.1034
  188loPI   C6A 3004  16.984   1.407   8.731 -0.2240 -0.0275 -0.0001
  188loPI   C1B 3005  17.154   0.889  10.210 -0.1158  0.1357 -0.3361
  188loPI   C2B 3006  17.149   0.899   9.828  0.0714  0.1277  0.1197
  188loPI   C3B 3007  17.317   0.940   9.421  0.1431 -0.1426  0.2764
  188loPI   C4B 3008  17.407   0.811   9.135  0.3904 -0.1667 -0.1731
  189loPI    C1 3009   4.995   0.385  11.060  0.0237  0.0317  0.1067
  189loPI    C2 3010   5.366   0.529  11.098  0.0500 -0.0000 -0.0250
  189loPI    C3 3011   5.135   0.483  11.422  0.2052 -0.0998  0.0732
  189loPI   PO4 3012   4.990   0.458  10.836  0.3521 -0.1357  0.2161
  189loPI   GL1 3013   4.892   0.654  10.438  0.0612  0.2535 -0.2627
  189loPI   GL2 3014   4.863   0.965  10.388 -0.5276  0.1258 -0.5903
  189loPI   C1A 3015   4.766   0.497  10.009 -0.1957  0.2548  0.1633
  189loPI   C2A 3016   4.631   0.354   9.558  0.2098 -0.3964 -0.0379
  189loPI   C3A 3017   4.260   0.453   9.303  0.0310 -0.0359  0.1627
  189loPI   C4A 3018   4.205   0.804   8.988  0.1879 -0.0474 -0.1596
  189loPI   C5A 3019   4.030   0.848   8.535 -0.2112  0.2930  0.2787
  189loPI   C6A 3020   3.622   0.637   8.427  0.1231  0.2338  0.1987
  189loPI   C1B 3021   5.146   0.873  10.096  0.0240 -0.3249  0.3015
  189loPI   C2B 3022   5.212   0.764   9.677 -0.2519 -0.4098 -0.0687
  189loPI   C3B 3023   5.162   0.593   9.215  0.2278  0.2655 -0.0098
  189loPI   C4B 3024   5.124   0.289   8.809 -0.1997 -0.1982 -0.2585
  190loPI    C1 3025   1.359  14.833  11.366 -0.0468  0.2115 -0.3183
  190loPI    C2 3026   1.379  15.213  11.244  0.1624  0.3181  0.0324
  190loPI    C3 3027   1.636  15.078  11.519 -0.0471 -0.0206  0.0671
  190loPI   PO4 3028   1.409  14.684  11.165  0.1058  0.1632 -0.1040
  190loPI   GL1 3029   1.491  14.880  10.745  0.0384  0.1194  0.2066
  190loPI   GL2 3030   1.318  14.646  10.538  0.0445  0.3735  0.2060
  190loPI   C1A 3031   1.551  14.927  10.275 -0.0092  0.1747 -0.3497
  190loPI   C2A 3032   1.585  14.873   9.914 -0.2437 -0.1074  0.0436
  190loPI   C3A 3033   1.520  14.799   9.408  0.1671  0.3930 -0.0121
  190loPI   C4A 3034   1.263  14.528   9.089 -0.0276 -0.0824  0.2266
  190loPI   C5A 3035   1.224  14.179   8.789  0.4195 -0.2265  0.2111
  190loPI   C6A 3036   1.048  13.992   8.362 -0.2802 -0.0246  0.1693
  190loPI   C1B 3037   1.273  14.387  10.152  0.0620  0.0497 -0.1282
  190loPI   C2B 3038   1.358  14.357   9.755 -0.0035 -0.1290  0.0202
  190loPI   C3B 3039   1.699  14.260   9.425 -0.0862 -0.0139  0.1218
  190loPI   C4B 3040   1.886  14.545   9.078 -0.0229 -0.2632  0.5431
  191loPI    C1 3041  10.862  11.124  11.810  0.0097 -0.0537 -0.1871
  191loPI    C2 3042  11.262  11.104  11.812  0.0100 -0.0479 -0.0072
  191loPI    C3 3043  11.045  10.788  11.930 -0.0376 -0.0331 -0.0553
  191loPI   PO4 3044  10.798  11.173  11.600  0.0281 -0.1335  0.0346
  191loPI   GL1 3045  10.779  11.210  11.151 -0.0088 -0.0671  0.1126
  191loPI   GL2 3046  10.659  10.832  11.061  0.1287 -0.0073 -0.0281
  191loPI   C1A 3047  11.067  10.980  10.748 -0.0639  0.4020 -0.3192
  191loPI   C2A 3048  11.289  10.960  10.399 -0.0287  0.0456 -0.1596
  191loPI   C3A 3049  11.205  10.846   9.983 -0.1148 -0.3791  0.1273
  191loPI   C4A 3050  11.257  10.948   9.530  0.1597  0.1552  0.2923
  191loPI   C5A 3051  11.363  11.230   9.263  0.0827  0.1584 -0.2316
  191loPI   C6A 3052  11.386  11.630   9.300  0.0424  0.2550 -0.2110
  191loPI   C1B 3053  10.628  10.943  10.694  0.0662  0.3018  0.1019
  191loPI   C2B 3054  10.704  10.939  10.239  0.1644 -0.2060  0.2797
  191loPI   C3B 3055  10.656  10.856   9.811 -0.0423  0.0798  0.0637
  191loPI   C4B 3056  10.751  10.867   9.384  0.2476 -0.0887  0.1643
  192loPI    C1 3057   0.242   3.924  11.068  0.0370 -0.0698  0.1720
  192loPI    C2 3058   0.444   3.754  11.369 -0.1353 -0.0019  0.3273
  192loPI    C3 3059   0.076   3.899  11.431 -0.0844  0.2144  0.1386
  192loPI   PO4 3060   0.412   3.960  10.876  0.1192 -0.0346  0.2076
  192loPI   GL1 3061   0.556   3.783  10.471  0.1822  0.1891 -0.1921
  192loPI   GL2 3062   0.867   3.805  10.664 -0.0635 -0.0609  0.0060
  192loPI   C1A 3063   0.421   3.753  10.033  0.6984 -0.1114  0.1133
  192loPI   C2A 3064   0.405   3.714   9.605  0.1398 -0.1419  0.0433
  192loPI   C3A 3065   0.324   3.915   9.130  0.0353  0.0369 -0.0527
  192loPI   C4A 3066   0.249   4.001   8.688 -0.0901 -0.0562 -0.1508
  192loPI   C5A 3067   0.591   4.229   8.384  0.0127  0.0614  0.2062
  192loPI   C6A 3068   0.658   4.147   7.899 -0.1357  0.1461 -0.1984
  192loPI   C1B 3069   1.013   3.714  10.282 -0.1851 -0.0634 -0.1524
  192loPI   C2B 3070   1.229   3.695   9.963  0.0073 -0.0229 -0.0922
  192loPI   C3B 3071   1.334   3.562   9.534 -0.1999  0.0521  0.2442
  192loPI   C4B 3072   1.496   3.792   9.105 -0.4938 -0.3343 -0.2620
  193loPI    C1 3073   0.756   2.497  11.138 -0.2484  0.1399  0.0576
  193loPI    C2 3074   0.746   2.206  11.412 -0.1324  0.1487  0.0719
  193loPI    C3 3075   0.569   2.557  11.487  0.0080  0.1955  0.1883
  193loPI   PO4 3076   0.781   2.327  10.835  0.0326 -0.1947  0.1198
  193loPI   GL1 3077   0.651   2.401  10.437  0.3605  0.1083  0.2897
  193loPI   GL2 3078   0.651   2.737  10.420 -0.0040 -0.2635  0.2456
  193loPI   C1A 3079   0.655   2.440  10.008 -0.0105 -0.0991 -0.2981
  193loPI   C2A 3080   0.589   2.483   9.568  0.1732 -0.0825 -0.0445
  193loPI   C3A 3081   0.655   2.417   9.176 -0.2774 -0.2262  0.2152
  193loPI   C4A 3082   0.475   2.084   8.879 -0.1230 -0.1903  0.0262
  193loPI   C5A 3083   0.261   1.861   8.573 -0.2301 -0.1650 -0.1694
  193loPI   C6A 3084  -0.218   1.634   8.630  0.2470  0.2066 -0.1047
  193loPI   C1B 3085   0.626   2.901   9.990 -0.0232 -0.1060  0.1172
  193loPI   C2B 3086   0.597   2.985   9.620 -0.0040 -0.0211  0.1547
  193loPI   C3B 3087   0.424   2.880   9.268  0.3129  0.1034 -0.0924
  193loPI   C4B 3088   0.376   2.718   8.780 -0.0088 -0.2561  0.0692
  194loPI    C1 3089  11.056   1.227  11.255 -0.0414  0.0265 -0.0511
  194loPI    C2 3090  11.042   1.564  11.470  0.0749 -0.0936  0.1479
  194loPI    C3 3091  11.284   1.266  11.581  0.3118 -0.0696 -0.2806
  194loPI   PO4 3092  11.147   1.287  10.955  0.0668  0.0098  0.0476
  194loPI   GL1 3093  11.046   1.261  10.533  0.1141 -0.0514 -0.1701
  194loPI   GL2 3094  11.187   1.026  10.536  0.1795 -0.0253 -0.2600
  194loPI   C1A 3095  11.079   1.228  10.101 -0.1416 -0.1408  0.0535
  194loPI   C2A 3096  11.138   1.189   9.685 -0.0583  0.2071 -0.0525
  194loPI   C3A 3097  11.270   1.141   9.239 -0.0558 -0.1238 -0.0696
  194loPI   C4A 3098  11.471   1.225   8.872 -0.0030 -0.3653  0.2414
  194loPI   C5A 3099  11.761   1.564   8.832 -0.0330 -0.0357  0.2964
  194loPI   C6A 3100  12.036   1.770   8.590  0.1114 -0.6076  0.0222
  194loPI   C1B 3101  11.488   0.845  10.249 -0.0797 -0.2712 -0.0390
  194loPI   C2B 3102  11.538   0.720   9.846  0.0335  0.1341  0.0704
  194loPI   C3B 3103  11.583   0.704   9.381 -0.0859  0.1233 -0.2614
  194loPI   C4B 3104  11.534   0.737   8.974  0.0731 -0.0470 -0.0385
  195loPI    C1 3105  12.324  17.385  11.675 -0.0019 -0.0126 -0.1576
  195loPI    C2 3106  12.559  17.701  11.602  0.1867 -0.1371 -0.0967
  195loPI    C3 3107  12.585  17.509  11.952 -0.0784 -0.0909 -0.0498
  195loPI   PO4 3108  12.372  17.247  11.442 -0.1627 -0.1406  0.1739
  195loPI   GL1 3109  12.315  17.065  11.052  0.1020 -0.1517 -0.1598
  195loPI   GL2 3110  12.192  17.374  10.979  0.0032 -0.0091  0.0376
  195loPI   C1A 3111  12.492  16.849  10.799 -0.2424  0.3419 -0.3038
  195loPI   C2A 3112  12.377  16.745  10.420 -0.1965 -0.2097  0.0068
  195loPI   C3A 3113  12.303  16.749   9.983  0.0516  0.1174 -0.0743
  195loPI   C4A 3114  12.331  16.679   9.573  0.0193 -0.0509  0.2011
  195loPI   C5A 3115  12.414  16.725   9.233  0.2613 -0.1747  0.1716
  195loPI   C6A 3116  12.421  16.537   8.787 -0.1074  0.3416  0.2820
  195loPI   C1B 3117  12.084  17.130  10.612  0.0181 -0.0977 -0.1380
  195loPI   C2B 3118  12.007  17.123  10.169  0.2318 -0.0843  0.2251
  195loPI   C3B 3119  12.017  17.106   9.724  0.3592 -0.0510 -0.1023
  195loPI   C4B 3120  12.120  17.115   9.357 -0.0947  0.1183 -0.0287
  196loPI    C1 3121  12.748  16.359  11.537 -0.0404 -0.0313  0.0408
  196loPI    C2 3122  12.390  16.437  11.698  0.0232  0.0195  0.1583
  196loPI    C3 3123  12.720  16.456  11.924  0.1019 -0.0123  0.0469
  196loPI   PO4 3124  12.681  16.367  11.269  0.0916  0.3771 -0.0591
  196loPI   GL1 3125  12.673  16.283  10.902  0.0550  0.0103 -0.1559
  196loPI   GL2 3126  12.366  16.336  10.870 -0.2080 -0.1843 -0.1840
  196loPI   C1A 3127  12.724  16.452  10.558  0.0572  0.0183  0.0459
  196loPI   C2A 3128  12.616  16.376  10.121  0.1122 -0.0351  0.0844
  196loPI   C3A 3129  12.685  16.360   9.659  0.0363 -0.0426  0.0130
  196loPI   C4A 3130  12.790  16.359   9.240  0.2409  0.1276  0.2576
  196loPI   C5A 3131  12.788  16.125   8.897 -0.0386 -0.0044  0.0417
  196loPI   C6A 3132  12.469  16.049   8.580  0.1578 -0.3016  0.2478
  196loPI   C1B 3133  12.198  16.264  10.434  0.0581 -0.1952 -0.1769
  196loPI   C2B 3134  12.079  16.273   9.966 -0.2996  0.0977 -0.0149
  196loPI   C3B 3135  12.178  16.207   9.481 -0.1455 -0.1047  0.2204
  196loPI   C4B 3136  12.207  16.228   9.113  0.1192 -0.1156  0.0539
  197loPI    C1 3137   5.055  13.674  11.336 -0.0872 -0.0979 -0.0954
  197loPI    C2 3138   5.114  13.293  11.443 -0.0909 -0.0087  0.2344
  197loPI    C3 3139   4.793  13.392  11.225 -0.0350 -0.2077  0.0585
  197loPI   PO4 3140   5.277  13.781  11.221 -0.0750 -0.1848 -0.0699
  197loPI   GL1 3141   5.378  13.860  10.918  0.0183  0.2752 -0.0568
  197loPI   GL2 3142   5.523  14.070  10.828  0.2137 -0.3122 -0.1322
  197loPI   C1A 3143   5.458  13.572  10.602  0.0036  0.2278  0.3516
  197loPI   C2A 3144   5.462  13.400  10.279  0.2038  0.1586 -0.0599
  197loPI   C3A 3145   5.761  13.400   9.992  0.1618  0.0941 -0.1905
  197loPI   C4A 3146   5.745  13.339   9.582 -0.0498 -0.1061 -0.0994
  197loPI   C5A 3147   5.629  13.164   9.218 -0.0038  0.2184 -0.0244
  197loPI   C6A 3148   5.363  12.950   8.994  0.1999  0.0341  0.0644
  197loPI   C1B 3149   5.794  14.002  10.510 -0.1499 -0.0125  0.0897
  197loPI   C2B 3150   5.782  13.886  10.138 -0.0978 -0.2424 -0.1733
  197loPI   C3B 3151   5.831  13.813   9.726  0.1774 -0.0722 -0.0327
  197loPI   C4B 3152   5.920  13.975   9.435  0.0650 -0.0263 -0.0417
  198loPI    C1 3153   9.654   7.679  11.502 -0.0493  0.1146 -0.0831
  198loPI    C2 3154   9.317   7.807  11.675 -0.1151 -0.0708 -0.0712
  198loPI    C3 3155   9.672   7.893  11.839 -0.1404  0.3429 -0.2208
  198loPI   PO4 3156   9.531   7.689  11.087  0.3047 -0.2428  0.0254
  198loPI   GL1 3157   9.657   7.961  10.797 -0.2796 -0.0085  0.0194
  198loPI   GL2 3158   9.720   7.743  10.615  0.0920 -0.0805 -0.1825
  198loPI   C1A 3159   9.777   8.319  10.429 -0.0775  0.0987  0.0373
  198loPI   C2A 3160   9.868   8.374   9.955 -0.2510  0.1273 -0.2420
  198loPI   C3A 3161   9.814   8.445   9.513 -0.0755 -0.0665 -0.0980
  198loPI   C4A 3162   9.895   8.229   9.134  0.0455 -0.1261  0.2591
  198loPI   C5A 3163   9.613   8.277   8.834  0.0275  0.1832 -0.0087
  198loPI   C6A 3164   9.257   8.528   8.713 -0.1302 -0.0903  0.0985
  198loPI   C1B 3165   9.576   7.839  10.194 -0.2984 -0.2758 -0.1744
  198loPI   C2B 3166   9.598   7.899   9.840 -0.0300  0.0307  0.0265
  198loPI   C3B 3167   9.658   7.975   9.512 -0.0725  0.1180 -0.0755
  198loPI   C4B 3168   9.600   7.862   9.124  0.0940 -0.1777 -0.2118
  199loPI    C1 3169  15.116  15.450  11.946 -0.1532 -0.0555  0.0611
  199loPI    C2 3170  15.116  15.053  11.988  0.0531 -0.0689 -0.0504
  199loPI    C3 3171  15.138  15.288  12.311  0.0033 -0.1483  0.0114
  199loPI   PO4 3172  14.967  15.465  11.788  0.0247 -0.0715 -0.0504
  199loPI   GL1 3173  14.762  15.517  11.412 -0.1465 -0.0780  0.1105
  199loPI   GL2 3174  15.188  15.631  11.286 -0.2996 -0.0093  0.0295
  199loPI   C1A 3175  14.749  15.345  11.007  0.0084 -0.0084 -0.1175
  199loPI   C2A 3176  14.667  15.227  10.527 -0.0394 -0.1919  0.1477
  199loPI   C3A 3177  14.726  15.298  10.182 -0.2384 -0.1185  0.1502
  199loPI   C4A 3178  14.686  15.269   9.737 -0.2402 -0.2400  0.3689
  199loPI   C5A 3179  14.766  15.361   9.321  0.2324 -0.0656  0.0353
  199loPI   C6A 3180  14.741  15.625   9.019  0.0820 -0.0315 -0.3162
  199loPI   C1B 3181  15.219  15.584  10.839  0.2708 -0.1154  0.4820
  199loPI   C2B 3182  15.127  15.400  10.521 -0.2093  0.2103 -0.1654
  199loPI   C3B 3183  15.286  15.401  10.190  0.1625  0.0793 -0.2447
  199loPI   C4B 3184  15.216  15.325   9.807  0.1156  0.0783 -0.2665
  200loPI    C1 3185  11.480  14.240  11.881  0.0225 -0.1350 -0.1371
  200loPI    C2 3186  11.429  14.563  12.111  0.1451 -0.0874 -0.1760
  200loPI    C3 3187  11.228  14.227  12.191  0.1088 -0.0392 -0.0620
  200loPI   PO4 3188  11.453  14.276  11.646  0.2181  0.2302 -0.2562
  200loPI   GL1 3189  11.270  14.090  11.348  0.0662  0.1823 -0.2204
  200loPI   GL2 3190  10.955  14.192  11.299 -0.1902  0.0026 -0.1067
  200loPI   C1A 3191  11.442  14.115  11.000 -0.2140 -0.0750  0.1647
  200loPI   C2A 3192  11.499  14.273  10.508 -0.0492  0.2492 -0.1048
  200loPI   C3A 3193  11.473  14.277  10.084 -0.3617 -0.2167 -0.3006
  200loPI   C4A 3194  11.519  14.200   9.704 -0.1712 -0.4133  0.3054
  200loPI   C5A 3195  11.611  14.173   9.280 -0.1436  0.0877  0.2074
  200loPI   C6A 3196  11.713  13.994   8.832  0.1495 -0.3059  0.0113
  200loPI   C1B 3197  10.961  14.195  10.864 -0.2310  0.0545 -0.2154
  200loPI   C2B 3198  10.978  14.272  10.407  0.1029 -0.2790 -0.2738
  200loPI   C3B 3199  10.973  14.159  10.051 -0.0370  0.0552  0.1640
  200loPI   C4B 3200  11.073  14.047   9.631  0.3414 -0.0615 -0.1929
  201loPI    C1 3201  10.292   9.904  11.492  0.1194 -0.0258 -0.0730
  201loPI    C2 3202  10.262  10.297  11.564  0.0859 -0.0123 -0.1584
  201loPI    C3 3203  10.104  10.033  11.820  0.2512  0.0248 -0.0168
  201loPI   PO4 3204  10.522   9.902  11.371 -0.0039  0.1138 -0.0445
  201loPI   GL1 3205  10.675   9.708  11.086 -0.0137 -0.0895  0.1566
  201loPI   GL2 3206  10.612   9.374  10.913 -0.0194  0.1474 -0.3001
  201loPI   C1A 3207  10.791  10.017  10.805 -0.0148 -0.2306  0.0569
  201loPI   C2A 3208  10.715  10.090  10.361  0.0494 -0.0172  0.0102
  201loPI   C3A 3209  10.761   9.892   9.915 -0.1852 -0.1682 -0.0482
  201loPI   C4A 3210  10.823   9.962   9.562 -0.0197 -0.1462  0.0178
  201loPI   C5A 3211  10.872  10.095   9.207  0.2416 -0.1607 -0.0198
  201loPI   C6A 3212  10.955   9.724   8.928 -0.3440 -0.0335 -0.0666
  201loPI   C1B 3213  10.590   9.494  10.515 -0.2653  0.0097  0.1320
  201loPI   C2B 3214  10.640   9.443  10.056 -0.1372  0.2256  0.2242
  201loPI   C3B 3215  10.638   9.472   9.673 -0.4430  0.0694  0.0076
  201loPI   C4B 3216  10.655   9.569   9.270 -0.0921  0.0033  0.0785
  202loPI    C1 3217  14.196  10.464  11.380  0.0345  0.1176  0.1339
  202loPI    C2 3218  14.225  10.259  11.722 -0.2018 -0.1110  0.0203
  202loPI    C3 3219  14.258  10.069  11.372 -0.0003  0.1155 -0.0861
  202loPI   PO4 3220  14.401  10.627  11.415  0.1447  0.1040 -0.2258
  202loPI   GL1 3221  14.450  10.920  11.102 -0.2661  0.0833  0.1667
  202loPI   GL2 3222  14.344  10.596  10.923 -0.5380  0.0904 -0.1580
  202loPI   C1A 3223  14.449  11.175  10.729  0.0389 -0.2151  0.0363
  202loPI   C2A 3224  14.556  11.083  10.258  0.0101 -0.2070  0.1404
  202loPI   C3A 3225  14.559  11.049   9.818 -0.3414  0.0556 -0.0027
  202loPI   C4A 3226  14.459  11.019   9.401 -0.1012  0.0317  0.0141
  202loPI   C5A 3227  14.176  11.060   8.996 -0.0643 -0.1113  0.1229
  202loPI   C6A 3228  13.835  11.099   8.797 -0.1797  0.2032  0.0336
  202loPI   C1B 3229  14.371  10.655  10.476 -0.0155 -0.3309 -0.2099
  202loPI   C2B 3230  14.415  10.598  10.008 -0.0124  0.0978 -0.2543
  202loPI   C3B 3231  14.332  10.520   9.573 -0.2922  0.0115  0.3264
  202loPI   C4B 3232  14.381  10.521   9.042 -0.1529  0.1929 -0.1208
  203loPI    C1 3233   0.300  16.595  11.221  0.2047 -0.1699  0.2385
  203loPI    C2 3234   0.227  16.765  11.576 -0.0036  0.1010  0.0699
  203loPI    C3 3235   0.508  16.918  11.336 -0.0715  0.1027 -0.0090
  203loPI   PO4 3236   0.077  16.627  11.100 -0.1680  0.0587 -0.0511
  203loPI   GL1 3237  -0.110  16.831  10.751 -0.1099 -0.1600  0.2252
  203loPI   GL2 3238  -0.070  17.094  10.570 -0.1380 -0.1314  0.1592
  203loPI   C1A 3239  -0.479  16.820  10.464 -0.0749  0.0915 -0.1223
  203loPI   C2A 3240  -0.575  16.777   9.965  0.1392  0.1972 -0.0676
  203loPI   C3A 3241  -0.482  16.596   9.538 -0.3947  0.0395 -0.1836
  203loPI   C4A 3242  -0.666  16.319   9.196 -0.2336 -0.3940 -0.2649
  203loPI   C5A 3243  -0.923  16.120   8.976  0.0105  0.2983  0.0455
  203loPI   C6A 3244  -1.017  16.117   8.569 -0.1059  0.1717  0.1090
  203loPI   C1B 3245  -0.119  17.027  10.083  0.1076 -0.0725 -0.0471
  203loPI   C2B 3246  -0.112  16.983   9.675 -0.0714  0.3958  0.0355
  203loPI   C3B 3247  -0.241  17.100   9.310 -0.1099 -0.4368  0.0649
  203loPI   C4B 3248  -0.477  17.298   8.958 -0.2398  0.1705  0.2886
  204loPI    C1 3249   8.806  15.771  11.653  0.0800  0.0450  0.0292
  204loPI    C2 3250   8.488  15.910  11.852  0.1274  0.2502 -0.0366
  204loPI    C3 3251   8.853  15.945  12.010  0.1022 -0.1381  0.1166
  204loPI   PO4 3252   8.702  15.554  11.507 -0.5382  0.0085  0.0406
  204loPI   GL1 3253   8.846  15.407  11.157 -0.0861  0.1169 -0.0771
  204loPI   GL2 3254   8.731  15.601  10.930 -0.1042 -0.2121  0.1638
  204loPI   C1A 3255   9.118  15.234  10.768  0.1424  0.0152  0.0570
  204loPI   C2A 3256   9.077  15.248  10.368 -0.1493  0.1189  0.1114
  204loPI   C3A 3257   8.969  15.134   9.919 -0.3852 -0.2100  0.1816
  204loPI   C4A 3258   8.810  15.188   9.506  0.2162  0.2768 -0.0820
  204loPI   C5A 3259   8.660  15.369   9.184  0.0452 -0.1090  0.0937
  204loPI   C6A 3260   8.467  15.772   9.005  0.0628  0.0292  0.1457
  204loPI   C1B 3261   8.894  15.690  10.526 -0.1581 -0.0786  0.0631
  204loPI   C2B 3262   8.898  15.590  10.104  0.0510 -0.0688  0.1357
  204loPI   C3B 3263   9.153  15.579   9.715 -0.0410  0.2278 -0.2968
  204loPI   C4B 3264   9.205  15.650   9.361  0.0608 -0.2406 -0.0375
  205loPI    C1 3265  13.344  14.833  11.993  0.0949 -0.2253 -0.0677
  205loPI    C2 3266  13.285  15.229  11.982 -0.0731 -0.2460  0.0592
  205loPI    C3 3267  13.407  15.054  12.320 -0.1807 -0.3267  0.0569
  205loPI   PO4 3268  13.536  14.768  11.780  0.1490 -0.0004  0.2241
  205loPI   GL1 3269  13.670  14.813  11.403  0.1137  0.0323  0.0910
  205loPI   GL2 3270  13.476  14.888  11.163  0.1648  0.1061 -0.3499
  205loPI   C1A 3271  13.807  14.412  11.177  0.2350 -0.2564 -0.1399
  205loPI   C2A 3272  13.828  14.253  10.779  0.0864 -0.1836  0.0672
  205loPI   C3A 3273  13.858  14.139  10.321  0.3043  0.0037  0.2634
  205loPI   C4A 3274  13.797  14.135   9.941 -0.0457  0.0130  0.2753
  205loPI   C5A 3275  13.952  14.192   9.463  0.1231  0.3808  0.1491
  205loPI   C6A 3276  13.994  14.275   9.128  0.1412 -0.0943  0.1000
  205loPI   C1B 3277  13.484  14.650  10.773 -0.1762  0.2971  0.0246
  205loPI   C2B 3278  13.503  14.482  10.301 -0.1587 -0.2668  0.0801
  205loPI   C3B 3279  13.473  14.593   9.863  0.0362 -0.3202  0.1019
  205loPI   C4B 3280  13.507  14.525   9.361  0.1957  0.0229  0.0102
  206loPI    C1 3281  15.616  10.116  11.611  0.2216  0.0051  0.1638
  206loPI    C2 3282  15.550   9.741  11.734 -0.0802 -0.0316 -0.0955
  206loPI    C3 3283  15.485  10.047  11.983 -0.0561 -0.1377  0.0427
  206loPI   PO4 3284  15.506  10.130  11.407  0.3385 -0.3491  0.0148
  206loPI   GL1 3285  15.140  10.335  11.291 -0.0604 -0.1517  0.2251
  206loPI   GL2 3286  14.912  10.677  11.187 -0.0060 -0.0263 -0.2251
  206loPI   C1A 3287  15.210  10.295  10.798  0.1963 -0.0248  0.0073
  206loPI   C2A 3288  15.273  10.248  10.334  0.4726 -0.0353  0.2525
  206loPI   C3A 3289  15.264  10.343   9.880  0.2967 -0.1581 -0.0999
  206loPI   C4A 3290  15.265  10.328   9.494 -0.0590 -0.2228  0.1059
  206loPI   C5A 3291  15.215   9.983   9.203 -0.1696  0.0307 -0.0281
  206loPI   C6A 3292  14.995   9.711   8.897  0.0806 -0.0227 -0.2266
  206loPI   C1B 3293  14.789  10.644  10.809 -0.0176 -0.0163 -0.1547
  206loPI   C2B 3294  14.912  10.760  10.391 -0.1858 -0.1729  0.1382
  206loPI   C3B 3295  14.922  10.726   9.942 -0.1136 -0.2171 -0.0519
  206loPI   C4B 3296  14.785  10.645   9.401 -0.1053  0.1459  0.2861
  207loPI    C1 3297  17.336   8.682  11.849  0.1020  0.0659 -0.1357
  207loPI    C2 3298  17.204   9.051  11.933 -0.0640 -0.0649  0.1953
  207loPI    C3 3299  17.597   8.981  11.902 -0.0308  0.1324  0.1606
  207loPI   PO4 3300  17.183   8.557  11.661 -0.1797 -0.1394  0.2373
  207loPI   GL1 3301  17.118   8.604  11.196  0.0599  0.1794  0.3555
  207loPI   GL2 3302  17.382   8.642  11.018 -0.0114  0.1026  0.0191
  207loPI   C1A 3303  16.852   8.735  10.773  0.1208  0.0748  0.2274
  207loPI   C2A 3304  16.651   8.708  10.390 -0.1451  0.0093 -0.0331
  207loPI   C3A 3305  16.631   8.743   9.926  0.3324 -0.1156  0.1096
  207loPI   C4A 3306  16.734   8.662   9.553 -0.1401  0.0157 -0.1476
  207loPI   C5A 3307  16.484   8.843   9.194  0.0593 -0.0413 -0.0489
  207loPI   C6A 3308  16.320   9.230   9.056  0.1884  0.4968  0.0273
  207loPI   C1B 3309  17.369   8.912  10.707  0.2323  0.0525  0.0719
  207loPI   C2B 3310  17.257   8.854  10.230 -0.1559  0.3703 -0.2027
  207loPI   C3B 3311  17.129   8.820   9.868  0.1611 -0.1717 -0.0450
  207loPI   C4B 3312  17.208   8.751   9.372 -0.1346 -0.1635 -0.2007
  208loPI    C1 3313  11.902   7.226  11.245  0.1256 -0.1500  0.0595
  208loPI    C2 3314  11.624   7.323  11.516  0.1040  0.0295 -0.0252
  208loPI    C3 3315  11.958   7.136  11.631  0.2048  0.3175  0.1643
  208loPI   PO4 3316  11.732   7.207  11.050 -0.2454  0.2874  0.1790
  208loPI   GL1 3317  11.421   7.201  10.744  0.1608 -0.2802 -0.1421
  208loPI   GL2 3318  11.503   7.577  10.808  0.1907 -0.1560  0.2284
  208loPI   C1A 3319  11.382   7.083  10.322  0.1952  0.0480  0.0074
  208loPI   C2A 3320  11.312   7.311  10.008 -0.2278 -0.3014 -0.0603
  208loPI   C3A 3321  11.337   7.267   9.570  0.2193  0.0732 -0.2015
  208loPI   C4A 3322  11.309   7.243   9.119  0.0978  0.0370  0.1962
  208loPI   C5A 3323  11.522   7.263   8.776 -0.2159 -0.1956  0.0015
  208loPI   C6A 3324  11.858   7.404   8.576 -0.1330  0.0452 -0.1377
  208loPI   C1B 3325  11.406   7.712  10.396 -0.1471 -0.3849  0.0166
  208loPI   C2B 3326  11.399   7.804   9.990  0.1902 -0.2766  0.1176
  208loPI   C3B 3327  11.488   7.804   9.580 -0.2748  0.0985 -0.0598
  208loPI   C4B 3328  11.553   7.726   9.205 -0.1296  0.2573  0.0365
  209loPI    C1 3329  15.522   8.288  11.613 -0.0925  0.0490 -0.0934
  209loPI    C2 3330  15.911   8.362  11.555 -0.0507  0.1930  0.3350
  209loPI    C3 3331  15.797   8.094  11.829 -0.2472 -0.2070 -0.1224
  209loPI   PO4 3332  15.363   8.505  11.639 -0.2157  0.1937  0.0376
  209loPI   GL1 3333  15.051   8.658  11.311 -0.0421  0.1632  0.0958
  209loPI   GL2 3334  14.962   8.804  11.253 -0.2096 -0.1000  0.0174
  209loPI   C1A 3335  15.108   8.406  10.914 -0.0648 -0.2489 -0.0710
  209loPI   C2A 3336  15.147   8.349  10.461  0.0753  0.3918  0.0969
  209loPI   C3A 3337  15.129   8.469  10.051  0.1939  0.1479 -0.1556
  209loPI   C4A 3338  15.218   8.475   9.547  0.1541  0.3135  0.1307
  209loPI   C5A 3339  15.195   8.566   9.118  0.6022 -0.0259 -0.0602
  209loPI   C6A 3340  15.495   8.803   8.840  0.2282 -0.0761  0.0498
  209loPI   C1B 3341  15.177   8.857  10.855  0.0161 -0.1370 -0.4442
  209loPI   C2B 3342  15.375   8.863  10.385  0.3750  0.1273  0.1653
  209loPI   C3B 3343  15.294   8.919   9.952  0.0571 -0.1310 -0.0473
  209loPI   C4B 3344  15.340   8.953   9.469  0.0634  0.0946  0.2936
  210loPI    C1 3345   2.337  14.574  11.364 -0.0983  0.0584 -0.0028
  210loPI    C2 3346   2.021  14.743  11.543 -0.1449 -0.1628  0.1276
  210loPI    C3 3347   2.223  14.451  11.727 -0.0150 -0.1935 -0.0601
  210loPI   PO4 3348   2.257  14.501  11.034  0.2066  0.1081 -0.0809
  210loPI   GL1 3349   2.297  14.206  10.792 -0.0429  0.0588 -0.2662
  210loPI   GL2 3350   2.092  13.937  10.849 -0.0667 -0.2558 -0.1426
  210loPI   C1A 3351   2.471  14.373  10.463  0.1062  0.1830  0.0680
  210loPI   C2A 3352   2.448  14.573  10.211 -0.1995 -0.0587 -0.0209
  210loPI   C3A 3353   2.412  14.593   9.846  0.2450  0.0253  0.3205
  210loPI   C4A 3354   2.585  14.588   9.489  0.0364 -0.0088  0.0085
  210loPI   C5A 3355   2.428  14.697   9.133  0.0529 -0.4479 -0.0233
  210loPI   C6A 3356   2.598  14.984   8.936 -0.2038 -0.2726 -0.0968
  210loPI   C1B 3357   2.277  13.922  10.423  0.0057 -0.0622 -0.2009
  210loPI   C2B 3358   2.340  14.118  10.013 -0.4409 -0.0709  0.0536
  210loPI   C3B 3359   2.279  14.224   9.585 -0.1685 -0.2017  0.2169
  210loPI   C4B 3360   2.321  14.231   9.120 -0.0580 -0.1126 -0.1112
  211loPI    C1 3361   9.242   6.355  11.269 -0.3523 -0.5015 -0.0775
  211loPI    C2 3362   9.164   6.129  11.589 -0.0825 -0.2067  0.2037
  211loPI    C3 3363   9.149   6.528  11.618 -0.0627 -0.1772 -0.1550
  211loPI   PO4 3364   9.149   6.190  11.028  0.1702  0.1502 -0.0761
  211loPI   GL1 3365   9.179   6.100  10.556 -0.0243 -0.2369  0.3857
  211loPI   GL2 3366   9.347   6.344  10.404  0.1875  0.0577  0.1001
  211loPI   C1A 3367   8.947   5.928  10.306 -0.1681 -0.0279  0.0560
  211loPI   C2A 3368   8.939   5.901   9.838  0.0556  0.0464 -0.1093
  211loPI   C3A 3369   9.000   5.879   9.466 -0.0150  0.1674  0.1815
  211loPI   C4A 3370   8.990   5.917   9.079 -0.0038  0.1819 -0.1999
  211loPI   C5A 3371   9.129   6.015   8.617  0.2262 -0.1280  0.1832
  211loPI   C6A 3372   9.211   6.402   8.641  0.0455 -0.2082  0.0103
  211loPI   C1B 3373   9.483   6.368  10.101 -0.2241 -0.0148  0.2618
  211loPI   C2B 3374   9.547   6.449   9.648 -0.3012 -0.0457 -0.1551
  211loPI   C3B 3375   9.638   6.440   9.230  0.0598  0.0173  0.2514
  211loPI   C4B 3376   9.715   6.458   8.779  0.1081 -0.0072 -0.0298
  212loPI    C1 3377   3.819   3.102  11.445  0.1809  0.0665 -0.1282
  212loPI    C2 3378   3.664   3.437  11.597  0.2670 -0.0442  0.2121
  212loPI    C3 3379   3.609   3.088  11.785  0.3044 -0.1985 -0.0593
  212loPI   PO4 3380   3.761   3.237  11.099 -0.0644  0.3794 -0.0549
  212loPI   GL1 3381   3.670   3.447  10.815  0.1364 -0.3108 -0.1783
  212loPI   GL2 3382   3.433   3.591  10.915 -0.1031  0.0565 -0.2144
  212loPI   C1A 3383   3.562   3.587  10.409  0.0251  0.2917 -0.3530
  212loPI   C2A 3384   3.526   3.816   9.961  0.1693 -0.0683  0.0322
  212loPI   C3A 3385   3.508   3.796   9.583 -0.0472  0.2165 -0.1638
  212loPI   C4A 3386   3.733   3.827   9.204 -0.0911 -0.1274 -0.2437
  212loPI   C5A 3387   3.937   4.202   9.001  0.1917 -0.0334 -0.3255
  212loPI   C6A 3388   3.790   4.472   8.665  0.2342  0.1806  0.1505
  212loPI   C1B 3389   3.427   4.007  10.724  0.1228 -0.2350 -0.4284
  212loPI   C2B 3390   3.647   4.064  10.403 -0.3330  0.0784  0.2843
  212loPI   C3B 3391   3.770   4.233   9.980 -0.2168 -0.1145  0.1432
  212loPI   C4B 3392   3.757   4.257   9.497 -0.0046  0.1559 -0.1536
  213loPI    C1 3393   8.854   0.008  11.369  0.0538  0.1168  0.1086
  213loPI    C2 3394   9.014   0.347  11.510  0.1850  0.0369  0.1538
  213loPI    C3 3395   8.789   0.119  11.748  0.1003  0.0897  0.1247
  213loPI   PO4 3396   8.746   0.093  11.176 -0.0034  0.2275  0.0784
  213loPI   GL1 3397   8.606   0.168  10.780  0.0092  0.1432  0.0644
  213loPI   GL2 3398   8.889   0.032  10.673 -0.4227  0.2709 -0.1135
  213loPI   C1A 3399   8.460   0.186  10.324 -0.1506  0.2048 -0.0016
  213loPI   C2A 3400   8.260   0.152   9.856  0.2120  0.0567  0.1018
  213loPI   C3A 3401   8.380  -0.010   9.616  0.0083  0.1606  0.3013
  213loPI   C4A 3402   8.424  -0.054   9.170  0.0243 -0.0956  0.0596
  213loPI   C5A 3403   8.444  -0.485   8.885 -0.0721 -0.2700  0.1037
  213loPI   C6A 3404   8.778  -0.804   8.699  0.0826 -0.1782  0.4834
  213loPI   C1B 3405   9.127   0.000  10.215 -0.0138 -0.0461  0.1014
  213loPI   C2B 3406   9.190  -0.003   9.784  0.1676  0.0687  0.2502
  213loPI   C3B 3407   9.256  -0.111   9.259 -0.0237 -0.0132  0.0589
  213loPI   C4B 3408   9.049  -0.121   8.801  0.0816 -0.0311 -0.4913
  214loPI    C1 3409  14.997  17.168  11.805 -0.0205  0.1147 -0.0795
  214loPI    C2 3410  14.772  16.939  12.042  0.0194 -0.1387 -0.2817
  214loPI    C3 3411  14.724  17.336  12.043 -0.1274 -0.1546 -0.0090
  214loPI   PO4 3412  15.077  16.936  11.633  0.0182 -0.3726 -0.1450
  214loPI   GL1 3413  15.120  16.662  11.241 -0.3520 -0.0181 -0.1043
  214loPI   GL2 3414  15.174  16.897  11.072 -0.1070  0.2120  0.0921
  214loPI   C1A 3415  15.138  16.392  10.905 -0.4075  0.1239 -0.1029
  214loPI   C2A 3416  15.172  16.211  10.508 -0.0734  0.2917 -0.0346
  214loPI   C3A 3417  15.141  16.261  10.030  0.0452 -0.2374 -0.1102
  214loPI   C4A 3418  15.125  16.304   9.559  0.1148 -0.0037 -0.1063
  214loPI   C5A 3419  15.208  16.352   9.166 -0.0486  0.0650  0.2432
  214loPI   C6A 3420  15.321  16.315   8.738 -0.0301  0.2487  0.0349
  214loPI   C1B 3421  14.941  16.791  10.645 -0.1682  0.0984 -0.1145
  214loPI   C2B 3422  14.930  16.606  10.250 -0.3332  0.1133 -0.1854
  214loPI   C3B 3423  14.812  16.627   9.789  0.0255 -0.0696 -0.0386
  214loPI   C4B 3424  14.784  16.638   9.260 -0.0636 -0.0089  0.1634
  215loPI    C1 3425  11.273   2.040  11.351  0.0481  0.0234  0.0399
  215loPI    C2 3426  10.964   2.271  11.456 -0.0782 -0.2300  0.2358
  215loPI    C3 3427  11.097   1.988  11.706  0.1515 -0.2913  0.0484
  215loPI   PO4 3428  11.282   2.047  11.117  0.5422  0.0199 -0.0259
  215loPI   GL1 3429  11.652   1.885  10.738  0.0550 -0.4364 -0.1399
  215loPI   GL2 3430  11.303   1.695  10.741  0.3066 -0.1782 -0.0014
  215loPI   C1A 3431  11.784   1.827  10.318  0.0366 -0.4254 -0.3186
  215loPI   C2A 3432  11.830   1.769   9.864 -0.1232  0.2167 -0.0611
  215loPI   C3A 3433  11.942   1.800   9.453  0.3311 -0.0828 -0.0290
  215loPI   C4A 3434  11.988   1.933   9.096  0.1324  0.3130  0.3418
  215loPI   C5A 3435  11.950   2.289   8.710  0.0557 -0.0549 -0.1099
  215loPI   C6A 3436  12.058   2.204   8.324  0.1983 -0.0685 -0.2935
  215loPI   C1B 3437  11.281   1.794  10.287  0.1410 -0.4038 -0.2166
  215loPI   C2B 3438  11.314   1.778   9.879  0.1488  0.2122 -0.0857
  215loPI   C3B 3439  11.441   1.681   9.539  0.2386 -0.0362 -0.0447
  215loPI   C4B 3440  11.440   1.697   9.183 -0.5289  0.3900 -0.3284
  216loPI    C1 3441   9.115   7.883  10.825 -0.0990 -0.0149  0.1049
  216loPI    C2 3442   8.982   7.885  11.202 -0.0131 -0.3732  0.1404
  216loPI    C3 3443   8.794   8.101  10.923  0.1367  0.1840  0.4565
  216loPI   PO4 3444   9.118   7.524  10.772 -0.0370  0.1277 -0.1180
  216loPI   GL1 3445   9.293   7.483  10.463  0.0422  0.0985  0.0642
  216loPI   GL2 3446   9.299   7.288  10.354 -0.3079 -0.1035 -0.1710
  216loPI   C1A 3447   9.106   7.848  10.264  0.3291 -0.1271 -0.2166
  216loPI   C2A 3448   9.049   7.835   9.887  0.1115 -0.3594 -0.0370
  216loPI   C3A 3449   9.182   7.868   9.473  0.0385  0.0717  0.0169
  216loPI   C4A 3450   9.148   7.696   9.054  0.2499  0.1510  0.1108
  216loPI   C5A 3451   8.823   7.579   8.766  0.3485 -0.0219  0.1991
  216loPI   C6A 3452   8.665   7.423   8.383 -0.3857  0.0394  0.1787
  216loPI   C1B 3453   9.392   7.481   9.942  0.0176 -0.0397 -0.1356
  216loPI   C2B 3454   9.453   7.403   9.485  0.1819 -0.1744  0.2523
  216loPI   C3B 3455   9.494   7.355   9.130 -0.2971 -0.0711  0.1340
  216loPI   C4B 3456   9.575   7.307   8.691  0.1864 -0.2523 -0.0713
  217loPI    C1 3457   5.107   8.605  11.156  0.1875  0.0830 -0.0162
  217loPI    C2 3458   5.008   8.381  11.472  0.2704  0.0386 -0.0213
  217loPI    C3 3459   5.188   8.735  11.526  0.2400  0.0536 -0.0173
  217loPI   PO4 3460   5.208   8.464  10.958 -0.3378 -0.0968 -0.1844
  217loPI   GL1 3461   5.301   8.386  10.513 -0.0314 -0.0023  0.2086
  217loPI   GL2 3462   5.506   8.610  10.336  0.0185  0.0523  0.2134
  217loPI   C1A 3463   5.588   8.110  10.250  0.1473 -0.3350  0.0130
  217loPI   C2A 3464   5.655   8.028   9.854  0.0239  0.3732  0.2374
  217loPI   C3A 3465   5.823   7.996   9.517 -0.2549 -0.3379 -0.0575
  217loPI   C4A 3466   5.960   7.902   9.138  0.0091  0.1702 -0.1598
  217loPI   C5A 3467   5.979   7.912   8.715  0.0259 -0.0190 -0.0894
  217loPI   C6A 3468   5.949   8.061   8.325 -0.2101  0.0086 -0.1636
  217loPI   C1B 3469   5.510   8.471   9.792  0.0235  0.1484 -0.0816
  217loPI   C2B 3470   5.366   8.156   9.475  0.0007  0.0855  0.0491
  217loPI   C3B 3471   5.468   7.873   9.118 -0.3035  0.3002 -0.0026
  217loPI   C4B 3472   5.572   7.463   9.183 -0.0368  0.1124  0.1350
  218loPI    C1 3473  12.141   5.943  11.622 -0.0776  0.0305  0.0086
  218loPI    C2 3474  12.045   5.683  11.911  0.1906 -0.0636  0.0156
  218loPI    C3 3475  12.399   5.870  11.919  0.0429  0.2243 -0.0468
  218loPI   PO4 3476  12.069   5.805  11.436 -0.0938  0.2336  0.0373
  218loPI   GL1 3477  11.923   5.804  11.075 -0.0705 -0.3490  0.1238
  218loPI   GL2 3478  12.146   5.609  10.926  0.0053  0.0555  0.1470
  218loPI   C1A 3479  11.878   5.977  10.651 -0.1901  0.1329  0.1172
  218loPI   C2A 3480  11.891   6.004  10.143 -0.2534  0.1410  0.3365
  218loPI   C3A 3481  11.944   5.952   9.660 -0.0535 -0.4226  0.1610
  218loPI   C4A 3482  11.780   5.972   9.283 -0.2106 -0.4455  0.0953
  218loPI   C5A 3483  11.857   5.670   8.964 -0.0671  0.2823 -0.1200
  218loPI   C6A 3484  12.224   5.575   8.781 -0.3216  0.1426  0.2977
  218loPI   C1B 3485  12.172   5.608  10.495 -0.0137 -0.0344  0.3848
  218loPI   C2B 3486  12.245   5.682  10.136  0.1370 -0.0714 -0.1376
  218loPI   C3B 3487  12.274   5.587   9.678  0.1332  0.0861  0.0367
  218loPI   C4B 3488  12.294   5.713   9.274 -0.0123  0.2324  0.0321
  219loPI    C1 3489  14.859   2.644  11.057 -0.0854  0.1167  0.0005
  219loPI    C2 3490  14.752   2.309  11.247 -0.0410  0.1611  0.1049
  219loPI    C3 3491  14.753   2.658  11.442  0.0069  0.2072  0.0231
  219loPI   PO4 3492  15.107   2.531  10.921  0.1307 -0.1643 -0.4019
  219loPI   GL1 3493  15.327   2.489  10.585  0.0646  0.1941 -0.5946
  219loPI   GL2 3494  15.193   2.892  10.564 -0.0418  0.5855 -0.1430
  219loPI   C1A 3495  15.006   2.266  10.318  0.2475 -0.2171 -0.2301
  219loPI   C2A 3496  15.026   2.305   9.798 -0.0188 -0.1269 -0.3288
  219loPI   C3A 3497  14.991   2.160   9.375  0.1797 -0.1445  0.1164
  219loPI   C4A 3498  15.080   2.288   9.074  0.0236 -0.2577  0.0744
  219loPI   C5A 3499  15.145   1.945   8.705  0.0184  0.0309  0.3186
  219loPI   C6A 3500  15.424   1.699   8.471  0.0356  0.0576 -0.3880
  219loPI   C1B 3501  15.315   2.839  10.129  0.0072  0.0703 -0.1653
  219loPI   C2B 3502  15.208   2.901   9.697  0.0882  0.0135 -0.1927
  219loPI   C3B 3503  15.217   2.786   9.295  0.1165 -0.0769  0.1634
  219loPI   C4B 3504  15.304   2.667   8.894 -0.3559  0.0474 -0.2220
  220loPI    C1 3505  11.244   9.430  11.669 -0.1589  0.3053 -0.1199
  220loPI    C2 3506  11.387   9.449  12.042 -0.0971 -0.0295 -0.1236
  220loPI    C3 3507  11.011   9.562  11.966 -0.1101  0.0396  0.0393
  220loPI   PO4 3508  11.311   9.115  11.547  0.0651 -0.0325  0.0553
  220loPI   GL1 3509  11.253   8.676  11.296 -0.0066 -0.1923 -0.1020
  220loPI   GL2 3510  11.502   8.876  11.096  0.1471  0.1067  0.2336
  220loPI   C1A 3511  11.108   8.619  10.900 -0.1009  0.2341 -0.1503
  220loPI   C2A 3512  11.245   8.685  10.473  0.0533  0.1028 -0.4151
  220loPI   C3A 3513  11.343   8.670  10.021 -0.0521  0.0122 -0.0999
  220loPI   C4A 3514  11.278   8.697   9.628  0.1008  0.2951  0.2102
  220loPI   C5A 3515  11.363   8.682   9.178  0.2561  0.0444 -0.3881
  220loPI   C6A 3516  11.383   8.573   8.763  0.2049  0.0148 -0.1803
  220loPI   C1B 3517  11.424   9.123  10.630  0.3564  0.2035  0.0771
  220loPI   C2B 3518  11.418   9.161  10.165 -0.1637  0.0079 -0.0543
  220loPI   C3B 3519  11.459   9.144   9.700 -0.0397  0.1157 -0.0628
  220loPI   C4B 3520  11.629   9.191   9.278  0.1112  0.0118 -0.1121
  221loPI    C1 3521   9.996   7.989  11.371  0.2518 -0.1537  0.0118
  221loPI    C2 3522  10.369   8.020  11.510  0.1051  0.3043  0.3265
  221loPI    C3 3523  10.066   8.187  11.711 -0.2365  0.1776 -0.0693
  221loPI   PO4 3524  10.074   8.075  11.071  0.0135  0.1604 -0.1263
  221loPI   GL1 3525  10.274   7.831  10.708 -0.0016 -0.2280  0.0383
  221loPI   GL2 3526  10.499   8.069  10.636 -0.2149  0.1927 -0.0618
  221loPI   C1A 3527  10.073   7.888  10.348 -0.0846 -0.0155  0.1968
  221loPI   C2A 3528  10.164   7.966   9.958 -0.1046 -0.1781 -0.0522
  221loPI   C3A 3529  10.251   8.045   9.584  0.1148  0.3154 -0.2162
  221loPI   C4A 3530  10.321   7.942   9.164 -0.1025  0.1603  0.0523
  221loPI   C5A 3531  10.179   8.045   8.770  0.2306 -0.1170  0.2086
  221loPI   C6A 3532  10.058   8.375   8.574  0.2427 -0.1544 -0.2347
  221loPI   C1B 3533  10.603   8.026  10.333  0.1051 -0.3741 -0.3882
  221loPI   C2B 3534  10.692   8.089   9.925  0.2123 -0.1163 -0.0430
  221loPI   C3B 3535  10.758   8.015   9.493  0.0281  0.1407 -0.2334
  221loPI   C4B 3536  10.780   8.033   9.047  0.1066  0.0305 -0.2437
  222loPI    C1 3537   7.796   5.465  11.076  0.0574 -0.0582 -0.0837
  222loPI    C2 3538   8.140   5.633  10.961  0.2037 -0.3042 -0.0128
  222loPI    C3 3539   8.107   5.475  11.328 -0.0675 -0.0576  0.0724
  222loPI   PO4 3540   7.738   5.340  10.883 -0.0869 -0.0734 -0.2207
  222loPI   GL1 3541   7.698   5.113  10.417 -0.0093  0.0529 -0.0865
  222loPI   GL2 3542   7.758   4.773  10.451  0.1467  0.1607  0.1069
  222loPI   C1A 3543   7.681   5.160   9.993  0.0578 -0.0654  0.0812
  222loPI   C2A 3544   7.792   5.137   9.620  0.1060 -0.1290  0.0006
  222loPI   C3A 3545   7.801   5.200   9.272  0.0959  0.1957 -0.1958
  222loPI   C4A 3546   7.743   5.285   8.816 -0.2040  0.1559  0.1395
  222loPI   C5A 3547   7.737   5.380   8.402 -0.1576 -0.0283 -0.3070
  222loPI   C6A 3548   7.630   5.765   8.258 -0.2222  0.0375 -0.1947
  222loPI   C1B 3549   7.694   4.644  10.035  0.2786  0.2088 -0.1574
  222loPI   C2B 3550   7.630   4.641   9.585  0.0933 -0.1578  0.4216
  222loPI   C3B 3551   7.835   4.441   9.183  0.0831  0.1460  0.2252
  222loPI   C4B 3552   7.878   4.266   8.795  0.0568  0.1128  0.1120
  223loPI    C1 3553  16.774   4.310  11.519  0.1210 -0.1575  0.0352
  223loPI    C2 3554  17.132   4.489  11.512 -0.0162  0.1174 -0.0937
  223loPI    C3 3555  17.073   4.170  11.745  0.3442 -0.0005 -0.1576
  223loPI   PO4 3556  16.736   4.212  11.305  0.0658  0.1066 -0.0530
  223loPI   GL1 3557  16.342   4.311  10.973 -0.1013  0.2563  0.2028
  223loPI   GL2 3558  16.214   4.029  10.814  0.0169  0.0870 -0.1845
  223loPI   C1A 3559  16.316   4.425  10.522  0.0071 -0.1362 -0.2084
  223loPI   C2A 3560  16.312   4.418  10.135 -0.0534  0.0328  0.0745
  223loPI   C3A 3561  16.234   4.486   9.651 -0.0005 -0.0216  0.2176
  223loPI   C4A 3562  16.159   4.626   9.178  0.0361  0.1951  0.2050
  223loPI   C5A 3563  16.416   4.646   8.807  0.2107  0.0972  0.2695
  223loPI   C6A 3564  16.414   4.734   8.337 -0.0566 -0.0175 -0.1043
  223loPI   C1B 3565  16.110   3.935  10.399 -0.3595 -0.1046 -0.0396
  223loPI   C2B 3566  16.131   3.985   9.967  0.1876  0.2762 -0.0228
  223loPI   C3B 3567  16.090   3.917   9.640 -0.1464 -0.4743 -0.1031
  223loPI   C4B 3568  16.008   3.831   9.226  0.3504  0.3799  0.1224
  224loPI    C1 3569   6.290  13.548  10.939  0.2213  0.0867 -0.0372
  224loPI    C2 3570   6.541  13.634  11.238  0.1500 -0.0001  0.0484
  224loPI    C3 3571   6.156  13.741  11.263  0.1746  0.1207 -0.0765
  224loPI   PO4 3572   6.438  13.334  10.858  0.4274 -0.1750  0.1597
  224loPI   GL1 3573   6.577  13.290  10.428  0.2016 -0.0215 -0.0961
  224loPI   GL2 3574   6.900  13.323  10.478  0.3087  0.1303  0.0142
  224loPI   C1A 3575   6.511  13.270  10.007 -0.1116  0.0904 -0.2749
  224loPI   C2A 3576   6.307  13.394   9.661  0.1125 -0.1390 -0.0265
  224loPI   C3A 3577   6.227  13.611   9.257  0.1695  0.1674 -0.1372
  224loPI   C4A 3578   6.204  14.020   9.066  0.2641  0.2254 -0.2535
  224loPI   C5A 3579   5.859  14.071   8.783 -0.0828 -0.1245  0.0406
  224loPI   C6A 3580   5.665  14.286   8.507  0.4520  0.0862  0.0451
  224loPI   C1B 3581   7.029  13.338  10.007 -0.2300  0.1097 -0.3637
  224loPI   C2B 3582   7.156  13.224   9.537  0.0888 -0.0054 -0.3197
  224loPI   C3B 3583   7.103  13.026   9.147 -0.1415  0.3612  0.1471
  224loPI   C4B 3584   7.059  12.970   8.662 -0.2894 -0.2003 -0.2693
  225loPI    C1 3585  15.671   1.480  10.997 -0.0023  0.1049 -0.0445
  225loPI    C2 3586  15.576   1.848  10.871  0.3173  0.0932 -0.3324
  225loPI    C3 3587  15.746   1.796  11.230 -0.0323  0.1895 -0.1489
  225loPI   PO4 3588  15.753   1.395  10.780  0.0093 -0.1151  0.0550
  225loPI   GL1 3589  15.949   1.385  10.477 -0.1240 -0.2057  0.2963
  225loPI   GL2 3590  15.912   1.759  10.470  0.0010  0.1697  0.0934
  225loPI   C1A 3591  16.040   1.266  10.092 -0.0324 -0.0238  0.0710
  225loPI   C2A 3592  16.009   1.219   9.634  0.2284 -0.2104  0.2711
  225loPI   C3A 3593  16.339   1.066   9.288 -0.1307  0.2857  0.1444
  225loPI   C4A 3594  16.341   1.021   8.763 -0.1687  0.1224 -0.0465
  225loPI   C5A 3595  16.314   1.167   8.341  0.0393  0.1151 -0.0252
  225loPI   C6A 3596  16.114   1.067   8.013 -0.0529 -0.0444 -0.2651
  225loPI   C1B 3597  15.993   2.091  10.144 -0.1086 -0.1980  0.3621
  225loPI   C2B 3598  15.913   2.223   9.684  0.1078 -0.1360 -0.3376
  225loPI   C3B 3599  15.893   2.055   9.276 -0.2190 -0.1083  0.2366
  225loPI   C4B 3600  16.070   2.163   8.946  0.0722  0.0265  0.2747
  226loPI    C1 3601   9.623  11.307  11.587 -0.1706  0.0305 -0.0472
  226loPI    C2 3602   9.615  10.965  11.794 -0.1744 -0.0066 -0.1085
  226loPI    C3 3603   9.688  11.311  11.981 -0.4330 -0.0079 -0.0017
  226loPI   PO4 3604   9.699  11.177  11.356 -0.1977 -0.1412  0.0278
  226loPI   GL1 3605   9.869  11.050  10.952 -0.1152 -0.0066  0.1626
  226loPI   GL2 3606  10.149  10.871  10.847  0.2188  0.3242 -0.1581
  226loPI   C1A 3607   9.814  11.218  10.564 -0.1348 -0.0086 -0.3703
  226loPI   C2A 3608   9.906  11.181  10.141  0.3570  0.2651 -0.1038
  226loPI   C3A 3609   9.991  11.174   9.687  0.1574  0.1318 -0.2366
  226loPI   C4A 3610   9.965  11.118   9.235 -0.0441 -0.1429 -0.1170
  226loPI   C5A 3611   9.864  10.779   8.910  0.4618 -0.0003  0.1243
  226loPI   C6A 3612   9.641  10.307   8.805 -0.4149  0.1217  0.1564
  226loPI   C1B 3613  10.164  10.876  10.460  0.4494 -0.0366  0.1195
  226loPI   C2B 3614  10.173  10.745   9.901 -0.0941 -0.0541 -0.5495
  226loPI   C3B 3615  10.204  10.745   9.473  0.2230 -0.1083  0.3357
  226loPI   C4B 3616  10.358  10.899   9.052 -0.1204 -0.2978 -0.1697
  227loPI    C1 3617   0.073  12.530  11.699  0.1828 -0.0854 -0.1892
  227loPI    C2 3618  -0.272  12.343  11.777  0.1952  0.0039  0.0892
  227loPI    C3 3619   0.006  12.164  11.552  0.0413 -0.1428  0.0141
  227loPI   PO4 3620  -0.034  12.701  11.536  0.0753 -0.0273 -0.1066
  227loPI   GL1 3621   0.050  12.923  11.074 -0.2449 -0.0253  0.1914
  227loPI   GL2 3622  -0.268  12.951  11.037 -0.2709  0.0120 -0.1418
  227loPI   C1A 3623   0.097  12.922  10.654  0.2474  0.1328  0.0617
  227loPI   C2A 3624   0.155  12.814  10.209  0.1442 -0.0342  0.3056
  227loPI   C3A 3625   0.225  12.938   9.782  0.1334  0.1479  0.1342
  227loPI   C4A 3626   0.113  12.970   9.383  0.0180 -0.1280  0.1571
  227loPI   C5A 3627  -0.202  13.097   9.235 -0.0622 -0.2312 -0.1129
  227loPI   C6A 3628  -0.186  13.473   8.980  0.0578 -0.1397  0.0922
  227loPI   C1B 3629  -0.239  13.176  10.561  0.0543 -0.3793  0.3099
  227loPI   C2B 3630  -0.347  13.119  10.268  0.2931 -0.1447  0.0245
  227loPI   C3B 3631  -0.292  13.108   9.865 -0.1219 -0.2484  0.1414
  227loPI   C4B 3632  -0.629  13.025   9.585  0.0348 -0.2307  0.0493
  228loPI    C1 3633  13.227  13.900  12.132  0.0365  0.1654 -0.1466
  228loPI    C2 3634  13.106  13.637  12.408  0.0931  0.0707 -0.2118
  228loPI    C3 3635  13.164  14.019  12.508 -0.0361  0.0685 -0.1276
  228loPI   PO4 3636  13.010  13.988  11.935 -0.0613  0.3407  0.1638
  228loPI   GL1 3637  13.062  14.025  11.450  0.0058 -0.2310 -0.0485
  228loPI   GL2 3638  13.147  13.769  11.243  0.0913 -0.1262  0.1875
  228loPI   C1A 3639  12.837  14.129  11.103 -0.0415  0.0667 -0.0858
  228loPI   C2A 3640  12.820  14.073  10.762 -0.0215  0.1954  0.2241
  228loPI   C3A 3641  12.878  14.075  10.323 -0.3024 -0.0480  0.0891
  228loPI   C4A 3642  12.792  14.039   9.885  0.0837  0.0048 -0.0335
  228loPI   C5A 3643  12.753  14.106   9.488 -0.4265 -0.2977 -0.3457
  228loPI   C6A 3644  13.008  14.394   9.166  0.0690  0.1762 -0.0609
  228loPI   C1B 3645  13.096  13.688  10.775  0.2026  0.0898  0.1572
  228loPI   C2B 3646  13.119  13.621  10.390  0.0714  0.1994 -0.1273
  228loPI   C3B 3647  13.115  13.544   9.928  0.1845  0.0430  0.1579
  228loPI   C4B 3648  13.002  13.532   9.461 -0.0170  0.1126  0.2891
  229loPI    C1 3649   2.434  11.452  11.156 -0.1053  0.1041 -0.0288
  229loPI    C2 3650   2.227  11.379  11.490 -0.0931 -0.0044 -0.0445
  229loPI    C3 3651   2.594  11.538  11.513 -0.2624  0.3976 -0.0260
  229loPI   PO4 3652   2.245  11.551  11.006  0.1021  0.0791  0.0144
  229loPI   GL1 3653   1.943  11.629  10.630 -0.1972  0.1431  0.0407
  229loPI   GL2 3654   2.224  11.480  10.548 -0.0725  0.4760  0.0342
  229loPI   C1A 3655   1.834  11.755  10.200  0.1806  0.2942 -0.1497
  229loPI   C2A 3656   1.680  11.694   9.794  0.1133 -0.2007  0.1753
  229loPI   C3A 3657   1.760  11.770   9.418  0.1310  0.1748  0.3343
  229loPI   C4A 3658   1.977  11.812   9.042 -0.0740 -0.1389  0.0869
  229loPI   C5A 3659   2.020  12.130   8.723 -0.0423 -0.1695  0.4454
  229loPI   C6A 3660   2.112  12.558   8.770  0.4013  0.2303  0.0215
  229loPI   C1B 3661   2.160  11.404  10.037 -0.0672  0.4789  0.0933
  229loPI   C2B 3662   2.010  11.345   9.633 -0.0609  0.3787 -0.0136
  229loPI   C3B 3663   2.148  11.343   9.279 -0.0185 -0.1507  0.0271
  229loPI   C4B 3664   1.979  11.263   8.925  0.4182 -0.0466  0.1557
  230loPI    C1 3665  13.020   2.500  11.649 -0.1004  0.1486  0.0585
  230loPI    C2 3666  13.039   2.803  11.909 -0.0060  0.0972  0.1117
  230loPI    C3 3667  13.375   2.648  11.756 -0.0437 -0.1044  0.2293
  230loPI   PO4 3668  12.903   2.654  11.454 -0.0228  0.2111  0.0048
  230loPI   GL1 3669  12.856   2.771  11.059 -0.0806  0.0701  0.1212
  230loPI   GL2 3670  13.032   3.092  11.080 -0.0818 -0.0389  0.0396
  230loPI   C1A 3671  12.720   2.865  10.522  0.3081  0.0788 -0.0627
  230loPI   C2A 3672  12.734   2.882  10.080  0.1783  0.1148 -0.2192
  230loPI   C3A 3673  12.774   2.825   9.655  0.2402  0.3596 -0.1852
  230loPI   C4A 3674  12.754   2.906   9.239 -0.1100 -0.1050  0.2749
  230loPI   C5A 3675  12.842   2.713   8.858  0.1543 -0.1294  0.0699
  230loPI   C6A 3676  12.996   2.457   8.369 -0.1122  0.1555 -0.0466
  230loPI   C1B 3677  12.911   3.287  10.739  0.3640  0.4434  0.4291
  230loPI   C2B 3678  12.916   3.426  10.264  0.1676  0.1875  0.0450
  230loPI   C3B 3679  12.909   3.496   9.873 -0.2880 -0.0283  0.1043
  230loPI   C4B 3680  12.963   3.295   9.503 -0.1261  0.1657 -0.2314
  231loPI    C1 3681  11.748   4.945  11.809  0.1498  0.1160  0.2464
  231loPI    C2 3682  11.406   4.745  11.864 -0.0218  0.3239 -0.0345
  231loPI    C3 3683  11.621   4.865  12.180 -0.0457 -0.0762  0.1400
  231loPI   PO4 3684  11.692   5.118  11.652 -0.0767 -0.2629 -0.0080
  231loPI   GL1 3685  11.382   5.169  11.275  0.2062 -0.3313 -0.2768
  231loPI   GL2 3686  11.539   5.423  11.140  0.0360 -0.1789 -0.0192
  231loPI   C1A 3687  11.169   5.345  10.820 -0.3154 -0.1092  0.4151
  231loPI   C2A 3688  11.149   5.356  10.405  0.0882  0.2495  0.0531
  231loPI   C3A 3689  11.222   5.374  10.063  0.3593  0.0104  0.1435
  231loPI   C4A 3690  11.276   5.437   9.589 -0.0149  0.0248  0.0134
  231loPI   C5A 3691  11.382   5.486   9.169  0.1772  0.0831 -0.0776
  231loPI   C6A 3692  11.420   5.502   8.720 -0.1868 -0.4594  0.0163
  231loPI   C1B 3693  11.645   5.567  10.705 -0.3534  0.0930  0.2386
  231loPI   C2B 3694  11.681   5.467  10.347  0.0142 -0.2194 -0.1573
  231loPI   C3B 3695  11.812   5.465   9.948 -0.1289 -0.0675 -0.0212
  231loPI   C4B 3696  11.772   5.472   9.443 -0.0507 -0.0533 -0.1296
  232loPI    C1 3697  13.651  10.886  11.521  0.0098  0.0330 -0.2577
  232loPI    C2 3698  13.468  10.571  11.686  0.1052  0.2558  0.2957
  232loPI    C3 3699  13.867  10.591  11.684  0.1036  0.2886  0.0923
  232loPI   PO4 3700  13.460  11.109  11.481 -0.0073 -0.0826 -0.2826
  232loPI   GL1 3701  13.407  11.119  11.051  0.2282 -0.2021  0.1496
  232loPI   GL2 3702  13.545  11.428  11.041 -0.1868  0.2100 -0.2309
  232loPI   C1A 3703  13.448  10.993  10.615  0.0752  0.4283 -0.2044
  232loPI   C2A 3704  13.594  10.838  10.204  0.0200 -0.0346  0.0462
  232loPI   C3A 3705  13.575  10.877   9.807  0.1062 -0.0630 -0.2752
  232loPI   C4A 3706  13.480  10.853   9.401  0.0015  0.0805 -0.1016
  232loPI   C5A 3707  13.360  10.862   8.954 -0.3167 -0.1159  0.0239
  232loPI   C6A 3708  13.281  11.332   8.774  0.3877  0.0368  0.3599
  232loPI   C1B 3709  13.653  11.548  10.590 -0.1494  0.2004  0.0285
  232loPI   C2B 3710  13.704  11.322  10.092 -0.2422  0.0631 -0.2109
  232loPI   C3B 3711  13.701  11.359   9.615 -0.0455 -0.0618 -0.0035
  232loPI   C4B 3712  13.701  11.386   9.159 -0.1289  0.1612 -0.2192
  233loPI    C1 3713   3.586  13.880  11.533 -0.1339  0.1399 -0.2107
  233loPI    C2 3714   3.671  14.251  11.656  0.1149 -0.0170  0.1070
  233loPI    C3 3715   3.490  13.995  11.904  0.1508 -0.1792 -0.0325
  233loPI   PO4 3716   3.633  13.958  11.184 -0.0799 -0.1282 -0.0914
  233loPI   GL1 3717   3.921  13.927  10.966 -0.0297  0.3343  0.0242
  233loPI   GL2 3718   3.803  13.559  10.816  0.0718 -0.0245 -0.1961
  233loPI   C1A 3719   3.742  14.000  10.425 -0.2322 -0.1096  0.0815
  233loPI   C2A 3720   3.676  13.856  10.059  0.0658  0.2203 -0.1008
  233loPI   C3A 3721   3.655  13.813   9.633  0.0976  0.0069  0.0285
  233loPI   C4A 3722   3.791  13.468   9.268  0.0386 -0.0036  0.1865
  233loPI   C5A 3723   3.887  13.425   8.840 -0.0214 -0.0280  0.0040
  233loPI   C6A 3724   3.831  13.569   8.414 -0.1547 -0.0730 -0.0136
  233loPI   C1B 3725   3.636  13.474  10.409  0.0954  0.1463  0.4363
  233loPI   C2B 3726   3.546  13.251  10.090 -0.3177  0.0796  0.4067
  233loPI   C3B 3727   3.450  13.314   9.658  0.1908 -0.0719  0.0738
  233loPI   C4B 3728   3.345  13.364   9.175 -0.0409 -0.0100  0.0742
  234loPI    C1 3729   2.532  10.656  10.889  0.3354  0.0687  0.0480
  234loPI    C2 3730   2.562  10.316  11.097  0.1194  0.0551  0.0588
  234loPI    C3 3731   2.370  10.630  11.254  0.0547  0.0820 -0.0733
  234loPI   PO4 3732   2.460  10.675  10.670 -0.2157 -0.1855 -0.1066
  234loPI   GL1 3733   2.430  10.474  10.316 -0.0564  0.0613  0.2318
  234loPI   GL2 3734   2.297  10.298  10.215  0.2995  0.1004 -0.1002
  234loPI   C1A 3735   2.826  10.580  10.133 -0.0754  0.0376 -0.2998
  234loPI   C2A 3736   2.963  10.603   9.781 -0.0129 -0.0495 -0.0938
  234loPI   C3A 3737   2.980  10.698   9.378  0.3719 -0.2071 -0.0687
  234loPI   C4A 3738   2.876  10.738   9.006  0.0985  0.1775  0.0225
  234loPI   C5A 3739   2.876  10.982   8.591  0.3314 -0.1274 -0.0958
  234loPI   C6A 3740   2.967  11.032   8.196 -0.2057  0.2164  0.1951
  234loPI   C1B 3741   2.483  10.381   9.812 -0.1015  0.2623  0.0578
  234loPI   C2B 3742   2.320  10.440   9.373 -0.0136 -0.0198 -0.2601
  234loPI   C3B 3743   2.322  10.626   8.999 -0.4387  0.4380  0.0104
  234loPI   C4B 3744   2.290  10.828   8.615 -0.0059 -0.0612  0.2275
  235loPI    C1 3745  14.005   5.277  11.670  0.0489 -0.1202 -0.2445
  235loPI    C2 3746  14.180   5.627  11.589  0.2827 -0.1773  0.0009
  235loPI    C3 3747  14.402   5.296  11.624  0.0906 -0.3062  0.0135
  235loPI   PO4 3748  13.846   5.169  11.545  0.0338 -0.0918 -0.1544
  235loPI   GL1 3749  13.667   5.132  11.202 -0.2270  0.0939  0.0973
  235loPI   GL2 3750  13.347   5.068  11.093  0.3617 -0.0741  0.0072
  235loPI   C1A 3751  13.600   5.299  10.761  0.3522  0.1226  0.1610
  235loPI   C2A 3752  13.716   5.379  10.319  0.1840  0.0711 -0.0162
  235loPI   C3A 3753  13.645   5.434   9.940 -0.1867  0.1466  0.1776
  235loPI   C4A 3754  13.707   5.380   9.489 -0.1605 -0.1529  0.2194
  235loPI   C5A 3755  13.694   5.221   9.038 -0.1321 -0.2783  0.1429
  235loPI   C6A 3756  13.918   5.017   8.761  0.2281 -0.0022 -0.1713
  235loPI   C1B 3757  13.390   4.831  10.723 -0.0142 -0.0065  0.0138
  235loPI   C2B 3758  13.505   4.895  10.318  0.1981  0.2857 -0.0831
  235loPI   C3B 3759  13.471   4.895   9.862 -0.0686  0.0634 -0.0336
  235loPI   C4B 3760  13.418   4.866   9.426  0.0714  0.0489  0.3908
  236loPI    C1 3761  16.121  10.776  11.805 -0.3060  0.0761  0.0069
  236loPI    C2 3762  16.513  10.829  11.864 -0.2446 -0.0627 -0.2627
  236loPI    C3 3763  16.304  10.595  12.112 -0.2042  0.1848  0.0111
  236loPI   PO4 3764  16.076  10.992  11.737 -0.1433  0.0601  0.0901
  236loPI   GL1 3765  15.937  11.031  11.286  0.0967  0.1144  0.1684
  236loPI   GL2 3766  16.061  10.706  11.289 -0.1171  0.2045 -0.1254
  236loPI   C1A 3767  15.544  11.228  11.032 -0.0595  0.0217 -0.0929
  236loPI   C2A 3768  15.400  11.264  10.683 -0.2056  0.1681 -0.1794
  236loPI   C3A 3769  15.466  11.272  10.300  0.0533  0.1767  0.2632
  236loPI   C4A 3770  15.515  11.365   9.842 -0.0532  0.2454 -0.1779
  236loPI   C5A 3771  15.532  11.206   9.480 -0.1371  0.3764 -0.2186
  236loPI   C6A 3772  15.784  11.149   9.206  0.0494 -0.2040 -0.0855
  236loPI   C1B 3773  15.856  10.926  10.810 -0.0397 -0.3173 -0.0556
  236loPI   C2B 3774  15.847  10.886  10.383 -0.0735  0.3484  0.0346
  236loPI   C3B 3775  15.814  10.980  10.030 -0.2656 -0.1928  0.2554
  236loPI   C4B 3776  15.941  10.949   9.664  0.1234 -0.2381  0.2555
  237loPI    C1 3777  12.843   6.895  11.507 -0.0475 -0.0931 -0.2480
  237loPI    C2 3778  12.855   7.236  11.716 -0.0706 -0.1246 -0.1951
  237loPI    C3 3779  12.640   6.926  11.851  0.4093 -0.3602  0.0579
  237loPI   PO4 3780  12.806   6.905  11.261 -0.0497  0.1410 -0.0381
  237loPI   GL1 3781  13.020   6.899  10.913  0.2720 -0.2120  0.1857
  237loPI   GL2 3782  12.721   7.174  10.855 -0.2689  0.0280  0.1091
  237loPI   C1A 3783  13.165   6.716  10.479  0.0300  0.0685 -0.0480
  237loPI   C2A 3784  13.145   6.647   9.960 -0.1407 -0.0632  0.0556
  237loPI   C3A 3785  13.073   6.683   9.523  0.1661  0.2996  0.0593
  237loPI   C4A 3786  13.211   6.551   9.167  0.0226 -0.1889 -0.1496
  237loPI   C5A 3787  13.533   6.483   8.851 -0.0740 -0.1356  0.1823
  237loPI   C6A 3788  13.940   6.375   8.702  0.1523  0.1063 -0.0315
  237loPI   C1B 3789  12.728   7.065  10.402  0.1013 -0.0037  0.1569
  237loPI   C2B 3790  12.768   7.006   9.972 -0.2737 -0.1132 -0.0061
  237loPI   C3B 3791  12.655   7.089   9.524 -0.0827 -0.2319  0.0863
  237loPI   C4B 3792  12.705   6.959   9.154 -0.3861 -0.3422 -0.0489
  238loPI    C1 3793  13.118   6.147  11.488 -0.3445 -0.1921 -0.0999
  238loPI    C2 3794  13.224   5.920  11.799  0.0249  0.3815  0.2115
  238loPI    C3 3795  12.871   6.109  11.800 -0.1921 -0.0100  0.0452
  238loPI   PO4 3796  13.163   6.010  11.311 -0.1401  0.0537 -0.2284
  238loPI   GL1 3797  12.898   5.889  10.974 -0.4885 -0.2448 -0.0638
  238loPI   GL2 3798  12.563   5.920  10.868 -0.2302 -0.2173  0.2909
  238loPI   C1A 3799  12.936   5.756  10.513  0.1565  0.0990  0.0934
  238loPI   C2A 3800  12.795   5.659  10.172 -0.0070  0.0455  0.1596
  238loPI   C3A 3801  12.701   5.732   9.741 -0.2627  0.0565  0.4018
  238loPI   C4A 3802  12.822   5.681   9.286  0.0628 -0.0400  0.1664
  238loPI   C5A 3803  12.781   5.775   8.859 -0.0481 -0.1001  0.1838
  238loPI   C6A 3804  12.398   6.020   8.583  0.2706  0.0936 -0.2006
  238loPI   C1B 3805  12.408   6.165  10.497  0.0407 -0.2430 -0.2600
  238loPI   C2B 3806  12.367   6.197  10.027  0.0664 -0.0357  0.1553
  238loPI   C3B 3807  12.430   6.164   9.565 -0.0972  0.2811  0.2954
  238loPI   C4B 3808  12.449   6.118   9.114 -0.2327  0.1704 -0.2435
  239loPI    C1 3809   2.364   9.850  10.945  0.0343 -0.2750 -0.0231
  239loPI    C2 3810   2.741   9.841  11.076  0.0239  0.4559  0.0993
  239loPI    C3 3811   2.439   9.818  11.337 -0.0218  0.0457  0.0168
  239loPI   PO4 3812   2.279   9.754  10.691 -0.1133 -0.2220  0.2115
  239loPI   GL1 3813   2.042   9.889  10.333 -0.3095  0.1408  0.1994
  239loPI   GL2 3814   1.913   9.649  10.177  0.1251 -0.4045  0.1644
  239loPI   C1A 3815   1.877  10.242   9.993  0.3710  0.2039 -0.0266
  239loPI   C2A 3816   1.816  10.375   9.702  0.1843 -0.1213 -0.3138
  239loPI   C3A 3817   1.855  10.184   9.306 -0.2021 -0.0841  0.1881
  239loPI   C4A 3818   1.805  10.307   8.919 -0.1911 -0.1195 -0.3114
  239loPI   C5A 3819   1.663  10.239   8.506 -0.1381  0.0409 -0.0109
  239loPI   C6A 3820   1.721   9.807   8.307 -0.0540 -0.0880  0.2327
  239loPI   C1B 3821   1.806   9.753   9.765 -0.1361 -0.2568 -0.1198
  239loPI   C2B 3822   1.857   9.650   9.352 -0.1303 -0.0963 -0.0836
  239loPI   C3B 3823   1.769   9.831   8.934  0.0351 -0.0604 -0.1305
  239loPI   C4B 3824   1.540   9.679   8.773 -0.0776 -0.2934 -0.2176
  240loPI    C1 3825   0.589  10.274  11.196  0.0397  0.2247 -0.1163
  240loPI    C2 3826   0.937  10.209  11.383 -0.0404  0.1004 -0.0092
  240loPI    C3 3827   0.739  10.551  11.443 -0.0751  0.0534  0.1499
  240loPI   PO4 3828   0.365  10.008  11.224 -0.0030 -0.1491  0.2369
  240loPI   GL1 3829   0.086   9.875  10.798 -0.0009 -0.1141 -0.3723
  240loPI   GL2 3830   0.309   9.855  10.688 -0.0817  0.1583  0.1408
  240loPI   C1A 3831  -0.334   9.973  10.598 -0.0205 -0.2454  0.2926
  240loPI   C2A 3832  -0.425  10.024  10.163 -0.1855  0.2650  0.0339
  240loPI   C3A 3833  -0.556  10.168   9.825  0.1904 -0.0178  0.2380
  240loPI   C4A 3834  -0.486  10.291   9.393  0.2465 -0.1374 -0.1015
  240loPI   C5A 3835  -0.311  10.552   9.010  0.2370  0.3321 -0.1604
  240loPI   C6A 3836  -0.074  10.328   8.707  0.1396  0.0294 -0.0507
  240loPI   C1B 3837   0.146   9.943  10.294 -0.1342  0.3585 -0.2796
  240loPI   C2B 3838   0.025   9.899   9.981 -0.1263  0.0321 -0.1472
  240loPI   C3B 3839  -0.220   9.846   9.644  0.1363  0.1714 -0.1481
  240loPI   C4B 3840  -0.184   9.805   9.234  0.3049  0.0242 -0.0095
  241loPI    C1 3841   2.299  13.066  11.152 -0.0273  0.0038  0.0145
  241loPI    C2 3842   2.314  12.807  11.456  0.1872 -0.0194 -0.0144
  241loPI    C3 3843   2.085  13.134  11.483 -0.0225 -0.1696  0.0541
  241loPI   PO4 3844   2.343  12.892  10.970 -0.1450 -0.0903  0.0049
  241loPI   GL1 3845   2.162  12.996  10.593 -0.0692 -0.0506 -0.2199
  241loPI   GL2 3846   2.138  13.337  10.780 -0.1453  0.1086  0.0397
  241loPI   C1A 3847   2.312  12.911  10.178 -0.1448 -0.3427 -0.0500
  241loPI   C2A 3848   2.348  13.034   9.785 -0.1370  0.0904  0.1121
  241loPI   C3A 3849   2.395  13.137   9.343 -0.1763  0.0840 -0.0465
  241loPI   C4A 3850   2.443  13.398   8.966 -0.0141  0.1998 -0.0473
  241loPI   C5A 3851   2.798  13.559   8.742 -0.0857 -0.1724 -0.0204
  241loPI   C6A 3852   3.048  13.877   8.870 -0.0536  0.3179  0.0880
  241loPI   C1B 3853   2.096  13.446  10.438 -0.0669 -0.0124 -0.2863
  241loPI   C2B 3854   1.974  13.376  10.055  0.0916 -0.0794  0.0910
  241loPI   C3B 3855   1.971  13.397   9.652 -0.2635 -0.0607  0.0349
  241loPI   C4B 3856   1.873  13.409   9.191  0.1818  0.1393  0.0303
  242loPI    C1 3857   1.114   8.471  11.443  0.1267 -0.0466  0.0604
  242loPI    C2 3858   0.991   8.851  11.461 -0.2556 -0.1636  0.0133
  242loPI    C3 3859   1.287   8.725  11.699 -0.2441  0.1185  0.1532
  242loPI   PO4 3860   1.053   8.415  11.205  0.1299  0.1537  0.4466
  242loPI   GL1 3861   0.811   8.365  10.802  0.0663 -0.1803  0.0092
  242loPI   GL2 3862   0.957   8.136  10.603 -0.1645  0.0969 -0.0955
  242loPI   C1A 3863   0.621   8.533  10.443 -0.1128  0.0398 -0.2158
  242loPI   C2A 3864   0.501   8.596  10.036  0.4180 -0.0034 -0.0699
  242loPI   C3A 3865   0.509   8.588   9.618  0.0244  0.1967  0.2725
  242loPI   C4A 3866   0.409   8.572   9.164  0.3580  0.1781 -0.3324
  242loPI   C5A 3867   0.400   8.926   8.880  0.0663 -0.1223  0.0818
  242loPI   C6A 3868   0.489   9.410   8.849 -0.0883  0.2618  0.2238
  242loPI   C1B 3869   0.776   8.157  10.240  0.0137  0.2830  0.1473
  242loPI   C2B 3870   0.719   8.137   9.880  0.0847 -0.2317  0.1994
  242loPI   C3B 3871   0.767   8.126   9.349  0.0114  0.0294 -0.0126
  242loPI   C4B 3872   0.732   8.217   8.946  0.2189  0.1712 -0.1966
  243loPI    C1 3873   5.003   8.913  10.810 -0.0100 -0.2594  0.0040
  243loPI    C2 3874   4.979   8.829  10.420 -0.2158 -0.1997  0.0023
  243loPI    C3 3875   4.779   8.606  10.684  0.0359 -0.3277  0.0879
  243loPI   PO4 3876   5.252   8.994  10.838  0.2542  0.1693 -0.0824
  243loPI   GL1 3877   5.386   9.117  10.473  0.2265 -0.0746  0.0051
  243loPI   GL2 3878   5.447   9.511  10.421  0.0588  0.1241 -0.1485
  243loPI   C1A 3879   5.351   8.940  10.008  0.2625  0.1338  0.0511
  243loPI   C2A 3880   5.248   9.076   9.613 -0.0506  0.0970 -0.0121
  243loPI   C3A 3881   5.402   9.299   9.259 -0.0059 -0.0362 -0.0355
  243loPI   C4A 3882   5.505   9.595   8.890 -0.0102  0.0687 -0.1705
  243loPI   C5A 3883   5.622   9.583   8.482  0.1323 -0.0121  0.2280
  243loPI   C6A 3884   5.801   9.983   8.434  0.3191  0.1667  0.2609
  243loPI   C1B 3885   5.505   9.430   9.954 -0.0437  0.1869  0.1581
  243loPI   C2B 3886   5.709   9.640   9.640  0.4425 -0.0162 -0.1322
  243loPI   C3B 3887   5.902   9.658   9.238  0.0699  0.1654  0.1951
  243loPI   C4B 3888   5.961   9.716   8.845 -0.0406 -0.5816  0.2011
  244loPI    C1 3889   7.418   7.895  11.071  0.2546 -0.0194  0.0044
  244loPI    C2 3890   7.787   7.739  11.076  0.2441 -0.0420  0.0753
  244loPI    C3 3891   7.625   7.882  11.413  0.1238 -0.1835  0.0786
  244loPI   PO4 3892   7.459   8.102  10.823  0.0825  0.1692  0.0777
  244loPI   GL1 3893   7.513   8.301  10.439  0.1226  0.2503  0.3159
  244loPI   GL2 3894   7.524   8.040  10.244 -0.2092  0.3941 -0.0459
  244loPI   C1A 3895   7.596   8.533  10.057  0.0897 -0.2383 -0.3132
  244loPI   C2A 3896   7.624   8.500   9.740  0.2631 -0.0777  0.0985
  244loPI   C3A 3897   7.654   8.524   9.385  0.2332 -0.0478  0.3240
  244loPI   C4A 3898   7.687   8.583   8.968  0.2677 -0.0267 -0.1027
  244loPI   C5A 3899   7.444   8.733   8.625 -0.2800  0.2003 -0.1378
  244loPI   C6A 3900   7.062   8.822   8.451  0.1147 -0.0657  0.3116
  244loPI   C1B 3901   7.628   8.012   9.844 -0.0309 -0.1170  0.0292
  244loPI   C2B 3902   7.683   8.000   9.388 -0.0451  0.1564  0.2415
  244loPI   C3B 3903   7.762   8.039   8.991  0.0037  0.0898 -0.0740
  244loPI   C4B 3904   7.802   7.839   8.624 -0.0864 -0.1803 -0.1484
  245loPI    C1 3905  15.930  14.931  11.987  0.2277  0.0352 -0.1737
  245loPI    C2 3906  16.191  14.640  12.071 -0.0068 -0.1300 -0.0074
  245loPI    C3 3907  16.195  14.980  12.282 -0.1000 -0.2407  0.1751
  245loPI   PO4 3908  15.872  14.926  11.675 -0.1088 -0.1512  0.3007
  245loPI   GL1 3909  15.673  14.817  11.298 -0.0288 -0.1506  0.0492
  245loPI   GL2 3910  15.419  14.674  11.197  0.2050  0.3209 -0.1146
  245loPI   C1A 3911  15.856  14.622  11.017 -0.3539  0.1691  0.1708
  245loPI   C2A 3912  15.848  14.509  10.505 -0.1365 -0.3302  0.0173
  245loPI   C3A 3913  15.818  14.552  10.108  0.0164 -0.0181  0.1225
  245loPI   C4A 3914  15.836  14.537   9.743  0.2305 -0.0653  0.0965
  245loPI   C5A 3915  15.873  14.741   9.343  0.0241  0.0180 -0.0915
  245loPI   C6A 3916  15.900  15.119   9.279 -0.0079  0.2654  0.5144
  245loPI   C1B 3917  15.429  14.473  10.791  0.1700 -0.4569 -0.0674
  245loPI   C2B 3918  15.392  14.382  10.318 -0.0810 -0.2011 -0.2888
  245loPI   C3B 3919  15.355  14.590   9.888 -0.2908  0.1202  0.2836
  245loPI   C4B 3920  15.306  14.583   9.450 -0.3004 -0.1160  0.0417
  246loPI    C1 3921  11.298   4.247  11.701  0.0616 -0.0029  0.2869
  246loPI    C2 3922  10.990   3.994  11.725 -0.1546  0.2180 -0.0654
  246loPI    C3 3923  11.024   4.293  11.988 -0.1849  0.1347  0.0340
  246loPI   PO4 3924  11.247   4.315  11.386  0.0740 -0.1182 -0.1372
  246loPI   GL1 3925  11.073   4.511  11.074  0.0351 -0.2797 -0.3209
  246loPI   GL2 3926  11.316   4.696  11.055 -0.0019 -0.1339 -0.1120
  246loPI   C1A 3927  10.834   4.424  10.725 -0.2448 -0.3770 -0.0743
  246loPI   C2A 3928  10.841   4.403  10.316 -0.1009  0.0772 -0.0702
  246loPI   C3A 3929  10.988   4.421   9.854 -0.1716 -0.3802 -0.1196
  246loPI   C4A 3930  10.991   4.430   9.433  0.1770  0.1324 -0.0428
  246loPI   C5A 3931  11.042   4.441   9.025 -0.1081 -0.2201  0.0337
  246loPI   C6A 3932  11.021   4.545   8.549 -0.0212  0.2052  0.1026
  246loPI   C1B 3933  11.308   4.518  10.612 -0.0520  0.2633  0.3894
  246loPI   C2B 3934  11.387   4.565  10.126 -0.1129  0.1659 -0.2415
  246loPI   C3B 3935  11.437   4.472   9.636  0.3628 -0.1697 -0.2127
  246loPI   C4B 3936  11.578   4.394   9.258 -0.0125 -0.0315 -0.3878
  247loPI    C1 3937  15.623  14.436  11.749 -0.1673 -0.1351 -0.1216
  247loPI    C2 3938  15.754  14.397  12.125 -0.1222 -0.0317 -0.1263
  247loPI    C3 3939  15.768  14.085  11.875 -0.2044 -0.1162 -0.0257
  247loPI   PO4 3940  15.391  14.670  11.818  0.1038  0.1466  0.2625
  247loPI   GL1 3941  14.989  14.755  11.525  0.1865  0.3019 -0.1892
  247loPI   GL2 3942  14.991  14.981  11.299  0.1067  0.0767 -0.4499
  247loPI   C1A 3943  14.731  14.512  11.238  0.0922  0.1395 -0.1197
  247loPI   C2A 3944  14.735  14.480  10.848 -0.0341  0.4445 -0.0282
  247loPI   C3A 3945  14.748  14.325  10.433 -0.1730  0.0099  0.1170
  247loPI   C4A 3946  14.931  14.427  10.053  0.0200  0.0002  0.0365
  247loPI   C5A 3947  14.899  14.348   9.625  0.0891 -0.2022  0.0145
  247loPI   C6A 3948  15.047  14.135   9.225  0.1524  0.0550 -0.0501
  247loPI   C1B 3949  14.995  14.911  10.929 -0.2585  0.1844 -0.0691
  247loPI   C2B 3950  14.979  14.770  10.495  0.0689  0.2768  0.2042
  247loPI   C3B 3951  15.059  14.968  10.121  0.1234  0.2403 -0.1070
  247loPI   C4B 3952  14.997  14.913   9.700 -0.0003  0.1037 -0.0371
  248loPI    C1 3953  16.446  11.573  11.836 -0.0191  0.0472  0.3240
  248loPI    C2 3954  16.730  11.676  11.574 -0.3614  0.0136 -0.0707
  248loPI    C3 3955  16.786  11.362  11.816  0.0793  0.2220  0.1102
  248loPI   PO4 3956  16.207  11.640  11.657 -0.0388  0.0310  0.1400
  248loPI   GL1 3957  16.254  11.720  11.284 -0.0523 -0.0195  0.0223
  248loPI   GL2 3958  16.353  12.026  11.194  0.1908  0.0478 -0.2220
  248loPI   C1A 3959  16.056  11.446  10.971  0.1172  0.2299 -0.2441
  248loPI   C2A 3960  15.878  11.367  10.589  0.0292  0.2601 -0.0465
  248loPI   C3A 3961  16.075  11.392  10.148 -0.1782 -0.0652 -0.0462
  248loPI   C4A 3962  15.984  11.513   9.662  0.3225  0.2275 -0.1652
  248loPI   C5A 3963  15.725  11.763   9.500 -0.0932 -0.1080  0.0258
  248loPI   C6A 3964  15.402  12.022   9.468 -0.4169  0.1176 -0.0267
  248loPI   C1B 3965  16.310  11.936  10.803  0.0977 -0.1239  0.1347
  248loPI   C2B 3966  16.210  11.912  10.329  0.4750  0.2425  0.0350
  248loPI   C3B 3967  16.137  11.947   9.938  0.0133  0.2475  0.2322
  248loPI   C4B 3968  16.315  11.841   9.573  0.1625  0.0338  0.1049
  249loPI    C1 3969  12.726   7.660  11.545  0.3909 -0.1949 -0.3931
  249loPI    C2 3970  12.894   8.022  11.552 -0.1877  0.0822 -0.1253
  249loPI    C3 3971  13.050   7.726  11.770 -0.0719  0.3416  0.1516
  249loPI   PO4 3972  12.718   7.573  11.307  0.1385  0.1377  0.1887
  249loPI   GL1 3973  12.990   7.595  10.948 -0.0082 -0.0118  0.0987
  249loPI   GL2 3974  12.702   7.777  10.797 -0.0877  0.2251 -0.1070
  249loPI   C1A 3975  12.909   7.556  10.384 -0.1244  0.0212 -0.0956
  249loPI   C2A 3976  12.755   7.479  10.026  0.2154 -0.0742 -0.0914
  249loPI   C3A 3977  12.870   7.605   9.630  0.0284 -0.0048  0.2263
  249loPI   C4A 3978  12.848   7.452   9.231  0.1163 -0.0233  0.2221
  249loPI   C5A 3979  12.960   7.278   8.807 -0.1631 -0.0831 -0.0885
  249loPI   C6A 3980  12.882   7.398   8.375 -0.0767 -0.0539 -0.2568
  249loPI   C1B 3981  12.510   8.029  10.492 -0.0937 -0.2217 -0.0615
  249loPI   C2B 3982  12.531   7.967   9.989  0.2007  0.0366 -0.4106
  249loPI   C3B 3983  12.481   7.964   9.600  0.1629 -0.2351  0.1135
  249loPI   C4B 3984  12.556   7.852   9.106 -0.1923 -0.0907  0.0978
  250loPI    C1 3985   5.979   2.972  10.889  0.0559  0.0584  0.0707
  250loPI    C2 3986   5.990   2.764  11.230  0.0208  0.1096  0.1032
  250loPI    C3 3987   5.831   3.131  11.225 -0.1899  0.0183 -0.0165
  250loPI   PO4 3988   6.258   2.965  10.787 -0.0010  0.3010 -0.1400
  250loPI   GL1 3989   6.423   2.870  10.403 -0.4035 -0.0093 -0.0457
  250loPI   GL2 3990   6.440   3.114  10.227 -0.1697 -0.3695 -0.0397
  250loPI   C1A 3991   6.738   2.720  10.201  0.2808 -0.1949  0.1666
  250loPI   C2A 3992   6.844   2.740   9.761  0.1780 -0.2690 -0.3057
  250loPI   C3A 3993   6.921   2.734   9.341 -0.0094  0.1308 -0.0453
  250loPI   C4A 3994   7.126   2.650   8.999 -0.2482  0.1722 -0.0289
  250loPI   C5A 3995   7.153   2.394   8.656  0.2204  0.1767 -0.2162
  250loPI   C6A 3996   7.196   2.068   8.357  0.0479  0.0180 -0.1030
  250loPI   C1B 3997   6.480   3.020   9.848 -0.0831 -0.0805  0.0368
  250loPI   C2B 3998   6.318   2.916   9.496  0.2238  0.1571 -0.0189
  250loPI   C3B 3999   6.513   2.792   9.067 -0.1997  0.1492  0.1544
  250loPI   C4B 4000   6.685   2.663   8.727 -0.0178  0.2533  0.0714
  251loPI    C1 4001  15.283  10.501  11.760 -0.2004  0.3636  0.0763
  251loPI    C2 4002  15.354  10.603  12.140 -0.1555 -0.0571  0.1858
  251loPI    C3 4003  15.075  10.329  12.056 -0.3109  0.1849 -0.1027
  251loPI   PO4 4004  15.189  10.729  11.575  0.1017 -0.0996  0.0357
  251loPI   GL1 4005  15.430  10.759  11.183  0.2728  0.1820 -0.2482
  251loPI   GL2 4006  15.638  10.551  11.087  0.1363  0.2976 -0.0015
  251loPI   C1A 4007  15.336  10.705  10.668 -0.0435  0.3172  0.0642
  251loPI   C2A 4008  15.387  10.743  10.228 -0.0630 -0.1128  0.1110
  251loPI   C3A 4009  15.374  10.854   9.773  0.3301  0.1194 -0.1193
  251loPI   C4A 4010  15.176  10.893   9.287 -0.0383  0.2876 -0.0724
  251loPI   C5A 4011  15.228  10.511   9.010  0.0959  0.2492  0.3097
  251loPI   C6A 4012  14.892  10.234   8.840 -0.0243 -0.2242  0.3884
  251loPI   C1B 4013  15.791  10.408  10.686  0.0957 -0.0690 -0.1857
  251loPI   C2B 4014  15.786  10.275  10.235 -0.2209  0.1160  0.0417
  251loPI   C3B 4015  15.737  10.364   9.819  0.1408  0.0531  0.0856
  251loPI   C4B 4016  15.664  10.617   9.436 -0.2299 -0.2534 -0.3648
  252loPI    C1 4017   9.043  12.069  11.797 -0.0675  0.2073 -0.1137
  252loPI    C2 4018   8.729  12.106  12.043  0.0186 -0.1458  0.0545
  252loPI    C3 4019   9.076  11.962  12.181  0.1406 -0.1202 -0.2193
  252loPI   PO4 4020   8.943  11.897  11.569  0.0946  0.0603 -0.0352
  252loPI   GL1 4021   8.847  11.720  11.204  0.2551 -0.1695 -0.1651
  252loPI   GL2 4022   9.098  11.988  11.089 -0.2151 -0.1873  0.0537
  252loPI   C1A 4023   8.754  11.754  10.789 -0.2759 -0.1770 -0.0116
  252loPI   C2A 4024   8.758  11.700  10.367  0.0185  0.0356 -0.2225
  252loPI   C3A 4025   9.011  11.526  10.000  0.1152  0.0952  0.2461
  252loPI   C4A 4026   9.075  11.402   9.609 -0.0312  0.0828 -0.4718
  252loPI   C5A 4027   9.147  11.304   9.154  0.0747  0.2782 -0.4298
  252loPI   C6A 4028   9.234  11.475   8.714 -0.2220  0.0040  0.1994
  252loPI   C1B 4029   9.152  12.003  10.631  0.1173 -0.1179 -0.4680
  252loPI   C2B 4030   9.203  11.961  10.160  0.1570 -0.1245  0.2997
  252loPI   C3B 4031   9.164  11.925   9.697 -0.1585 -0.0101  0.1006
  252loPI   C4B 4032   9.193  11.782   9.239  0.0075  0.1161  0.1154
  253loPI    C1 4033   6.500  11.580  11.169  0.0453 -0.2286  0.1029
  253loPI    C2 4034   6.530  11.748  11.531  0.2041 -0.3440  0.1447
  253loPI    C3 4035   6.304  11.422  11.479 -0.3426  0.0437  0.0031
  253loPI   PO4 4036   6.697  11.516  11.102 -0.0532  0.0999 -0.0478
  253loPI   GL1 4037   7.089  11.596  10.890  0.0910  0.0750  0.0187
  253loPI   GL2 4038   7.173  11.918  10.648 -0.0531  0.1747 -0.3822
  253loPI   C1A 4039   6.947  11.399  10.515 -0.0504 -0.1887  0.0523
  253loPI   C2A 4040   6.734  11.314  10.189  0.1595 -0.1120  0.0131
  253loPI   C3A 4041   6.858  11.336   9.757 -0.1642 -0.0831  0.4043
  253loPI   C4A 4042   6.738  11.351   9.378 -0.1292 -0.0192  0.0806
  253loPI   C5A 4043   6.940  11.181   8.937  0.1379 -0.1579 -0.1521
  253loPI   C6A 4044   7.026  11.078   8.465  0.0776  0.0935  0.2218
  253loPI   C1B 4045   7.385  11.914  10.320 -0.0572 -0.1499  0.1519
  253loPI   C2B 4046   7.629  11.862   9.921  0.1202  0.0120  0.0848
  253loPI   C3B 4047   7.643  11.531   9.577 -0.0074 -0.1414 -0.0429
  253loPI   C4B 4048   7.865  11.085   9.474 -0.0649 -0.4533  0.1202
  254loPI    C1 4049  12.859   9.726  11.491  0.3047  0.0470 -0.0185
  254loPI    C2 4050  12.630   9.712  11.819  0.1633 -0.0181 -0.1194
  254loPI    C3 4051  12.754   9.373  11.646  0.1365  0.0142 -0.2027
  254loPI   PO4 4052  12.665   9.949  11.385 -0.0512  0.0083 -0.2145
  254loPI   GL1 4053  12.447   9.893  10.999 -0.0354  0.0512 -0.0779
  254loPI   GL2 4054  12.559   9.733  10.842 -0.0560  0.3355  0.1036
  254loPI   C1A 4055  12.340  10.210  10.762 -0.0124 -0.0623  0.1160
  254loPI   C2A 4056  12.368  10.278  10.286 -0.0457 -0.1876 -0.2541
  254loPI   C3A 4057  12.433  10.210   9.867  0.4302  0.0470 -0.4186
  254loPI   C4A 4058  12.509  10.348   9.411 -0.3229 -0.2540  0.3188
  254loPI   C5A 4059  12.514  10.269   8.981  0.0328 -0.0005  0.2077
  254loPI   C6A 4060  12.780  10.078   8.696  0.4253 -0.0300 -0.1042
  254loPI   C1B 4061  12.642   9.842  10.511 -0.5206  0.0740 -0.2106
  254loPI   C2B 4062  12.709   9.881  10.096  0.0456 -0.1686  0.1177
  254loPI   C3B 4063  12.697   9.840   9.600 -0.2689 -0.0530 -0.1510
  254loPI   C4B 4064  12.794   9.711   9.173  0.1652 -0.0927  0.0570
  255loPI    C1 4065  15.869   9.138  11.982  0.1015  0.0417  0.1093
  255loPI    C2 4066  15.736   8.762  12.005 -0.2158  0.1381 -0.0951
  255loPI    C3 4067  16.003   8.895  12.270 -0.0659 -0.2430 -0.0478
  255loPI   PO4 4068  15.736   9.245  11.809  0.0645 -0.1953  0.0111
  255loPI   GL1 4069  15.669   9.343  11.454  0.1720 -0.0633 -0.1209
  255loPI   GL2 4070  15.836   9.636  11.309  0.3569  0.2477 -0.0753
  255loPI   C1A 4071  15.540   9.393  11.038  0.0199 -0.0508 -0.1131
  255loPI   C2A 4072  15.401   9.314  10.623 -0.0506  0.2662 -0.0565
  255loPI   C3A 4073  15.495   9.380  10.191  0.0119 -0.1402  0.1042
  255loPI   C4A 4074  15.386   9.377   9.731  0.1063  0.2375 -0.0437
  255loPI   C5A 4075  15.331   9.538   9.372 -0.0211 -0.0178  0.0277
  255loPI   C6A 4076  15.516   9.649   9.018 -0.1334 -0.1532 -0.0721
  255loPI   C1B 4077  15.982   9.429  10.778 -0.1818 -0.3181  0.0511
  255loPI   C2B 4078  15.940   9.472  10.350 -0.0216 -0.2901 -0.1457
  255loPI   C3B 4079  15.965   9.524   9.866  0.0348  0.0891 -0.0633
  255loPI   C4B 4080  15.804   9.595   9.441  0.1383  0.1089 -0.2548
  256loPI    C1 4081  11.212   3.241  11.464 -0.0681  0.0852 -0.1711
  256loPI    C2 4082  11.116   3.522  11.731  0.1094 -0.2610  0.2697
  256loPI    C3 4083  10.840   3.259  11.611 -0.0235  0.0166 -0.0480
  256loPI   PO4 4084  11.337   3.360  11.264  0.0222  0.1872  0.3650
  256loPI   GL1 4085  11.225   3.210  10.855 -0.4712  0.1021 -0.1201
  256loPI   GL2 4086  11.398   2.968  10.965 -0.0941  0.1324  0.0814
  256loPI   C1A 4087  11.322   3.073  10.499 -0.0638  0.0694 -0.2400
  256loPI   C2A 4088  11.306   3.096  10.075 -0.2070  0.0811 -0.2871
  256loPI   C3A 4089  11.399   3.126   9.572 -0.1366  0.0808 -0.2086
  256loPI   C4A 4090  11.537   3.116   9.161  0.2133 -0.1225 -0.2213
  256loPI   C5A 4091  11.606   3.468   8.865  0.1414 -0.0067 -0.1750
  256loPI   C6A 4092  11.785   3.775   8.685 -0.1686 -0.2769 -0.1563
  256loPI   C1B 4093  11.208   2.634  10.622 -0.2443  0.3031 -0.0323
  256loPI   C2B 4094  11.060   2.623  10.135  0.1738  0.0093  0.2476
  256loPI   C3B 4095  11.199   2.679   9.637 -0.2205  0.0801 -0.0072
  256loPI   C4B 4096  11.324   2.622   9.281  0.1983 -0.2209  0.1787
  257loPI    C1 4097   0.082   0.327  11.099  0.0754 -0.0746 -0.0547
  257loPI    C2 4098   0.149   0.657  10.883 -0.0561  0.0606  0.1082
  257loPI    C3 4099   0.456   0.430  11.002  0.0469  0.2039  0.1186
  257loPI   PO4 4100  -0.170   0.270  11.002 -0.2653  0.1784 -0.0371
  257loPI   GL1 4101  -0.278   0.508  10.657 -0.1453  0.3630 -0.0142
  257loPI   GL2 4102  -0.510   0.360  10.686 -0.1460  0.0135  0.0001
  257loPI   C1A 4103   0.005   0.798  10.443 -0.0397  0.0587 -0.0850
  257loPI   C2A 4104  -0.033   0.743  10.065  0.2122  0.0867 -0.2193
  257loPI   C3A 4105   0.103   0.672   9.538 -0.0828 -0.1341  0.0603
  257loPI   C4A 4106   0.180   0.598   9.141 -0.1395  0.0280 -0.0459
  257loPI   C5A 4107  -0.070   0.408   8.919 -0.1536  0.1730 -0.1423
  257loPI   C6A 4108  -0.134   0.143   8.652 -0.1849 -0.0982 -0.1898
  257loPI   C1B 4109  -0.410   0.411  10.179 -0.1350 -0.0215  0.0648
  257loPI   C2B 4110  -0.281   0.492   9.776  0.1664  0.1806 -0.1410
  257loPI   C3B 4111  -0.435   0.349   9.459 -0.1605  0.3477  0.3411
  257loPI   C4B 4112  -0.568  -0.139   9.413  0.0434 -0.0387 -0.0955
  258loPI    C1 4113  14.713  13.118  11.788  0.0529  0.0366  0.0607
  258loPI    C2 4114  14.921  12.856  11.568 -0.2495 -0.1157 -0.0493
  258loPI    C3 4115  15.113  13.130  11.788  0.0656 -0.2878 -0.1047
  258loPI   PO4 4116  14.560  13.211  11.684 -0.2125  0.0958 -0.4804
  258loPI   GL1 4117  14.326  13.158  11.298  0.0230  0.3348  0.1857
  258loPI   GL2 4118  14.458  12.829  11.392  0.0360 -0.0076  0.0011
  258loPI   C1A 4119  14.260  12.987  10.853 -0.1265  0.5492 -0.1076
  258loPI   C2A 4120  14.271  12.840  10.409 -0.0901 -0.2657 -0.1898
  258loPI   C3A 4121  14.255  12.841   9.926  0.1232 -0.0465 -0.1558
  258loPI   C4A 4122  14.312  12.931   9.477  0.1268  0.0782  0.2822
  258loPI   C5A 4123  14.267  12.923   9.138  0.1827 -0.1065  0.2137
  258loPI   C6A 4124  14.343  12.840   8.805 -0.0435 -0.0061  0.0337
  258loPI   C1B 4125  14.712  12.979  11.032  0.2546  0.4267  0.1042
  258loPI   C2B 4126  14.854  13.015  10.630  0.3233 -0.1018 -0.2475
  258loPI   C3B 4127  14.795  13.054  10.132 -0.0082 -0.1478  0.0717
  258loPI   C4B 4128  14.761  12.991   9.701  0.2080  0.0691  0.1420
  259loPI    C1 4129   4.695   5.202  11.359 -0.0256  0.0100 -0.0746
  259loPI    C2 4130   4.381   4.992  11.490  0.0335  0.0357  0.1118
  259loPI    C3 4131   4.746   4.916  11.634  0.1300 -0.0617 -0.1767
  259loPI   PO4 4132   4.698   5.239  11.018 -0.0070 -0.0463 -0.0098
  259loPI   GL1 4133   4.465   5.419  10.784 -0.2503  0.2422  0.0262
  259loPI   GL2 4134   4.790   5.557  10.629  0.0446 -0.1434  0.1836
  259loPI   C1A 4135   4.253   5.194  10.463 -0.2352  0.0202 -0.2455
  259loPI   C2A 4136   4.230   5.154  10.065  0.2028  0.2888  0.1711
  259loPI   C3A 4137   4.178   5.150   9.698  0.0754 -0.0633  0.0600
  259loPI   C4A 4138   4.192   5.227   9.329  0.0378 -0.0326 -0.1253
  259loPI   C5A 4139   3.971   5.331   8.899  0.0058 -0.1549  0.1118
  259loPI   C6A 4140   3.749   5.560   8.537  0.0142 -0.1967 -0.0498
  259loPI   C1B 4141   4.802   5.341  10.276  0.0203  0.0030  0.0590
  259loPI   C2B 4142   4.723   5.239   9.883 -0.0556  0.2833 -0.2229
  259loPI   C3B 4143   4.635   5.233   9.463  0.4834 -0.1078 -0.0593
  259loPI   C4B 4144   4.923   5.048   9.223  0.0202  0.1142 -0.1659
  260loPI    C1 4145   8.979   9.046  11.745  0.0054 -0.1371 -0.0993
  260loPI    C2 4146   9.051   9.034  12.138  0.0346  0.1014 -0.0961
  260loPI    C3 4147   9.155   8.725  11.906  0.1661  0.0281  0.0584
  260loPI   PO4 4148   9.016   9.350  11.598 -0.0976 -0.2783 -0.1822
  260loPI   GL1 4149   9.101   9.307  11.129 -0.0613  0.1950 -0.3001
  260loPI   GL2 4150   9.070   9.605  10.988  0.2505  0.2943 -0.1137
  260loPI   C1A 4151   8.974   9.183  10.589 -0.0739 -0.0626 -0.3679
  260loPI   C2A 4152   8.963   9.361  10.144  0.0883 -0.0260 -0.0639
  260loPI   C3A 4153   9.111   9.246   9.766  0.1722  0.0978  0.0971
  260loPI   C4A 4154   9.128   9.433   9.381  0.2284 -0.0380  0.0380
  260loPI   C5A 4155   9.383   9.434   9.043 -0.1278 -0.1562  0.1660
  260loPI   C6A 4156   9.705   9.129   8.979  0.0016  0.0316  0.3653
  260loPI   C1B 4157   9.202   9.620  10.567 -0.1002  0.0321 -0.1583
  260loPI   C2B 4158   9.285   9.685  10.254  0.0013 -0.1848 -0.1766
  260loPI   C3B 4159   9.292   9.730   9.907 -0.0323  0.1707  0.1292
  260loPI   C4B 4160   9.377   9.793   9.578  0.0385 -0.0708 -0.0205
  261loPI    C1 4161   9.553  14.584  11.464  0.1751 -0.0553  0.0733
  261loPI    C2 4162   9.283  14.655  11.750 -0.1863 -0.2100 -0.2211
  261loPI    C3 4163   9.620  14.459  11.837  0.0171  0.3154  0.2307
  261loPI   PO4 4164   9.605  14.829  11.254  0.0160 -0.0784 -0.1917
  261loPI   GL1 4165   9.778  14.856  10.862 -0.1957 -0.1226 -0.0413
  261loPI   GL2 4166   9.609  15.226  10.910 -0.2114 -0.1755  0.0534
  261loPI   C1A 4167   9.843  14.817  10.397 -0.0919 -0.4098  0.0624
  261loPI   C2A 4168   9.858  14.785   9.998 -0.1579 -0.1935  0.1072
  261loPI   C3A 4169   9.743  14.777   9.566 -0.0753  0.1115 -0.0427
  261loPI   C4A 4170   9.557  14.496   9.230 -0.0469  0.1472 -0.1146
  261loPI   C5A 4171   9.057  14.398   9.157 -0.1273  0.0686  0.0169
  261loPI   C6A 4172   8.746  14.121   9.383 -0.1274  0.0795 -0.4657
  261loPI   C1B 4173   9.558  15.196  10.464  0.1328  0.1346  0.2298
  261loPI   C2B 4174   9.478  15.218  10.043 -0.0760 -0.1421 -0.2380
  261loPI   C3B 4175   9.463  15.241   9.649 -0.2117 -0.2038  0.1999
  261loPI   C4B 4176   9.405  15.125   9.341  0.0638 -0.1779  0.2880
  262loPI    C1 4177   0.468  15.383  11.326  0.0508  0.0746 -0.0997
  262loPI    C2 4178   0.399  15.644  11.621 -0.1587  0.1432 -0.2076
  262loPI    C3 4179   0.678  15.362  11.666 -0.1402  0.1968  0.0282
  262loPI   PO4 4180   0.310  15.532  11.172 -0.0141 -0.0801  0.0178
  262loPI   GL1 4181   0.090  15.457  10.922  0.3145  0.0970  0.2347
  262loPI   GL2 4182   0.095  15.093  10.827  0.0728  0.2982 -0.0852
  262loPI   C1A 4183  -0.062  15.522  10.465  0.1217 -0.0590  0.4068
  262loPI   C2A 4184  -0.157  15.505   9.988  0.2102  0.2211  0.0248
  262loPI   C3A 4185  -0.374  15.427   9.599  0.0393  0.2054  0.0557
  262loPI   C4A 4186  -0.694  15.118   9.458  0.0006 -0.2192 -0.0049
  262loPI   C5A 4187  -0.682  14.880   9.140 -0.2034  0.0747  0.1714
  262loPI   C6A 4188  -0.515  14.743   8.693  0.1470  0.0216 -0.0560
  262loPI   C1B 4189   0.026  14.947  10.586 -0.1408 -0.0828  0.5902
  262loPI   C2B 4190  -0.024  15.029  10.194 -0.0110  0.0120 -0.0059
  262loPI   C3B 4191  -0.084  15.031   9.752 -0.0567 -0.2406 -0.0773
  262loPI   C4B 4192  -0.224  14.822   9.463  0.1807  0.1990 -0.2315
  263loPI    C1 4193  17.576   3.541  11.092  0.0263 -0.2003 -0.1216
  263loPI    C2 4194  17.857   3.487  10.812 -0.0049 -0.2359 -0.1463
  263loPI    C3 4195  17.887   3.299  11.164  0.1897  0.0384 -0.0128
  263loPI   PO4 4196  17.417   3.624  11.031 -0.0084  0.0529  0.3022
  263loPI   GL1 4197  17.309   3.814  10.736  0.1087 -0.3628  0.1624
  263loPI   GL2 4198  17.636   3.958  10.645  0.2623  0.0219 -0.2468
  263loPI   C1A 4199  17.241   4.078  10.391 -0.0898  0.0105  0.0375
  263loPI   C2A 4200  17.235   4.139  10.004 -0.3443  0.1457 -0.0743
  263loPI   C3A 4201  17.144   4.120   9.597 -0.1745  0.1284 -0.0988
  263loPI   C4A 4202  17.156   4.314   9.191 -0.0548 -0.0824 -0.2637
  263loPI   C5A 4203  17.388   4.308   8.705  0.0112  0.1350 -0.5169
  263loPI   C6A 4204  17.544   4.072   8.414  0.0756 -0.1440 -0.1353
  263loPI   C1B 4205  17.622   3.716  10.262  0.1751  0.0275 -0.4351
  263loPI   C2B 4206  17.607   3.607   9.962  0.1929  0.0124  0.2894
  263loPI   C3B 4207  17.513   3.699   9.604  0.1231  0.0308  0.2020
  263loPI   C4B 4208  17.493   3.860   9.298  0.0692  0.1735  0.1236
  264loPI    C1 4209  11.871  17.224  11.391  0.0478 -0.0026  0.1323
  264loPI    C2 4210  11.661  17.534  11.532 -0.1209 -0.1416  0.1909
  264loPI    C3 4211  11.738  17.221  11.768 -0.0535 -0.1968  0.0962
  264loPI   PO4 4212  11.780  17.143  11.166  0.2377  0.2317  0.1217
  264loPI   GL1 4213  11.515  17.013  10.862 -0.0360  0.1268 -0.2111
  264loPI   GL2 4214  11.488  16.717  10.730  0.1354 -0.0042 -0.4001
  264loPI   C1A 4215  11.531  17.105  10.410 -0.1029  0.1455  0.2735
  264loPI   C2A 4216  11.546  17.032   9.897 -0.3035  0.1057  0.4256
  264loPI   C3A 4217  11.599  17.013   9.456 -0.1664 -0.0117 -0.1100
  264loPI   C4A 4218  11.593  17.047   9.045 -0.2751 -0.0027  0.1070
  264loPI   C5A 4219  11.340  16.859   8.803 -0.1894  0.0846 -0.2364
  264loPI   C6A 4220  10.876  16.803   8.752 -0.3077  0.3210  0.0957
  264loPI   C1B 4221  11.281  16.547  10.389 -0.0397 -0.0607 -0.1866
  264loPI   C2B 4222  11.283  16.482   9.902 -0.0746 -0.0728  0.1696
  264loPI   C3B 4223  11.418  16.499   9.479 -0.0246  0.1563  0.0753
  264loPI   C4B 4224  11.309  16.362   9.091  0.2176  0.1060 -0.1727
  265loPI    C1 4225  10.714   3.659  11.428 -0.1535 -0.2417  0.1406
  265loPI    C2 4226  10.320   3.725  11.403 -0.1054  0.1046  0.2410
  265loPI    C3 4227  10.481   3.600  11.748 -0.0771  0.3433  0.3159
  265loPI   PO4 4228  10.801   3.532  11.173  0.3099 -0.0301  0.4187
  265loPI   GL1 4229  10.975   3.684  10.806  0.2634  0.3689 -0.2112
  265loPI   GL2 4230  10.811   3.521  10.625  0.3701  0.0298 -0.0189
  265loPI   C1A 4231  11.114   3.985  10.490  0.0202 -0.2045  0.0953
  265loPI   C2A 4232  11.200   4.003  10.091  0.3316 -0.3770  0.1123
  265loPI   C3A 4233  11.234   3.961   9.689 -0.0073  0.0411  0.3242
  265loPI   C4A 4234  11.366   4.000   9.323  0.3514 -0.1154  0.2605
  265loPI   C5A 4235  11.420   4.122   8.897  0.0102  0.2381 -0.0973
  265loPI   C6A 4236  11.050   4.039   8.610 -0.4084  0.1755 -0.1669
  265loPI   C1B 4237  10.975   3.554  10.172  0.0828  0.0233  0.1868
  265loPI   C2B 4238  11.143   3.492   9.802  0.1153 -0.3181 -0.2061
  265loPI   C3B 4239  11.129   3.519   9.429 -0.1387 -0.1044 -0.1861
  265loPI   C4B 4240  11.132   3.705   8.987  0.1202 -0.0757 -0.0834
  266loPI    C1 4241  15.965   0.596  11.155 -0.0977 -0.3152  0.1956
  266loPI    C2 4242  15.624   0.655  11.356 -0.1181 -0.1996  0.1278
  266loPI    C3 4243  15.968   0.800  11.499 -0.1385 -0.0835  0.0608
  266loPI   PO4 4244  15.908   0.620  10.971  0.0300 -0.2539 -0.0487
  266loPI   GL1 4245  15.908   0.898  10.551 -0.0052 -0.0092  0.2886
  266loPI   GL2 4246  16.226   1.055  10.573  0.3367 -0.0525  0.1176
  266loPI   C1A 4247  15.884   0.577  10.237 -0.0742 -0.4482  0.2028
  266loPI   C2A 4248  15.821   0.412   9.766 -0.1778  0.0704  0.0749
  266loPI   C3A 4249  15.821   0.401   9.349  0.1496 -0.3300  0.0764
  266loPI   C4A 4250  15.983   0.301   9.013 -0.1594  0.1410  0.0581
  266loPI   C5A 4251  16.069   0.406   8.602  0.0316  0.3023  0.0759
  266loPI   C6A 4252  16.087   0.520   8.163 -0.1555  0.0672  0.1899
  266loPI   C1B 4253  16.274   0.879  10.127 -0.1322  0.1164  0.0717
  266loPI   C2B 4254  16.192   0.741   9.757  0.0523 -0.2894 -0.2526
  266loPI   C3B 4255  16.302   0.566   9.350  0.0063  0.0668  0.1669
  266loPI   C4B 4256  16.533   0.501   8.987  0.2200 -0.1861 -0.1476
  267loPI    C1 4257   2.224  16.913  11.172  0.1564 -0.0049  0.0087
  267loPI    C2 4258   2.597  16.798  11.258  0.1052 -0.3307 -0.1859
  267loPI    C3 4259   2.322  16.819  11.548  0.2062 -0.3524 -0.0876
  267loPI   PO4 4260   2.248  16.755  10.891  0.0122  0.2007 -0.0139
  267loPI   GL1 4261   2.438  16.546  10.475  0.2232  0.1086 -0.2485
  267loPI   GL2 4262   2.242  16.344  10.347 -0.0896  0.0639 -0.1089
  267loPI   C1A 4263   2.746  16.760  10.180 -0.2100 -0.1072 -0.0127
  267loPI   C2A 4264   2.880  16.943   9.809  0.3465 -0.1434  0.0559
  267loPI   C3A 4265   2.795  16.741   9.361 -0.1521  0.0936 -0.2425
  267loPI   C4A 4266   2.842  16.685   8.954  0.0322 -0.1356  0.2061
  267loPI   C5A 4267   2.793  16.292   8.680  0.0524  0.2109  0.4054
  267loPI   C6A 4268   2.952  15.869   8.695 -0.1089 -0.1201 -0.1057
  267loPI   C1B 4269   2.320  16.435   9.990 -0.0704 -0.4954 -0.0048
  267loPI   C2B 4270   2.450  16.634   9.779  0.1485  0.2586  0.0020
  267loPI   C3B 4271   2.240  16.766   9.381  0.0750 -0.1127 -0.1819
  267loPI   C4B 4272   2.415  16.905   9.109  0.1282  0.2671 -0.1102
  268loPI    C1 4273  14.988  12.417  11.961 -0.0231 -0.0053  0.1840
  268loPI    C2 4274  14.643  12.606  11.888 -0.0433 -0.0879  0.0629
  268loPI    C3 4275  14.902  12.757  12.153 -0.1084  0.0505  0.0484
  268loPI   PO4 4276  14.997  12.347  11.694  0.0440  0.3808 -0.1198
  268loPI   GL1 4277  15.059  12.431  11.418 -0.2861  0.1297 -0.2135
  268loPI   GL2 4278  15.011  12.118  11.185  0.1235 -0.1791 -0.0910
  268loPI   C1A 4279  15.018  12.566  10.979 -0.0860  0.3443  0.2451
  268loPI   C2A 4280  15.099  12.578  10.581 -0.2583  0.1980 -0.0316
  268loPI   C3A 4281  15.071  12.553  10.161  0.1535 -0.1126  0.0036
  268loPI   C4A 4282  15.167  12.640   9.727 -0.1419 -0.1008  0.0296
  268loPI   C5A 4283  15.047  12.592   9.272 -0.2278  0.1894  0.0254
  268loPI   C6A 4284  14.798  12.989   9.135 -0.1492 -0.0072  0.1046
  268loPI   C1B 4285  14.846  12.151  10.772 -0.2206  0.1978  0.1781
  268loPI   C2B 4286  14.895  12.059  10.335  0.0465 -0.1566 -0.4198
  268loPI   C3B 4287  14.903  12.121   9.917  0.0441 -0.6050  0.1987
  268loPI   C4B 4288  14.869  12.023   9.510 -0.0118 -0.1046 -0.0258
  269loPI    C1 4289  16.033   9.943  11.882 -0.0572 -0.2337 -0.1852
  269loPI    C2 4290  16.259   9.663  12.058 -0.0139 -0.1862 -0.1650
  269loPI    C3 4291  15.861   9.650  12.093  0.0060 -0.0336  0.1518
  269loPI   PO4 4292  16.082   9.930  11.618  0.1224 -0.0846  0.2086
  269loPI   GL1 4293  15.932  10.112  11.137  0.1283 -0.1240 -0.0113
  269loPI   GL2 4294  16.319  10.263  11.117 -0.2789  0.0069  0.1476
  269loPI   C1A 4295  15.688   9.850  10.846 -0.0095  0.1439  0.1851
  269loPI   C2A 4296  15.647   9.850  10.435 -0.3035 -0.0913  0.2704
  269loPI   C3A 4297  15.579   9.858  10.070 -0.4459  0.1029 -0.0780
  269loPI   C4A 4298  15.564   9.937   9.647  0.0544 -0.0311 -0.0524
  269loPI   C5A 4299  15.720  10.073   9.278 -0.2781 -0.0084  0.2369
  269loPI   C6A 4300  15.584  10.128   8.834  0.3222  0.2923  0.1424
  269loPI   C1B 4301  16.301  10.437  10.740 -0.1313  0.2840  0.0708
  269loPI   C2B 4302  16.279  10.581  10.282  0.2143  0.1317  0.0999
  269loPI   C3B 4303  16.276  10.409   9.885 -0.1998 -0.2205  0.2994
  269loPI   C4B 4304  16.156  10.470   9.557  0.0688 -0.1388 -0.0621
  270loPI    C1 4305  12.419   3.630  11.390 -0.1066  0.1895 -0.0661
  270loPI    C2 4306  12.106   3.755  11.606  0.0493  0.0925  0.2202
  270loPI    C3 4307  12.261   3.391  11.669  0.1805  0.1151  0.0358
  270loPI   PO4 4308  12.549   3.890  11.384  0.0791  0.1181 -0.0756
  270loPI   GL1 4309  12.629   4.038  10.988  0.1625  0.0542 -0.0937
  270loPI   GL2 4310  12.907   4.348  10.862 -0.1747  0.0253  0.2818
  270loPI   C1A 4311  12.668   3.812  10.594  0.0907 -0.2166 -0.1581
  270loPI   C2A 4312  12.579   3.842  10.136  0.1360  0.2295 -0.0355
  270loPI   C3A 4313  12.617   3.872   9.696  0.1427 -0.1846  0.3072
  270loPI   C4A 4314  12.564   3.754   9.297  0.1848  0.1733  0.0251
  270loPI   C5A 4315  12.886   3.608   9.092 -0.2253 -0.0232  0.1464
  270loPI   C6A 4316  13.125   3.778   8.818  0.1815 -0.1407  0.0456
  270loPI   C1B 4317  12.787   4.330  10.435  0.1573  0.0868 -0.0617
  270loPI   C2B 4318  12.793   4.339   9.951 -0.1944 -0.2036 -0.0698
  270loPI   C3B 4319  12.768   4.316   9.497  0.0025  0.0876  0.1923
  270loPI   C4B 4320  12.803   4.153   8.967  0.2892 -0.0312  0.2530
  271loPI    C1 4321  17.129   3.348  11.389  0.2598  0.0551  0.0520
  271loPI    C2 4322  17.422   3.105  11.264 -0.0616 -0.2827 -0.0637
  271loPI    C3 4323  17.286   3.077  11.639  0.2518  0.0792  0.0831
  271loPI   PO4 4324  17.003   3.333  11.142 -0.1104  0.0789  0.0351
  271loPI   GL1 4325  17.190   3.097  10.802  0.0984  0.0030  0.0991
  271loPI   GL2 4326  17.379   3.327  10.638 -0.0703 -0.0597 -0.1086
  271loPI   C1A 4327  16.954   3.071  10.452 -0.1912 -0.1479  0.1750
  271loPI   C2A 4328  16.970   3.140  10.004 -0.3118  0.1772 -0.3224
  271loPI   C3A 4329  16.963   3.074   9.516  0.0647 -0.1663 -0.0095
  271loPI   C4A 4330  16.804   3.043   9.049  0.2306 -0.0935  0.0903
  271loPI   C5A 4331  16.406   2.938   8.793  0.0003  0.0679  0.0135
  271loPI   C6A 4332  16.202   2.547   8.544  0.0505  0.1047 -0.0712
  271loPI   C1B 4333  17.424   3.195  10.201  0.0237 -0.0698 -0.0624
  271loPI   C2B 4334  17.461   3.224   9.715 -0.0161 -0.0152  0.0201
  271loPI   C3B 4335  17.390   3.313   9.307  0.0546 -0.0284  0.2486
  271loPI   C4B 4336  17.712   3.557   8.893  0.0694  0.0459  0.0669
  272loPI    C1 4337   5.500   2.735  11.089 -0.1123  0.0768 -0.2214
  272loPI    C2 4338   5.294   2.393  11.101  0.1709 -0.0865  0.3084
  272loPI    C3 4339   5.171   2.708  11.315  0.1244  0.0222  0.1240
  272loPI   PO4 4340   5.534   2.802  10.790 -0.1535  0.1636 -0.3805
  272loPI   GL1 4341   5.694   2.901  10.436  0.0445 -0.1687  0.1642
  272loPI   GL2 4342   5.375   2.881  10.332 -0.2856  0.0263  0.2592
  272loPI   C1A 4343   5.695   3.046   9.984 -0.1094  0.2412 -0.0714
  272loPI   C2A 4344   5.794   2.940   9.589  0.0581 -0.0870  0.1611
  272loPI   C3A 4345   5.938   3.033   9.088 -0.1923  0.4320  0.1002
  272loPI   C4A 4346   5.957   3.397   8.781  0.2528  0.0976  0.2791
  272loPI   C5A 4347   5.994   3.798   8.534 -0.1210  0.1270 -0.0095
  272loPI   C6A 4348   6.070   3.950   8.122  0.1429 -0.1923  0.2449
  272loPI   C1B 4349   5.071   2.726   9.971  0.1351 -0.1326  0.0682
  272loPI   C2B 4350   5.078   2.716   9.521 -0.2539  0.0493 -0.1720
  272loPI   C3B 4351   5.031   2.891   9.097 -0.0741  0.0423  0.1239
  272loPI   C4B 4352   4.573   3.022   8.907  0.1071 -0.0268  0.1639
  273loPI    C1 4353  16.421  13.635  11.881  0.0711  0.1457  0.1065
  273loPI    C2 4354  16.343  13.393  12.189  0.0415 -0.2441 -0.1993
  273loPI    C3 4355  16.128  13.726  12.137  0.1088 -0.1245  0.2489
  273loPI   PO4 4356  16.564  13.425  11.701  0.0500 -0.1109  0.1452
  273loPI   GL1 4357  16.275  13.253  11.371 -0.1238 -0.2877  0.0147
  273loPI   GL2 4358  16.022  13.433  11.639  0.2617  0.0398  0.4942
  273loPI   C1A 4359  16.365  12.922  11.081  0.2947 -0.0288 -0.0392
  273loPI   C2A 4360  16.189  12.802  10.703  0.0173  0.3118  0.3526
  273loPI   C3A 4361  16.193  12.643  10.358  0.0541 -0.2041 -0.0500
  273loPI   C4A 4362  16.132  12.695   9.989 -0.0875 -0.1642  0.1225
  273loPI   C5A 4363  15.889  12.780   9.575 -0.2018 -0.2842 -0.0923
  273loPI   C6A 4364  15.516  12.770   9.319 -0.1646 -0.4486 -0.2506
  273loPI   C1B 4365  15.756  13.643  11.364  0.1452  0.0261  0.1353
  273loPI   C2B 4366  15.589  13.529  10.953  0.2244  0.1576  0.0212
  273loPI   C3B 4367  15.453  13.654  10.499 -0.4032 -0.3547 -0.2177
  273loPI   C4B 4368  15.450  13.538  10.099  0.1174 -0.0887 -0.2375
  274loPI    C1 4369  12.232   6.716  11.592 -0.2334  0.0565  0.2819
  274loPI    C2 4370  12.523   6.448  11.654 -0.3508 -0.1340  0.0305
  274loPI    C3 4371  12.162   6.393  11.818 -0.3170 -0.0226  0.1442
  274loPI   PO4 4372  12.146   6.753  11.332 -0.1257  0.1489 -0.0302
  274loPI   GL1 4373  12.403   6.718  10.983 -0.0965 -0.1067 -0.2347
  274loPI   GL2 4374  12.246   6.988  10.950 -0.3620 -0.2319  0.0542
  274loPI   C1A 4375  12.712   6.567  10.694  0.1118 -0.0912  0.1233
  274loPI   C2A 4376  12.615   6.592  10.230  0.1884 -0.4007 -0.0523
  274loPI   C3A 4377  12.597   6.610   9.774 -0.1853 -0.2805 -0.0711
  274loPI   C4A 4378  12.567   6.565   9.332 -0.0252  0.1740 -0.3155
  274loPI   C5A 4379  12.740   6.474   8.940 -0.2011  0.0467  0.3346
  274loPI   C6A 4380  12.961   6.710   8.778  0.5008  0.3286  0.2408
  274loPI   C1B 4381  12.205   6.990  10.507 -0.2252  0.2465 -0.2766
  274loPI   C2B 4382  12.306   7.040  10.046 -0.0837 -0.1632 -0.1802
  274loPI   C3B 4383  12.214   6.966   9.650  0.1306  0.0293  0.2108
  274loPI   C4B 4384  12.248   6.928   9.231 -0.1742  0.2107  0.1278
  275loPI    C1 4385   1.134   9.316  11.258 -0.1217 -0.1333 -0.0135
  275loPI    C2 4386   1.452   9.091  11.352 -0.1646 -0.1428  0.1101
  275loPI    C3 4387   1.286   9.329  11.628 -0.0944  0.0725 -0.0306
  275loPI   PO4 4388   0.873   9.249  11.114  0.1334  0.3110  0.2299
  275loPI   GL1 4389   0.605   9.266  10.790  0.0158 -0.0681  0.0813
  275loPI   GL2 4390   0.726   8.973  10.660 -0.0612 -0.0415 -0.2833
  275loPI   C1A 4391   0.318   9.416  10.449 -0.1007  0.1459  0.2194
  275loPI   C2A 4392   0.226   9.406  10.059 -0.1174 -0.0240  0.2867
  275loPI   C3A 4393   0.091   9.494   9.652 -0.5115  0.1321 -0.4218
  275loPI   C4A 4394   0.186   9.451   9.351 -0.2202 -0.0663  0.0830
  275loPI   C5A 4395   0.060   9.326   8.975 -0.0962  0.3776 -0.0274
  275loPI   C6A 4396   0.023   9.174   8.524 -0.1085  0.0883 -0.3338
  275loPI   C1B 4397   0.598   9.051  10.255  0.1545 -0.0755 -0.2163
  275loPI   C2B 4398   0.507   9.061   9.776 -0.0945  0.0727  0.2167
  275loPI   C3B 4399   0.495   9.028   9.327  0.0610  0.0572 -0.3771
  275loPI   C4B 4400   0.822   9.030   9.115  0.0272  0.0445  0.1877
  276loPI    C1 4401  13.728  13.990  12.089  0.1026 -0.1647  0.0871
  276loPI    C2 4402  13.597  13.743  12.375 -0.1292 -0.0929  0.0451
  276loPI    C3 4403  13.677  14.125  12.462  0.0446 -0.1337  0.0680
  276loPI   PO4 4404  13.877  13.819  11.947  0.2454 -0.1500 -0.0007
  276loPI   GL1 4405  13.924  13.840  11.576 -0.1160  0.5183  0.1755
  276loPI   GL2 4406  13.697  13.983  11.345  0.0213 -0.0281 -0.0817
  276loPI   C1A 4407  14.160  13.904  11.217  0.0078  0.1695  0.4348
  276loPI   C2A 4408  14.192  13.814  10.803 -0.0775  0.1505 -0.2696
  276loPI   C3A 4409  14.108  13.713  10.355 -0.1112 -0.3227 -0.0214
  276loPI   C4A 4410  14.130  13.673   9.995  0.1356 -0.0267 -0.1719
  276loPI   C5A 4411  14.237  13.757   9.544 -0.1546 -0.0439  0.1669
  276loPI   C6A 4412  13.909  13.792   9.188  0.1885  0.0806  0.1110
  276loPI   C1B 4413  13.710  13.841  10.974 -0.5413 -0.0837  0.0513
  276loPI   C2B 4414  13.635  13.688  10.535  0.1628  0.0863  0.1461
  276loPI   C3B 4415  13.652  13.599  10.070 -0.2089 -0.1530  0.1180
  276loPI   C4B 4416  13.737  13.681   9.670  0.0325 -0.3398  0.0626
  277loPI    C1 4417  10.837  16.416  11.384 -0.0136 -0.1291  0.1080
  277loPI    C2 4418  10.561  16.541  11.644  0.0479  0.0785  0.0757
  277loPI    C3 4419  10.842  16.794  11.514  0.1120 -0.0669 -0.0725
  277loPI   PO4 4420  10.730  16.315  11.185  0.1219  0.2240  0.2175
  277loPI   GL1 4421  10.807  16.088  10.790  0.2560 -0.3075  0.2388
  277loPI   GL2 4422  10.485  15.964  10.694 -0.0425 -0.1359 -0.0943
  277loPI   C1A 4423  11.082  16.085  10.413  0.1377 -0.1989  0.1410
  277loPI   C2A 4424  11.128  15.994   9.929 -0.1987 -0.0956 -0.3877
  277loPI   C3A 4425  11.124  16.046   9.486 -0.2847 -0.0233  0.0470
  277loPI   C4A 4426  11.220  15.902   9.075  0.0093  0.0746  0.1695
  277loPI   C5A 4427  11.103  15.554   8.774  0.0821  0.2444  0.2090
  277loPI   C6A 4428  11.017  15.580   8.338 -0.0605  0.0008 -0.0012
  277loPI   C1B 4429  10.621  15.987  10.243 -0.1465 -0.0912 -0.1698
  277loPI   C2B 4430  10.555  15.914   9.826 -0.1893  0.0675  0.0407
  277loPI   C3B 4431  10.658  15.844   9.426  0.1663 -0.0532 -0.1602
  277loPI   C4B 4432  10.777  16.065   9.123  0.1026  0.0940 -0.2499
  278loPI    C1 4433   0.493   6.424  11.539  0.0732  0.0380 -0.2292
  278loPI    C2 4434   0.676   6.427  11.895  0.0118 -0.2864 -0.1918
  278loPI    C3 4435   0.882   6.335  11.565  0.1357  0.2852 -0.2856
  278loPI   PO4 4436   0.211   6.508  11.462 -0.3120 -0.1115 -0.1284
  278loPI   GL1 4437  -0.053   6.514  10.971 -0.2547  0.1176 -0.0696
  278loPI   GL2 4438  -0.247   6.723  11.056  0.0627  0.2839 -0.0889
  278loPI   C1A 4439  -0.138   6.529  10.509  0.0272 -0.3011 -0.0353
  278loPI   C2A 4440  -0.186   6.549  10.033  0.0813 -0.1064 -0.2625
  278loPI   C3A 4441  -0.169   6.573   9.725  0.0458  0.1793  0.1934
  278loPI   C4A 4442  -0.186   6.650   9.249  0.0506 -0.1859 -0.0445
  278loPI   C5A 4443  -0.092   7.022   9.004 -0.1522 -0.0418 -0.0425
  278loPI   C6A 4444  -0.265   7.267   8.750  0.2891  0.0382 -0.1344
  278loPI   C1B 4445  -0.524   6.868  10.731 -0.0720 -0.1072 -0.0856
  278loPI   C2B 4446  -0.538   6.919  10.326 -0.0959 -0.2374  0.0641
  278loPI   C3B 4447  -0.634   6.909   9.877 -0.0552  0.0191 -0.0665
  278loPI   C4B 4448  -0.532   6.899   9.495  0.0113  0.1288  0.0386
  279loPI    C1 4449   1.030   0.433  11.156  0.0436 -0.2657  0.2160
  279loPI    C2 4450   0.753   0.582  11.405 -0.1821 -0.0257 -0.1680
  279loPI    C3 4451   0.861   0.197  11.431 -0.3429 -0.0508  0.1704
  279loPI   PO4 4452   0.960   0.535  10.940  0.1492 -0.2574  0.0978
  279loPI   GL1 4453   0.736   0.425  10.589  0.0954  0.1186 -0.1388
  279loPI   GL2 4454   0.559   0.701  10.590 -0.1570 -0.2689 -0.2045
  279loPI   C1A 4455   0.820   0.489  10.119 -0.0463 -0.3149  0.2076
  279loPI   C2A 4456   0.837   0.374   9.620  0.1889  0.0430 -0.2143
  279loPI   C3A 4457   0.826   0.360   9.203 -0.3352  0.1491  0.2590
  279loPI   C4A 4458   0.992   0.319   8.805 -0.0489 -0.1924  0.1048
  279loPI   C5A 4459   1.117   0.660   8.694 -0.1418  0.1704  0.4283
  279loPI   C6A 4460   1.335   1.001   8.793  0.0254  0.1017 -0.0714
  279loPI   C1B 4461   0.405   0.928  10.203 -0.0354 -0.1386 -0.0160
  279loPI   C2B 4462   0.420   0.851   9.847 -0.0542 -0.1484 -0.1070
  279loPI   C3B 4463   0.612   0.792   9.536  0.2386  0.2043 -0.2567
  279loPI   C4B 4464   0.560   0.873   9.072  0.0806  0.2194  0.3314
  280loPI    C1 4465  11.544   9.968  11.930 -0.0905  0.1119 -0.0275
  280loPI    C2 4466  11.151  10.038  11.921 -0.1118  0.0126  0.0920
  280loPI    C3 4467  11.329   9.944  12.266 -0.0197 -0.1506  0.0012
  280loPI   PO4 4468  11.504   9.880  11.600 -0.3573 -0.1247 -0.3265
  280loPI   GL1 4469  11.539  10.027  11.159  0.0045  0.1940  0.5033
  280loPI   GL2 4470  11.285  10.023  11.042 -0.0591  0.1163  0.2812
  280loPI   C1A 4471  11.796  10.135  10.798 -0.2049  0.1556  0.1372
  280loPI   C2A 4472  11.785  10.091  10.372  0.0718 -0.1802  0.1516
  280loPI   C3A 4473  11.946  10.138   9.990 -0.1198  0.2190 -0.0239
  280loPI   C4A 4474  11.993  10.227   9.637 -0.0398 -0.0331 -0.0741
  280loPI   C5A 4475  11.937  10.275   9.244  0.1178  0.0138  0.2322
  280loPI   C6A 4476  11.964  10.178   8.797 -0.0470  0.1051  0.1847
  280loPI   C1B 4477  11.313  10.026  10.617  0.1910  0.0161 -0.1547
  280loPI   C2B 4478  11.249  10.007  10.302  0.2463  0.2893  0.2538
  280loPI   C3B 4479  11.310  10.030   9.821  0.0929 -0.1732  0.5040
  280loPI   C4B 4480  11.531  10.086   9.432  0.0753 -0.3312  0.0314
  281loPI    C1 4481   2.239   6.593  10.972 -0.0175  0.0374  0.0135
  281loPI    C2 4482   2.559   6.521  10.744  0.0097  0.1420  0.0183
  281loPI    C3 4483   2.590   6.764  11.061 -0.0947  0.2220 -0.0323
  281loPI   PO4 4484   2.114   6.321  10.976 -0.2652 -0.1420  0.0633
  281loPI   GL1 4485   2.043   6.306  10.572  0.0042  0.0618  0.2926
  281loPI   GL2 4486   2.164   6.031  10.500 -0.0719  0.2143 -0.1392
  281loPI   C1A 4487   2.221   6.606  10.283  0.0171  0.3353  0.0026
  281loPI   C2A 4488   2.198   6.504   9.817  0.0172  0.0580 -0.2060
  281loPI   C3A 4489   2.147   6.462   9.334  0.1497 -0.0156  0.1306
  281loPI   C4A 4490   2.091   6.368   8.954  0.2283  0.0300 -0.0112
  281loPI   C5A 4491   2.003   6.177   8.598 -0.3009  0.0073  0.1621
  281loPI   C6A 4492   2.074   6.190   8.153  0.2345  0.0187  0.3951
  281loPI   C1B 4493   2.127   6.062  10.055  0.3621 -0.1594 -0.4308
  281loPI   C2B 4494   2.105   5.985   9.632 -0.1620 -0.1419 -0.3487
  281loPI   C3B 4495   2.121   5.879   9.260  0.2946 -0.0418  0.1815
  281loPI   C4B 4496   2.093   5.651   8.829 -0.4012  0.4617  0.3300
  282loPI    C1 4497   9.766   4.803  11.059 -0.2990 -0.1868 -0.1286
  282loPI    C2 4498   9.530   4.930  11.355 -0.1040  0.1440 -0.1094
  282loPI    C3 4499   9.813   4.657  11.428 -0.1832  0.0814 -0.0340
  282loPI   PO4 4500   9.838   5.096  10.936 -0.0416  0.2280 -0.4232
  282loPI   GL1 4501  10.073   5.258  10.781  0.0313 -0.0381 -0.0723
  282loPI   GL2 4502   9.881   5.541  10.715  0.1317 -0.1044  0.1174
  282loPI   C1A 4503  10.200   5.146  10.401 -0.0503 -0.1202  0.1278
  282loPI   C2A 4504  10.235   5.154   9.927 -0.3059 -0.1089 -0.1588
  282loPI   C3A 4505  10.236   5.196   9.502 -0.2537  0.0828 -0.0103
  282loPI   C4A 4506  10.281   5.111   9.020 -0.0234 -0.1434 -0.2963
  282loPI   C5A 4507   9.997   5.173   8.683 -0.3927  0.2661  0.1188
  282loPI   C6A 4508  10.152   5.185   8.262 -0.1208 -0.1334  0.0948
  282loPI   C1B 4509   9.901   5.552  10.290 -0.3046  0.1606  0.1215
  282loPI   C2B 4510   9.864   5.548   9.855  0.0352  0.2400  0.1242
  282loPI   C3B 4511   9.744   5.570   9.402  0.1346  0.1204  0.1079
  282loPI   C4B 4512   9.842   5.503   9.083 -0.1099  0.0626  0.0326
  283loPI    C1 4513   9.249  10.144  11.725 -0.0415  0.1797 -0.1021
  283loPI    C2 4514   9.552  10.084  11.979  0.0010 -0.1004 -0.2149
  283loPI    C3 4515   9.175  10.071  12.111  0.0341  0.2468 -0.0747
  283loPI   PO4 4516   9.369  10.248  11.532  0.1901  0.1173  0.0164
  283loPI   GL1 4517   9.407  10.192  11.097 -0.0194  0.0478 -0.1930
  283loPI   GL2 4518   9.497   9.933  10.977  0.1738 -0.0383  0.1139
  283loPI   C1A 4519   9.406  10.209  10.584 -0.1347 -0.2239  0.0411
  283loPI   C2A 4520   9.563  10.202  10.275 -0.1191 -0.2616  0.1405
  283loPI   C3A 4521   9.493  10.231   9.829  0.0947 -0.0972  0.2633
  283loPI   C4A 4522   9.426  10.329   9.382  0.0467 -0.0374  0.2608
  283loPI   C5A 4523   9.227  10.131   9.018 -0.0204 -0.1974 -0.0262
  283loPI   C6A 4524   8.890   9.880   9.179  0.1805 -0.1764  0.3402
  283loPI   C1B 4525   9.703   9.798  10.586 -0.0242 -0.2747 -0.0840
  283loPI   C2B 4526   9.811   9.758  10.172  0.1861  0.0999  0.0705
  283loPI   C3B 4527   9.856   9.786   9.738 -0.2259 -0.0680 -0.0198
  283loPI   C4B 4528   9.735   9.885   9.222  0.0169  0.3706 -0.0805
  284loPI    C1 4529  16.690  16.357  11.624 -0.2935 -0.0890 -0.0458
  284loPI    C2 4530  16.463  16.686  11.624  0.0017  0.1180 -0.0757
  284loPI    C3 4531  16.721  16.621  11.923 -0.0233 -0.0649 -0.0931
  284loPI   PO4 4532  16.828  16.384  11.343 -0.0074 -0.0094 -0.0603
  284loPI   GL1 4533  16.815  16.228  11.077 -0.2370  0.1330 -0.3222
  284loPI   GL2 4534  16.606  16.058  10.935  0.0786 -0.0233 -0.2812
  284loPI   C1A 4535  17.064  16.242  10.688  0.0419 -0.3829 -0.3433
  284loPI   C2A 4536  16.985  16.400  10.287  0.0100  0.0383  0.0411
  284loPI   C3A 4537  16.896  16.258   9.835  0.1172  0.2742 -0.2522
  284loPI   C4A 4538  16.618  16.343   9.482  0.0018 -0.0332  0.0788
  284loPI   C5A 4539  16.569  16.562   9.039 -0.0461 -0.3516 -0.1951
  284loPI   C6A 4540  16.444  16.642   8.608 -0.1609 -0.0450 -0.1374
  284loPI   C1B 4541  16.563  16.263  10.517  0.0088  0.0691  0.3699
  284loPI   C2B 4542  16.470  16.318  10.113 -0.2360  0.0614  0.1060
  284loPI   C3B 4543  16.200  16.351   9.716 -0.1424  0.3577  0.1734
  284loPI   C4B 4544  16.102  16.342   9.313 -0.0049  0.0624 -0.0111
  285loPI    C1 4545  12.816   5.194  11.657 -0.1702  0.0007  0.0492
  285loPI    C2 4546  12.424   5.141  11.601 -0.2352  0.0688  0.4185
  285loPI    C3 4547  12.553   5.405  11.872  0.0716  0.3900 -0.0267
  285loPI   PO4 4548  12.882   5.227  11.359 -0.0666 -0.2458 -0.0419
  285loPI   GL1 4549  12.618   5.004  11.057  0.0576 -0.0534  0.1510
  285loPI   GL2 4550  12.266   5.141  10.974  0.0215  0.1443 -0.0317
  285loPI   C1A 4551  12.901   4.938  10.756  0.1695  0.2415 -0.0476
  285loPI   C2A 4552  13.009   4.809  10.302 -0.1671  0.0024 -0.1563
  285loPI   C3A 4553  12.986   4.808   9.866  0.1996  0.1729 -0.2091
  285loPI   C4A 4554  12.910   4.813   9.457  0.0655 -0.0406 -0.1366
  285loPI   C5A 4555  12.795   4.649   9.075 -0.0159 -0.0131 -0.1191
  285loPI   C6A 4556  12.870   4.553   8.705  0.2084 -0.4475  0.1878
  285loPI   C1B 4557  12.027   5.131  10.679 -0.1194 -0.1395  0.0435
  285loPI   C2B 4558  12.089   5.157  10.228 -0.0046 -0.2904  0.1204
  285loPI   C3B 4559  12.152   5.101   9.770  0.0445  0.0826 -0.3590
  285loPI   C4B 4560  12.112   5.082   9.341 -0.1193 -0.1171 -0.1543
  286loPI    C1 4561  10.119   2.860  11.162 -0.0962  0.1302 -0.1779
  286loPI    C2 4562   9.819   2.595  11.169  0.0481 -0.0306  0.1177
  286loPI    C3 4563   9.874   2.844  11.478  0.0806  0.1576 -0.0377
  286loPI   PO4 4564  10.184   2.884  10.830 -0.2926 -0.1482 -0.1558
  286loPI   GL1 4565  10.369   2.789  10.419  0.2817  0.1438  0.0457
  286loPI   GL2 4566  10.041   2.841  10.326 -0.4947 -0.0939 -0.0664
  286loPI   C1A 4567  10.463   2.496  10.072  0.3098  0.1038  0.4180
  286loPI   C2A 4568  10.706   2.520   9.684  0.0331  0.1558 -0.0371
  286loPI   C3A 4569  10.867   2.465   9.167  0.3782 -0.0366  0.2291
  286loPI   C4A 4570  10.877   2.259   8.703 -0.2530  0.1364 -0.1008
  286loPI   C5A 4571  11.062   1.891   8.541  0.3238  0.2458 -0.0234
  286loPI   C6A 4572  11.188   1.412   8.428  0.2702  0.1399 -0.4593
  286loPI   C1B 4573  10.147   2.932   9.873 -0.0109  0.0539  0.0626
  286loPI   C2B 4574  10.262   2.904   9.417 -0.1103 -0.2337 -0.4035
  286loPI   C3B 4575  10.562   2.918   9.058  0.1843 -0.1306 -0.1130
  286loPI   C4B 4576  10.589   3.041   8.634 -0.1348  0.0913  0.1907
  287loPI    C1 4577  10.457   4.896  11.785 -0.1098 -0.1414 -0.0325
  287loPI    C2 4578  10.311   4.556  11.632 -0.1442 -0.1620  0.0449
  287loPI    C3 4579  10.071   4.803  11.835 -0.1327 -0.0624 -0.0612
  287loPI   PO4 4580  10.612   4.992  11.609 -0.4119  0.0797  0.0331
  287loPI   GL1 4581  10.784   5.166  11.197 -0.0015  0.1530 -0.2350
  287loPI   GL2 4582  10.680   5.398  11.104 -0.1092  0.2281 -0.1832
  287loPI   C1A 4583  10.897   4.908  10.847 -0.0628  0.1120 -0.1777
  287loPI   C2A 4584  11.023   4.877  10.336 -0.1526 -0.2504 -0.3938
  287loPI   C3A 4585  11.050   4.930   9.931  0.2000  0.2167 -0.1140
  287loPI   C4A 4586  11.161   4.863   9.470 -0.2094  0.1149 -0.2207
  287loPI   C5A 4587  11.149   4.982   9.009  0.0295  0.2284  0.0028
  287loPI   C6A 4588  11.475   4.806   8.671  0.2520  0.0524  0.2006
  287loPI   C1B 4589  10.643   5.248  10.673  0.0369  0.1484  0.1862
  287loPI   C2B 4590  10.662   5.258  10.201  0.0291 -0.1632  0.0532
  287loPI   C3B 4591  10.783   5.282   9.764 -0.0891 -0.2670 -0.2212
  287loPI   C4B 4592  10.691   5.247   9.319 -0.2126 -0.2605  0.0194
  288loPI    C1 4593  16.879  17.107  11.289 -0.1254 -0.0447 -0.1392
  288loPI    C2 4594  16.977  16.823  11.553 -0.0956 -0.0867 -0.1952
  288loPI    C3 4595  16.811  17.164  11.679  0.1118 -0.0191 -0.0996
  288loPI   PO4 4596  17.061  17.142  11.099 -0.0987  0.2213 -0.0141
  288loPI   GL1 4597  17.146  17.254  10.677 -0.0446 -0.1809 -0.1995
  288loPI   GL2 4598  17.047  17.586  10.669  0.0739 -0.2294 -0.0579
  288loPI   C1A 4599  17.070  17.294  10.229 -0.0878  0.2152  0.0458
  288loPI   C2A 4600  17.119  17.230   9.809 -0.0342  0.2229 -0.1084
  288loPI   C3A 4601  16.908  17.020   9.524  0.2445  0.0129  0.4944
  288loPI   C4A 4602  16.943  16.891   9.119 -0.0642 -0.3962 -0.3057
  288loPI   C5A 4603  17.370  16.773   8.916  0.2421 -0.2261  0.1405
  288loPI   C6A 4604  17.655  16.531   8.761 -0.1801 -0.0779 -0.0950
  288loPI   C1B 4605  16.837  17.808  10.307 -0.0543 -0.1493  0.0616
  288loPI   C2B 4606  16.923  17.869   9.834  0.1613  0.1709  0.3092
  288loPI   C3B 4607  16.762  17.973   9.433 -0.0525 -0.1714  0.1622
  288loPI   C4B 4608  17.014  18.030   8.966 -0.1749 -0.1436  0.0243
  289loPI    C1 4609  11.322   0.238  11.317 -0.1822  0.2117  0.0410
  289loPI    C2 4610  11.385   0.259  11.712  0.0839 -0.0994  0.0199
  289loPI    C3 4611  11.190  -0.054  11.556  0.1180 -0.0558 -0.1118
  289loPI   PO4 4612  11.622   0.246  11.160  0.1133 -0.3161 -0.0226
  289loPI   GL1 4613  11.726  -0.083  10.908  0.0697 -0.3247 -0.0638
  289loPI   GL2 4614  11.545  -0.136  10.731 -0.3245  0.1245  0.1773
  289loPI   C1A 4615  11.753   0.270  10.539 -0.2399 -0.2228  0.0668
  289loPI   C2A 4616  11.825   0.314  10.068 -0.2970 -0.0718 -0.0832
  289loPI   C3A 4617  11.913   0.400   9.612 -0.3554 -0.1354  0.1987
  289loPI   C4A 4618  11.973   0.311   9.191  0.1408  0.0346 -0.0119
  289loPI   C5A 4619  11.815   0.313   8.747  0.0160 -0.3239 -0.0698
  289loPI   C6A 4620  11.830   0.006   8.475  0.2441 -0.0982  0.0998
  289loPI   C1B 4621  11.700  -0.146  10.221 -0.2142  0.2740  0.1105
  289loPI   C2B 4622  11.769  -0.160   9.756  0.0002 -0.1437 -0.1859
  289loPI   C3B 4623  11.760  -0.240   9.314 -0.0063  0.0699 -0.0663
  289loPI   C4B 4624  12.043  -0.175   8.899  0.0940  0.0831  0.0870
  290loPI    C1 4625   6.538   7.452  11.285  0.0027  0.0116  0.0066
  290loPI    C2 4626   6.147   7.536  11.290 -0.0297 -0.1438  0.2867
  290loPI    C3 4627   6.394   7.714  11.550  0.0808 -0.0761  0.1370
  290loPI   PO4 4628   6.598   7.436  10.998  0.0798 -0.4696 -0.0602
  290loPI   GL1 4629   6.743   7.422  10.569  0.1987  0.2460 -0.1494
  290loPI   GL2 4630   6.678   7.734  10.397  0.3405 -0.0524 -0.0759
  290loPI   C1A 4631   6.892   7.204  10.233 -0.0902  0.0292 -0.1565
  290loPI   C2A 4632   7.053   7.084   9.787  0.3641  0.0898  0.0170
  290loPI   C3A 4633   7.273   7.162   9.422  0.0815 -0.0363  0.2665
  290loPI   C4A 4634   7.418   6.968   8.892  0.1535  0.0383  0.1643
  290loPI   C5A 4635   7.605   7.120   8.569 -0.0146  0.0039 -0.0728
  290loPI   C6A 4636   7.543   7.533   8.204 -0.2380 -0.2460 -0.2445
  290loPI   C1B 4637   6.722   7.838  10.008 -0.1040  0.1189  0.2560
  290loPI   C2B 4638   6.848   7.939   9.572  0.1559 -0.0253 -0.1990
  290loPI   C3B 4639   6.701   8.059   9.068 -0.2785  0.2628 -0.1840
  290loPI   C4B 4640   6.461   7.951   8.650  0.0781  0.4390 -0.1403
  291loPI    C1 4641   1.796  16.614  11.129 -0.1072 -0.0832 -0.1508
  291loPI    C2 4642   1.465  16.587  11.353 -0.0497 -0.0917 -0.0664
  291loPI    C3 4643   1.651  16.255  11.229 -0.0546 -0.0867 -0.0870
  291loPI   PO4 4644   1.746  16.682  10.918 -0.0882  0.0834 -0.0853
  291loPI   GL1 4645   1.765  16.704  10.545  0.3313 -0.2068  0.2119
  291loPI   GL2 4646   1.949  16.827  10.473  0.1929 -0.0674  0.1288
  291loPI   C1A 4647   1.437  16.797  10.284  0.3115 -0.0597  0.0012
  291loPI   C2A 4648   1.326  16.715   9.865 -0.0941 -0.1916 -0.1809
  291loPI   C3A 4649   1.337  16.608   9.475 -0.0576 -0.0197 -0.5218
  291loPI   C4A 4650   1.474  16.558   9.081  0.0175  0.0105  0.1564
  291loPI   C5A 4651   1.888  16.398   9.034  0.2552  0.1343  0.3865
  291loPI   C6A 4652   2.251  16.452   8.946  0.2632  0.1859  0.5600
  291loPI   C1B 4653   1.961  16.861  10.014 -0.2194 -0.2834 -0.0940
  291loPI   C2B 4654   1.826  16.822   9.654  0.1439  0.1838 -0.1268
  291loPI   C3B 4655   1.793  16.870   9.241 -0.1311  0.1471  0.2155
  291loPI   C4B 4656   2.016  16.871   8.871  0.0401 -0.2238 -0.1475
  292loPI    C1 4657   9.729   4.020  11.359 -0.2361  0.0965  0.1235
  292loPI    C2 4658  10.018   4.049  11.634 -0.1547 -0.0789  0.0578
  292loPI    C3 4659   9.661   4.216  11.702 -0.0059  0.2329  0.0933
  292loPI   PO4 4660   9.838   3.823  11.152  0.0267  0.1108 -0.2183
  292loPI   GL1 4661   9.955   3.729  10.668  0.0625  0.1970  0.2199
  292loPI   GL2 4662  10.004   4.030  10.694  0.2727  0.0969  0.3116
  292loPI   C1A 4663  10.415   3.778  10.479  0.0031 -0.1370 -0.5712
  292loPI   C2A 4664  10.595   3.899  10.178  0.0016  0.3721 -0.2221
  292loPI   C3A 4665  10.739   3.915   9.778  0.3547  0.0167 -0.0331
  292loPI   C4A 4666  10.871   3.977   9.340 -0.4459  0.0808 -0.0575
  292loPI   C5A 4667  10.706   3.978   8.958 -0.3614 -0.5284 -0.0760
  292loPI   C6A 4668  10.693   3.666   8.672 -0.1119  0.1959  0.3794
  292loPI   C1B 4669   9.984   4.000  10.111 -0.2114  0.1757 -0.0355
  292loPI   C2B 4670  10.022   3.996   9.626  0.3437  0.1573  0.1795
  292loPI   C3B 4671   9.937   4.177   9.200  0.1581 -0.0404  0.2679
  292loPI   C4B 4672   9.626   4.242   8.827 -0.0937  0.2197 -0.0061
  293loPI    C1 4673  15.279   4.107  11.300  0.0463  0.1004  0.1723
  293loPI    C2 4674  15.573   4.096  11.572  0.1933  0.1314  0.0166
  293loPI    C3 4675  15.192   4.125  11.690  0.2548  0.1282  0.2190
  293loPI   PO4 4676  15.512   3.884  11.113 -0.0434 -0.1334 -0.1146
  293loPI   GL1 4677  15.646   3.844  10.629 -0.2123  0.0826  0.1109
  293loPI   GL2 4678  15.758   4.151  10.725  0.3192 -0.0658 -0.1991
  293loPI   C1A 4679  15.611   3.845  10.202  0.1651  0.1265  0.1298
  293loPI   C2A 4680  15.644   3.815   9.768  0.0489 -0.1314 -0.0728
  293loPI   C3A 4681  15.492   3.786   9.349  0.0391 -0.3428 -0.1986
  293loPI   C4A 4682  15.412   3.839   8.936 -0.1116 -0.1475  0.3052
  293loPI   C5A 4683  15.181   3.536   8.677  0.1678 -0.0628  0.1681
  293loPI   C6A 4684  15.053   3.492   8.288 -0.0042  0.2122  0.1560
  293loPI   C1B 4685  15.844   4.320  10.283 -0.2730 -0.2340 -0.2417
  293loPI   C2B 4686  15.717   4.302   9.859 -0.3759  0.1113  0.1704
  293loPI   C3B 4687  15.761   4.297   9.372 -0.0036  0.1965  0.2843
  293loPI   C4B 4688  15.816   4.179   8.994 -0.0898 -0.0791  0.0660
  294loPI    C1 4689   8.183  14.686  11.561  0.1333 -0.2241  0.2164
  294loPI    C2 4690   8.063  15.061  11.492 -0.2212 -0.3517  0.1192
  294loPI    C3 4691   8.129  14.938  11.867 -0.3054 -0.2514  0.1676
  294loPI   PO4 4692   8.431  14.616  11.265 -0.0385 -0.3509 -0.0446
  294loPI   GL1 4693   8.436  14.832  10.967 -0.0794 -0.4731 -0.1520
  294loPI   GL2 4694   8.668  14.944  11.031  0.1469  0.0678 -0.3255
  294loPI   C1A 4695   8.215  14.706  10.601 -0.0374  0.2009  0.0598
  294loPI   C2A 4696   8.330  14.486  10.214 -0.1339  0.0603 -0.0666
  294loPI   C3A 4697   8.453  14.266   9.796  0.2579  0.3182 -0.1956
  294loPI   C4A 4698   8.222  14.183   9.399  0.0847 -0.0741  0.1522
  294loPI   C5A 4699   7.925  14.435   9.125  0.0655 -0.0075 -0.0159
  294loPI   C6A 4700   7.985  14.620   8.684 -0.0498 -0.3454 -0.2133
  294loPI   C1B 4701   8.744  15.000  10.580 -0.3838 -0.2550  0.0353
  294loPI   C2B 4702   8.663  14.863  10.197  0.2445  0.0713  0.0043
  294loPI   C3B 4703   8.678  14.749   9.857  0.2117 -0.2139  0.1748
  294loPI   C4B 4704   8.661  14.598   9.462 -0.1768  0.2109 -0.2273
  295loPI    C1 4705   1.889   4.595  10.933 -0.1757 -0.0574  0.0786
  295loPI    C2 4706   1.850   4.929  11.150 -0.0609 -0.0352  0.0658
  295loPI    C3 4707   1.920   4.579  11.331  0.1021 -0.0057  0.0614
  295loPI   PO4 4708   2.014   4.624  10.767 -0.0247 -0.2333 -0.0688
  295loPI   GL1 4709   1.898   4.482  10.355  0.1568  0.1332  0.0595
  295loPI   GL2 4710   1.635   4.588  10.353 -0.1819  0.0113  0.3115
  295loPI   C1A 4711   1.926   4.350   9.938  0.1000 -0.0506  0.1876
  295loPI   C2A 4712   1.860   4.204   9.637 -0.0616 -0.3452 -0.0677
  295loPI   C3A 4713   1.901   4.075   9.238  0.0010 -0.3141 -0.3247
  295loPI   C4A 4714   2.044   3.681   9.034  0.0297 -0.2717  0.2241
  295loPI   C5A 4715   2.240   3.395   8.731  0.2633 -0.1892 -0.1637
  295loPI   C6A 4716   2.368   2.907   8.814 -0.0438 -0.2801 -0.1854
  295loPI   C1B 4717   1.730   4.846   9.946  0.0050  0.3080  0.0685
  295loPI   C2B 4718   1.890   4.684   9.559 -0.0094  0.0834  0.4940
  295loPI   C3B 4719   1.855   4.585   9.121 -0.1335 -0.2143 -0.1863
  295loPI   C4B 4720   1.455   4.659   8.857  0.1153  0.2847 -0.0967
  296loPI    C1 4721  16.495  14.115  12.082 -0.0534 -0.1717 -0.2562
  296loPI    C2 4722  16.671  14.471  12.036 -0.1067 -0.1159 -0.0383
  296loPI    C3 4723  16.552  14.352  12.399 -0.1364 -0.3340 -0.1180
  296loPI   PO4 4724  16.227  14.174  11.869 -0.2509  0.1797  0.1032
  296loPI   GL1 4725  16.067  14.516  11.508 -0.0752  0.1945 -0.1952
  296loPI   GL2 4726  16.368  14.378  11.375  0.0107  0.0728 -0.1208
  296loPI   C1A 4727  15.835  14.198  11.341 -0.1555  0.0020 -0.0387
  296loPI   C2A 4728  15.593  14.051  11.034  0.1964  0.0620 -0.1353
  296loPI   C3A 4729  15.687  14.071  10.640 -0.1087  0.1090 -0.0925
  296loPI   C4A 4730  15.660  14.027  10.194 -0.1594  0.1597 -0.0421
  296loPI   C5A 4731  15.668  14.051   9.894  0.2151  0.0074 -0.0293
  296loPI   C6A 4732  15.594  14.176   9.499  0.1911 -0.1575 -0.0148
  296loPI   C1B 4733  16.211  14.277  10.932 -0.0863  0.1227  0.0789
  296loPI   C2B 4734  16.231  14.219  10.428  0.1594  0.2433 -0.1465
  296loPI   C3B 4735  16.192  14.130  10.054 -0.0523  0.0719 -0.1493
  296loPI   C4B 4736  16.088  14.105   9.638 -0.2751  0.1907 -0.2733
  297loPI    C1 4737  12.515   5.574  11.347  0.0385 -0.1423  0.1194
  297loPI    C2 4738  12.600   5.957  11.426 -0.1148 -0.0976  0.0702
  297loPI    C3 4739  12.854   5.669  11.539  0.0087  0.0192  0.0935
  297loPI   PO4 4740  12.565   5.498  11.133  0.0814 -0.0125 -0.3178
  297loPI   GL1 4741  12.667   5.416  10.734 -0.2058 -0.1192  0.0733
  297loPI   GL2 4742  12.990   5.425  10.860  0.2994 -0.1759  0.1460
  297loPI   C1A 4743  12.590   5.245  10.370  0.1595 -0.0084 -0.0814
  297loPI   C2A 4744  12.679   5.254   9.883  0.0731 -0.1415 -0.0455
  297loPI   C3A 4745  12.606   5.266   9.419 -0.0657  0.0687 -0.1446
  297loPI   C4A 4746  12.577   5.159   8.941 -0.0155 -0.1605 -0.1497
  297loPI   C5A 4747  12.274   5.065   8.614  0.1016 -0.0629 -0.1176
  297loPI   C6A 4748  11.907   4.925   8.479  0.2884 -0.2589  0.0267
  297loPI   C1B 4749  13.143   5.252  10.505  0.0756  0.0168 -0.3501
  297loPI   C2B 4750  13.144   5.236  10.103 -0.0168 -0.1339 -0.0567
  297loPI   C3B 4751  13.122   5.284   9.612  0.0313  0.1435 -0.0696
  297loPI   C4B 4752  13.077   5.214   9.186  0.1488  0.2159 -0.0304
  298loPI    C1 4753  16.635   9.260  11.727  0.0589  0.1302 -0.0670
  298loPI    C2 4754  16.387   9.180  12.031 -0.0346 -0.0448 -0.1875
  298loPI    C3 4755  16.782   9.187  12.092 -0.0225 -0.5648 -0.1595
  298loPI   PO4 4756  16.508   9.066  11.500 -0.0967 -0.0023 -0.0907
  298loPI   GL1 4757  16.635   9.005  11.136 -0.0046  0.1835  0.0447
  298loPI   GL2 4758  16.579   8.666  11.150  0.5030  0.2167 -0.2131
  298loPI   C1A 4759  16.416   9.034  10.781  0.3892 -0.1602 -0.0564
  298loPI   C2A 4760  16.311   9.036  10.425 -0.1713 -0.3038 -0.0761
  298loPI   C3A 4761  16.306   9.110  10.024 -0.3053 -0.0096 -0.0171
  298loPI   C4A 4762  16.262   9.207   9.549  0.0437 -0.3119  0.0450
  298loPI   C5A 4763  15.914   9.155   9.349 -0.0470  0.1424  0.0264
  298loPI   C6A 4764  15.777   9.249   8.917 -0.2303 -0.0504 -0.4589
  298loPI   C1B 4765  16.290   8.583  10.755 -0.1186 -0.1286  0.0518
  298loPI   C2B 4766  16.185   8.585  10.298  0.0458 -0.0106  0.3251
  298loPI   C3B 4767  16.151   8.572   9.893  0.0457 -0.0150 -0.0369
  298loPI   C4B 4768  16.150   8.694   9.567 -0.0158  0.1395  0.0575
  299loPI    C1 4769  12.603  16.880  11.650 -0.0219  0.2022  0.1982
  299loPI    C2 4770  12.225  16.927  11.771 -0.1356 -0.0892 -0.0312
  299loPI    C3 4771  12.521  16.919  12.039 -0.2815  0.2109  0.1448
  299loPI   PO4 4772  12.628  16.833  11.408  0.0886 -0.3321  0.1929
  299loPI   GL1 4773  12.975  16.885  11.066 -0.1351  0.2154  0.3031
  299loPI   GL2 4774  13.056  16.586  10.990  0.2023  0.2948 -0.3047
  299loPI   C1A 4775  12.947  16.912  10.617  0.0970  0.0352  0.0818
  299loPI   C2A 4776  12.929  16.845  10.229 -0.0685 -0.2029 -0.2260
  299loPI   C3A 4777  12.843  16.834   9.709 -0.1036  0.2652  0.3293
  299loPI   C4A 4778  12.945  16.842   9.265  0.1183 -0.0735 -0.0265
  299loPI   C5A 4779  12.758  16.855   8.898 -0.1465  0.3350 -0.1205
  299loPI   C6A 4780  12.518  16.976   8.539 -0.1801  0.2904 -0.3967
  299loPI   C1B 4781  13.177  16.431  10.526  0.1114 -0.0406 -0.2145
  299loPI   C2B 4782  13.113  16.451  10.072  0.4697  0.0807  0.1385
  299loPI   C3B 4783  13.197  16.365   9.693  0.0595 -0.0416  0.0177
  299loPI   C4B 4784  13.249  16.445   9.309  0.0787 -0.1083 -0.0238
  300loPI    C1 4785  15.044   7.005  11.761 -0.0942 -0.1201  0.0339
  300loPI    C2 4786  15.322   6.838  11.996 -0.0130 -0.0854 -0.0371
  300loPI    C3 4787  14.985   6.640  11.913  0.0076 -0.1436  0.0183
  300loPI   PO4 4788  15.203   7.024  11.476 -0.4907 -0.4294 -0.2840
  300loPI   GL1 4789  15.047   7.049  11.122  0.0577  0.0237  0.1624
  300loPI   GL2 4790  14.804   7.337  10.964  0.0146 -0.0488  0.0149
  300loPI   C1A 4791  15.084   6.931  10.711 -0.0139  0.0289  0.0048
  300loPI   C2A 4792  15.166   6.987  10.313  0.0293 -0.0899  0.1959
  300loPI   C3A 4793  15.176   6.986   9.887  0.3314  0.0896  0.0211
  300loPI   C4A 4794  15.133   7.076   9.536 -0.1377 -0.3954  0.1019
  300loPI   C5A 4795  15.023   7.166   9.085  0.3578  0.2063  0.0508
  300loPI   C6A 4796  14.960   7.638   8.753  0.0917 -0.1496  0.0971
  300loPI   C1B 4797  14.835   7.341  10.531  0.1139 -0.0159 -0.0557
  300loPI   C2B 4798  14.876   7.332  10.039  0.0665  0.0636 -0.0632
  300loPI   C3B 4799  14.835   7.470   9.567 -0.0139  0.3298  0.1237
  300loPI   C4B 4800  14.655   7.534   9.200  0.0109  0.4109  0.1704
  301loPI    C1 4801  12.610  12.240  11.912  0.0034 -0.0663  0.1735
  301loPI    C2 4802  12.830  11.923  12.019  0.2014 -0.0227 -0.0961
  301loPI    C3 4803  12.707  12.184  12.296  0.1833 -0.2412  0.1042
  301loPI   PO4 4804  12.728  12.377  11.697 -0.0465  0.7022 -0.2120
  301loPI   GL1 4805  12.838  12.335  11.380 -0.0594 -0.1685  0.1096
  301loPI   GL2 4806  12.511  12.528  11.255 -0.2101 -0.2603  0.2062
  301loPI   C1A 4807  12.970  12.215  11.040  0.0409 -0.1944 -0.0203
  301loPI   C2A 4808  13.067  12.329  10.588  0.1162  0.0130  0.0569
  301loPI   C3A 4809  13.121  12.327  10.166  0.1128  0.3129 -0.3088
  301loPI   C4A 4810  13.160  12.205   9.795  0.2482  0.0648 -0.2010
  301loPI   C5A 4811  13.072  12.114   9.396 -0.1856  0.1687  0.1447
  301loPI   C6A 4812  13.060  11.731   9.173  0.1986 -0.1960  0.1274
  301loPI   C1B 4813  12.476  12.187  11.009 -0.0287 -0.0957 -0.0024
  301loPI   C2B 4814  12.565  12.265  10.508 -0.0187 -0.2159 -0.0652
  301loPI   C3B 4815  12.636  12.079  10.060 -0.0766 -0.0338 -0.4124
  301loPI   C4B 4816  12.580  12.079   9.604 -0.0696 -0.1263 -0.0787
  302loPI    C1 4817  12.752   0.590  11.483  0.0466 -0.0296 -0.0216
  302loPI    C2 4818  12.580   0.944  11.554 -0.3576 -0.2203 -0.0214
  302loPI    C3 4819  12.852   0.799  11.808 -0.0996  0.1413 -0.0847
  302loPI   PO4 4820  12.789   0.582  11.268  0.1386  0.4711 -0.1055
  302loPI   GL1 4821  12.665   0.466  10.832  0.1745  0.0511  0.0288
  302loPI   GL2 4822  12.834   0.164  10.697  0.2449 -0.0067 -0.2143
  302loPI   C1A 4823  12.969   0.642  10.479  0.1755 -0.0423 -0.0364
  302loPI   C2A 4824  12.995   0.561   9.990  0.3511  0.1328  0.2688
  302loPI   C3A 4825  12.961   0.474   9.588  0.0623 -0.2675  0.2377
  302loPI   C4A 4826  12.812   0.568   9.175  0.1304  0.1383 -0.2645
  302loPI   C5A 4827  12.918   0.499   8.694  0.1977 -0.0409  0.1265
  302loPI   C6A 4828  12.859   0.689   8.361  0.2075  0.1810 -0.1374
  302loPI   C1B 4829  12.762   0.114  10.281  0.4243 -0.1802  0.0993
  302loPI   C2B 4830  12.785   0.094   9.848 -0.0586  0.3216  0.1440
  302loPI   C3B 4831  12.744   0.088   9.343  0.1945  0.0035  0.0839
  302loPI   C4B 4832  12.640   0.133   8.921  0.0998  0.2783 -0.0330
  303loPI    C1 4833   8.949  13.821  11.712 -0.1281 -0.0310  0.0603
  303loPI    C2 4834   9.204  14.045  11.500 -0.1885 -0.2597 -0.2612
  303loPI    C3 4835   9.014  14.202  11.814  0.0494  0.0279 -0.2568
  303loPI   PO4 4836   8.801  13.735  11.523 -0.1653  0.1310 -0.0151
  303loPI   GL1 4837   8.839  13.715  11.215 -0.0481 -0.4574 -0.1731
  303loPI   GL2 4838   8.958  13.389  11.184 -0.0322 -0.0138 -0.2695
  303loPI   C1A 4839   9.028  13.892  10.891 -0.1053  0.2967 -0.2494
  303loPI   C2A 4840   9.107  14.111  10.582 -0.0021 -0.1684  0.0813
  303loPI   C3A 4841   9.322  14.059  10.220 -0.0075 -0.2901  0.0715
  303loPI   C4A 4842   9.512  13.844   9.852  0.3891  0.0021  0.1666
  303loPI   C5A 4843   9.807  13.450   9.578  0.2979 -0.1242  0.0481
  303loPI   C6A 4844   9.860  13.347   9.248  0.4341 -0.3481  0.0702
  303loPI   C1B 4845   9.017  13.134  10.767  0.3617  0.3882  0.0640
  303loPI   C2B 4846   9.151  13.086  10.318 -0.3329 -0.0628 -0.2987
  303loPI   C3B 4847   9.203  12.976   9.966 -0.4193  0.0439  0.1917
  303loPI   C4B 4848   9.142  12.681   9.622 -0.1725 -0.2568 -0.0501
  304loPI    C1 4849  15.301   7.885  11.920 -0.0991 -0.1526 -0.0192
  304loPI    C2 4850  14.959   8.062  12.029 -0.0401  0.0790 -0.2022
  304loPI    C3 4851  15.189   7.884  12.304 -0.3383 -0.1376 -0.0871
  304loPI   PO4 4852  15.215   7.815  11.679 -0.3063  0.1205 -0.1030
  304loPI   GL1 4853  15.302   7.988  11.257  0.1283  0.0861  0.3999
  304loPI   GL2 4854  14.993   7.851  11.232  0.3976  0.3462 -0.0094
  304loPI   C1A 4855  15.455   8.037  10.809  0.0889  0.0998  0.1617
  304loPI   C2A 4856  15.487   7.989  10.380  0.0105 -0.2635 -0.1498
  304loPI   C3A 4857  15.549   8.092   9.976  0.3234  0.2502 -0.1579
  304loPI   C4A 4858  15.501   8.082   9.550 -0.3246 -0.0288  0.0350
  304loPI   C5A 4859  15.717   8.083   9.156 -0.0237 -0.4579  0.1534
  304loPI   C6A 4860  15.743   7.777   8.816  0.0952  0.3491  0.3349
  304loPI   C1B 4861  14.923   7.799  10.743 -0.1934  0.0741 -0.2502
  304loPI   C2B 4862  14.873   7.905  10.299  0.0693 -0.0681  0.0947
  304loPI   C3B 4863  15.036   7.950   9.865  0.0473  0.0616  0.1703
  304loPI   C4B 4864  14.909   7.921   9.412  0.0522 -0.3211 -0.0596
  305loPI    C1 4865  13.389  13.162  11.722  0.0397  0.0524 -0.0841
  305loPI    C2 4866  13.152  13.427  11.906 -0.0624 -0.0264 -0.1010
  305loPI    C3 4867  13.129  13.381  11.510  0.0573  0.0423 -0.1164
  305loPI   PO4 4868  13.614  13.274  11.787 -0.3393  0.0613  0.0949
  305loPI   GL1 4869  13.736  13.401  11.400  0.1399 -0.0586 -0.4031
  305loPI   GL2 4870  13.907  13.440  11.212  0.1250 -0.1767 -0.0012
  305loPI   C1A 4871  13.417  13.356  11.117  0.0169 -0.0659  0.2288
  305loPI   C2A 4872  13.427  13.221  10.699  0.1559 -0.0354 -0.1593
  305loPI   C3A 4873  13.421  13.186  10.216 -0.1462 -0.0182  0.0789
  305loPI   C4A 4874  13.430  13.113   9.818 -0.0673 -0.3024  0.1599
  305loPI   C5A 4875  13.507  13.283   9.419 -0.2018 -0.0425 -0.1369
  305loPI   C6A 4876  13.586  13.477   8.940  0.1100  0.1535 -0.1995
  305loPI   C1B 4877  13.932  13.394  10.830  0.1073  0.1884  0.0319
  305loPI   C2B 4878  13.966  13.243  10.475  0.0924 -0.0146  0.1101
  305loPI   C3B 4879  13.960  13.209  10.086 -0.0878  0.2337  0.4313
  305loPI   C4B 4880  13.990  13.282   9.596  0.0014  0.0247  0.2927
  306loPI    C1 4881  14.879   0.690  11.080 -0.2092 -0.0813 -0.1795
  306loPI    C2 4882  14.714   0.349  11.207  0.1996 -0.1166  0.2869
  306loPI    C3 4883  14.613   0.695  11.379  0.0615 -0.0449  0.0654
  306loPI   PO4 4884  15.210   0.564  11.082  0.0821 -0.0835 -0.2575
  306loPI   GL1 4885  15.467   0.638  10.672  0.0737  0.0515  0.1052
  306loPI   GL2 4886  15.485   0.383  10.595  0.3334  0.0360  0.1561
  306loPI   C1A 4887  15.062   0.750  10.477 -0.1090  0.1771  0.1246
  306loPI   C2A 4888  14.876   0.801  10.043  0.2665  0.1129  0.2069
  306loPI   C3A 4889  14.548   0.800   9.811  0.1336  0.2400 -0.1251
  306loPI   C4A 4890  14.392   0.822   9.382  0.1599  0.2393 -0.3401
  306loPI   C5A 4891  14.430   0.817   8.878 -0.1688 -0.0038 -0.4468
  306loPI   C6A 4892  14.407   1.155   8.524 -0.0514  0.1331  0.2208
  306loPI   C1B 4893  15.427   0.472  10.164  0.0046  0.0927 -0.1724
  306loPI   C2B 4894  15.250   0.563   9.748  0.0129 -0.0013  0.0644
  306loPI   C3B 4895  15.343   0.587   9.264 -0.2990  0.4016  0.2933
  306loPI   C4B 4896  15.393   1.003   9.052 -0.1509  0.4480  0.0568
  307loPI    C1 4897   8.636   5.647  10.588 -0.2685 -0.2401  0.0812
  307loPI    C2 4898   8.648   5.687  10.985  0.1603  0.3552  0.0231
  307loPI    C3 4899   8.987   5.697  10.773 -0.0435 -0.1729 -0.3492
  307loPI   PO4 4900   8.476   5.455  10.579 -0.2189 -0.2048 -0.0021
  307loPI   GL1 4901   8.535   5.269  10.233  0.0116  0.1761  0.1512
  307loPI   GL2 4902   8.135   5.178  10.203  0.1302 -0.1439  0.0799
  307loPI   C1A 4903   8.642   5.431   9.871 -0.0938  0.0721 -0.1691
  307loPI   C2A 4904   8.792   5.380   9.472 -0.2865 -0.0188  0.2752
  307loPI   C3A 4905   8.747   5.449   9.066  0.1061  0.4155  0.0094
  307loPI   C4A 4906   8.946   5.499   8.618 -0.2443 -0.0353  0.0633
  307loPI   C5A 4907   9.271   5.525   8.518 -0.0674 -0.0013  0.4061
  307loPI   C6A 4908   9.637   5.462   8.454 -0.0120  0.1306 -0.1094
  307loPI   C1B 4909   8.191   5.286   9.854 -0.2413  0.2907 -0.2997
  307loPI   C2B 4910   8.319   5.244   9.516 -0.3245 -0.2146  0.2871
  307loPI   C3B 4911   8.227   5.344   9.079 -0.1664 -0.0517 -0.0357
  307loPI   C4B 4912   8.190   5.170   8.586  0.0628 -0.0059  0.2009
  308loPI    C1 4913   8.426   3.576  10.862  0.2125 -0.1023  0.0916
  308loPI    C2 4914   8.533   3.517  11.243  0.0076 -0.0505  0.1589
  308loPI    C3 4915   8.172   3.665  11.158  0.0122 -0.1609 -0.0605
  308loPI   PO4 4916   8.632   3.546  10.720  0.4797 -0.0013 -0.0417
  308loPI   GL1 4917   8.955   3.618  10.484  0.0101  0.0294 -0.1522
  308loPI   GL2 4918   9.095   3.866  10.458 -0.1521 -0.1060 -0.1295
  308loPI   C1A 4919   8.774   3.373  10.103 -0.0075  0.0829 -0.0235
  308loPI   C2A 4920   8.800   3.343   9.630  0.0292  0.2657 -0.0431
  308loPI   C3A 4921   9.005   3.086   9.314 -0.3525 -0.0985  0.3084
  308loPI   C4A 4922   9.200   2.955   8.924  0.4361  0.1776 -0.2878
  308loPI   C5A 4923   9.502   2.549   8.842 -0.0762 -0.2052  0.0943
  308loPI   C6A 4924   9.374   2.173   8.580  0.2411 -0.1055  0.2140
  308loPI   C1B 4925   9.140   3.752  10.014  0.1724  0.1542 -0.3563
  308loPI   C2B 4926   9.126   3.762   9.576  0.0374 -0.1784 -0.0062
  308loPI   C3B 4927   9.024   3.654   9.231 -0.2598  0.0235 -0.1100
  308loPI   C4B 4928   9.089   3.776   8.834 -0.0889 -0.1400 -0.0117
  309loPI    C1 4929  15.492  16.642  11.651 -0.1216  0.1473 -0.1351
  309loPI    C2 4930  15.785  16.664  11.922 -0.2080 -0.2032 -0.0085
  309loPI    C3 4931  15.549  16.980  11.857  0.0905  0.0268  0.0073
  309loPI   PO4 4932  15.387  16.424  11.639 -0.0321 -0.2069 -0.0130
  309loPI   GL1 4933  15.395  16.060  11.390 -0.1301  0.0015  0.1222
  309loPI   GL2 4934  15.076  16.165  11.349 -0.0094 -0.0340 -0.0399
  309loPI   C1A 4935  15.450  16.029  10.964  0.0945  0.0313  0.1308
  309loPI   C2A 4936  15.735  16.248  10.624  0.3632  0.3031  0.2016
  309loPI   C3A 4937  15.656  16.248  10.241  0.0195 -0.2086  0.0814
  309loPI   C4A 4938  15.653  16.336   9.857 -0.1502  0.1476  0.0106
  309loPI   C5A 4939  15.636  16.468   9.379  0.0275  0.0156 -0.0380
  309loPI   C6A 4940  15.649  16.590   9.053 -0.2566 -0.2363  0.3087
  309loPI   C1B 4941  14.848  15.964  11.037 -0.0794 -0.0570  0.0639
  309loPI   C2B 4942  14.848  15.824  10.591  0.0605 -0.2475  0.4638
  309loPI   C3B 4943  14.912  15.831  10.173  0.1228 -0.2067  0.0878
  309loPI   C4B 4944  14.899  15.726   9.728  0.1807 -0.4257 -0.0062
  310loPI    C1 4945  11.046  15.976  11.714  0.0850  0.2560  0.0631
  310loPI    C2 4946  11.103  15.620  11.889  0.3219  0.1228 -0.2739
  310loPI    C3 4947  11.152  15.957  12.100  0.0888 -0.0400  0.0498
  310loPI   PO4 4948  11.091  15.979  11.389 -0.1202 -0.0180 -0.1620
  310loPI   GL1 4949  11.192  15.823  10.998  0.1797  0.0865 -0.0274
  310loPI   GL2 4950  10.828  15.582  10.973 -0.2443 -0.0877 -0.0714
  310loPI   C1A 4951  11.349  15.687  10.668  0.0146  0.0898  0.2215
  310loPI   C2A 4952  11.479  15.579  10.266 -0.2576 -0.0946 -0.1911
  310loPI   C3A 4953  11.464  15.552   9.855  0.2643  0.2997 -0.0070
  310loPI   C4A 4954  11.462  15.650   9.473 -0.1645 -0.0236 -0.0651
  310loPI   C5A 4955  11.437  15.308   9.133  0.1480 -0.1019  0.1171
  310loPI   C6A 4956  11.151  14.961   9.110  0.0425  0.3771  0.3181
  310loPI   C1B 4957  10.869  15.630  10.601  0.0640  0.2013  0.0361
  310loPI   C2B 4958  10.982  15.553  10.167  0.0421  0.1591  0.0123
  310loPI   C3B 4959  10.985  15.494   9.716  0.0586 -0.0790 -0.0701
  310loPI   C4B 4960  10.965  15.462   9.260 -0.1083  0.2667  0.2990
  311loPI    C1 4961   9.306  12.726  11.939 -0.0373  0.0036 -0.1162
  311loPI    C2 4962   8.988  12.571  12.126  0.0680 -0.2093 -0.1102
  311loPI    C3 4963   9.345  12.394  12.160  0.2791  0.2599  0.2256
  311loPI   PO4 4964   9.288  12.794  11.715 -0.0896  0.2442 -0.2551
  311loPI   GL1 4965   9.136  12.881  11.201  0.1595 -0.3159  0.0223
  311loPI   GL2 4966   9.456  12.612  11.266 -0.3410 -0.1861 -0.0721
  311loPI   C1A 4967   9.441  13.162  10.971  0.3703 -0.2326  0.1143
  311loPI   C2A 4968   9.568  13.247  10.526  0.0967 -0.0369  0.1287
  311loPI   C3A 4969   9.618  13.080  10.247 -0.3807 -0.0032  0.2328
  311loPI   C4A 4970   9.769  12.984   9.892 -0.0383 -0.1279 -0.0269
  311loPI   C5A 4971   9.531  13.083   9.523 -0.4429 -0.3958  0.0951
  311loPI   C6A 4972   9.438  13.132   9.028 -0.1505  0.1194  0.2476
  311loPI   C1B 4973   9.685  12.738  10.899 -0.0942 -0.0477  0.1266
  311loPI   C2B 4974   9.881  12.656  10.447 -0.4444 -0.3453  0.3167
  311loPI   C3B 4975   9.937  12.562  10.074 -0.0178 -0.2319 -0.1725
  311loPI   C4B 4976  10.043  12.572   9.723  0.1082  0.1657 -0.1307
  312loPI    C1 4977   7.518  16.765  11.098 -0.1953 -0.1465 -0.1420
  312loPI    C2 4978   7.208  16.769  11.351  0.0235  0.0751  0.1294
  312loPI    C3 4979   7.581  16.810  11.491  0.1622  0.0187 -0.2138
  312loPI   PO4 4980   7.425  16.952  10.920  0.2082 -0.1986  0.4419
  312loPI   GL1 4981   7.377  17.123  10.489 -0.1838 -0.0703 -0.0903
  312loPI   GL2 4982   7.610  17.247  10.303 -0.2137 -0.0019 -0.0079
  312loPI   C1A 4983   7.103  17.085  10.135  0.2244 -0.2849 -0.1193
  312loPI   C2A 4984   7.099  17.057   9.791 -0.1989 -0.1425  0.2412
  312loPI   C3A 4985   7.107  17.069   9.378 -0.0984 -0.3028 -0.0955
  312loPI   C4A 4986   6.889  17.065   9.183  0.0067  0.0059  0.0063
  312loPI   C5A 4987   6.571  17.059   8.916  0.1620 -0.2043 -0.2576
  312loPI   C6A 4988   6.424  16.709   8.567 -0.1562 -0.3526 -0.0050
  312loPI   C1B 4989   7.621  17.125   9.911 -0.0604 -0.0286  0.1925
  312loPI   C2B 4990   7.549  17.202   9.476  0.0455 -0.2181 -0.1712
  312loPI   C3B 4991   7.476  17.279   9.061 -0.4343  0.2791  0.0003
  312loPI   C4B 4992   7.751  17.320   8.628  0.0605 -0.1339 -0.0673
  313loPI    C1 4993  16.215   8.788  11.822  0.0488 -0.1462 -0.0326
  313loPI    C2 4994  16.327   8.405  11.847  0.1381 -0.1060  0.2088
  313loPI    C3 4995  16.392   8.653  12.154 -0.0158  0.0779  0.0951
  313loPI   PO4 4996  16.050   8.848  11.603 -0.0328  0.0487  0.0831
  313loPI   GL1 4997  15.736   8.781  11.411  0.4035 -0.0564  0.1515
  313loPI   GL2 4998  15.549   8.877  11.281  0.1080 -0.3207  0.0365
  313loPI   C1A 4999  15.632   8.458  11.041 -0.2612 -0.4918 -0.1585
  313loPI   C2A 5000  15.650   8.488  10.646 -0.3912  0.0545  0.3432
  313loPI   C3A 5001  15.677   8.463  10.232  0.0956  0.0416  0.4101
  313loPI   C4A 5002  15.666   8.556   9.813  0.2565 -0.1360  0.2343
  313loPI   C5A 5003  15.670   8.564   9.307 -0.0943 -0.1732  0.1339
  313loPI   C6A 5004  15.940   8.741   9.062  0.0314 -0.2927  0.0148
  313loPI   C1B 5005  15.740   8.978  10.921  0.0286 -0.0032 -0.1539
  313loPI   C2B 5006  15.858   8.929  10.563  0.0226 -0.1853  0.2159
  313loPI   C3B 5007  15.879   8.952  10.160  0.1944 -0.0026 -0.1537
  313loPI   C4B 5008  15.807   9.018   9.761  0.0091 -0.0480 -0.1771
  314loPI    C1 5009   7.728   6.188  10.966 -0.0880  0.3603  0.0504
  314loPI    C2 5010   7.364   6.139  11.124 -0.0706  0.3119  0.0755
  314loPI    C3 5011   7.620   6.400  11.287  0.0333  0.0908  0.2735
  314loPI   PO4 5012   7.712   6.220  10.735 -0.3558 -0.2946  0.3101
  314loPI   GL1 5013   7.618   6.434  10.424  0.2280 -0.1449  0.0397
  314loPI   GL2 5014   7.378   6.203  10.314 -0.0788  0.3204 -0.1377
  314loPI   C1A 5015   7.775   6.717  10.173 -0.1300 -0.1028  0.1682
  314loPI   C2A 5016   7.637   6.734   9.721 -0.4515 -0.0973 -0.0332
  314loPI   C3A 5017   7.653   6.708   9.262 -0.1662  0.5311  0.1297
  314loPI   C4A 5018   7.900   6.922   8.997  0.0214  0.1023 -0.1233
  314loPI   C5A 5019   8.043   7.340   8.823 -0.0422  0.0868 -0.2760
  314loPI   C6A 5020   8.192   7.466   8.450 -0.2703  0.2692 -0.1106
  314loPI   C1B 5021   7.417   6.304   9.851  0.2566 -0.0483  0.0358
  314loPI   C2B 5022   7.335   6.287   9.481 -0.1362 -0.1516 -0.1390
  314loPI   C3B 5023   7.480   6.175   9.089  0.2669 -0.1227 -0.1626
  314loPI   C4B 5024   7.475   6.469   8.743 -0.2839 -0.0813 -0.0791
  315loPI    C1 5025  12.997  11.068  12.101  0.1713  0.1625  0.1152
  315loPI    C2 5026  12.937  10.747  12.332 -0.2100  0.0689 -0.1041
  315loPI    C3 5027  12.788  11.102  12.441 -0.2040  0.0701 -0.1001
  315loPI   PO4 5028  12.967  10.900  11.848  0.0617 -0.1151 -0.1342
  315loPI   GL1 5029  13.047  10.861  11.388 -0.1376  0.3561 -0.2170
  315loPI   GL2 5030  13.257  10.591  11.266  0.2189 -0.0190  0.0888
  315loPI   C1A 5031  12.940  10.899  10.981  0.1259 -0.1135  0.2024
  315loPI   C2A 5032  12.958  10.913  10.579  0.0387  0.2222  0.0973
  315loPI   C3A 5033  13.083  10.815  10.138 -0.1602  0.2588 -0.3484
  315loPI   C4A 5034  13.039  10.893   9.686 -0.1558 -0.1698 -0.0654
  315loPI   C5A 5035  13.046  10.620   9.273 -0.3196  0.2105  0.2236
  315loPI   C6A 5036  12.923  10.594   8.945 -0.1265  0.0711 -0.0014
  315loPI   C1B 5037  13.261  10.559  10.892 -0.1697  0.2201 -0.4889
  315loPI   C2B 5038  13.326  10.464  10.500 -0.2401  0.1755 -0.1532
  315loPI   C3B 5039  13.384  10.402  10.062 -0.1845  0.0448  0.1470
  315loPI   C4B 5040  13.388  10.319   9.594 -0.2528 -0.1432 -0.0526
  316loPI    C1 5041  14.509   8.301  11.872 -0.0150 -0.2327  0.0215
  316loPI    C2 5042  14.385   8.654  12.012  0.1635 -0.1880  0.0683
  316loPI    C3 5043  14.476   8.359  12.266 -0.1351 -0.3205  0.0251
  316loPI   PO4 5044  14.367   8.251  11.674  0.1173  0.4120  0.1109
  316loPI   GL1 5045  14.362   8.335  11.269  0.0017  0.2935 -0.0758
  316loPI   GL2 5046  14.722   8.304  11.149  0.0226 -0.1038  0.1486
  316loPI   C1A 5047  14.162   8.329  10.834  0.1921 -0.0147  0.0986
  316loPI   C2A 5048  14.122   8.270  10.326 -0.3568 -0.0473 -0.0879
  316loPI   C3A 5049  14.064   8.288   9.912  0.0238  0.0394 -0.1397
  316loPI   C4A 5050  14.100   8.216   9.523  0.1469 -0.5641 -0.1880
  316loPI   C5A 5051  13.992   8.259   9.039  0.3735 -0.1282 -0.0743
  316loPI   C6A 5052  13.920   8.570   8.774 -0.1738 -0.0957  0.1849
  316loPI   C1B 5053  14.669   8.303  10.704 -0.1278  0.1330  0.0287
  316loPI   C2B 5054  14.587   8.405  10.285 -0.0177  0.0017  0.1213
  316loPI   C3B 5055  14.624   8.316   9.840  0.1095 -0.2514  0.0366
  316loPI   C4B 5056  14.561   8.315   9.436 -0.0050 -0.1695  0.2317
  317loPI    C1 5057  16.902  13.157  12.021  0.0472  0.0919 -0.1118
  317loPI    C2 5058  16.996  12.780  12.117  0.2062  0.2043  0.1847
  317loPI    C3 5059  16.638  12.927  12.215  0.1564  0.1416  0.0984
  317loPI   PO4 5060  17.018  13.190  11.753 -0.0604 -0.1572 -0.3191
  317loPI   GL1 5061  16.945  13.220  11.290 -0.1704 -0.0468  0.0395
  317loPI   GL2 5062  16.735  13.420  11.174  0.1843  0.3215  0.0921
  317loPI   C1A 5063  17.120  13.316  10.897  0.0543 -0.1619  0.2064
  317loPI   C2A 5064  16.967  13.400  10.495 -0.0873  0.0710  0.0928
  317loPI   C3A 5065  16.915  13.280  10.082 -0.2215  0.0846 -0.3272
  317loPI   C4A 5066  16.680  13.335   9.658 -0.2269 -0.2198 -0.4180
  317loPI   C5A 5067  16.633  13.262   9.239 -0.2408 -0.0672  0.3926
  317loPI   C6A 5068  16.279  13.338   8.975  0.2484  0.2165  0.2468
  317loPI   C1B 5069  16.559  13.278  10.794 -0.0277  0.3218  0.2513
  317loPI   C2B 5070  16.474  13.382  10.413 -0.0811  0.0793  0.0468
  317loPI   C3B 5071  16.403  13.210  10.025  0.1623 -0.3148  0.0103
  317loPI   C4B 5072  16.238  13.114   9.504  0.0916  0.0797  0.1553
  318loPI    C1 5073  10.188   1.110  11.423 -0.1633  0.0640  0.2051
  318loPI    C2 5074   9.934   0.843  11.580 -0.0685 -0.0003  0.2499
  318loPI    C3 5075  10.276   0.720  11.412 -0.2038  0.0605 -0.0786
  318loPI   PO4 5076  10.140   1.162  11.241  0.1716 -0.0482  0.2456
  318loPI   GL1 5077  10.208   0.914  10.907 -0.1620 -0.1421 -0.3066
  318loPI   GL2 5078  10.014   0.970  10.627  0.0755 -0.3462  0.2924
  318loPI   C1A 5079  10.315   0.597  10.482 -0.0120 -0.1304 -0.2534
  318loPI   C2A 5080  10.288   0.526   9.993 -0.0223 -0.2390  0.0760
  318loPI   C3A 5081  10.473   0.641   9.733 -0.0458  0.3084  0.1003
  318loPI   C4A 5082  10.608   0.603   9.313  0.0426 -0.0660 -0.0789
  318loPI   C5A 5083  10.428   0.688   8.926  0.1212  0.0408  0.0987
  318loPI   C6A 5084  10.185   0.418   8.665 -0.0807 -0.1081 -0.2250
  318loPI   C1B 5085  10.074   0.923  10.185 -0.2999 -0.2591  0.0747
  318loPI   C2B 5086  10.169   1.002   9.720  0.0911  0.2859  0.0905
  318loPI   C3B 5087  10.187   0.983   9.229  0.1195 -0.1607  0.1637
  318loPI   C4B 5088  10.198   1.090   8.816 -0.0767  0.0149  0.1813
  319loPI    C1 5089   2.022  15.500  11.484  0.1132  0.1932  0.0517
  319loPI    C2 5090   2.251  15.260  11.708  0.1142  0.0210 -0.1313
  319loPI    C3 5091   1.926  15.430  11.866  0.1827 -0.0005  0.0350
  319loPI   PO4 5092   1.983  15.384  11.230  0.2265  0.0907 -0.0440
  319loPI   GL1 5093   1.689  15.289  10.833  0.0280  0.0208  0.5763
  319loPI   GL2 5094   1.342  15.360  10.728 -0.1459  0.0747  0.1211
  319loPI   C1A 5095   1.927  15.313  10.386 -0.0519  0.4447  0.0795
  319loPI   C2A 5096   2.253  15.440  10.101  0.0486  0.0773  0.0555
  319loPI   C3A 5097   2.236  15.465   9.801 -0.1857  0.0792 -0.3739
  319loPI   C4A 5098   2.119  15.699   9.512  0.2751 -0.2787  0.0696
  319loPI   C5A 5099   1.858  15.793   9.102  0.0083 -0.0507 -0.1630
  319loPI   C6A 5100   1.926  16.018   8.763  0.3287 -0.0019  0.2360
  319loPI   C1B 5101   1.332  15.368  10.291 -0.1554  0.1389  0.1862
  319loPI   C2B 5102   1.268  15.312   9.824 -0.1205  0.3226 -0.2528
  319loPI   C3B 5103   1.146  15.124   9.473  0.1380  0.1453 -0.1039
  319loPI   C4B 5104   1.247  15.104   9.074  0.0439  0.0476  0.3579
  320loPI    C1 5105  14.232  11.225  11.804  0.1180 -0.3602 -0.0008
  320loPI    C2 5106  13.910  11.061  11.975 -0.1128  0.0970  0.0178
  320loPI    C3 5107  14.209  11.197  12.203 -0.0484 -0.0391  0.0153
  320loPI   PO4 5108  14.165  11.005  11.527 -0.1778 -0.0158 -0.1007
  320loPI   GL1 5109  13.970  11.089  11.186  0.1761  0.1134  0.0055
  320loPI   GL2 5110  13.833  10.716  11.100 -0.1032 -0.0311 -0.1714
  320loPI   C1A 5111  14.009  11.005  10.734 -0.0716  0.2574  0.0798
  320loPI   C2A 5112  14.060  10.998  10.321  0.0520 -0.2073 -0.1517
  320loPI   C3A 5113  14.063  10.992   9.853  0.0040  0.0739 -0.2371
  320loPI   C4A 5114  14.008  10.877   9.391  0.0706  0.0159  0.0183
  320loPI   C5A 5115  13.783  10.674   9.074 -0.0299  0.1741 -0.1321
  320loPI   C6A 5116  13.640  10.262   9.087 -0.1534  0.3202  0.2564
  320loPI   C1B 5117  13.813  10.544  10.741 -0.1363  0.0798 -0.2165
  320loPI   C2B 5118  13.872  10.498  10.407  0.2330  0.0535 -0.2169
  320loPI   C3B 5119  13.931  10.460   9.939  0.0951 -0.1173 -0.0269
  320loPI   C4B 5120  13.852  10.395   9.542 -0.0617 -0.2197 -0.1258
  321loPI    C1 5121   7.644   0.054  11.175 -0.0432 -0.0974  0.1019
  321loPI    C2 5122   7.505  -0.150  10.860  0.0321  0.2891 -0.1902
  321loPI    C3 5123   7.252  -0.016  11.139 -0.0059 -0.2943  0.0697
  321loPI   PO4 5124   7.903   0.163  11.022 -0.0036  0.2272 -0.0262
  321loPI   GL1 5125   7.958   0.200  10.680  0.2022 -0.0951  0.1086
  321loPI   GL2 5126   8.098   0.454  10.595 -0.0046  0.1773  0.3669
  321loPI   C1A 5127   7.997  -0.052  10.362 -0.0278  0.1914  0.1488
  321loPI   C2A 5128   7.794  -0.081  10.014 -0.0278  0.3831 -0.1163
  321loPI   C3A 5129   7.885  -0.197   9.640 -0.1692  0.0352  0.3853
  321loPI   C4A 5130   7.852   0.004   9.280 -0.1468 -0.4351 -0.0489
  321loPI   C5A 5131   7.744   0.041   8.910  0.0198  0.0743  0.0825
  321loPI   C6A 5132   7.700   0.304   8.640  0.0268  0.1286 -0.0774
  321loPI   C1B 5133   7.973   0.409  10.190 -0.0673  0.1066  0.2291
  321loPI   C2B 5134   7.824   0.350   9.794 -0.1787 -0.2006 -0.1384
  321loPI   C3B 5135   7.650   0.522   9.529  0.0911 -0.0290 -0.0245
  321loPI   C4B 5136   7.576   0.926   9.356  0.2646  0.0380 -0.1092
  322loPI    C1 5137   3.338  11.505  11.162 -0.1846 -0.2393 -0.0725
  322loPI    C2 5138   2.965  11.464  11.023 -0.2342 -0.0171 -0.0085
  322loPI    C3 5139   3.050  11.360  11.400 -0.2022 -0.1876 -0.0621
  322loPI   PO4 5140   3.514  11.458  10.988 -0.0665  0.1632 -0.0718
  322loPI   GL1 5141   3.519  11.449  10.610  0.0442 -0.0790  0.2829
  322loPI   GL2 5142   3.199  11.457  10.570 -0.0266 -0.0188 -0.0380
  322loPI   C1A 5143   3.539  11.316  10.206 -0.0240 -0.0338  0.0921
  322loPI   C2A 5144   3.453  11.429   9.763 -0.2749 -0.1502 -0.1151
  322loPI   C3A 5145   3.528  11.480   9.314  0.0815  0.2103  0.3985
  322loPI   C4A 5146   3.466  11.668   8.917 -0.2272 -0.0993 -0.2111
  322loPI   C5A 5147   3.394  11.849   8.620 -0.0295  0.0019  0.0375
  322loPI   C6A 5148   3.035  12.113   8.575  0.2976  0.1839 -0.2180
  322loPI   C1B 5149   3.119  11.675  10.144 -0.0078 -0.0627 -0.1881
  322loPI   C2B 5150   3.101  11.807   9.735 -0.2616 -0.4544 -0.1125
  322loPI   C3B 5151   3.231  11.847   9.390  0.2601 -0.0775 -0.1479
  322loPI   C4B 5152   2.993  11.760   9.041 -0.1342 -0.0112 -0.1118
  323loPI    C1 5153  10.556  15.662  11.670 -0.1598  0.0579 -0.4708
  323loPI    C2 5154  10.208  15.845  11.743 -0.0534  0.1511 -0.1819
  323loPI    C3 5155  10.515  16.052  11.592 -0.0027  0.1609 -0.0669
  323loPI   PO4 5156  10.418  15.394  11.363  0.3869 -0.1562  0.0942
  323loPI   GL1 5157  10.627  15.169  11.137 -0.0318 -0.1382 -0.0744
  323loPI   GL2 5158  10.283  14.987  10.984  0.1239 -0.2811  0.0012
  323loPI   C1A 5159  10.818  15.139  10.772 -0.1727  0.0707 -0.3476
  323loPI   C2A 5160  10.803  15.079  10.419 -0.0898  0.0169  0.0619
  323loPI   C3A 5161  10.839  15.043   9.954 -0.0483 -0.1910  0.2842
  323loPI   C4A 5162  10.822  15.040   9.540  0.0870 -0.1538 -0.1392
  323loPI   C5A 5163  10.607  15.070   9.240  0.0405  0.0833  0.2022
  323loPI   C6A 5164  10.278  15.065   8.985 -0.0204 -0.0330  0.2061
  323loPI   C1B 5165  10.290  14.939  10.580  0.2578  0.0845 -0.3936
  323loPI   C2B 5166  10.331  14.976  10.200 -0.0418  0.0237 -0.0341
  323loPI   C3B 5167  10.343  15.035   9.798  0.0027  0.1760 -0.1223
  323loPI   C4B 5168  10.211  14.823   9.398 -0.2316  0.3133  0.1917
  324loPI    C1 5169  17.466   4.967  11.366  0.0185 -0.0998 -0.1751
  324loPI    C2 5170  17.285   4.967  11.722 -0.0091 -0.3511 -0.1872
  324loPI    C3 5171  17.535   5.264  11.625 -0.1170 -0.2031 -0.0189
  324loPI   PO4 5172  17.261   4.907  11.188  0.1853 -0.0175 -0.2658
  324loPI   GL1 5173  17.347   4.665  10.887  0.1226  0.0533  0.1835
  324loPI   GL2 5174  17.505   4.482  10.619  0.0281  0.2106  0.1071
  324loPI   C1A 5175  17.142   4.853  10.530  0.0300  0.1774  0.1502
  324loPI   C2A 5176  17.052   5.117  10.218  0.2762 -0.0039 -0.0242
  324loPI   C3A 5177  17.063   5.137   9.765 -0.0527 -0.2173  0.0277
  324loPI   C4A 5178  16.921   5.096   9.388 -0.4139 -0.0258 -0.0578
  324loPI   C5A 5179  16.838   5.289   8.948  0.2248 -0.1202 -0.2558
  324loPI   C6A 5180  16.760   5.028   8.619 -0.0213  0.1231  0.3283
  324loPI   C1B 5181  17.441   4.572  10.133  0.1033 -0.3945 -0.1840
  324loPI   C2B 5182  17.353   4.572   9.638 -0.0997 -0.0417 -0.1072
  324loPI   C3B 5183  17.311   4.813   9.302  0.0933 -0.1523  0.3034
  324loPI   C4B 5184  17.181   4.793   8.930 -0.2234 -0.1556  0.2060
  325loPI    C1 5185  16.011   4.971  11.580 -0.0936  0.1326  0.0528
  325loPI    C2 5186  15.643   5.093  11.680 -0.0948  0.0600  0.1383
  325loPI    C3 5187  15.889   4.947  11.960  0.1016  0.3707  0.1340
  325loPI   PO4 5188  15.933   4.930  11.274  0.0703  0.2450  0.0569
  325loPI   GL1 5189  16.020   4.663  10.856  0.1789 -0.3321  0.0973
  325loPI   GL2 5190  15.664   4.716  10.844 -0.0620 -0.1529 -0.0377
  325loPI   C1A 5191  16.013   4.800  10.378 -0.4779 -0.2723 -0.2269
  325loPI   C2A 5192  15.905   4.762   9.976 -0.4080  0.0662 -0.0983
  325loPI   C3A 5193  15.897   4.954   9.504 -0.1686 -0.2181  0.0214
  325loPI   C4A 5194  15.881   5.014   9.090 -0.0059 -0.1730 -0.2127
  325loPI   C5A 5195  15.911   4.725   8.755 -0.0026  0.0603 -0.0036
  325loPI   C6A 5196  15.781   4.487   8.441  0.2588 -0.0590 -0.0285
  325loPI   C1B 5197  15.470   4.586  10.401  0.0613 -0.0733 -0.1308
  325loPI   C2B 5198  15.393   4.709   9.919 -0.3570  0.1166 -0.1663
  325loPI   C3B 5199  15.324   4.934   9.549  0.2007  0.0747  0.0384
  325loPI   C4B 5200  15.442   4.752   9.122 -0.0894 -0.1108  0.2567
  326loPI    C1 5201  14.773  11.171  12.075 -0.0062 -0.0595  0.0172
  326loPI    C2 5202  15.164  11.122  12.005  0.0188  0.1577 -0.0005
  326loPI    C3 5203  14.925  10.803  12.037  0.2585  0.0090  0.3624
  326loPI   PO4 5204  14.689  11.390  11.864 -0.4614  0.0585 -0.2274
  326loPI   GL1 5205  14.552  11.405  11.424 -0.3555 -0.1653 -0.0941
  326loPI   GL2 5206  14.304  11.571  11.379 -0.1484  0.2342  0.1799
  326loPI   C1A 5207  14.662  11.577  11.031 -0.1217  0.2460  0.5353
  326loPI   C2A 5208  14.648  11.646  10.675 -0.1080 -0.0360 -0.2425
  326loPI   C3A 5209  14.711  11.594  10.252  0.2338  0.2831 -0.0659
  326loPI   C4A 5210  14.721  11.637   9.809 -0.1088 -0.0422 -0.0729
  326loPI   C5A 5211  14.605  11.547   9.406  0.1340 -0.0923  0.0849
  326loPI   C6A 5212  14.223  11.529   9.115  0.2088  0.3563 -0.0969
  326loPI   C1B 5213  14.128  11.491  10.956  0.0491 -0.1857  0.1280
  326loPI   C2B 5214  14.162  11.577  10.523 -0.2281  0.1345  0.2699
  326loPI   C3B 5215  14.246  11.495  10.136  0.0773  0.3112 -0.0385
  326loPI   C4B 5216  14.218  11.501   9.726 -0.0781 -0.2397 -0.4338
  327loPI    C1 5217  14.533   4.843  11.450 -0.2518  0.0177 -0.1474
  327loPI    C2 5218  14.288   4.815  11.766 -0.0422 -0.1003  0.0072
  327loPI    C3 5219  14.683   4.772  11.814 -0.0189 -0.2484 -0.2912
  327loPI   PO4 5220  14.423   4.888  11.274 -0.0367  0.1560  0.0939
  327loPI   GL1 5221  14.473   4.946  10.882  0.2102 -0.2438 -0.2466
  327loPI   GL2 5222  14.363   5.267  10.724  0.0247  0.1476 -0.0637
  327loPI   C1A 5223  14.677   4.895  10.580 -0.2008 -0.1320  0.2638
  327loPI   C2A 5224  14.670   4.928  10.079 -0.0216 -0.2081  0.1844
  327loPI   C3A 5225  14.477   5.011   9.632 -0.2404 -0.0267 -0.0917
  327loPI   C4A 5226  14.542   5.064   9.283 -0.0586 -0.1014  0.2029
  327loPI   C5A 5227  14.450   5.170   8.900  0.0091 -0.0714 -0.0204
  327loPI   C6A 5228  14.740   5.115   8.559  0.3227 -0.1438 -0.2898
  327loPI   C1B 5229  14.145   5.497  10.554 -0.1685 -0.1377 -0.0086
  327loPI   C2B 5230  14.167   5.499  10.120 -0.3476 -0.0958 -0.1004
  327loPI   C3B 5231  14.161   5.508   9.633  0.1848 -0.4651 -0.0233
  327loPI   C4B 5232  14.119   5.450   9.176 -0.2440 -0.0530  0.0639
  328loPI    C1 5233   4.248   3.976  11.352  0.0038 -0.0146 -0.0486
  328loPI    C2 5234   4.432   3.920  11.702 -0.2386  0.2123  0.1192
  328loPI    C3 5235   4.034   3.891  11.679 -0.2267  0.2298 -0.1324
  328loPI   PO4 5236   4.436   3.979  11.132 -0.0956 -0.1636  0.2388
  328loPI   GL1 5237   4.558   4.009  10.710  0.1038 -0.2576  0.0712
  328loPI   GL2 5238   4.673   3.682  10.724 -0.1665  0.2241 -0.2814
  328loPI   C1A 5239   4.676   4.099  10.316  0.0927 -0.1927 -0.1920
  328loPI   C2A 5240   4.723   4.029   9.913 -0.1824 -0.3859  0.1331
  328loPI   C3A 5241   4.641   4.086   9.474  0.0541  0.1964 -0.0779
  328loPI   C4A 5242   4.590   3.948   9.036  0.1778  0.0171 -0.2968
  328loPI   C5A 5243   4.202   3.820   8.871 -0.0379  0.1156 -0.2797
  328loPI   C6A 5244   3.821   3.703   8.781  0.1352  0.0659 -0.3149
  328loPI   C1B 5245   4.734   3.640  10.377 -0.1227 -0.1983  0.1064
  328loPI   C2B 5246   4.625   3.557   9.918 -0.1068  0.1559 -0.1178
  328loPI   C3B 5247   4.746   3.540   9.534 -0.0452  0.2794 -0.1342
  328loPI   C4B 5248   4.572   3.451   9.163  0.1287  0.2708  0.0153
  329loPI    C1 5249   0.172  17.492  11.056  0.0691  0.1824  0.0530
  329loPI    C2 5250   0.119  17.252  11.371 -0.0146  0.2979  0.1277
  329loPI    C3 5251  -0.110  17.209  11.046  0.3001 -0.0481 -0.0557
  329loPI   PO4 5252   0.397  17.522  11.001  0.0164  0.2254 -0.0697
  329loPI   GL1 5253   0.589  17.426  10.547  0.0728  0.1067 -0.2122
  329loPI   GL2 5254   0.318  17.405  10.468  0.1013 -0.0353  0.3559
  329loPI   C1A 5255   0.670  17.618  10.162 -0.0092  0.1655 -0.0320
  329loPI   C2A 5256   0.707  17.606   9.785  0.2015  0.0454 -0.1700
  329loPI   C3A 5257   0.642  17.607   9.410  0.3066 -0.0112  0.0074
  329loPI   C4A 5258   0.680  17.517   8.921 -0.2186  0.2511  0.1924
  329loPI   C5A 5259   0.502  17.775   8.632  0.1881  0.2439 -0.0714
  329loPI   C6A 5260   0.476  18.192   8.720 -0.2066 -0.1166  0.0657
  329loPI   C1B 5261   0.313  17.371   9.985 -0.1850 -0.0561 -0.0613
  329loPI   C2B 5262   0.306  17.308   9.609  0.2318 -0.3852 -0.1316
  329loPI   C3B 5263   0.212  17.328   9.216  0.0312  0.0402 -0.1509
  329loPI   C4B 5264   0.131  17.016   8.923  0.2863  0.0043  0.1306
  330loPI    C1 5265  11.602   3.358  11.821  0.1168  0.0304  0.1653
  330loPI    C2 5266  11.691   3.135  12.141  0.0696 -0.4824 -0.1667
  330loPI    C3 5267  11.418   3.008  11.879 -0.1309  0.0859 -0.2477
  330loPI   PO4 5268  11.761   3.382  11.642 -0.0605 -0.1331  0.1447
  330loPI   GL1 5269  11.771   3.577  11.228 -0.4300 -0.0339  0.0427
  330loPI   GL2 5270  11.602   3.673  11.016 -0.0621  0.0085 -0.1293
  330loPI   C1A 5271  11.864   3.171  10.888  0.0094  0.2054  0.0201
  330loPI   C2A 5272  11.808   3.194  10.472  0.0615  0.2744  0.0702
  330loPI   C3A 5273  11.822   3.162  10.036 -0.2563 -0.0990 -0.2353
  330loPI   C4A 5274  11.885   3.257   9.645  0.1206  0.2319  0.1012
  330loPI   C5A 5275  12.047   3.155   9.220 -0.1166 -0.3946  0.2574
  330loPI   C6A 5276  12.059   3.209   8.766  0.0446 -0.1373 -0.1253
  330loPI   C1B 5277  11.428   3.569  10.591 -0.1156 -0.3823  0.4015
  330loPI   C2B 5278  11.498   3.544  10.156  0.0140 -0.0108  0.1072
  330loPI   C3B 5279  11.623   3.679   9.799  0.0928  0.1901  0.0766
  330loPI   C4B 5280  11.705   3.586   9.323  0.0414  0.0551  0.2131
  331loPI    C1 5281   8.373   6.453  11.101  0.1292 -0.1650 -0.0409
  331loPI    C2 5282   8.271   6.069  11.150 -0.1044 -0.0805  0.1528
  331loPI    C3 5283   8.121   6.349  11.393 -0.1550  0.1699 -0.1600
  331loPI   PO4 5284   8.274   6.503  10.846  0.1461  0.0900  0.0421
  331loPI   GL1 5285   8.178   6.542  10.419  0.0579 -0.1466 -0.1320
  331loPI   GL2 5286   8.359   6.311  10.269 -0.1687 -0.0114  0.1226
  331loPI   C1A 5287   8.185   6.681   9.921  0.2165  0.0146  0.3385
  331loPI   C2A 5288   8.323   6.674   9.586  0.4145  0.2821  0.4245
  331loPI   C3A 5289   8.323   6.668   9.130 -0.2359 -0.1664 -0.3269
  331loPI   C4A 5290   8.253   6.702   8.699 -0.0937 -0.0169 -0.1436
  331loPI   C5A 5291   8.066   7.000   8.478 -0.1872 -0.1871 -0.0840
  331loPI   C6A 5292   7.896   7.011   8.140  0.0626 -0.0177  0.3683
  331loPI   C1B 5293   8.599   6.305   9.799  0.2758  0.0645  0.0769
  331loPI   C2B 5294   8.575   6.285   9.363  0.1288  0.1427  0.0856
  331loPI   C3B 5295   8.525   6.225   8.893  0.1054 -0.0647  0.0153
  331loPI   C4B 5296   8.195   6.097   8.531  0.1377 -0.0604 -0.1094
  332loPI    C1 5297   3.160  10.994  11.104 -0.2282 -0.0262 -0.2187
  332loPI    C2 5298   3.001  10.632  11.166  0.1648 -0.1766 -0.0555
  332loPI    C3 5299   3.118  10.856  11.477  0.0390  0.0405 -0.1617
  332loPI   PO4 5300   3.150  11.029  10.842 -0.0180  0.3825  0.2370
  332loPI   GL1 5301   3.238  10.940  10.395 -0.0698  0.2014  0.0734
  332loPI   GL2 5302   2.931  11.138  10.319  0.0530  0.2328 -0.0665
  332loPI   C1A 5303   3.404  10.792   9.991  0.1976 -0.0277 -0.1341
  332loPI   C2A 5304   3.413  10.856   9.570  0.0285  0.1252  0.0448
  332loPI   C3A 5305   3.441  10.942   9.199 -0.4713  0.0354  0.1903
  332loPI   C4A 5306   3.354  10.882   8.832 -0.1348 -0.0750 -0.0971
  332loPI   C5A 5307   3.333  10.784   8.547  0.1685  0.0042  0.2615
  332loPI   C6A 5308   3.010  10.566   8.187 -0.0178 -0.0267 -0.2610
  332loPI   C1B 5309   3.019  11.114   9.931  0.1816 -0.0059  0.1677
  332loPI   C2B 5310   3.111  11.251   9.476  0.1838  0.0548 -0.0486
  332loPI   C3B 5311   2.970  11.224   8.996  0.0293 -0.0917 -0.1389
  332loPI   C4B 5312   3.110  11.410   8.653  0.1309  0.0033  0.4445
  333loPI    C1 5313  12.388  13.100  12.003  0.0562 -0.0004  0.0403
  333loPI    C2 5314  12.298  13.398  12.254 -0.0535 -0.0685  0.0832
  333loPI    C3 5315  12.566  13.121  12.360 -0.0733 -0.0772  0.1104
  333loPI   PO4 5316  12.283  13.170  11.762  0.1911 -0.2538 -0.0247
  333loPI   GL1 5317  12.301  13.004  11.373  0.0575  0.2837  0.3432
  333loPI   GL2 5318  12.503  13.274  11.280 -0.2692  0.0012 -0.1704
  333loPI   C1A 5319  12.366  13.055  10.851  0.1486  0.3392 -0.2706
  333loPI   C2A 5320  12.420  13.138  10.446 -0.0181 -0.0949  0.1366
  333loPI   C3A 5321  12.463  12.935   9.967  0.1498 -0.1122  0.0438
  333loPI   C4A 5322  12.434  12.914   9.526  0.2285 -0.0156 -0.0938
  333loPI   C5A 5323  12.458  13.250   9.234 -0.0916  0.0089 -0.1141
  333loPI   C6A 5324  12.634  13.455   8.944 -0.1026  0.3248  0.2211
  333loPI   C1B 5325  12.651  13.665  11.042 -0.1876  0.1318  0.3122
  333loPI   C2B 5326  12.628  13.647  10.640  0.2281  0.2283 -0.2774
  333loPI   C3B 5327  12.635  13.613  10.193 -0.0964 -0.2114  0.3762
  333loPI   C4B 5328  12.634  13.405   9.810  0.4023 -0.2296 -0.0415
  334loPI    C1 5329   0.700   3.010  11.206  0.0761 -0.0484  0.2504
  334loPI    C2 5330   0.478   3.068  11.534 -0.0017  0.1491  0.1643
  334loPI    C3 5331   0.743   3.346  11.420 -0.0881  0.1544 -0.0275
  334loPI   PO4 5332   0.515   2.930  10.981  0.0484  0.2176 -0.3996
  334loPI   GL1 5333   0.476   3.164  10.651 -0.1616 -0.1608  0.0462
  334loPI   GL2 5334   0.712   3.240  10.584 -0.1467 -0.1803  0.2110
  334loPI   C1A 5335   0.256   3.261  10.339 -0.1968  0.3398 -0.0837
  334loPI   C2A 5336   0.211   3.220   9.986 -0.1116  0.0021 -0.0295
  334loPI   C3A 5337   0.214   3.268   9.532 -0.1577  0.1900 -0.0621
  334loPI   C4A 5338   0.480   3.408   9.160 -0.0889  0.1208  0.2995
  334loPI   C5A 5339   0.623   3.629   8.849  0.2330 -0.0608  0.4408
  334loPI   C6A 5340   0.936   3.870   8.579 -0.1685  0.0870 -0.1096
  334loPI   C1B 5341   0.690   3.339  10.148  0.2567 -0.2072 -0.4310
  334loPI   C2B 5342   0.831   3.535   9.689  0.0268 -0.0023 -0.2766
  334loPI   C3B 5343   1.016   3.483   9.202 -0.1269 -0.1036  0.2385
  334loPI   C4B 5344   1.116   3.321   8.782 -0.3077 -0.0538 -0.0214
  335loPI    C1 5345  14.274  11.803  11.810 -0.2491  0.1759 -0.0848
  335loPI    C2 5346  14.285  11.664  12.185  0.0285  0.1454 -0.1020
  335loPI    C3 5347  13.941  11.661  11.980 -0.1458  0.2479  0.1828
  335loPI   PO4 5348  14.359  12.017  11.794 -0.0869  0.1665  0.1042
  335loPI   GL1 5349  14.554  12.157  11.351 -0.0647 -0.0582 -0.0566
  335loPI   GL2 5350  14.571  12.409  11.219 -0.0062  0.3387 -0.0361
  335loPI   C1A 5351  14.353  11.987  10.922  0.2700 -0.3136  0.4042
  335loPI   C2A 5352  14.374  12.091  10.479  0.0836  0.1881 -0.1773
  335loPI   C3A 5353  14.394  11.961  10.009 -0.1737  0.1788 -0.1025
  335loPI   C4A 5354  14.348  11.956   9.537  0.0822  0.0725  0.0432
  335loPI   C5A 5355  14.567  12.004   9.156 -0.1214  0.0017  0.2623
  335loPI   C6A 5356  14.716  11.735   8.919  0.0887  0.1140  0.0071
  335loPI   C1B 5357  14.502  12.501  10.798  0.2062  0.1615 -0.1741
  335loPI   C2B 5358  14.639  12.502  10.432  0.2625 -0.0129  0.1323
  335loPI   C3B 5359  14.584  12.479   9.977 -0.2607 -0.0853 -0.2775
  335loPI   C4B 5360  14.543  12.483   9.610  0.1056  0.0395  0.5037
  336loPI    C1 5361   6.801   5.913  11.197  0.2956  0.0184  0.1417
  336loPI    C2 5362   6.979   5.809  11.540  0.3143 -0.1446  0.0838
  336loPI    C3 5363   6.702   5.571  11.379  0.4245 -0.1508 -0.1004
  336loPI   PO4 5364   6.898   5.958  10.966  0.3867  0.0944  0.0384
  336loPI   GL1 5365   6.768   6.014  10.550 -0.0872  0.0161 -0.1632
  336loPI   GL2 5366   6.641   5.931  10.337  0.1101  0.2221  0.3307
  336loPI   C1A 5367   6.973   6.100  10.076 -0.0745 -0.0442  0.0789
  336loPI   C2A 5368   6.958   5.914   9.619 -0.3770  0.2631  0.0884
  336loPI   C3A 5369   7.008   5.976   9.170  0.2125 -0.1392  0.1182
  336loPI   C4A 5370   6.773   5.835   8.877  0.0488  0.1015 -0.0771
  336loPI   C5A 5371   6.820   5.425   8.676 -0.4262  0.0182  0.0404
  336loPI   C6A 5372   6.893   4.874   8.527 -0.1319 -0.0203 -0.2361
  336loPI   C1B 5373   6.816   5.552   9.991  0.0578  0.1952  0.0565
  336loPI   C2B 5374   6.806   5.449   9.596  0.0556  0.0610 -0.0622
  336loPI   C3B 5375   6.938   5.438   9.127 -0.0604 -0.0147 -0.3085
  336loPI   C4B 5376   7.193   5.166   8.845  0.0544 -0.3677 -0.0774
  337loPI    C1 5377   7.727  15.425  11.499  0.0878  0.0523  0.1456
  337loPI    C2 5378   7.738  15.718  11.771  0.1012  0.0473  0.1504
  337loPI    C3 5379   7.841  15.345  11.874 -0.0916  0.0040  0.1910
  337loPI   PO4 5380   7.842  15.524  11.291 -0.0874  0.3333  0.1088
  337loPI   GL1 5381   8.099  15.717  10.952 -0.0742  0.0224 -0.0997
  337loPI   GL2 5382   8.065  16.112  10.862 -0.0129  0.0207 -0.0305
  337loPI   C1A 5383   8.276  15.651  10.568 -0.0290  0.0245 -0.1093
  337loPI   C2A 5384   8.489  15.426  10.347 -0.1553 -0.1045  0.1565
  337loPI   C3A 5385   8.493  15.430   9.930  0.1325  0.2710  0.0718
  337loPI   C4A 5386   8.331  15.156   9.593 -0.0117 -0.0335  0.3061
  337loPI   C5A 5387   7.934  15.092   9.444  0.1332 -0.0475 -0.0961
  337loPI   C6A 5388   7.776  15.468   9.158  0.2704  0.1456  0.1680
  337loPI   C1B 5389   7.892  16.200  10.471  0.0891  0.0496 -0.0352
  337loPI   C2B 5390   8.002  16.288  10.041 -0.1192 -0.1967 -0.0147
  337loPI   C3B 5391   8.129  16.073   9.770 -0.1194  0.2151  0.0249
  337loPI   C4B 5392   8.378  16.113   9.322  0.1375 -0.1745 -0.1283
  338loPI    C1 5393   3.890  14.853  11.335  0.0053 -0.1834  0.0498
  338loPI    C2 5394   3.592  14.793  11.075  0.1004 -0.3017 -0.0330
  338loPI    C3 5395   3.520  14.785  11.469 -0.0675 -0.0012 -0.0550
  338loPI   PO4 5396   4.014  15.102  11.215  0.0578  0.1658 -0.0144
  338loPI   GL1 5397   3.801  15.134  10.820  0.0411  0.1467  0.0933
  338loPI   GL2 5398   3.945  14.800  10.740  0.1872 -0.2040 -0.0038
  338loPI   C1A 5399   3.928  15.304  10.343 -0.2751  0.0175  0.2698
  338loPI   C2A 5400   3.919  15.346   9.886  0.2413  0.1823  0.2501
  338loPI   C3A 5401   3.912  15.203   9.526  0.2104 -0.2540 -0.2915
  338loPI   C4A 5402   4.071  15.212   9.120 -0.1963  0.0755  0.2217
  338loPI   C5A 5403   3.968  15.120   8.698 -0.3380 -0.0293  0.2620
  338loPI   C6A 5404   3.548  15.165   8.625  0.1056 -0.1362 -0.3793
  338loPI   C1B 5405   4.184  14.862  10.364  0.3089 -0.0991 -0.0225
  338loPI   C2B 5406   4.152  14.773  10.048  0.2172  0.1384  0.0839
  338loPI   C3B 5407   4.106  14.753   9.661  0.4296 -0.0188 -0.0353
  338loPI   C4B 5408   4.247  14.619   9.222 -0.0727 -0.0480 -0.0486
  339loPI    C1 5409  13.415  14.371  12.111  0.0396  0.3168  0.0939
  339loPI    C2 5410  13.035  14.385  12.235  0.0418 -0.0162  0.1467
  339loPI    C3 5411  13.328  14.524  12.470 -0.0441  0.2293  0.1113
  339loPI   PO4 5412  13.387  14.288  11.836 -0.1787  0.0120  0.0599
  339loPI   GL1 5413  13.326  14.449  11.398  0.0622 -0.0705 -0.2192
  339loPI   GL2 5414  13.079  14.632  11.288 -0.2404 -0.1386 -0.2932
  339loPI   C1A 5415  13.309  14.265  10.997 -0.3772  0.1198 -0.2243
  339loPI   C2A 5416  13.313  14.080  10.545 -0.1384 -0.4607 -0.0891
  339loPI   C3A 5417  13.368  14.040  10.079 -0.2975  0.0719 -0.4352
  339loPI   C4A 5418  13.264  14.059   9.705  0.0093  0.1777 -0.0551
  339loPI   C5A 5419  13.473  13.981   9.271  0.1263 -0.3033  0.0861
  339loPI   C6A 5420  13.438  14.282   8.934 -0.0901 -0.0536 -0.0580
  339loPI   C1B 5421  12.904  14.637  10.899  0.4222  0.0191  0.1204
  339loPI   C2B 5422  12.914  14.561  10.529 -0.3021 -0.0894 -0.0975
  339loPI   C3B 5423  12.924  14.498  10.027 -0.1354  0.2456 -0.0333
  339loPI   C4B 5424  12.987  14.505   9.678  0.2787  0.0262  0.1121
  340loPI    C1 5425  10.327   1.967  11.213  0.3342  0.0308 -0.3425
  340loPI    C2 5426  10.676   1.918  11.403  0.0217 -0.1011  0.2186
  340loPI    C3 5427  10.450   2.240  11.479  0.1096  0.0922 -0.2994
  340loPI   PO4 5428  10.389   1.823  10.955  0.2091 -0.2973  0.2363
  340loPI   GL1 5429  10.553   1.863  10.581 -0.3872 -0.2119  0.3742
  340loPI   GL2 5430  10.775   1.747  10.487  0.1623 -0.1543 -0.1912
  340loPI   C1A 5431  10.445   1.945  10.201 -0.0796 -0.1328 -0.1267
  340loPI   C2A 5432  10.511   1.992   9.788  0.0513 -0.5377 -0.1187
  340loPI   C3A 5433  10.591   2.024   9.440 -0.2417  0.3910  0.0792
  340loPI   C4A 5434  10.625   2.033   9.038 -0.1721  0.1909 -0.0101
  340loPI   C5A 5435  10.609   1.648   8.772 -0.1137  0.0232 -0.2067
  340loPI   C6A 5436  10.550   1.286   8.504 -0.1854  0.0648  0.1368
  340loPI   C1B 5437  10.829   1.655   9.999  0.1094  0.0340  0.2900
  340loPI   C2B 5438  10.892   1.635   9.665  0.4610  0.0259 -0.1027
  340loPI   C3B 5439  10.944   1.637   9.244  0.0740  0.1640  0.0523
  340loPI   C4B 5440  11.049   1.542   8.933 -0.2373 -0.0100 -0.1496
  341loPI    C1 5441  11.397  11.837  12.273  0.0627  0.0693  0.3743
  341loPI    C2 5442  11.236  12.198  12.339 -0.2205  0.0236 -0.0309
  341loPI    C3 5443  11.035  11.867  12.441  0.0415 -0.0258  0.3464
  341loPI   PO4 5444  11.472  11.898  11.962  0.1522  0.0113 -0.0457
  341loPI   GL1 5445  11.294  11.832  11.499 -0.0388  0.1469  0.4680
  341loPI   GL2 5446  11.143  11.514  11.389  0.1318 -0.1944 -0.2312
  341loPI   C1A 5447  11.437  11.971  11.122 -0.1052  0.1278 -0.0992
  341loPI   C2A 5448  11.477  11.944  10.745 -0.0753 -0.1477 -0.3610
  341loPI   C3A 5449  11.565  12.009  10.291  0.1818  0.1833 -0.3599
  341loPI   C4A 5450  11.577  11.873   9.805 -0.1443 -0.4236  0.1045
  341loPI   C5A 5451  11.609  12.088   9.401  0.0385  0.3701 -0.1228
  341loPI   C6A 5452  11.442  12.454   9.171  0.1141  0.2152 -0.0350
  341loPI   C1B 5453  11.174  11.442  10.990 -0.0320  0.1587 -0.1274
  341loPI   C2B 5454  11.354  11.473  10.666 -0.4102  0.1270  0.0633
  341loPI   C3B 5455  11.448  11.462  10.274  0.2183 -0.0033 -0.0912
  341loPI   C4B 5456  11.357  11.331   9.789  0.2881  0.0772 -0.2542
  342loPI    C1 5457   0.021   2.217  11.287 -0.0380 -0.1420 -0.0008
  342loPI    C2 5458   0.285   2.008  11.502 -0.0490 -0.0370  0.1161
  342loPI    C3 5459   0.113   2.333  11.658  0.1105  0.1709 -0.1316
  342loPI   PO4 5460  -0.043   2.099  11.087 -0.0649  0.2913  0.0858
  342loPI   GL1 5461  -0.004   2.055  10.705 -0.1149 -0.0451  0.3178
  342loPI   GL2 5462   0.244   2.167  10.559  0.1497  0.1644  0.1554
  342loPI   C1A 5463  -0.170   1.750  10.299 -0.3416  0.1864 -0.0395
  342loPI   C2A 5464  -0.032   1.722   9.807 -0.0527  0.3145 -0.0455
  342loPI   C3A 5465   0.044   1.659   9.427  0.2704 -0.0971  0.2403
  342loPI   C4A 5466   0.468   1.746   9.199  0.1069 -0.0953 -0.2160
  342loPI   C5A 5467   0.666   1.582   8.872 -0.1529 -0.1818 -0.2733
  342loPI   C6A 5468   0.884   1.151   8.889  0.0311 -0.3633  0.0159
  342loPI   C1B 5469   0.269   2.035  10.075  0.1707 -0.0925 -0.3152
  342loPI   C2B 5470   0.353   2.092   9.681  0.0863 -0.1745  0.1055
  342loPI   C3B 5471   0.189   2.217   9.306  0.0686 -0.0211 -0.2219
  342loPI   C4B 5472   0.012   1.945   8.973 -0.1123 -0.2093  0.1291
  343loPI    C1 5473  10.693  10.448  11.815 -0.1044  0.0870  0.0431
  343loPI    C2 5474  10.833  10.343  12.175  0.2603  0.0719 -0.0992
  343loPI    C3 5475  10.439  10.371  12.114  0.1892 -0.1379  0.2407
  343loPI   PO4 5476  10.791  10.340  11.611 -0.0053  0.2194 -0.0774
  343loPI   GL1 5477  10.831  10.355  11.274  0.0048  0.2662  0.1102
  343loPI   GL2 5478  10.497  10.333  11.142  0.1338  0.1421  0.1017
  343loPI   C1A 5479  11.038  10.475  10.925  0.0785  0.4493  0.2319
  343loPI   C2A 5480  11.057  10.472  10.460  0.0176 -0.2718  0.0164
  343loPI   C3A 5481  11.001  10.374  10.048 -0.1091  0.0711  0.0002
  343loPI   C4A 5482  11.041  10.448   9.673 -0.0385  0.0080 -0.0103
  343loPI   C5A 5483  11.233  10.492   9.277  0.2496  0.4000 -0.1703
  343loPI   C6A 5484  11.509  10.543   9.024 -0.1508 -0.2362 -0.1732
  343loPI   C1B 5485  10.423  10.395  10.730  0.3876 -0.2398 -0.0977
  343loPI   C2B 5486  10.414  10.472  10.298 -0.1288  0.0591 -0.0639
  343loPI   C3B 5487  10.483  10.366   9.864 -0.0558  0.1492  0.0268
  343loPI   C4B 5488  10.584  10.417   9.410 -0.1335 -0.1136 -0.2257
  344loPI    C1 5489  12.876   1.248  11.322 -0.0068 -0.2905 -0.1604
  344loPI    C2 5490  13.205   1.386  11.504 -0.1456  0.0602 -0.1675
  344loPI    C3 5491  13.132   0.993  11.494  0.1216  0.0003  0.0906
  344loPI   PO4 5492  12.850   1.319  11.073 -0.3805 -0.0636  0.2105
  344loPI   GL1 5493  13.040   1.322  10.620  0.1372 -0.2606 -0.1529
  344loPI   GL2 5494  12.778   1.074  10.630 -0.1785 -0.2565  0.1584
  344loPI   C1A 5495  13.073   1.159  10.131 -0.0712 -0.0158 -0.3699
  344loPI   C2A 5496  13.167   0.974   9.783  0.2170  0.1469  0.0047
  344loPI   C3A 5497  13.136   1.029   9.462 -0.1022 -0.0914 -0.1474
  344loPI   C4A 5498  13.116   1.002   9.097 -0.0326  0.3050  0.0791
  344loPI   C5A 5499  12.935   0.985   8.737  0.0181  0.0243 -0.0114
  344loPI   C6A 5500  12.822   1.290   8.466  0.4756  0.1028 -0.0647
  344loPI   C1B 5501  12.555   1.025  10.333  0.3075 -0.0790 -0.0645
  344loPI   C2B 5502  12.569   0.999   9.994  0.1220 -0.0175 -0.1364
  344loPI   C3B 5503  12.588   0.951   9.553  0.2957  0.0611 -0.0372
  344loPI   C4B 5504  12.498   0.988   9.080  0.0836 -0.4148  0.2188
  345loPI    C1 5505  13.448   0.756  11.179  0.0197  0.0952 -0.0939
  345loPI    C2 5506  13.662   0.687  11.510 -0.1275  0.0106 -0.0154
  345loPI    C3 5507  13.313   0.499  11.454 -0.0352 -0.0846 -0.2867
  345loPI   PO4 5508  13.622   0.748  11.014  0.0605  0.0626  0.1322
  345loPI   GL1 5509  13.530   0.578  10.592 -0.2247  0.1927  0.0694
  345loPI   GL2 5510  13.425   0.939  10.590  0.0827 -0.0858  0.0546
  345loPI   C1A 5511  13.477   0.695  10.131 -0.0050  0.1097  0.1720
  345loPI   C2A 5512  13.472   0.557   9.731  0.0194 -0.0139 -0.0305
  345loPI   C3A 5513  13.404   0.632   9.323 -0.2286  0.1650 -0.0804
  345loPI   C4A 5514  13.363   0.552   8.899 -0.2563  0.1399 -0.0428
  345loPI   C5A 5515  13.690   0.328   8.673  0.2642 -0.1779 -0.0645
  345loPI   C6A 5516  14.074   0.147   8.741 -0.0408 -0.1338  0.1256
  345loPI   C1B 5517  13.566   1.181  10.097 -0.2149  0.0759 -0.3124
  345loPI   C2B 5518  13.588   1.168   9.670  0.1337 -0.0669 -0.0406
  345loPI   C3B 5519  13.592   1.087   9.219  0.0366  0.0464 -0.1574
  345loPI   C4B 5520  13.577   1.052   8.827 -0.0223  0.1468 -0.3424
  346loPI    C1 5521  11.266   0.700  11.256 -0.1492  0.1005  0.1813
  346loPI    C2 5522  11.507   1.018  11.224  0.0599 -0.0762 -0.0385
  346loPI    C3 5523  11.514   0.795  11.555 -0.1767  0.2149  0.1684
  346loPI   PO4 5524  11.095   0.733  11.040  0.0624 -0.1678 -0.1555
  346loPI   GL1 5525  10.850   0.604  10.635  0.2004 -0.0682 -0.1821
  346loPI   GL2 5526  10.729   0.915  10.600 -0.0426 -0.1260 -0.0895
  346loPI   C1A 5527  10.998   0.723  10.169 -0.0070 -0.3513 -0.0013
  346loPI   C2A 5528  10.932   0.797   9.833 -0.0348  0.0325  0.1497
  346loPI   C3A 5529  11.031   0.699   9.525  0.2506 -0.0155 -0.2440
  346loPI   C4A 5530  10.993   0.696   9.057 -0.1288  0.2010  0.1339
  346loPI   C5A 5531  10.873   0.456   8.747 -0.0583  0.1909  0.2949
  346loPI   C6A 5532  10.880   0.054   8.717 -0.0075  0.0516  0.0186
  346loPI   C1B 5533  10.592   0.944  10.144  0.0101 -0.1205 -0.2896
  346loPI   C2B 5534  10.668   1.194   9.782  0.1509 -0.1840 -0.0284
  346loPI   C3B 5535  10.645   1.110   9.465 -0.0516 -0.1509 -0.0144
  346loPI   C4B 5536  10.658   1.213   9.018 -0.0853  0.0851 -0.4095
  347loPI    C1 5537   4.412  15.390  11.227  0.1767 -0.0595  0.0106
  347loPI    C2 5538   4.663  15.087  11.153  0.1683 -0.0265 -0.1576
  347loPI    C3 5539   4.769  15.378  11.407  0.2651 -0.0576 -0.1618
  347loPI   PO4 5540   4.355  15.515  11.087  0.4518 -0.1847 -0.1816
  347loPI   GL1 5541   4.194  15.461  10.727  0.0334 -0.0616 -0.1863
  347loPI   GL2 5542   4.379  15.137  10.766  0.2302  0.4031 -0.0521
  347loPI   C1A 5543   4.282  15.749  10.429 -0.1459  0.0964  0.1232
  347loPI   C2A 5544   4.339  15.720   9.952 -0.0547 -0.0888 -0.1155
  347loPI   C3A 5545   4.342  15.590   9.551 -0.0020  0.1845  0.1049
  347loPI   C4A 5546   4.373  15.604   9.143  0.0748 -0.0008  0.1064
  347loPI   C5A 5547   4.546  15.837   8.815 -0.1111 -0.1190 -0.2761
  347loPI   C6A 5548   4.938  16.125   8.675  0.0514  0.0964 -0.0622
  347loPI   C1B 5549   4.423  15.253  10.288  0.2881 -0.0904  0.0385
  347loPI   C2B 5550   4.351  15.172   9.849 -0.2054 -0.2634  0.0313
  347loPI   C3B 5551   4.490  15.123   9.481  0.1027 -0.2932 -0.2186
  347loPI   C4B 5552   4.610  15.149   9.112 -0.3575 -0.0331  0.1698
  348loPI    C1 5553   9.005   8.352  11.510 -0.2606 -0.1745 -0.2229
  348loPI    C2 5554   8.863   8.022  11.686 -0.0861 -0.1700 -0.0710
  348loPI    C3 5555   8.749   8.383  11.816 -0.0616 -0.1680 -0.0546
  348loPI   PO4 5556   8.913   8.387  11.294  0.2455  0.4148 -0.1817
  348loPI   GL1 5557   9.107   8.477  10.898  0.2868  0.1754 -0.1750
  348loPI   GL2 5558   9.257   8.808  10.839 -0.1093  0.0539  0.1066
  348loPI   C1A 5559   9.181   8.305  10.505 -0.0682 -0.1437  0.0918
  348loPI   C2A 5560   9.309   8.277  10.203  0.0805 -0.1819  0.1330
  348loPI   C3A 5561   9.324   8.292   9.772 -0.3201 -0.0672 -0.1292
  348loPI   C4A 5562   9.347   8.273   9.263  0.1409 -0.1431 -0.2044
  348loPI   C5A 5563   9.111   8.174   8.964  0.0264  0.3547  0.1506
  348loPI   C6A 5564   8.715   8.359   8.707 -0.1119 -0.0695  0.0111
  348loPI   C1B 5565   9.458   8.703  10.367 -0.1507 -0.0845 -0.2803
  348loPI   C2B 5566   9.513   8.707   9.988  0.1398  0.0315 -0.1401
  348loPI   C3B 5567   9.543   8.841   9.573  0.1368 -0.0074 -0.0577
  348loPI   C4B 5568   9.618   8.678   9.104  0.0266  0.1317  0.2218
  349loPI    C1 5569   1.142   0.926  11.251 -0.2937 -0.3729  0.1378
  349loPI    C2 5570   1.501   0.862  11.417 -0.2032 -0.3267 -0.0375
  349loPI    C3 5571   1.262   1.149  11.561 -0.0232 -0.1225 -0.1407
  349loPI   PO4 5572   1.284   0.941  10.988 -0.2115 -0.0178 -0.0387
  349loPI   GL1 5573   1.669   0.935  10.731 -0.2248 -0.1770 -0.1098
  349loPI   GL2 5574   1.831   0.653  10.702 -0.0185  0.2337 -0.0831
  349loPI   C1A 5575   1.468   1.128  10.372 -0.1440  0.0546  0.1220
  349loPI   C2A 5576   1.533   1.065   9.948 -0.1765  0.0334  0.0592
  349loPI   C3A 5577   1.625   0.988   9.527  0.1196 -0.0775  0.1828
  349loPI   C4A 5578   1.710   0.869   9.134  0.1429 -0.0238 -0.1006
  349loPI   C5A 5579   1.853   0.586   8.898 -0.0212  0.1027 -0.0003
  349loPI   C6A 5580   1.999   0.287   8.553 -0.1775  0.1028 -0.3850
  349loPI   C1B 5581   1.825   0.813  10.298 -0.4353  0.2225  0.0364
  349loPI   C2B 5582   2.056   0.847   9.935 -0.1837 -0.0798  0.2383
  349loPI   C3B 5583   2.064   0.831   9.480 -0.2259  0.0733  0.2494
  349loPI   C4B 5584   2.320   1.042   9.280  0.0102 -0.0829  0.0522
  350loPI    C1 5585   4.363   8.539  11.043 -0.0621 -0.0531  0.0186
  350loPI    C2 5586   4.629   8.645  11.323 -0.0039  0.4466 -0.2141
  350loPI    C3 5587   4.710   8.342  11.074  0.0100  0.0995  0.2016
  350loPI   PO4 5588   4.299   8.667  10.867 -0.2345 -0.0240  0.0467
  350loPI   GL1 5589   4.137   8.759  10.450  0.3517  0.0502 -0.0164
  350loPI   GL2 5590   4.422   8.790  10.343 -0.0794 -0.1757 -0.2889
  350loPI   C1A 5591   4.024   8.708  10.002 -0.1909 -0.1825 -0.2490
  350loPI   C2A 5592   4.178   8.930   9.597  0.0798 -0.0495 -0.0275
  350loPI   C3A 5593   4.101   9.091   9.117 -0.1352  0.2903 -0.0394
  350loPI   C4A 5594   3.956   9.373   8.764 -0.2853  0.0002 -0.0214
  350loPI   C5A 5595   3.935   9.453   8.355 -0.2519  0.5112 -0.3062
  350loPI   C6A 5596   3.682   9.597   7.985 -0.1524  0.0280  0.0920
  350loPI   C1B 5597   4.599   8.916  10.033 -0.1592  0.1161  0.2813
  350loPI   C2B 5598   4.730   8.918   9.588 -0.0093  0.3091 -0.1361
  350loPI   C3B 5599   4.791   8.679   9.196 -0.1317  0.0374 -0.0032
  350loPI   C4B 5600   4.987   8.688   8.801 -0.3444 -0.0281 -0.2165
  351loPI    C1 5601  10.573  13.894  12.011  0.0276 -0.0801  0.0325
  351loPI    C2 5602  10.726  14.192  12.230  0.0269 -0.0530 -0.0039
  351loPI    C3 5603  10.592  13.860  12.410 -0.3235  0.1241  0.0702
  351loPI   PO4 5604  10.710  13.882  11.854 -0.1399  0.1393  0.0337
  351loPI   GL1 5605  10.762  13.755  11.434 -0.1095  0.0677  0.1568
  351loPI   GL2 5606  11.102  13.613  11.268 -0.1252 -0.2409 -0.4839
  351loPI   C1A 5607  10.681  13.707  11.022 -0.0804 -0.2020  0.1484
  351loPI   C2A 5608  10.728  13.653  10.580  0.3717 -0.3938  0.1308
  351loPI   C3A 5609  10.797  13.715  10.117  0.3959 -0.2794 -0.0629
  351loPI   C4A 5610  10.862  13.621   9.669  0.1273  0.0806 -0.1228
  351loPI   C5A 5611  10.700  13.826   9.280  0.0908 -0.0838  0.0747
  351loPI   C6A 5612  10.711  13.397   8.965 -0.2174 -0.0056  0.0523
  351loPI   C1B 5613  11.239  13.721  10.894  0.0887 -0.1688 -0.0743
  351loPI   C2B 5614  11.232  13.866  10.381  0.0594 -0.3472  0.1955
  351loPI   C3B 5615  11.331  13.742   9.994 -0.1532 -0.0548  0.2406
  351loPI   C4B 5616  11.446  13.752   9.490 -0.0988 -0.0113 -0.1521
  352loPI    C1 5617  13.282   9.627  11.770 -0.1189  0.0322 -0.0568
  352loPI    C2 5618  13.308   9.250  11.899  0.2202 -0.0026 -0.2170
  352loPI    C3 5619  13.053   9.503  12.073  0.1074 -0.2598 -0.0012
  352loPI   PO4 5620  13.335   9.574  11.513  0.0891 -0.2678  0.0710
  352loPI   GL1 5621  13.076   9.460  11.158  0.3269 -0.2662  0.0647
  352loPI   GL2 5622  12.882   9.289  11.028 -0.0029 -0.2317  0.3019
  352loPI   C1A 5623  13.032   9.498  10.589 -0.1922 -0.1314  0.2533
  352loPI   C2A 5624  13.029   9.434  10.121 -0.1111 -0.0746  0.0455
  352loPI   C3A 5625  13.020   9.408   9.721 -0.1408  0.0789 -0.1191
  352loPI   C4A 5626  13.153   9.378   9.329  0.0078  0.3708 -0.0691
  352loPI   C5A 5627  13.641   9.530   9.129  0.3146 -0.1588 -0.1445
  352loPI   C6A 5628  14.041   9.528   9.123  0.1183  0.0290  0.0404
  352loPI   C1B 5629  12.906   9.013  10.603 -0.3191 -0.0978 -0.1092
  352loPI   C2B 5630  12.897   8.936  10.101  0.0642 -0.0216 -0.0152
  352loPI   C3B 5631  12.911   8.934   9.656  0.0352 -0.0954  0.0343
  352loPI   C4B 5632  12.803   8.924   9.234 -0.1711  0.1128 -0.1132
  353loPI    C1 5633  10.211   4.156  11.123 -0.2547 -0.3019  0.3127
  353loPI    C2 5634  10.596   4.157  11.231 -0.1245  0.0061 -0.1266
  353loPI    C3 5635  10.474   3.929  10.926 -0.2744 -0.0235 -0.0456
  353loPI   PO4 5636  10.137   4.405  11.126 -0.1211 -0.1690 -0.0734
  353loPI   GL1 5637  10.228   4.788  10.833 -0.2186  0.0459 -0.2221
  353loPI   GL2 5638  10.378   4.397  10.721  0.0666 -0.1852  0.3198
  353loPI   C1A 5639  10.561   4.783  10.442 -0.0343  0.1390  0.0448
  353loPI   C2A 5640  10.534   4.743   9.988 -0.1643 -0.2064 -0.2821
  353loPI   C3A 5641  10.612   4.822   9.623 -0.2170  0.2477 -0.2480
  353loPI   C4A 5642  10.664   4.760   9.187 -0.0095 -0.0194  0.2971
  353loPI   C5A 5643  10.667   4.759   8.787  0.0749 -0.0454  0.1135
  353loPI   C6A 5644  10.254   4.699   8.708  0.3156 -0.2491  0.0384
  353loPI   C1B 5645  10.326   4.255  10.350 -0.1598 -0.2104  0.2355
  353loPI   C2B 5646  10.442   4.258   9.905  0.1109 -0.0483 -0.1816
  353loPI   C3B 5647  10.494   4.313   9.481 -0.2101 -0.2176  0.3085
  353loPI   C4B 5648  10.343   4.381   9.081 -0.2795 -0.1012 -0.2683
  354loPI    C1 5649  14.037   7.290  11.787 -0.1433 -0.2155  0.1386
  354loPI    C2 5650  13.944   6.945  11.968 -0.1848 -0.1574  0.2291
  354loPI    C3 5651  14.200   7.199  12.141  0.1467 -0.3150 -0.0169
  354loPI   PO4 5652  13.853   7.401  11.667 -0.2171  0.1611 -0.0271
  354loPI   GL1 5653  13.642   7.503  11.398  0.1054 -0.1257  0.2761
  354loPI   GL2 5654  13.772   7.669  11.236 -0.3392  0.1253  0.1348
  354loPI   C1A 5655  13.525   7.694  10.833  0.0985 -0.1482  0.0664
  354loPI   C2A 5656  13.391   7.737  10.421  0.2213  0.0235  0.2632
  354loPI   C3A 5657  13.240   7.692  10.016 -0.0618  0.1354 -0.0447
  354loPI   C4A 5658  13.382   7.715   9.673  0.0398  0.1196 -0.0664
  354loPI   C5A 5659  13.304   7.597   9.336  0.2099 -0.0598 -0.0579
  354loPI   C6A 5660  13.230   7.670   8.957 -0.2744 -0.1316  0.0553
  354loPI   C1B 5661  13.884   7.397  10.921  0.0174  0.0187  0.2648
  354loPI   C2B 5662  13.817   7.322  10.490  0.0231 -0.1472  0.1212
  354loPI   C3B 5663  13.728   7.247  10.075  0.2917  0.0773  0.0749
  354loPI   C4B 5664  13.680   7.319   9.628  0.3689  0.1653  0.0017
  355loPI    C1 5665   1.448   1.705  11.292  0.0481  0.0653 -0.0631
  355loPI    C2 5666   1.720   1.885  11.524 -0.0266  0.3770 -0.2123
  355loPI    C3 5667   1.564   1.534  11.635  0.1059  0.4118  0.0948
  355loPI   PO4 5668   1.480   1.798  11.077  0.1580  0.2346 -0.2785
  355loPI   GL1 5669   1.559   1.973  10.671 -0.2153  0.0898  0.0029
  355loPI   GL2 5670   1.208   1.946  10.601  0.1103  0.0317  0.2673
  355loPI   C1A 5671   1.594   1.630  10.373 -0.0141  0.3953 -0.0115
  355loPI   C2A 5672   1.576   1.613   9.949 -0.2978 -0.1688 -0.0525
  355loPI   C3A 5673   1.448   1.524   9.536  0.1504  0.1573 -0.0214
  355loPI   C4A 5674   1.696   1.369   9.135  0.2037  0.2509  0.0170
  355loPI   C5A 5675   2.006   1.250   8.928  0.0826 -0.0331 -0.1891
  355loPI   C6A 5676   2.444   1.202   8.782  0.0968 -0.1024 -0.1055
  355loPI   C1B 5677   1.279   2.020  10.163 -0.0978  0.1646 -0.0832
  355loPI   C2B 5678   1.354   2.011   9.794  0.1332  0.1338  0.2905
  355loPI   C3B 5679   1.320   1.972   9.371 -0.5751 -0.1095 -0.2260
  355loPI   C4B 5680   1.396   1.756   9.015 -0.0931 -0.0028 -0.5837
  356loPI    C1 5681   4.932   2.067  11.376 -0.1157  0.1080 -0.0445
  356loPI    C2 5682   5.029   1.895  11.724 -0.1488  0.2323  0.0268
  356loPI    C3 5683   5.181   2.252  11.628 -0.2833  0.2818 -0.0043
  356loPI   PO4 5684   4.655   2.148  11.309 -0.5994  0.0680  0.1102
  356loPI   GL1 5685   4.480   2.126  10.880  0.2092  0.1073  0.3847
  356loPI   GL2 5686   4.766   2.260  10.889 -0.1639 -0.1129  0.1234
  356loPI   C1A 5687   4.330   2.059  10.468  0.2562 -0.3865  0.2415
  356loPI   C2A 5688   4.188   2.074   9.981 -0.0348 -0.1437 -0.1370
  356loPI   C3A 5689   4.223   2.187   9.562 -0.0293  0.2420  0.3895
  356loPI   C4A 5690   4.474   2.068   9.245 -0.0708 -0.5319 -0.2225
  356loPI   C5A 5691   4.393   1.848   8.834  0.1371  0.0788  0.0689
  356loPI   C6A 5692   4.660   1.622   8.461  0.1717 -0.1608  0.3270
  356loPI   C1B 5693   4.674   2.375  10.512 -0.0991 -0.1059 -0.0587
  356loPI   C2B 5694   4.647   2.485  10.115  0.0010  0.0256  0.0807
  356loPI   C3B 5695   4.662   2.442   9.683 -0.1062 -0.0167  0.3164
  356loPI   C4B 5696   4.716   2.525   9.234  0.1030  0.4182 -0.0182
  357loPI    C1 5697   6.428   5.636  10.948 -0.1489 -0.1198  0.0192
  357loPI    C2 5698   6.338   5.964  11.160 -0.0446  0.1083 -0.2822
  357loPI    C3 5699   6.190   5.608  11.268 -0.3015  0.2813 -0.0532
  357loPI   PO4 5700   6.364   5.616  10.662 -0.1138  0.1301  0.4085
  357loPI   GL1 5701   6.384   5.440  10.283 -0.0393 -0.0326 -0.2391
  357loPI   GL2 5702   6.223   5.669  10.186  0.2248 -0.3223 -0.0243
  357loPI   C1A 5703   6.397   5.304   9.912  0.3537  0.0418 -0.0308
  357loPI   C2A 5704   6.367   5.213   9.494  0.0723  0.2623 -0.1831
  357loPI   C3A 5705   6.479   5.229   9.026 -0.1373  0.1580 -0.1455
  357loPI   C4A 5706   6.376   4.963   8.744 -0.2044 -0.1749  0.0428
  357loPI   C5A 5707   6.343   4.889   8.293  0.1996  0.4366 -0.1107
  357loPI   C6A 5708   6.660   4.700   8.070 -0.0162 -0.0473 -0.0036
  357loPI   C1B 5709   6.406   5.794   9.864  0.2979 -0.0074 -0.2584
  357loPI   C2B 5710   6.420   5.700   9.430 -0.0933  0.2332 -0.0698
  357loPI   C3B 5711   6.317   5.707   9.096 -0.0465 -0.0054 -0.0032
  357loPI   C4B 5712   5.866   5.691   8.986  0.1963  0.0626  0.0024
  358loPI    C1 5713  14.282   4.390  11.376  0.1343 -0.1327  0.2597
  358loPI    C2 5714  14.520   4.109  11.222  0.0076 -0.0994 -0.0023
  358loPI    C3 5715  14.280   4.021  11.529  0.1754 -0.1993  0.1019
  358loPI   PO4 5716  14.215   4.449  11.029  0.0779 -0.0437  0.1937
  358loPI   GL1 5717  14.420   4.491  10.745  0.0311  0.0957 -0.1229
  358loPI   GL2 5718  14.656   4.250  10.737  0.0571  0.0405  0.0850
  358loPI   C1A 5719  14.458   4.556  10.307 -0.0418 -0.1018 -0.1438
  358loPI   C2A 5720  14.314   4.562   9.987 -0.2129  0.4132  0.2248
  358loPI   C3A 5721  14.336   4.507   9.508 -0.1190  0.2888 -0.0522
  358loPI   C4A 5722  14.385   4.600   9.073  0.0343  0.0418 -0.2076
  358loPI   C5A 5723  14.728   4.473   8.882  0.2070 -0.0507 -0.0970
  358loPI   C6A 5724  14.992   4.124   8.848  0.3982  0.0149 -0.3655
  358loPI   C1B 5725  14.654   4.099  10.373 -0.1312 -0.1212 -0.0480
  358loPI   C2B 5726  14.637   4.171   9.947 -0.1987  0.0421 -0.2346
  358loPI   C3B 5727  14.761   4.231   9.552 -0.1101 -0.1420 -0.2565
  358loPI   C4B 5728  14.648   4.078   9.187 -0.1168 -0.1371 -0.2049
  359loPI    C1 5729   3.454   6.017  10.958 -0.0602  0.1596  0.0719
  359loPI    C2 5730   3.166   6.151  11.201 -0.1620  0.0023  0.0394
  359loPI    C3 5731   3.432   6.406  11.045 -0.1543  0.1176  0.2390
  359loPI   PO4 5732   3.440   5.896  10.744 -0.2073  0.3376 -0.0632
  359loPI   GL1 5733   3.350   5.878  10.355 -0.4719  0.1166 -0.2069
  359loPI   GL2 5734   3.117   6.016  10.225  0.1297  0.1860 -0.3194
  359loPI   C1A 5735   3.426   5.632  10.014  0.1651 -0.1135 -0.1227
  359loPI   C2A 5736   3.416   5.616   9.585  0.1007 -0.1265  0.0378
  359loPI   C3A 5737   3.495   5.603   9.160  0.1623 -0.1191  0.0811
  359loPI   C4A 5738   3.353   5.835   8.756  0.0225  0.0364 -0.2165
  359loPI   C5A 5739   2.995   5.994   8.414 -0.3126  0.2110 -0.0695
  359loPI   C6A 5740   2.616   6.128   8.146 -0.1236 -0.0266 -0.1796
  359loPI   C1B 5741   3.111   5.981   9.789  0.0416 -0.0080 -0.1525
  359loPI   C2B 5742   3.132   5.959   9.305  0.0730  0.1128 -0.0796
  359loPI   C3B 5743   2.973   6.084   8.970 -0.1119  0.1029  0.3354
  359loPI   C4B 5744   2.857   6.354   8.745 -0.0954  0.1594  0.0242
  360loPI    C1 5745  16.284  15.843  11.787  0.0300  0.1336  0.0700
  360loPI    C2 5746  16.006  15.871  12.073 -0.1183  0.2566 -0.0839
  360loPI    C3 5747  16.377  15.752  12.165 -0.3112 -0.2532  0.0677
  360loPI   PO4 5748  16.057  15.767  11.503  0.0972 -0.2822  0.0687
  360loPI   GL1 5749  15.666  15.616  11.188  0.3149  0.2052  0.4186
  360loPI   GL2 5750  15.895  15.298  11.325  0.3081  0.0470  0.2570
  360loPI   C1A 5751  15.713  15.664  10.786 -0.1104 -0.1370  0.1611
  360loPI   C2A 5752  15.528  15.825  10.450 -0.1567 -0.1421  0.0692
  360loPI   C3A 5753  15.398  15.810  10.000  0.0339 -0.2606 -0.0703
  360loPI   C4A 5754  15.387  15.897   9.658 -0.3185  0.3069 -0.4556
  360loPI   C5A 5755  15.414  15.905   9.236 -0.0394 -0.0571  0.1201
  360loPI   C6A 5756  15.278  15.743   8.808  0.0037  0.2159 -0.0782
  360loPI   C1B 5757  16.058  15.228  10.962 -0.1052 -0.1980 -0.1314
  360loPI   C2B 5758  16.049  15.337  10.453 -0.1081 -0.0774  0.2466
  360loPI   C3B 5759  15.778  15.489  10.131  0.3206  0.3527 -0.0077
  360loPI   C4B 5760  15.716  15.482   9.692  0.0675 -0.3296 -0.1523
  361loPI    C1 5761  10.815   0.325  11.136 -0.1592 -0.1922 -0.0245
  361loPI    C2 5762  10.533   0.306  11.418  0.1078  0.1216  0.2727
  361loPI    C3 5763  10.902   0.427  11.513  0.2323  0.1225 -0.1922
  361loPI   PO4 5764  10.848   0.093  10.978  0.3454  0.3526  0.1059
  361loPI   GL1 5765  11.094   0.056  10.623 -0.0920  0.1376 -0.3258
  361loPI   GL2 5766  11.299   0.311  10.819 -0.1302  0.0736 -0.2248
  361loPI   C1A 5767  11.062  -0.187  10.318  0.0373 -0.1275 -0.1368
  361loPI   C2A 5768  11.184  -0.316   9.892 -0.2108 -0.0430 -0.0263
  361loPI   C3A 5769  11.281  -0.292   9.552  0.1839  0.1041 -0.1000
  361loPI   C4A 5770  11.310  -0.205   9.139  0.1450  0.2367 -0.3262
  361loPI   C5A 5771  11.196  -0.370   8.797 -0.2125 -0.0657  0.0318
  361loPI   C6A 5772  10.976  -0.405   8.556 -0.0069 -0.2255  0.2706
  361loPI   C1B 5773  11.281   0.457  10.475  0.1872 -0.1199  0.0890
  361loPI   C2B 5774  11.366   0.225  10.132  0.1087 -0.0464  0.0835
  361loPI   C3B 5775  11.424   0.170   9.675  0.1287 -0.2433  0.0082
  361loPI   C4B 5776  11.525   0.203   9.344  0.2534 -0.2312 -0.3272
  362loPI    C1 5777  17.250   7.810  11.696  0.0505  0.3208 -0.0740
  362loPI    C2 5778  17.457   7.812  11.354  0.1816  0.0956  0.0021
  362loPI    C3 5779  17.639   7.719  11.698 -0.0519 -0.1392  0.0647
  362loPI   PO4 5780  17.083   8.062  11.633  0.1730  0.0007  0.3598
  362loPI   GL1 5781  17.067   8.110  11.173 -0.0928 -0.0661  0.0308
  362loPI   GL2 5782  17.227   7.922  10.955 -0.0348  0.0180  0.0899
  362loPI   C1A 5783  16.674   8.186  10.933 -0.2201 -0.0833 -0.0768
  362loPI   C2A 5784  16.529   8.189  10.514 -0.1301 -0.2277  0.2969
  362loPI   C3A 5785  16.526   8.288  10.071 -0.0525 -0.1148  0.1038
  362loPI   C4A 5786  16.522   8.229   9.597  0.0152 -0.2255  0.0319
  362loPI   C5A 5787  16.676   8.305   9.116 -0.0886  0.0867  0.3882
  362loPI   C6A 5788  16.702   8.192   8.728 -0.0459 -0.1835  0.1155
  362loPI   C1B 5789  17.159   8.326  10.697 -0.1037 -0.4172 -0.0566
  362loPI   C2B 5790  16.987   8.388  10.287 -0.4709 -0.4188 -0.1085
  362loPI   C3B 5791  16.969   8.344   9.859 -0.0493  0.0432 -0.1419
  362loPI   C4B 5792  17.087   8.243   9.424  0.1155 -0.2735 -0.2279
  363loPI    C1 5793  10.741   9.254  11.675 -0.0731  0.3310 -0.1705
  363loPI    C2 5794  10.600   9.299  12.046 -0.2036 -0.1227 -0.1590
  363loPI    C3 5795  10.933   9.087  11.983 -0.1056  0.0673 -0.2897
  363loPI   PO4 5796  10.739   9.417  11.530 -0.2574  0.2106 -0.0059
  363loPI   GL1 5797  11.065   9.411  11.194 -0.1464 -0.1671  0.2604
  363loPI   GL2 5798  11.038   9.120  11.131 -0.0443 -0.0254 -0.2117
  363loPI   C1A 5799  11.131   9.492  10.769  0.1328 -0.2542  0.1442
  363loPI   C2A 5800  11.037   9.575  10.349  0.0110 -0.0264  0.4534
  363loPI   C3A 5801  11.137   9.546   9.979 -0.1492  0.0194  0.0654
  363loPI   C4A 5802  11.080   9.560   9.625 -0.1598 -0.2403 -0.0218
  363loPI   C5A 5803  11.273   9.692   9.292  0.2059 -0.1334  0.0422
  363loPI   C6A 5804  11.534   9.533   8.889  0.4096 -0.2743 -0.1601
  363loPI   C1B 5805  10.947   9.024  10.721  0.2579  0.2116  0.4729
  363loPI   C2B 5806  10.907   9.112  10.341  0.1150 -0.1767 -0.0206
  363loPI   C3B 5807  10.949   9.068   9.893  0.3419  0.0002  0.1251
  363loPI   C4B 5808  11.045   9.084   9.406  0.1475 -0.0331 -0.0239
  364loPI    C1 5809   9.230   0.846  11.293 -0.2330 -0.0329  0.0499
  364loPI    C2 5810   9.503   0.604  11.458 -0.2054  0.0270  0.0924
  364loPI    C3 5811   9.414   0.953  11.631 -0.2274  0.0586  0.0179
  364loPI   PO4 5812   9.302   0.842  11.054 -0.0072  0.0398 -0.0943
  364loPI   GL1 5813   9.477   0.758  10.720  0.0574 -0.0761 -0.2145
  364loPI   GL2 5814   9.314   0.458  10.511  0.2283  0.1247  0.0204
  364loPI   C1A 5815   9.527   0.888  10.351 -0.2259 -0.1463  0.0162
  364loPI   C2A 5816   9.564   0.852   9.968 -0.2438  0.1244 -0.0678
  364loPI   C3A 5817   9.659   0.833   9.466  0.2035 -0.0703  0.2292
  364loPI   C4A 5818   9.697   0.919   9.098 -0.2552 -0.0053 -0.1102
  364loPI   C5A 5819   9.514   0.720   8.758  0.2112 -0.0409 -0.1032
  364loPI   C6A 5820   9.342   0.343   8.543 -0.1126 -0.0791 -0.1458
  364loPI   C1B 5821   9.411   0.401  10.155  0.0781 -0.1280 -0.1176
  364loPI   C2B 5822   9.385   0.445   9.692 -0.1118 -0.3154  0.3590
  364loPI   C3B 5823   9.381   0.470   9.309 -0.1154  0.2719  0.4091
  364loPI   C4B 5824   9.571   0.148   8.971  0.0676  0.0226 -0.3792
  365loPI    C1 5825  11.180   5.940  11.759  0.1656 -0.0102  0.0135
  365loPI    C2 5826  10.821   5.987  11.928  0.0931  0.0071 -0.1433
  365loPI    C3 5827  11.135   6.196  12.062  0.0050  0.1297 -0.1269
  365loPI   PO4 5828  11.111   5.730  11.585 -0.1047  0.0075  0.0158
  365loPI   GL1 5829  11.104   5.696  11.122  0.0480 -0.2006  0.0917
  365loPI   GL2 5830  10.884   5.867  10.997 -0.1191 -0.2461 -0.1465
  365loPI   C1A 5831  11.291   5.838  10.711  0.0686  0.0279  0.0941
  365loPI   C2A 5832  11.331   5.854  10.312  0.1370 -0.0217  0.1302
  365loPI   C3A 5833  11.442   5.903   9.866 -0.3235  0.0182  0.1796
  365loPI   C4A 5834  11.329   5.941   9.456 -0.1871  0.0181  0.0457
  365loPI   C5A 5835  11.373   5.944   9.019 -0.3027  0.1159 -0.0471
  365loPI   C6A 5836  11.339   6.303   8.816  0.1130  0.0966 -0.2667
  365loPI   C1B 5837  10.791   5.736  10.620 -0.0451 -0.1701 -0.1389
  365loPI   C2B 5838  10.832   5.692  10.256 -0.0248  0.2042  0.0457
  365loPI   C3B 5839  10.906   5.800   9.874 -0.0735 -0.0457 -0.3500
  365loPI   C4B 5840  10.843   5.858   9.448 -0.1072 -0.0006  0.1052
  366loPI    C1 5841   9.645   2.092  11.085  0.1463 -0.2425  0.2075
  366loPI    C2 5842   9.418   1.768  11.027 -0.1556  0.0248 -0.1515
  366loPI    C3 5843   9.419   1.950  11.383 -0.1966 -0.2080 -0.0303
  366loPI   PO4 5844   9.869   1.999  10.870 -0.0918  0.0508  0.2458
  366loPI   GL1 5845   9.822   2.151  10.341 -0.0922  0.0797  0.0393
  366loPI   GL2 5846  10.013   1.927  10.351 -0.0122  0.1273 -0.2736
  366loPI   C1A 5847   9.976   2.408  10.070  0.0948  0.0376 -0.1022
  366loPI   C2A 5848  10.176   2.439   9.632  0.1376  0.1378 -0.4557
  366loPI   C3A 5849  10.385   2.416   9.257  0.0879  0.0086  0.1784
  366loPI   C4A 5850  10.478   2.499   8.759  0.0597 -0.2273  0.1118
  366loPI   C5A 5851  10.245   2.628   8.484  0.0250  0.4417 -0.1632
  366loPI   C6A 5852   9.835   2.580   8.431  0.0612  0.0364 -0.1589
  366loPI   C1B 5853   9.992   1.961   9.875 -0.1742  0.0578  0.1489
  366loPI   C2B 5854  10.099   1.927   9.463 -0.0199  0.0719 -0.1910
  366loPI   C3B 5855  10.049   2.001   9.044 -0.0990  0.0073 -0.2299
  366loPI   C4B 5856   9.767   2.099   8.793 -0.0355  0.1171 -0.0707
  367loPI    C1 5857   8.291  16.375  11.472 -0.0645 -0.0359  0.1119
  367loPI    C2 5858   7.934  16.504  11.599 -0.1007 -0.0197 -0.0050
  367loPI    C3 5859   8.268  16.646  11.765 -0.1405  0.2183 -0.1242
  367loPI   PO4 5860   8.289  16.374  11.220  0.1134 -0.0270  0.0461
  367loPI   GL1 5861   8.262  16.593  10.775 -0.1789  0.1043 -0.2938
  367loPI   GL2 5862   7.897  16.560  10.760 -0.3698 -0.0880 -0.3318
  367loPI   C1A 5863   8.325  16.558  10.343  0.1148  0.1959  0.3366
  367loPI   C2A 5864   8.420  16.558   9.923 -0.1352 -0.0011  0.0978
  367loPI   C3A 5865   8.455  16.602   9.520  0.0859  0.1993 -0.0346
  367loPI   C4A 5866   8.658  16.508   9.025 -0.1882  0.2836 -0.1528
  367loPI   C5A 5867   9.149  16.509   8.959  0.0389 -0.2745 -0.1281
  367loPI   C6A 5868   9.538  16.652   8.790  0.0067 -0.0512  0.1434
  367loPI   C1B 5869   7.868  16.720  10.378 -0.2670  0.1325  0.1622
  367loPI   C2B 5870   7.974  16.776   9.852 -0.3039 -0.1697  0.0222
  367loPI   C3B 5871   7.952  16.952   9.401  0.3337 -0.0809 -0.2403
  367loPI   C4B 5872   7.993  17.280   9.108  0.0609 -0.0669  0.0716
  368loPI    C1 5873   1.196   5.930  11.029 -0.0371  0.1357  0.1561
  368loPI    C2 5874   1.035   5.564  11.031  0.1155  0.0650 -0.1006
  368loPI    C3 5875   1.352   5.645  11.262  0.1235  0.0158 -0.0942
  368loPI   PO4 5876   1.167   6.026  10.766 -0.0148 -0.4002  0.0695
  368loPI   GL1 5877   0.957   6.373  10.564  0.2323  0.0479  0.1056
  368loPI   GL2 5878   1.120   6.441  10.278 -0.0740 -0.0511  0.0738
  368loPI   C1A 5879   0.692   6.239  10.177  0.1113 -0.0021 -0.0226
  368loPI   C2A 5880   0.701   6.234   9.722 -0.0454 -0.1995 -0.2996
  368loPI   C3A 5881   0.726   6.303   9.220 -0.2826 -0.3283 -0.1370
  368loPI   C4A 5882   0.778   6.392   8.862  0.3235 -0.1853  0.0925
  368loPI   C5A 5883   1.043   6.534   8.483 -0.1244  0.0999  0.1592
  368loPI   C6A 5884   1.347   6.839   8.500  0.0011 -0.0274  0.0281
  368loPI   C1B 5885   1.130   6.411   9.791 -0.3689  0.0107 -0.1057
  368loPI   C2B 5886   1.218   6.459   9.395  0.2400 -0.2006  0.3047
  368loPI   C3B 5887   1.323   6.390   8.909  0.2286  0.1375  0.3060
  368loPI   C4B 5888   1.512   6.331   8.530 -0.1580 -0.0965 -0.4079
  369loPI    C1 5889  15.614   7.368  11.565  0.1073  0.0932 -0.0766
  369loPI    C2 5890  15.405   7.382  11.906  0.0843 -0.1280 -0.0797
  369loPI    C3 5891  15.729   7.612  11.860 -0.0389  0.0652  0.0048
  369loPI   PO4 5892  15.395   7.463  11.398 -0.0371 -0.4130 -0.1444
  369loPI   GL1 5893  15.292   7.500  10.963  0.0205  0.0900 -0.3876
  369loPI   GL2 5894  15.650   7.595  10.973 -0.1933  0.0876  0.0477
  369loPI   C1A 5895  15.389   7.464  10.466 -0.2271  0.0526 -0.0509
  369loPI   C2A 5896  15.375   7.549  10.025  0.0319 -0.0650  0.1826
  369loPI   C3A 5897  15.347   7.623   9.647 -0.2454 -0.0367 -0.3890
  369loPI   C4A 5898  15.304   7.705   9.193  0.0987 -0.2945  0.2330
  369loPI   C5A 5899  15.276   8.097   8.933 -0.1269 -0.1398  0.2960
  369loPI   C6A 5900  14.866   8.235   8.975  0.3156  0.1305 -0.2668
  369loPI   C1B 5901  15.865   7.598  10.627  0.1876 -0.1039  0.0391
  369loPI   C2B 5902  15.874   7.519  10.196  0.0408 -0.2954  0.2401
  369loPI   C3B 5903  15.865   7.714   9.755  0.0688 -0.1142 -0.2248
  369loPI   C4B 5904  15.939   7.587   9.365  0.1474 -0.0736 -0.1606
  370loPI    C1 5905   9.833  17.166  11.283  0.2333  0.0055 -0.0553
  370loPI    C2 5906   9.963  17.174  11.661  0.0805 -0.0052 -0.0017
  370loPI    C3 5907   9.718  17.461  11.528  0.1431  0.0048 -0.0962
  370loPI   PO4 5908  10.130  17.141  11.115 -0.2109 -0.4954 -0.1239
  370loPI   GL1 5909  10.263  17.337  10.697 -0.0262  0.0425  0.1115
  370loPI   GL2 5910  10.492  16.947  10.618  0.2968 -0.4595 -0.1438
  370loPI   C1A 5911  10.038  17.267  10.314 -0.1246 -0.0162  0.0238
  370loPI   C2A 5912  10.141  17.260   9.841 -0.0632 -0.0222 -0.2057
  370loPI   C3A 5913  10.293  17.264   9.454  0.3248 -0.3157 -0.0242
  370loPI   C4A 5914  10.291  17.373   9.088  0.1214 -0.0438 -0.1693
  370loPI   C5A 5915  10.018  17.613   8.719 -0.0053  0.1701 -0.2400
  370loPI   C6A 5916   9.577  17.540   8.559 -0.0128  0.3034  0.1978
  370loPI   C1B 5917  10.356  16.899  10.188 -0.0286 -0.0884 -0.3193
  370loPI   C2B 5918  10.441  16.889   9.751  0.0175  0.1146  0.2471
  370loPI   C3B 5919  10.627  16.903   9.436  0.0729  0.3893 -0.0165
  370loPI   C4B 5920  10.589  17.009   9.096  0.0514 -0.0123  0.0426
  371loPI    C1 5921  13.637   5.864  11.425  0.1849  0.2141  0.1435
  371loPI    C2 5922  13.644   5.601  11.727 -0.1077  0.0494  0.0110
  371loPI    C3 5923  13.829   5.954  11.764  0.1052 -0.0864  0.2719
  371loPI   PO4 5924  13.809   5.647  11.231 -0.4072  0.2455  0.2080
  371loPI   GL1 5925  13.978   5.776  10.914  0.0428  0.0793 -0.3262
  371loPI   GL2 5926  14.245   5.734  11.017 -0.1152  0.1692  0.2033
  371loPI   C1A 5927  13.919   5.904  10.509  0.4920  0.0221 -0.0134
  371loPI   C2A 5928  13.811   5.920  10.135  0.1637  0.0661 -0.1525
  371loPI   C3A 5929  13.804   5.905   9.675  0.1217 -0.1202  0.0842
  371loPI   C4A 5930  13.769   5.863   9.164 -0.1345  0.0425  0.1996
  371loPI   C5A 5931  13.825   5.621   8.715  0.4782  0.1290  0.0975
  371loPI   C6A 5932  14.158   5.331   8.430 -0.2678  0.1856  0.1576
  371loPI   C1B 5933  14.388   5.916  10.575  0.1755 -0.4074 -0.2060
  371loPI   C2B 5934  14.332   5.977  10.243  0.1112  0.0233  0.1600
  371loPI   C3B 5935  14.308   6.011   9.785  0.0081  0.0866 -0.0330
  371loPI   C4B 5936  14.213   5.974   9.427 -0.1110 -0.0225  0.2476
  372loPI    C1 5937   0.415   9.251  11.354 -0.1199  0.1964 -0.3921
  372loPI    C2 5938   0.119   9.343  11.606  0.0812 -0.1389 -0.0231
  372loPI    C3 5939   0.402   9.613  11.524  0.1565 -0.1093  0.3183
  372loPI   PO4 5940   0.315   9.118  11.157  0.2553  0.0656  0.0691
  372loPI   GL1 5941   0.206   8.856  10.866 -0.1121  0.1373  0.0096
  372loPI   GL2 5942   0.292   8.567  10.822 -0.1147 -0.0182 -0.2638
  372loPI   C1A 5943   0.078   9.005  10.429  0.0976 -0.1858 -0.2175
  372loPI   C2A 5944   0.021   8.854  10.028  0.0105  0.2136  0.1273
  372loPI   C3A 5945   0.059   9.005   9.661 -0.2037 -0.3933  0.2881
  372loPI   C4A 5946   0.026   8.841   9.261 -0.2070 -0.1065  0.0026
  372loPI   C5A 5947  -0.255   8.873   8.920 -0.1218 -0.2003 -0.4246
  372loPI   C6A 5948  -0.472   9.096   8.456  0.2009  0.1179 -0.1810
  372loPI   C1B 5949  -0.091   8.497  10.547 -0.2116  0.1506 -0.2572
  372loPI   C2B 5950  -0.248   8.395  10.057 -0.0483  0.0602 -0.1099
  372loPI   C3B 5951  -0.138   8.528   9.622 -0.5191 -0.0593  0.0074
  372loPI   C4B 5952  -0.162   8.363   9.211  0.1034  0.0972 -0.0367
  373loPI    C1 5953  13.225   8.706  11.935  0.1158 -0.0768 -0.0924
  373loPI    C2 5954  13.082   8.951  12.218 -0.1616 -0.1797 -0.1401
  373loPI    C3 5955  13.475   8.874  12.199 -0.1021  0.0723  0.0220
  373loPI   PO4 5956  13.031   8.690  11.741  0.2081  0.0287 -0.3203
  373loPI   GL1 5957  13.045   8.728  11.197  0.0190  0.1341  0.1604
  373loPI   GL2 5958  13.378   8.743  11.177  0.0395  0.3351 -0.2255
  373loPI   C1A 5959  13.164   8.626  10.756  0.1618 -0.1575 -0.4131
  373loPI   C2A 5960  13.143   8.538  10.287 -0.2334  0.1710 -0.3925
  373loPI   C3A 5961  13.196   8.534   9.756  0.3721 -0.1414  0.0653
  373loPI   C4A 5962  13.179   8.554   9.289 -0.0274  0.1268 -0.0527
  373loPI   C5A 5963  13.016   8.655   8.859  0.0425 -0.3364  0.0510
  373loPI   C6A 5964  12.715   8.767   8.617  0.1217  0.1305  0.2088
  373loPI   C1B 5965  13.313   9.135  10.826  0.0351  0.0007 -0.1306
  373loPI   C2B 5966  13.362   8.972  10.391  0.2931  0.0896  0.0190
  373loPI   C3B 5967  13.359   9.025   9.923 -0.5411 -0.1991  0.1280
  373loPI   C4B 5968  13.405   8.942   9.566  0.0958  0.0619  0.1434
  374loPI    C1 5969  12.294   0.460  11.552 -0.0885  0.2540  0.0160
  374loPI    C2 5970  11.897   0.471  11.600 -0.0700  0.2328  0.1820
  374loPI    C3 5971  12.117   0.219  11.818 -0.0305 -0.2385 -0.3775
  374loPI   PO4 5972  12.327   0.464  11.212  0.1890 -0.0371 -0.0307
  374loPI   GL1 5973  12.216   0.649  10.745 -0.1790 -0.1766 -0.2376
  374loPI   GL2 5974  12.022   0.844  10.565 -0.0943 -0.2634  0.0848
  374loPI   C1A 5975  12.439   0.538  10.329 -0.0016 -0.4571  0.2996
  374loPI   C2A 5976  12.341   0.546   9.857 -0.1279 -0.0066 -0.0487
  374loPI   C3A 5977  12.400   0.472   9.412  0.0051  0.0892  0.2590
  374loPI   C4A 5978  12.323   0.579   8.900  0.1071  0.0449 -0.1304
  374loPI   C5A 5979  12.451   0.944   8.535  0.0637  0.1231 -0.0884
  374loPI   C6A 5980  12.363   1.139   8.214 -0.0216  0.2552 -0.1357
  374loPI   C1B 5981  11.982   0.760  10.122  0.1010 -0.0328  0.0057
  374loPI   C2B 5982  12.046   0.916   9.700  0.3636 -0.0073 -0.1599
  374loPI   C3B 5983  12.030   0.861   9.268  0.0283  0.0693 -0.1051
  374loPI   C4B 5984  11.944   0.959   8.791  0.0580 -0.2981 -0.0478
  375loPI    C1 5985  10.162  16.345  11.329 -0.0104  0.0044 -0.2037
  375loPI    C2 5986  10.146  16.735  11.417 -0.0889 -0.0619  0.0863
  375loPI    C3 5987   9.843  16.494  11.519 -0.0593 -0.1928 -0.1287
  375loPI   PO4 5988  10.215  16.272  11.092  0.3053 -0.0193 -0.0329
  375loPI   GL1 5989  10.352  16.451  10.713  0.0630 -0.1741  0.0446
  375loPI   GL2 5990  10.096  16.714  10.873 -0.1484 -0.0946  0.0704
  375loPI   C1A 5991  10.215  16.290  10.266 -0.3182  0.0250 -0.2029
  375loPI   C2A 5992  10.171  16.345   9.830 -0.1733  0.1193  0.3285
  375loPI   C3A 5993  10.407  16.322   9.379  0.1223  0.3458 -0.1478
  375loPI   C4A 5994  10.497  16.531   9.015  0.1117 -0.0264  0.3360
  375loPI   C5A 5995  10.396  16.831   8.686  0.2842 -0.2022  0.0797
  375loPI   C6A 5996  10.022  17.065   8.565 -0.4093  0.0295  0.0752
  375loPI   C1B 5997   9.965  16.715  10.519  0.0144  0.0455  0.2429
  375loPI   C2B 5998   9.916  16.726  10.086 -0.1235  0.2508 -0.0122
  375loPI   C3B 5999   9.970  16.775   9.590  0.1533  0.0584  0.0822
  375loPI   C4B 6000  10.137  16.845   9.151 -0.0062  0.0579  0.3265
  376loPI    C1 6001  11.937  12.855  11.964  0.1714 -0.1083 -0.0528
  376loPI    C2 6002  11.636  12.917  12.219  0.1149 -0.1143 -0.1177
  376loPI    C3 6003  12.000  13.060  12.301  0.1286 -0.2329  0.0315
  376loPI   PO4 6004  11.835  12.836  11.653 -0.3215  0.0792  0.1293
  376loPI   GL1 6005  11.524  12.772  11.366 -0.0194  0.0443  0.2821
  376loPI   GL2 6006  11.152  12.915  11.382 -0.0422  0.2696  0.1291
  376loPI   C1A 6007  11.672  12.487  11.062 -0.0094  0.1569 -0.0791
  376loPI   C2A 6008  11.712  12.503  10.562  0.0116  0.2386  0.0966
  376loPI   C3A 6009  11.751  12.439  10.131 -0.2546  0.0335 -0.1341
  376loPI   C4A 6010  11.711  12.445   9.696  0.3785 -0.1473 -0.1489
  376loPI   C5A 6011  11.920  12.627   9.323 -0.1562 -0.3052 -0.3186
  376loPI   C6A 6012  12.008  12.995   9.203 -0.0946 -0.1844 -0.1987
  376loPI   C1B 6013  11.256  12.904  10.953 -0.1171  0.2669 -0.2039
  376loPI   C2B 6014  11.401  12.859  10.571  0.0626  0.2642 -0.0740
  376loPI   C3B 6015  11.440  12.867  10.112 -0.2982 -0.3399 -0.0029
  376loPI   C4B 6016  11.406  12.829   9.590 -0.4858 -0.1282 -0.4364
  377loPI    C1 6017   1.528  11.814  11.141  0.1899  0.1558 -0.1587
  377loPI    C2 6018   1.720  11.470  11.072 -0.0064  0.0032  0.0387
  377loPI    C3 6019   1.868  11.733  11.335  0.1263  0.0558 -0.0875
  377loPI   PO4 6020   1.472  11.848  10.818 -0.1321 -0.1335  0.2330
  377loPI   GL1 6021   1.415  11.661  10.432  0.1435  0.0919 -0.1075
  377loPI   GL2 6022   1.527  11.387  10.615 -0.1412 -0.0275  0.2643
  377loPI   C1A 6023   1.347  11.415  10.036 -0.0717 -0.1433 -0.2450
  377loPI   C2A 6024   1.313  11.421   9.591  0.0516 -0.1080 -0.0006
  377loPI   C3A 6025   1.359  11.576   9.248 -0.2643 -0.0190  0.0103
  377loPI   C4A 6026   1.060  11.819   8.899  0.4277 -0.0333  0.1669
  377loPI   C5A 6027   0.699  12.068   8.724 -0.0410  0.0083  0.4935
  377loPI   C6A 6028   0.260  12.234   8.708  0.3475  0.3512  0.1514
  377loPI   C1B 6029   1.779  11.201  10.358  0.1985  0.1640  0.3572
  377loPI   C2B 6030   1.689  11.079   9.893  0.1736 -0.2158  0.0996
  377loPI   C3B 6031   1.635  11.129   9.432  0.1062  0.0884 -0.0749
  377loPI   C4B 6032   1.426  11.157   9.024  0.0648  0.0390  0.1715
  378loPI    C1 6033  10.358   8.567  11.712  0.0364 -0.0766  0.0199
  378loPI    C2 6034  10.341   8.966  11.685  0.0747 -0.0877 -0.1842
  378loPI    C3 6035  10.512   8.794  12.003 -0.1469  0.0557  0.0156
  378loPI   PO4 6036  10.387   8.498  11.402  0.0182  0.0536 -0.4134
  378loPI   GL1 6037  10.296   8.517  11.050  0.0419 -0.0860 -0.0426
  378loPI   GL2 6038  10.668   8.481  10.971 -0.0014  0.1395 -0.0678
  378loPI   C1A 6039  10.215   8.606  10.663  0.2217  0.0655 -0.0181
  378loPI   C2A 6040  10.284   8.335  10.253 -0.1622 -0.0950  0.1015
  378loPI   C3A 6041  10.378   8.510   9.840  0.1625 -0.0918 -0.0311
  378loPI   C4A 6042  10.281   8.473   9.347  0.0911  0.1075  0.1817
  378loPI   C5A 6043  10.428   8.463   8.952 -0.0759  0.1194  0.1025
  378loPI   C6A 6044  10.867   8.490   8.664 -0.2029 -0.1075 -0.0806
  378loPI   C1B 6045  10.792   8.499  10.574  0.0651 -0.1696 -0.1023
  378loPI   C2B 6046  10.797   8.556  10.079 -0.2190 -0.0072  0.1416
  378loPI   C3B 6047  10.797   8.501   9.651  0.1656  0.3129 -0.0445
  378loPI   C4B 6048  10.883   8.496   9.202  0.2663 -0.3091  0.0439
  379loPI    C1 6049  14.181  17.652  11.372 -0.0375 -0.1866 -0.0455
  379loPI    C2 6050  14.349  17.931  11.605  0.0426 -0.1405 -0.1578
  379loPI    C3 6051  13.957  17.854  11.636  0.0849 -0.2594  0.1159
  379loPI   PO4 6052  14.213  17.682  11.138  0.1976  0.2143 -0.0288
  379loPI   GL1 6053  14.176  17.777  10.670 -0.1496  0.2795 -0.1859
  379loPI   GL2 6054  13.868  17.898  10.759 -0.2040  0.2315  0.0489
  379loPI   C1A 6055  14.211  17.596  10.237 -0.0207 -0.3077 -0.2593
  379loPI   C2A 6056  14.053  17.436   9.774 -0.1950  0.3939 -0.2336
  379loPI   C3A 6057  14.139  17.551   9.285  0.0710  0.3018 -0.0782
  379loPI   C4A 6058  14.432  17.491   8.949  0.3273 -0.1244 -0.1085
  379loPI   C5A 6059  14.815  17.162   9.012 -0.3276  0.1158 -0.4056
  379loPI   C6A 6060  15.265  16.908   9.151 -0.0614 -0.0804 -0.2096
  379loPI   C1B 6061  13.830  17.959  10.334 -0.3314 -0.2773 -0.1050
  379loPI   C2B 6062  13.741  17.918   9.924  0.3124  0.0890  0.2834
  379loPI   C3B 6063  13.775  17.906   9.431  0.0154 -0.0878 -0.0511
  379loPI   C4B 6064  13.657  17.787   9.082 -0.0487 -0.0603  0.0593
  380loPI    C1 6065  14.149   2.054  11.330 -0.1872 -0.0628 -0.0500
  380loPI    C2 6066  14.434   2.172  11.585 -0.0464  0.0743 -0.2672
  380loPI    C3 6067  14.072   2.071  11.722  0.0616  0.0369 -0.0035
  380loPI   PO4 6068  14.337   2.093  11.103  0.2484 -0.0183  0.1736
  380loPI   GL1 6069  14.448   1.934  10.787 -0.0135  0.1358  0.2121
  380loPI   GL2 6070  14.266   1.748  10.556 -0.2172 -0.1453  0.0498
  380loPI   C1A 6071  14.534   2.131  10.340  0.0539 -0.0903  0.2281
  380loPI   C2A 6072  14.402   2.234   9.954  0.1747 -0.1966 -0.2311
  380loPI   C3A 6073  14.506   2.254   9.584 -0.2361  0.1171  0.0363
  380loPI   C4A 6074  14.433   2.220   9.198  0.1605 -0.0539  0.2532
  380loPI   C5A 6075  14.654   2.010   8.796  0.2309 -0.0154 -0.1659
  380loPI   C6A 6076  14.775   1.603   8.609  0.1981 -0.0965  0.2261
  380loPI   C1B 6077  14.289   1.757  10.130  0.2855  0.1601 -0.1325
  380loPI   C2B 6078  14.216   1.724   9.726  0.0893 -0.3153 -0.0928
  380loPI   C3B 6079  14.317   1.720   9.285  0.0098  0.0017  0.2711
  380loPI   C4B 6080  14.375   1.495   8.832  0.0596  0.1763 -0.2176
  381loPI    C1 6081  17.459   4.202  11.088  0.1009  0.0742 -0.1866
  381loPI    C2 6082  17.606   4.465  11.350  0.1127 -0.0652 -0.0522
  381loPI    C3 6083  17.806   4.386  11.013  0.1166  0.0860 -0.0859
  381loPI   PO4 6084  17.202   4.225  11.050  0.0374 -0.0754 -0.0616
  381loPI   GL1 6085  16.983   4.215  10.774 -0.0934 -0.0428 -0.1787
  381loPI   GL2 6086  16.741   4.132  10.724  0.1630  0.0955 -0.0993
  381loPI   C1A 6087  16.874   4.439  10.330  0.0020 -0.1625 -0.1272
  381loPI   C2A 6088  16.918   4.617  10.027  0.1413 -0.0065  0.0043
  381loPI   C3A 6089  16.773   4.611   9.636 -0.0465 -0.0690  0.0405
  381loPI   C4A 6090  16.657   4.570   9.264 -0.0568  0.0540 -0.4054
  381loPI   C5A 6091  16.475   4.162   8.971 -0.2784 -0.3194  0.1022
  381loPI   C6A 6092  16.698   3.786   8.694 -0.2020  0.0189 -0.2846
  381loPI   C1B 6093  16.587   4.026  10.266 -0.0833 -0.3033 -0.1673
  381loPI   C2B 6094  16.642   4.089   9.784 -0.1436 -0.0792  0.1669
  381loPI   C3B 6095  16.788   4.029   9.277  0.0930  0.1580  0.0084
  381loPI   C4B 6096  17.124   3.900   8.936 -0.3262  0.1078 -0.1075
  382loPI    C1 6097   1.385   2.279  11.341 -0.0301  0.3033 -0.2817
  382loPI    C2 6098   1.146   2.448  11.613  0.0568 -0.0016 -0.0099
  382loPI    C3 6099   1.253   2.064  11.651  0.2766  0.0227 -0.3389
  382loPI   PO4 6100   1.289   2.359  11.070  0.0370 -0.0573  0.0136
  382loPI   GL1 6101   1.563   2.535  10.717  0.4264 -0.0217  0.1848
  382loPI   GL2 6102   1.437   2.837  10.549  0.1286  0.3625  0.1130
  382loPI   C1A 6103   1.614   2.434  10.266  0.0381 -0.0075  0.1624
  382loPI   C2A 6104   1.768   2.483   9.914  0.0410 -0.3037 -0.2767
  382loPI   C3A 6105   1.712   2.288   9.526  0.1747 -0.0159 -0.0528
  382loPI   C4A 6106   1.724   2.182   9.098 -0.0055  0.0745 -0.0916
  382loPI   C5A 6107   1.844   1.770   8.900  0.0148 -0.1163 -0.1332
  382loPI   C6A 6108   1.778   1.590   8.668  0.0212 -0.1298  0.0395
  382loPI   C1B 6109   1.662   3.028  10.250  0.0354  0.0121  0.0317
  382loPI   C2B 6110   2.018   2.973   9.937 -0.3415 -0.2355 -0.1814
  382loPI   C3B 6111   2.005   2.827   9.497 -0.1381 -0.0825  0.0356
  382loPI   C4B 6112   2.063   2.558   9.115  0.1880 -0.0858 -0.0783
  383loPI    C1 6113  14.772  15.919  11.731 -0.1526 -0.1358 -0.1468
  383loPI    C2 6114  14.933  16.268  11.841 -0.1884 -0.1352 -0.0962
  383loPI    C3 6115  15.167  15.948  11.790 -0.1725 -0.1374 -0.0105
  383loPI   PO4 6116  14.538  16.003  11.573  0.2750  0.2028 -0.0267
  383loPI   GL1 6117  14.384  15.899  11.284  0.5728 -0.0523  0.3110
  383loPI   GL2 6118  14.252  15.598  11.193 -0.1716 -0.1520  0.1297
  383loPI   C1A 6119  14.384  15.895  10.820 -0.1323 -0.0564  0.0286
  383loPI   C2A 6120  14.400  15.747  10.361 -0.0619 -0.0316  0.0547
  383loPI   C3A 6121  14.426  15.694   9.911 -0.2045 -0.0285  0.0607
  383loPI   C4A 6122  14.328  15.611   9.529 -0.3415  0.0747 -0.3135
  383loPI   C5A 6123  14.316  15.526   9.175  0.2175 -0.0418  0.2028
  383loPI   C6A 6124  14.249  15.803   8.945 -0.1501  0.0187 -0.0669
  383loPI   C1B 6125  14.228  15.272  10.821 -0.3318  0.1789 -0.0369
  383loPI   C2B 6126  14.179  15.201  10.419  0.2545 -0.1966  0.2947
  383loPI   C3B 6127  14.258  15.211  10.015 -0.3069  0.1881  0.0368
  383loPI   C4B 6128  14.235  15.141   9.586  0.0957  0.0832  0.0866
  384loPI    C1 6129  15.657   3.077  11.346  0.0206  0.1483 -0.0149
  384loPI    C2 6130  15.902   2.772  11.261 -0.2696 -0.1400  0.1581
  384loPI    C3 6131  15.908   2.937  11.625 -0.1341  0.0446  0.0739
  384loPI   PO4 6132  15.633   3.255  11.174  0.0091  0.2231  0.1158
  384loPI   GL1 6133  15.544   3.286  10.743  0.1015 -0.0137  0.1625
  384loPI   GL2 6134  15.301   3.555  10.800 -0.0783 -0.1050 -0.2311
  384loPI   C1A 6135  15.440   3.269  10.347 -0.3647  0.0021 -0.0800
  384loPI   C2A 6136  15.485   3.355   9.952 -0.2389 -0.1028  0.2195
  384loPI   C3A 6137  15.321   3.384   9.530  0.0488  0.1466 -0.2026
  384loPI   C4A 6138  15.339   3.223   9.085 -0.2576 -0.1150 -0.2541
  384loPI   C5A 6139  15.500   3.111   8.817  0.2612 -0.0688 -0.0354
  384loPI   C6A 6140  15.921   3.022   8.602  0.1126 -0.2219 -0.2885
  384loPI   C1B 6141  15.090   3.653  10.418 -0.2286 -0.1455  0.0695
  384loPI   C2B 6142  14.971   3.740  10.021 -0.2185 -0.0104  0.2594
  384loPI   C3B 6143  14.984   3.784   9.558  0.1495  0.1239 -0.0162
  384loPI   C4B 6144  14.979   3.655   9.118  0.1134  0.0750  0.1502
  385loPI    C1 6145  10.150  11.158  11.758  0.2041 -0.0533 -0.1612
  385loPI    C2 6146  10.444  11.299  11.990  0.1365 -0.2105  0.0221
  385loPI    C3 6147  10.112  11.149  12.156 -0.0576 -0.0166 -0.1836
  385loPI   PO4 6148  10.275  11.190  11.494  0.3617 -0.1140  0.3241
  385loPI   GL1 6149  10.087  11.460  11.184 -0.4574  0.0479 -0.0860
  385loPI   GL2 6150   9.805  11.673  11.188 -0.0357  0.2409  0.1989
  385loPI   C1A 6151  10.290  11.381  10.769  0.1056  0.0225  0.1806
  385loPI   C2A 6152  10.379  11.313  10.334  0.2245 -0.0793  0.0241
  385loPI   C3A 6153  10.395  11.291   9.920  0.0947  0.0843 -0.1840
  385loPI   C4A 6154  10.466  11.275   9.480 -0.0080  0.0778 -0.0170
  385loPI   C5A 6155  10.764  11.289   9.062 -0.0963 -0.0410 -0.3815
  385loPI   C6A 6156  11.071  10.970   8.976 -0.2202  0.2722  0.0438
  385loPI   C1B 6157   9.768  11.649  10.768  0.0212 -0.3345  0.0651
  385loPI   C2B 6158  10.051  11.643  10.344  0.0010  0.3759 -0.0826
  385loPI   C3B 6159  10.094  11.663   9.902  0.1691  0.3719  0.0656
  385loPI   C4B 6160  10.034  11.678   9.373  0.3368 -0.0500 -0.3587
  386loPI    C1 6161   3.311   2.631  11.652 -0.0453 -0.1086 -0.0308
  386loPI    C2 6162   3.050   2.331  11.606 -0.0902 -0.0681 -0.0408
  386loPI    C3 6163   3.213   2.402  11.965  0.0084 -0.1766 -0.0634
  386loPI   PO4 6164   3.435   2.608  11.309 -0.0097 -0.0260  0.0756
  386loPI   GL1 6165   3.341   2.574  10.877 -0.0665  0.0144 -0.0136
  386loPI   GL2 6166   3.444   2.870  10.849 -0.0717 -0.0181 -0.0157
  386loPI   C1A 6167   3.052   2.695  10.598 -0.2420 -0.0372  0.0438
  386loPI   C2A 6168   2.991   2.798  10.182  0.1567  0.0999  0.2416
  386loPI   C3A 6169   3.049   2.812   9.696 -0.1932  0.1111  0.0616
  386loPI   C4A 6170   3.146   2.843   9.229  0.1551  0.2661 -0.0167
  386loPI   C5A 6171   3.250   2.998   8.863 -0.2085  0.1547  0.1022
  386loPI   C6A 6172   3.183   3.052   8.460  0.1856 -0.0407  0.0218
  386loPI   C1B 6173   3.604   2.694  10.410 -0.0406 -0.0526  0.1621
  386loPI   C2B 6174   3.607   2.782  10.078 -0.0278  0.1086 -0.0225
  386loPI   C3B 6175   3.524   2.874   9.721 -0.5363  0.1992  0.3460
  386loPI   C4B 6176   3.614   2.903   9.338  0.1568 -0.2087  0.1641
  387loPI    C1 6177  13.678   1.656  11.351  0.0251 -0.0774 -0.0520
  387loPI    C2 6178  13.654   2.034  11.480  0.0872 -0.0072 -0.2420
  387loPI    C3 6179  13.665   1.732  11.744 -0.2380  0.1055 -0.0936
  387loPI   PO4 6180  13.513   1.663  11.179 -0.0722  0.1655 -0.0481
  387loPI   GL1 6181  13.475   1.664  10.707 -0.0405 -0.0507 -0.3118
  387loPI   GL2 6182  13.726   1.778  10.473  0.0993  0.1081 -0.1346
  387loPI   C1A 6183  13.249   1.593  10.260 -0.1334 -0.3133  0.0514
  387loPI   C2A 6184  13.137   1.559   9.797 -0.0264  0.1659  0.2331
  387loPI   C3A 6185  13.318   1.488   9.370  0.3017  0.0297  0.2227
  387loPI   C4A 6186  13.240   1.518   8.944 -0.3226 -0.1212  0.0269
  387loPI   C5A 6187  13.396   1.549   8.562 -0.0308 -0.0616  0.2542
  387loPI   C6A 6188  13.649   1.651   8.256 -0.0146 -0.0514 -0.2094
  387loPI   C1B 6189  13.654   1.763  10.056 -0.1373 -0.1221  0.0326
  387loPI   C2B 6190  13.686   1.705   9.606  0.1040 -0.0799 -0.0461
  387loPI   C3B 6191  13.819   1.626   9.101 -0.2247 -0.0760  0.0601
  387loPI   C4B 6192  13.909   1.414   8.667  0.1493  0.1151  0.1932
  388loPI    C1 6193  16.982   6.403  11.733  0.0109 -0.2223 -0.0254
  388loPI    C2 6194  16.645   6.576  11.858  0.0183 -0.1422 -0.1155
  388loPI    C3 6195  16.885   6.393  12.121  0.0015 -0.0317 -0.0220
  388loPI   PO4 6196  16.901   6.328  11.421 -0.0869 -0.4568 -0.3143
  388loPI   GL1 6197  17.073   6.440  10.992  0.2311 -0.2165 -0.0308
  388loPI   GL2 6198  16.851   6.590  10.981 -0.1805  0.1572 -0.0301
  388loPI   C1A 6199  17.031   6.399  10.545 -0.1082 -0.1563  0.0768
  388loPI   C2A 6200  17.022   6.324  10.180  0.0633 -0.3886  0.3867
  388loPI   C3A 6201  17.022   6.360   9.774 -0.0290  0.3446  0.2003
  388loPI   C4A 6202  17.032   6.392   9.380 -0.1999  0.0176  0.0075
  388loPI   C5A 6203  17.090   6.302   8.862 -0.3404 -0.1089 -0.0239
  388loPI   C6A 6204  17.045   6.305   8.445 -0.1379  0.5629  0.2067
  388loPI   C1B 6205  16.641   6.808  10.643  0.1605  0.2511 -0.2890
  388loPI   C2B 6206  16.572   6.843  10.138 -0.0773 -0.1087  0.2143
  388loPI   C3B 6207  16.512   6.839   9.637  0.0973  0.1540  0.1500
  388loPI   C4B 6208  16.702   6.711   9.225 -0.3346  0.0385  0.0110
  389loPI    C1 6209   8.451   2.128  11.224 -0.1062 -0.1372  0.1478
  389loPI    C2 6210   8.198   2.343  11.448 -0.0551  0.0062  0.0692
  389loPI    C3 6211   8.142   1.949  11.405 -0.0888 -0.0156  0.2994
  389loPI   PO4 6212   8.484   2.198  10.999 -0.0279 -0.0576 -0.1650
  389loPI   GL1 6213   8.336   2.225  10.501 -0.0294 -0.1105 -0.3044
  389loPI   GL2 6214   8.519   1.918  10.580  0.0841  0.0991  0.1044
  389loPI   C1A 6215   8.391   2.401  10.084 -0.1535 -0.1644 -0.3286
  389loPI   C2A 6216   8.480   2.465   9.651  0.0315 -0.3231 -0.2609
  389loPI   C3A 6217   8.801   2.605   9.339  0.0086 -0.1550 -0.2199
  389loPI   C4A 6218   8.926   2.519   8.969  0.1385  0.2282 -0.1175
  389loPI   C5A 6219   8.868   2.278   8.627  0.0789 -0.1291  0.0536
  389loPI   C6A 6220   8.954   1.911   8.379 -0.5217 -0.0646 -0.1295
  389loPI   C1B 6221   8.549   1.877  10.054 -0.1260  0.0857 -0.0443
  389loPI   C2B 6222   8.597   1.745   9.617  0.2124  0.0490 -0.0242
  389loPI   C3B 6223   8.468   1.578   9.274 -0.3800 -0.2328  0.1718
  389loPI   C4B 6224   8.528   1.292   9.039 -0.0806  0.0643 -0.0650
  390loPI    C1 6225  14.478   7.073  11.658 -0.2477  0.0647  0.0659
  390loPI    C2 6226  14.424   6.731  11.858 -0.2266  0.0972  0.1271
  390loPI    C3 6227  14.644   7.024  12.019  0.0704 -0.0040 -0.0862
  390loPI   PO4 6228  14.555   7.001  11.439 -0.0189  0.1866 -0.1223
  390loPI   GL1 6229  14.497   6.899  11.041 -0.0995 -0.2499  0.0023
  390loPI   GL2 6230  14.611   6.612  10.964 -0.0252 -0.1258  0.2165
  390loPI   C1A 6231  14.347   7.263  10.677 -0.0709 -0.1194  0.1778
  390loPI   C2A 6232  14.303   7.463  10.309 -0.0021 -0.1334 -0.0544
  390loPI   C3A 6233  14.382   7.394   9.938  0.0503  0.0030 -0.0875
  390loPI   C4A 6234  14.231   7.406   9.546  0.1413 -0.0647 -0.1272
  390loPI   C5A 6235  14.065   7.350   9.280  0.0775  0.1394  0.1392
  390loPI   C6A 6236  13.643   7.332   9.075  0.1158 -0.2085  0.2577
  390loPI   C1B 6237  14.566   6.848  10.569 -0.0611 -0.4242 -0.0128
  390loPI   C2B 6238  14.614   6.930  10.135  0.0010  0.0570 -0.0305
  390loPI   C3B 6239  14.605   7.001   9.700  0.1941  0.0763 -0.1428
  390loPI   C4B 6240  14.581   7.072   9.309 -0.0221  0.2104 -0.1104
  391PSPI    C1 6241  16.212  12.528   6.833 -0.2133 -0.0319  0.0300
  391PSPI    C2 6242  16.141  12.152   6.717 -0.1944 -0.0220 -0.0141
  391PSPI    C3 6243  16.183  12.441   6.444 -0.1880  0.0085  0.0190
  391PSPI   PO4 6244  16.409  12.505   7.040 -0.2068 -0.1323  0.2488
  391PSPI   GL1 6245  16.511  12.433   7.376  0.1385  0.2084  0.2015
  391PSPI   GL2 6246  16.214  12.676   7.425 -0.0108  0.2231 -0.1693
  391PSPI   C1A 6247  16.472  12.340   7.770 -0.4484  0.1853  0.2780
  391PSPI   C2A 6248  16.456  12.285   8.281 -0.0443 -0.0389 -0.0102
  391PSPI   C3A 6249  16.471  12.436   8.768  0.1744 -0.0278 -0.0466
  391PSPI   C4A 6250  16.434  12.695   9.231 -0.0826 -0.0659 -0.2267
  391PSPI   C1B 6251  16.128  12.722   7.855 -0.1018  0.3141 -0.0132
  391PSPI   C2B 6252  15.993  12.299   7.994 -0.0501 -0.0444  0.0007
  391PSPI   C3B 6253  16.065  12.035   8.374 -0.2422 -0.2121  0.2513
  391PSPI   C4B 6254  15.796  11.683   8.600  0.3006  0.0843  0.2035
  392PSPI    C1 6255  14.546   5.218   6.070 -0.1120 -0.2082  0.1018
  392PSPI    C2 6256  14.163   5.114   6.121 -0.1610 -0.1816 -0.1921
  392PSPI    C3 6257  14.277   5.297   5.784  0.0746 -0.0094 -0.0224
  392PSPI   PO4 6258  14.689   5.098   6.309  0.1228  0.0182 -0.4548
  392PSPI   GL1 6259  14.529   5.129   6.643 -0.0411  0.0254 -0.2817
  392PSPI   GL2 6260  14.794   4.859   6.724  0.1715 -0.1009 -0.2804
  392PSPI   C1A 6261  14.362   5.301   6.994  0.1798 -0.2279  0.0246
  392PSPI   C2A 6262  14.416   5.667   7.213 -0.1255 -0.0670  0.0504
  392PSPI   C3A 6263  14.372   5.744   7.530 -0.1689 -0.1101  0.1480
  392PSPI   C4A 6264  14.370   6.158   7.691 -0.1501 -0.1995 -0.2863
  392PSPI   C1B 6265  14.852   4.652   7.135 -0.0307 -0.2020  0.1329
  392PSPI   C2B 6266  14.862   4.627   7.628  0.2240  0.0784 -0.2115
  392PSPI   C3B 6267  14.818   4.541   8.095 -0.1336  0.0057 -0.2739
  392PSPI   C4B 6268  14.843   4.661   8.481 -0.1486  0.0887  0.1179
  393PSPI    C1 6269   9.541  16.524   6.646 -0.0833 -0.3443  0.1402
  393PSPI    C2 6270   9.469  16.491   6.254 -0.2553 -0.0631  0.1451
  393PSPI    C3 6271   9.699  16.788   6.391  0.0037 -0.3013  0.2378
  393PSPI   PO4 6272   9.291  16.451   6.736  0.2499  0.0233  0.2869
  393PSPI   GL1 6273   9.169  16.546   7.121 -0.2472 -0.3153  0.1680
  393PSPI   GL2 6274   8.872  16.334   7.173  0.2289 -0.1603 -0.1752
  393PSPI   C1A 6275   9.225  16.420   7.484  0.2625 -0.1172 -0.1429
  393PSPI   C2A 6276   9.294  16.475   7.905 -0.1555 -0.2178 -0.1548
  393PSPI   C3A 6277   9.453  16.301   8.257 -0.0855  0.0236 -0.1340
  393PSPI   C4A 6278   9.381  16.165   8.655  0.1196 -0.1450  0.1204
  393PSPI   C1B 6279   8.752  16.158   7.643 -0.1086  0.1104  0.1182
  393PSPI   C2B 6280   8.498  16.005   8.082  0.0198  0.3718 -0.1301
  393PSPI   C3B 6281   8.248  16.308   8.333 -0.0319  0.1689 -0.1498
  393PSPI   C4B 6282   8.379  16.568   8.535  0.1632  0.0772 -0.2009
  394PSPI    C1 6283   8.153  15.056   6.752  0.1290  0.2366 -0.1108
  394PSPI    C2 6284   7.804  15.251   6.752 -0.0308 -0.0443 -0.0482
  394PSPI    C3 6285   7.882  14.980   6.468  0.0967 -0.0523 -0.0064
  394PSPI   PO4 6286   8.252  15.020   6.993 -0.0616  0.3173  0.3386
  394PSPI   GL1 6287   8.203  14.900   7.351 -0.1710  0.0528  0.2021
  394PSPI   GL2 6288   7.902  14.671   7.428 -0.4296  0.0470 -0.2456
  394PSPI   C1A 6289   8.137  15.074   7.744 -0.6132 -0.1416  0.0475
  394PSPI   C2A 6290   8.161  15.075   8.184  0.0223 -0.3392  0.0165
  394PSPI   C3A 6291   7.889  15.120   8.576 -0.0767  0.0603  0.1025
  394PSPI   C4A 6292   7.675  15.025   8.947 -0.3800  0.0727 -0.1179
  394PSPI   C1B 6293   7.760  14.580   7.772  0.1590 -0.2031 -0.2603
  394PSPI   C2B 6294   7.793  14.728   8.216  0.0879  0.0557 -0.2635
  394PSPI   C3B 6295   7.455  14.607   8.533  0.3071  0.1914  0.1402
  394PSPI   C4B 6296   7.422  14.422   8.878 -0.2978  0.0204 -0.2373
  395PSPI    C1 6297   1.555  12.564   6.776  0.3174 -0.0309 -0.1332
  395PSPI    C2 6298   1.419  12.861   6.545 -0.0048 -0.1214 -0.0648
  395PSPI    C3 6299   1.332  12.481   6.455 -0.1259 -0.1586  0.1981
  395PSPI   PO4 6300   1.884  12.733   6.848 -0.0702 -0.0859  0.2111
  395PSPI   GL1 6301   2.172  12.665   7.141 -0.0523 -0.1609  0.2386
  395PSPI   GL2 6302   2.522  12.751   7.292  0.1504 -0.1097 -0.1964
  395PSPI   C1A 6303   2.077  12.673   7.554  0.2688 -0.2985 -0.1220
  395PSPI   C2A 6304   2.127  12.764   7.984 -0.1162 -0.2854  0.2150
  395PSPI   C3A 6305   2.512  12.670   8.286 -0.0566 -0.0306 -0.0854
  395PSPI   C4A 6306   2.636  12.409   8.715 -0.1512  0.0547 -0.1848
  395PSPI   C1B 6307   2.522  12.889   7.660 -0.1626  0.1102  0.4980
  395PSPI   C2B 6308   2.748  12.745   7.770  0.3428 -0.1925 -0.1743
  395PSPI   C3B 6309   3.005  12.933   8.083  0.0979 -0.0780 -0.1614
  395PSPI   C4B 6310   2.796  13.136   8.432 -0.0096  0.2286  0.0444
  396PSPI    C1 6311  13.790  12.379   6.499  0.0661  0.0500 -0.1389
  396PSPI    C2 6312  14.168  12.499   6.549  0.0299  0.1027  0.0134
  396PSPI    C3 6313  14.005  12.498   6.184  0.2553 -0.1550 -0.0892
  396PSPI   PO4 6314  13.666  12.615   6.741 -0.4589  0.0615  0.3353
  396PSPI   GL1 6315  13.916  12.838   7.028 -0.1959  0.0877  0.0997
  396PSPI   GL2 6316  14.312  12.685   7.048  0.3788  0.1672  0.4346
  396PSPI   C1A 6317  13.789  13.031   7.438 -0.0900  0.0214  0.2716
  396PSPI   C2A 6318  13.701  13.132   7.809  0.0780  0.2526 -0.0100
  396PSPI   C3A 6319  13.482  13.264   8.049 -0.1407 -0.0074  0.2266
  396PSPI   C4A 6320  13.089  12.950   8.091 -0.0756  0.2636 -0.0081
  396PSPI   C1B 6321  14.240  12.693   7.478 -0.2472  0.0414  0.1801
  396PSPI   C2B 6322  13.991  12.716   7.877 -0.1582 -0.0152 -0.1246
  396PSPI   C3B 6323  13.560  12.762   8.136  0.2166  0.0319  0.0537
  396PSPI   C4B 6324  13.351  12.687   8.537 -0.2426  0.0822 -0.0323
  397PSPI    C1 6325  15.114   8.102   6.497  0.2605 -0.0654 -0.0383
  397PSPI    C2 6326  15.402   8.274   6.279  0.3572 -0.2557 -0.0629
  397PSPI    C3 6327  15.179   7.982   6.121 -0.0016  0.0417 -0.1201
  397PSPI   PO4 6328  14.946   8.289   6.605  0.0704 -0.0546 -0.0754
  397PSPI   GL1 6329  14.873   8.506   7.050 -0.0211  0.1889  0.3959
  397PSPI   GL2 6330  15.094   8.818   7.142  0.1285 -0.0810  0.2581
  397PSPI   C1A 6331  14.774   8.548   7.430  0.0469  0.1341  0.1405
  397PSPI   C2A 6332  14.717   8.428   7.823  0.0473  0.1105 -0.1524
  397PSPI   C3A 6333  14.767   8.599   8.203 -0.2322 -0.0386  0.1825
  397PSPI   C4A 6334  14.765   8.911   8.485 -0.1563  0.0969  0.3693
  397PSPI   C1B 6335  15.140   8.857   7.533  0.0577  0.4379 -0.1162
  397PSPI   C2B 6336  15.145   8.808   7.971  0.0584  0.2554 -0.0185
  397PSPI   C3B 6337  15.229   8.978   8.437 -0.0478 -0.1800 -0.1522
  397PSPI   C4B 6338  15.311   9.325   8.692 -0.2923  0.0085  0.2559
  398PSPI    C1 6339  13.119  16.793   6.527 -0.0106  0.0763  0.1107
  398PSPI    C2 6340  13.364  16.975   6.268  0.3335 -0.1028  0.3033
  398PSPI    C3 6341  13.130  17.192   6.509 -0.1738  0.0676 -0.3156
  398PSPI   PO4 6342  13.232  16.642   6.622 -0.0378 -0.1497  0.0160
  398PSPI   GL1 6343  13.249  16.515   6.930  0.2399 -0.1723 -0.0971
  398PSPI   GL2 6344  13.135  16.272   7.044 -0.2364  0.0230  0.0053
  398PSPI   C1A 6345  13.437  16.684   7.345  0.0617  0.0776  0.0579
  398PSPI   C2A 6346  13.615  16.798   7.715  0.0652 -0.4201 -0.0544
  398PSPI   C3A 6347  13.497  17.045   8.184 -0.0795  0.0002  0.2613
  398PSPI   C4A 6348  13.577  17.367   8.522  0.0844  0.5587 -0.3928
  398PSPI   C1B 6349  13.326  15.990   7.447 -0.2554 -0.4743 -0.1627
  398PSPI   C2B 6350  13.676  15.892   7.656  0.2635  0.0810  0.1953
  398PSPI   C3B 6351  13.756  16.198   7.954  0.0260 -0.0438 -0.0913
  398PSPI   C4B 6352  13.974  16.620   8.084  0.2669  0.2890  0.1800
  399PSPI    C1 6353   5.808   9.919   6.363 -0.0563  0.0308 -0.0899
  399PSPI    C2 6354   5.657  10.193   6.115 -0.0210 -0.0506 -0.2020
  399PSPI    C3 6355   5.628   9.804   6.025  0.1021 -0.0745 -0.1397
  399PSPI   PO4 6356   6.058   9.956   6.396  0.4670 -0.0339  0.0474
  399PSPI   GL1 6357   6.499   9.957   6.643 -0.0954 -0.0288  0.1564
  399PSPI   GL2 6358   6.817   9.776   6.631  0.3043  0.3403 -0.0026
  399PSPI   C1A 6359   6.377  10.174   7.005 -0.0634 -0.2759  0.1599
  399PSPI   C2A 6360   6.538  10.131   7.415  0.0080  0.2573 -0.0763
  399PSPI   C3A 6361   6.712   9.949   7.898 -0.0334 -0.0660  0.0324
  399PSPI   C4A 6362   6.870   9.688   8.212  0.0991 -0.0961 -0.1061
  399PSPI   C1B 6363   6.934   9.978   7.031  0.0227  0.0705  0.1423
  399PSPI   C2B 6364   7.074   9.691   7.498  0.1218 -0.2533  0.2203
  399PSPI   C3B 6365   7.382   9.393   7.433 -0.0405 -0.0296 -0.0079
  399PSPI   C4B 6366   7.692   9.409   7.151 -0.2003 -0.2841  0.2589
  400PSPI    C1 6367  17.023   9.065   6.559 -0.1071  0.0148  0.0265
  400PSPI    C2 6368  17.288   9.269   6.340  0.0362 -0.0097  0.1749
  400PSPI    C3 6369  17.169   8.905   6.223  0.1208 -0.0278  0.1440
  400PSPI   PO4 6370  17.063   9.058   6.817  0.0586 -0.0347 -0.0152
  400PSPI   GL1 6371  16.885   9.145   7.242  0.0088 -0.1137  0.0597
  400PSPI   GL2 6372  16.779   9.505   7.285  0.0375 -0.3365  0.0078
  400PSPI   C1A 6373  17.133   9.118   7.520 -0.2508 -0.0448  0.0553
  400PSPI   C2A 6374  17.001   9.180   7.933 -0.0177 -0.1258 -0.2336
  400PSPI   C3A 6375  16.956   9.542   8.282  0.0084 -0.0463  0.1374
  400PSPI   C4A 6376  16.888   9.813   8.613 -0.4435  0.2014  0.0642
  400PSPI   C1B 6377  16.681   9.522   7.688 -0.0975 -0.0749  0.0856
  400PSPI   C2B 6378  16.346   9.716   8.110  0.0504  0.0029 -0.0366
  400PSPI   C3B 6379  16.352   9.821   8.542 -0.3808  0.0968 -0.3300
  400PSPI   C4B 6380  16.539   9.843   8.962  0.1101  0.1198 -0.3833
  401PSPI    C1 6381   2.730   1.559   6.833  0.0749  0.0019 -0.0240
  401PSPI    C2 6382   2.994   1.634   6.542 -0.0067 -0.1232 -0.1314
  401PSPI    C3 6383   2.602   1.644   6.464 -0.0454  0.3069  0.0845
  401PSPI   PO4 6384   2.891   1.766   7.047 -0.6158 -0.0467 -0.0404
  401PSPI   GL1 6385   3.067   1.861   7.504  0.0567  0.0470  0.0319
  401PSPI   GL2 6386   3.367   1.922   7.340 -0.3175  0.0449 -0.0708
  401PSPI   C1A 6387   2.980   1.920   7.941  0.1135  0.0410  0.1402
  401PSPI   C2A 6388   2.906   1.872   8.331  0.1334 -0.0321  0.1552
  401PSPI   C3A 6389   2.707   1.723   8.708  0.1525  0.1061  0.1161
  401PSPI   C4A 6390   2.283   1.693   8.766 -0.2315  0.0873  0.1223
  401PSPI   C1B 6391   3.436   2.069   7.783 -0.1279 -0.0081  0.1668
  401PSPI   C2B 6392   3.381   2.036   8.235  0.1021  0.1630  0.0964
  401PSPI   C3B 6393   3.373   2.022   8.674  0.4131  0.0454 -0.0261
  401PSPI   C4B 6394   3.111   2.080   9.110  0.3117 -0.0265 -0.1171
  402POPI    C1 6395  11.525  11.453   6.592 -0.0575  0.2067 -0.0009
  402POPI    C2 6396  11.499  11.760   6.337  0.0207  0.1210 -0.1128
  402POPI    C3 6397  11.550  11.388   6.198  0.1115  0.0799  0.0297
  402POPI   PO4 6398  11.608  11.667   6.808  0.1947  0.3172  0.3046
  402POPI   GL1 6399  11.382  11.797   7.248  0.0017 -0.1925  0.0332
  402POPI   GL2 6400  11.814  11.768   7.280 -0.1714  0.0549  0.2578
  402POPI   C1A 6401  11.273  11.651   7.643 -0.2245  0.2472  0.0752
  402POPI   D2A 6402  11.173  11.597   8.084  0.3775 -0.0178  0.2077
  402POPI   C3A 6403  11.126  11.754   8.455 -0.0725  0.2096  0.1862
  402POPI   C4A 6404  10.931  11.768   8.830  0.1048 -0.1252  0.2896
  402POPI   C1B 6405  11.786  11.798   7.659  0.1555  0.2056  0.2174
  402POPI   C2B 6406  11.613  11.829   8.044 -0.2129  0.1934  0.1909
  402POPI   C3B 6407  11.621  11.849   8.455  0.0661  0.0601  0.3137
  402POPI   C4B 6408  11.907  11.912   8.864  0.3049  0.2268 -0.2210
  403POPI    C1 6409  16.295  13.565   6.824 -0.1756 -0.0687  0.0227
  403POPI    C2 6410  16.513  13.276   6.654  0.1674  0.2464 -0.0878
  403POPI    C3 6411  16.315  13.537   6.426 -0.1272  0.1145  0.0114
  403POPI   PO4 6412  16.290  13.501   7.097  0.0192 -0.0716 -0.2504
  403POPI   GL1 6413  16.110  13.225   7.591  0.0457  0.3926  0.3733
  403POPI   GL2 6414  15.895  13.244   7.372  0.2742 -0.0639 -0.2604
  403POPI   C1A 6415  16.162  13.223   8.029  0.0605  0.0044  0.0111
  403POPI   D2A 6416  16.148  13.214   8.480  0.1611  0.1088  0.1123
  403POPI   C3A 6417  16.078  12.912   8.884  0.0401 -0.1214  0.0035
  403POPI   C4A 6418  15.944  12.611   9.106 -0.4939  0.0955 -0.1762
  403POPI   C1B 6419  15.477  13.507   7.628 -0.0476  0.1494 -0.1248
  403POPI   C2B 6420  15.241  13.627   8.077  0.0851 -0.0180  0.1313
  403POPI   C3B 6421  15.175  13.675   8.538 -0.3166  0.1170  0.3457
  403POPI   C4B 6422  15.126  14.099   8.747 -0.2613  0.0398  0.3242
  404POPI    C1 6423   3.395   2.461   6.640  0.1635  0.1814  0.0279
  404POPI    C2 6424   3.730   2.571   6.452  0.1675 -0.0893 -0.1281
  404POPI    C3 6425   3.582   2.203   6.399 -0.1078 -0.0009  0.0076
  404POPI   PO4 6426   3.488   2.548   6.907  0.2346 -0.2517  0.0040
  404POPI   GL1 6427   3.626   2.303   7.240  0.2606  0.2096  0.0309
  404POPI   GL2 6428   3.839   2.323   7.332  0.1300 -0.1525  0.2804
  404POPI   C1A 6429   3.399   2.550   7.571  0.0066  0.1703  0.0233
  404POPI   D2A 6430   3.073   2.384   8.000 -0.1107  0.0791 -0.0326
  404POPI   C3A 6431   2.904   2.774   8.101 -0.2270 -0.1592  0.0430
  404POPI   C4A 6432   2.595   2.931   8.368 -0.0174  0.0505  0.1029
  404POPI   C1B 6433   3.866   2.374   7.861  0.1662 -0.2906 -0.1759
  404POPI   C2B 6434   3.822   2.246   8.216  0.1371 -0.1242 -0.0225
  404POPI   C3B 6435   3.823   2.340   8.624  0.2355 -0.0367 -0.0639
  404POPI   C4B 6436   4.087   2.283   9.047  0.2098 -0.0670  0.1555
  405POPI    C1 6437   5.994   5.917   6.327 -0.1892 -0.1288  0.0034
  405POPI    C2 6438   5.732   5.639   6.209 -0.1070 -0.0446 -0.3890
  405POPI    C3 6439   5.701   6.014   6.072 -0.1209  0.1044  0.0108
  405POPI   PO4 6440   5.930   5.799   6.650  0.1698 -0.1108 -0.1973
  405POPI   GL1 6441   5.958   5.654   7.089  0.1216 -0.0051 -0.0540
  405POPI   GL2 6442   5.598   5.771   7.036  0.0296 -0.0579 -0.2092
  405POPI   C1A 6443   5.962   5.577   7.501  0.2105 -0.0957 -0.0802
  405POPI   D2A 6444   6.117   5.598   7.885 -0.0324  0.3543  0.2260
  405POPI   C3A 6445   6.292   5.889   8.043 -0.3270 -0.1633  0.0243
  405POPI   C4A 6446   6.023   6.219   8.267  0.1862  0.0174 -0.2235
  405POPI   C1B 6447   5.483   5.509   7.330  0.2701  0.3453 -0.1093
  405POPI   C2B 6448   5.473   5.532   7.706 -0.0415  0.2952 -0.1317
  405POPI   C3B 6449   5.418   5.325   8.004  0.0122 -0.1531  0.2828
  405POPI   C4B 6450   5.465   5.582   8.420  0.1540 -0.1238 -0.0307
  406POPI    C1 6451  17.194  17.186   6.603 -0.0138  0.1062 -0.0609
  406POPI    C2 6452  16.852  17.377   6.685 -0.0105  0.0697  0.0388
  406POPI    C3 6453  16.915  17.229   6.319 -0.1248  0.0284  0.0355
  406POPI   PO4 6454  17.380  17.386   6.802  0.1487 -0.1728  0.2299
  406POPI   GL1 6455  17.325  17.452   7.151  0.0801  0.0456  0.2125
  406POPI   GL2 6456  16.985  17.660   7.111  0.0074 -0.2635 -0.1755
  406POPI   C1A 6457  17.520  17.348   7.533 -0.0821  0.0783 -0.0364
  406POPI   D2A 6458  17.540  17.039   7.866 -0.5284  0.1674 -0.1176
  406POPI   C3A 6459  17.795  16.778   8.054 -0.0505  0.1238  0.0542
  406POPI   C4A 6460  17.900  16.514   8.363  0.0165  0.0939  0.2346
  406POPI   C1B 6461  17.086  17.685   7.518  0.1829 -0.1623 -0.2186
  406POPI   C2B 6462  17.227  17.583   7.920 -0.1873  0.4279  0.0224
  406POPI   C3B 6463  17.568  17.602   8.209  0.1295 -0.0622 -0.0902
  406POPI   C4B 6464  17.663  17.387   8.672 -0.1395  0.0070  0.1148
  407POPI    C1 6465  15.351  13.671   6.643  0.0303 -0.1105 -0.0526
  407POPI    C2 6466  15.464  13.295   6.563  0.0007 -0.1805  0.2239
  407POPI    C3 6467  15.206  13.482   6.321  0.0378 -0.3270  0.0689
  407POPI   PO4 6468  15.294  13.653   6.910 -0.0710 -0.0455 -0.1361
  407POPI   GL1 6469  14.899  13.623   7.135 -0.1998  0.1603  0.3245
  407POPI   GL2 6470  15.027  13.346   7.341 -0.2252  0.1683 -0.0030
  407POPI   C1A 6471  14.558  13.533   7.438 -0.2070  0.2850 -0.0943
  407POPI   D2A 6472  14.474  13.615   7.972  0.3976  0.3384 -0.3260
  407POPI   C3A 6473  14.322  13.931   8.080 -0.2570 -0.0862 -0.5807
  407POPI   C4A 6474  13.864  14.112   8.081  0.2618  0.2600  0.2933
  407POPI   C1B 6475  14.903  13.502   7.733  0.0695 -0.1898 -0.0345
  407POPI   C2B 6476  14.828  13.312   8.136 -0.1085  0.2051 -0.1545
  407POPI   C3B 6477  14.643  13.474   8.443  0.1052  0.0605 -0.1549
  407POPI   C4B 6478  14.816  13.703   8.840 -0.1189 -0.3483 -0.1311
  408POPI    C1 6479  11.365   0.435   6.263 -0.0425 -0.0237  0.0614
  408POPI    C2 6480  11.348   0.621   5.910  0.2239 -0.2980 -0.1007
  408POPI    C3 6481  11.405   0.225   5.925 -0.3902 -0.3855  0.2365
  408POPI   PO4 6482  11.259   0.618   6.462 -0.3544  0.1565  0.0842
  408POPI   GL1 6483  11.417   0.614   6.917  0.2267  0.0285  0.0729
  408POPI   GL2 6484  11.190   0.573   7.162  0.3242  0.0831  0.0960
  408POPI   C1A 6485  11.640   0.938   7.096  0.0617  0.0175  0.1121
  408POPI   D2A 6486  11.455   1.358   7.358 -0.3521  0.0552 -0.2961
  408POPI   C3A 6487  11.606   1.653   7.724 -0.3365 -0.1234  0.1328
  408POPI   C4A 6488  11.998   1.598   7.988  0.0679 -0.0608 -0.1450
  408POPI   C1B 6489  11.261   0.359   7.609  0.1185  0.0133  0.1158
  408POPI   C2B 6490  11.242   0.190   7.989 -0.0629 -0.0881  0.1127
  408POPI   C3B 6491  11.272   0.068   8.375 -0.0232  0.0368 -0.1069
  408POPI   C4B 6492  11.367   0.229   8.784  0.2961  0.2159  0.1310
  409POPI    C1 6493   7.410   6.152   6.049  0.0893  0.0223 -0.1836
  409POPI    C2 6494   7.478   6.494   6.247 -0.3442  0.0758 -0.1177
  409POPI    C3 6495   7.348   6.504   5.869 -0.1553 -0.0207 -0.1866
  409POPI   PO4 6496   7.317   6.016   6.223  0.1723 -0.1161 -0.2430
  409POPI   GL1 6497   7.227   6.291   6.579 -0.3550  0.0727 -0.3104
  409POPI   GL2 6498   7.562   6.231   6.653 -0.1671  0.1981  0.1579
  409POPI   C1A 6499   7.232   6.169   7.048 -0.0637  0.1528 -0.1077
  409POPI   D2A 6500   7.347   6.352   7.394  0.3069  0.0004 -0.0376
  409POPI   C3A 6501   7.153   6.097   7.851  0.0464  0.1342  0.2745
  409POPI   C4A 6502   7.433   6.169   8.341  0.0842  0.2113 -0.0799
  409POPI   C1B 6503   7.754   5.833   6.646  0.2744 -0.0734 -0.1140
  409POPI   C2B 6504   8.000   5.871   7.028 -0.0795 -0.1525  0.0007
  409POPI   C3B 6505   8.250   5.850   7.352  0.0031  0.2197 -0.0414
  409POPI   C4B 6506   8.487   5.654   7.757  0.2086 -0.0881  0.1633
  410POPI    C1 6507  11.554  17.356   6.462  0.2544 -0.1100  0.0751
  410POPI    C2 6508  11.789  17.110   6.252 -0.0120 -0.1734 -0.1559
  410POPI    C3 6509  11.495  17.309   6.069  0.1432  0.2521  0.0446
  410POPI   PO4 6510  11.545  17.254   6.662 -0.3387 -0.1290  0.1618
  410POPI   GL1 6511  11.340  17.536   7.083 -0.0566 -0.0729  0.0651
  410POPI   GL2 6512  11.351  17.222   7.120  0.0812  0.4089 -0.0617
  410POPI   C1A 6513  11.131  17.531   7.509 -0.0679  0.2020  0.1766
  410POPI   D2A 6514  11.126  17.419   8.020  0.0833 -0.1072 -0.0562
  410POPI   C3A 6515  10.784  17.536   8.206 -0.0483 -0.0131  0.1979
  410POPI   C4A 6516  10.509  17.443   8.656 -0.3774 -0.0413  0.2165
  410POPI   C1B 6517  11.415  17.113   7.514 -0.0383 -0.0349  0.0921
  410POPI   C2B 6518  11.373  16.897   7.886 -0.0296  0.1847 -0.1844
  410POPI   C3B 6519  11.268  16.905   8.290 -0.0015 -0.0481  0.1277
  410POPI   C4B 6520  11.484  16.548   8.415  0.3146  0.0684 -0.1569
  411POPI    C1 6521   8.149  11.945   7.041 -0.2416  0.0805 -0.0716
  411POPI    C2 6522   8.181  12.304   7.215  0.0993 -0.0338  0.1090
  411POPI    C3 6523   8.319  12.249   6.844 -0.4283  0.1523 -0.1250
  411POPI   PO4 6524   8.154  11.801   7.179 -0.0793  0.1027  0.0073
  411POPI   GL1 6525   8.084  11.703   7.545  0.4988  0.2533  0.2304
  411POPI   GL2 6526   7.707  11.677   7.517 -0.0636  0.1757 -0.2610
  411POPI   C1A 6527   7.897  11.650   7.988  0.2259  0.0398  0.1693
  411POPI   D2A 6528   7.826  11.809   8.345  0.1936  0.1486 -0.1964
  411POPI   C3A 6529   7.641  11.817   8.740 -0.2265 -0.0135 -0.0498
  411POPI   C4A 6530   7.698  11.566   9.096  0.2915  0.2413 -0.0289
  411POPI   C1B 6531   7.480  11.814   7.931 -0.0211  0.2933 -0.0943
  411POPI   C2B 6532   7.289  11.917   8.271 -0.0828  0.3877  0.2232
  411POPI   C3B 6533   7.212  12.081   8.658 -0.1307 -0.4782  0.5565
  411POPI   C4B 6534   7.272  12.098   9.113  0.0079 -0.0503  0.1839
  412POPI    C1 6535  17.264   6.403   6.596 -0.0560 -0.1821  0.1216
  412POPI    C2 6536  17.191   6.039   6.449 -0.0074 -0.1146 -0.0720
  412POPI    C3 6537  17.360   6.318   6.217  0.0494  0.0002  0.1060
  412POPI   PO4 6538  16.966   6.422   6.776 -0.2882 -0.0703 -0.2594
  412POPI   GL1 6539  16.706   6.590   7.065 -0.3568  0.0610  0.2967
  412POPI   GL2 6540  16.596   6.258   7.065 -0.1362  0.2506  0.1285
  412POPI   C1A 6541  16.933   6.542   7.576 -0.2113  0.0305 -0.1688
  412POPI   D2A 6542  16.999   6.635   7.991 -0.0852 -0.0706 -0.1163
  412POPI   C3A 6543  16.735   6.703   8.215  0.1835 -0.0722  0.1402
  412POPI   C4A 6544  16.639   6.710   8.666 -0.3161  0.1304  0.2471
  412POPI   C1B 6545  16.728   6.109   7.387 -0.0393  0.2504  0.0259
  412POPI   C2B 6546  17.016   5.697   7.333 -0.2918 -0.3483 -0.0354
  412POPI   C3B 6547  17.416   5.563   7.358  0.0696 -0.0722 -0.2127
  412POPI   C4B 6548  17.655   5.983   7.354 -0.3709 -0.0841 -0.0767
  413POPI    C1 6549   7.106   1.956   6.679 -0.1245  0.1045 -0.1540
  413POPI    C2 6550   6.724   1.840   6.647 -0.1320  0.0780  0.0245
  413POPI    C3 6551   6.984   1.621   6.859  0.0438 -0.0401 -0.3053
  413POPI   PO4 6552   7.107   2.191   6.745  0.0975  0.1969  0.0474
  413POPI   GL1 6553   7.088   2.590   6.870  0.0322  0.0545  0.0068
  413POPI   GL2 6554   7.339   2.861   6.873 -0.0015 -0.3018 -0.0610
  413POPI   C1A 6555   6.977   2.576   7.311  0.3247  0.4269 -0.0006
  413POPI   D2A 6556   6.760   2.736   7.664 -0.2569 -0.0538 -0.0330
  413POPI   C3A 6557   6.456   2.509   7.861  0.1376  0.0572 -0.0875
  413POPI   C4A 6558   6.385   2.549   8.284 -0.0172  0.0227 -0.0835
  413POPI   C1B 6559   7.483   2.754   7.322  0.0824  0.0720  0.0226
  413POPI   C2B 6560   7.651   2.893   7.707 -0.0240  0.0425 -0.0570
  413POPI   C3B 6561   7.712   3.042   8.066 -0.0223  0.1697 -0.3083
  413POPI   C4B 6562   7.799   3.012   8.536  0.1772 -0.0216  0.0033
  414POPI    C1 6563   3.910  11.181   6.349 -0.0365  0.0063 -0.1353
  414POPI    C2 6564   4.030  11.559   6.298 -0.0210  0.0190 -0.0082
  414POPI    C3 6565   4.299  11.271   6.367 -0.0259 -0.0291 -0.1831
  414POPI   PO4 6566   3.740  11.216   6.464 -0.0194 -0.0612 -0.0200
  414POPI   GL1 6567   3.503  11.132   6.859  0.0427 -0.0438 -0.3141
  414POPI   GL2 6568   3.409  11.337   7.058 -0.3697  0.0090 -0.3738
  414POPI   C1A 6569   3.781  10.697   6.969  0.0834 -0.0443  0.1008
  414POPI   D2A 6570   3.853  10.330   7.220 -0.0709 -0.2451 -0.1551
  414POPI   C3A 6571   3.693  10.413   7.625 -0.2115  0.0565 -0.0537
  414POPI   C4A 6572   3.229  10.357   7.791  0.0067 -0.1310  0.3735
  414POPI   C1B 6573   3.461  11.432   7.416  0.0555 -0.0622 -0.3595
  414POPI   C2B 6574   3.593  11.347   7.790 -0.0544  0.2022 -0.2088
  414POPI   C3B 6575   3.946  11.333   8.014 -0.0128 -0.2980  0.0655
  414POPI   C4B 6576   4.155  11.135   8.285  0.2608  0.1263 -0.1115
  415POPI    C1 6577  10.719  10.014   6.573 -0.2716 -0.0728 -0.0734
  415POPI    C2 6578  11.055   9.886   6.399 -0.1143 -0.1533  0.2803
  415POPI    C3 6579  10.789  10.099   6.189  0.2861  0.1505  0.0688
  415POPI   PO4 6580  10.724  10.168   6.783  0.0446 -0.1998  0.0123
  415POPI   GL1 6581  10.969  10.258   7.221  0.0004 -0.1190 -0.0158
  415POPI   GL2 6582  11.337  10.350   7.270  0.0232 -0.0394  0.1264
  415POPI   C1A 6583  10.822  10.361   7.640  0.1615 -0.2160 -0.0309
  415POPI   D2A 6584  10.895  10.558   7.964  0.3983  0.0947 -0.1008
  415POPI   C3A 6585  11.129  10.296   8.279 -0.2975  0.3912  0.2362
  415POPI   C4A 6586  11.157  10.367   8.731 -0.2294  0.1081 -0.1916
  415POPI   C1B 6587  11.605  10.684   7.410 -0.1196  0.0147 -0.0952
  415POPI   C2B 6588  11.771  10.857   7.847 -0.1112  0.0244 -0.1152
  415POPI   C3B 6589  11.789  10.856   8.268  0.0608  0.4234 -0.0591
  415POPI   C4B 6590  11.951  11.086   8.529  0.0905 -0.0880 -0.1161
  416POPI    C1 6591  16.644  12.748   6.681  0.0816 -0.2356  0.1002
  416POPI    C2 6592  16.666  12.362   6.579 -0.1057 -0.1513 -0.2760
  416POPI    C3 6593  16.638  12.643   6.295 -0.1106  0.1312 -0.0016
  416POPI   PO4 6594  16.911  12.843   6.890  0.0281 -0.1516  0.1682
  416POPI   GL1 6595  16.754  12.876   7.281 -0.1511 -0.2605  0.0151
  416POPI   GL2 6596  17.092  12.901   7.331  0.1774 -0.0603 -0.2076
  416POPI   C1A 6597  16.593  12.866   7.639 -0.3499  0.1743  0.2350
  416POPI   D2A 6598  16.597  12.935   8.084 -0.2427 -0.1168  0.3431
  416POPI   C3A 6599  16.284  12.754   8.396 -0.0227  0.0001 -0.0411
  416POPI   C4A 6600  15.927  12.512   8.542  0.0257  0.0409  0.0747
  416POPI   C1B 6601  17.025  13.082   7.690 -0.0909  0.0635  0.1522
  416POPI   C2B 6602  17.097  13.049   8.087 -0.0172 -0.1385 -0.3340
  416POPI   C3B 6603  17.034  13.098   8.420  0.1242  0.1336  0.1129
  416POPI   C4B 6604  17.069  13.334   8.725  0.4538 -0.1419  0.0164
  417POPI    C1 6605   9.006  12.433   7.138  0.0107  0.1885  0.3309
  417POPI    C2 6606   8.619  12.531   7.100 -0.0751 -0.2147  0.1074
  417POPI    C3 6607   8.899  12.741   6.906 -0.1692  0.1312  0.3364
  417POPI   PO4 6608   9.107  12.474   7.388  0.1619  0.0697  0.0534
  417POPI   GL1 6609   8.969  12.445   7.748  0.2054  0.2176 -0.1198
  417POPI   GL2 6610   8.652  12.556   7.654 -0.0861 -0.1491  0.2741
  417POPI   C1A 6611   9.115  12.414   8.128 -0.1610 -0.2782  0.1707
  417POPI   D2A 6612   9.088  12.403   8.580  0.0665  0.2157 -0.0679
  417POPI   C3A 6613   9.059  12.175   8.944  0.2488  0.0633  0.0988
  417POPI   C4A 6614   9.122  12.274   9.317  0.2352 -0.0564  0.2082
  417POPI   C1B 6615   8.589  12.481   8.077 -0.1699 -0.2596  0.2837
  417POPI   C2B 6616   8.631  12.502   8.378  0.0176  0.0433 -0.2117
  417POPI   C3B 6617   8.688  12.547   8.745  0.1125 -0.1037 -0.0546
  417POPI   C4B 6618   9.003  12.719   8.987  0.0656  0.3374 -0.2198
  418POPI    C1 6619   8.640   9.756   6.466  0.2306 -0.0666 -0.3628
  418POPI    C2 6620   8.703  10.143   6.385  0.0903  0.0458  0.0451
  418POPI    C3 6621   8.914   9.862   6.194  0.3470  0.3308 -0.0984
  418POPI   PO4 6622   8.687   9.714   6.716  0.3216  0.0366 -0.1233
  418POPI   GL1 6623   8.941   9.678   7.155 -0.0476  0.0733  0.0479
  418POPI   GL2 6624   9.288   9.602   7.169 -0.0487 -0.1265  0.0380
  418POPI   C1A 6625   8.955   9.856   7.660 -0.2084  0.0959 -0.0139
  418POPI   D2A 6626   9.133   9.955   8.047  0.2454 -0.0976 -0.2261
  418POPI   C3A 6627   9.061   9.847   8.492  0.1338 -0.0495  0.0962
  418POPI   C4A 6628   8.953   9.582   8.719  0.3738 -0.1635  0.0090
  418POPI   C1B 6629   9.251   9.373   7.495 -0.3442 -0.1126  0.0244
  418POPI   C2B 6630   9.347   9.434   7.899 -0.1588  0.1093  0.0407
  418POPI   C3B 6631   9.410   9.475   8.291  0.1928  0.1078 -0.1198
  418POPI   C4B 6632   9.524   9.776   8.661 -0.1457  0.0241 -0.0497
  419POPI    C1 6633   0.399   1.448   6.125 -0.1971 -0.0911  0.1110
  419POPI    C2 6634   0.286   1.389   5.746 -0.0924 -0.2337  0.1013
  419POPI    C3 6635   0.533   1.129   5.924  0.1287  0.0115  0.1589
  419POPI   PO4 6636   0.184   1.580   6.277  0.0199  0.1001  0.0147
  419POPI   GL1 6637  -0.136   1.468   6.724 -0.2703  0.3767 -0.1868
  419POPI   GL2 6638   0.194   1.644   6.779 -0.0079  0.1661  0.1020
  419POPI   C1A 6639  -0.480   1.454   6.991  0.2422  0.1521  0.1427
  419POPI   D2A 6640  -0.682   1.384   7.383 -0.0664 -0.2234 -0.0692
  419POPI   C3A 6641  -0.620   1.039   7.601 -0.1605  0.1817 -0.3041
  419POPI   C4A 6642  -0.486   0.836   7.999 -0.2837  0.2100 -0.0337
  419POPI   C1B 6643   0.494   1.617   7.161  0.2252 -0.2101 -0.1107
  419POPI   C2B 6644   0.388   1.660   7.542  0.0638  0.2022  0.1320
  419POPI   C3B 6645   0.345   1.812   7.993 -0.0043 -0.2669 -0.0677
  419POPI   C4B 6646   0.662   1.523   8.346 -0.2394  0.1121  0.1227
  420POPI    C1 6647   4.415  15.198   6.252 -0.0355 -0.0871  0.0183
  420POPI    C2 6648   4.418  15.061   5.877  0.0148  0.2441 -0.1060
  420POPI    C3 6649   4.701  15.315   5.999 -0.1699  0.3691  0.0686
  420POPI   PO4 6650   4.477  15.031   6.484  0.2303 -0.0384  0.0333
  420POPI   GL1 6651   4.707  14.870   6.883  0.1216 -0.0723  0.2266
  420POPI   GL2 6652   4.699  15.173   6.957 -0.0508  0.1851 -0.0824
  420POPI   C1A 6653   5.056  14.846   7.154  0.3639 -0.0599  0.1740
  420POPI   D2A 6654   5.275  14.974   7.440  0.2098  0.0431 -0.0611
  420POPI   C3A 6655   5.338  15.386   7.537  0.0358  0.0735 -0.2611
  420POPI   C4A 6656   5.186  15.807   7.557 -0.1481  0.2019 -0.2711
  420POPI   C1B 6657   4.853  15.276   7.421 -0.2574  0.1061  0.2113
  420POPI   C2B 6658   4.876  15.505   7.798  0.0524  0.0107  0.5027
  420POPI   C3B 6659   5.096  15.439   8.181 -0.2011  0.0614  0.2021
  420POPI   C4B 6660   5.339  15.762   8.462  0.1906 -0.0309 -0.2772
  421POPI    C1 6661  11.442   3.096   6.447 -0.0530 -0.0885 -0.2214
  421POPI    C2 6662  11.714   3.309   6.245 -0.0284  0.2640  0.1709
  421POPI    C3 6663  11.328   3.328   6.141  0.0274  0.1693 -0.0592
  421POPI   PO4 6664  11.372   3.118   6.740  0.2815 -0.2584  0.1263
  421POPI   GL1 6665  11.050   2.980   6.927 -0.2404 -0.3795  0.0728
  421POPI   GL2 6666  10.756   3.047   6.978  0.1194 -0.0636 -0.0044
  421POPI   C1A 6667  11.210   2.955   7.343 -0.1282  0.6538  0.1037
  421POPI   D2A 6668  11.439   2.807   7.772  0.1190  0.1313 -0.0730
  421POPI   C3A 6669  11.605   3.056   8.147  0.0696  0.1401  0.1544
  421POPI   C4A 6670  11.600   3.065   8.596  0.1125  0.0904 -0.3577
  421POPI   C1B 6671  10.786   3.321   7.280 -0.1765 -0.0237 -0.1288
  421POPI   C2B 6672  10.876   3.185   7.648 -0.3594 -0.1506 -0.2862
  421POPI   C3B 6673  10.698   3.244   8.005  0.1696 -0.2337 -0.3626
  421POPI   C4B 6674  10.564   3.431   8.287  0.0654 -0.1907 -0.0171
  422POPI    C1 6675  13.851   9.662   6.726  0.0588 -0.0556 -0.1421
  422POPI    C2 6676  14.083   9.682   7.051  0.0741  0.0779 -0.1606
  422POPI    C3 6677  14.236   9.557   6.703  0.0916  0.0646 -0.1482
  422POPI   PO4 6678  13.760   9.983   6.687  0.3882  0.1926 -0.1110
  422POPI   GL1 6679  13.725  10.114   7.042 -0.1064  0.4126 -0.1471
  422POPI   GL2 6680  14.093  10.330   7.126  0.1117 -0.0240 -0.0182
  422POPI   C1A 6681  13.466  10.199   7.340 -0.4294 -0.2350  0.2405
  422POPI   D2A 6682  13.152  10.279   7.677 -0.2296  0.1567 -0.0777
  422POPI   C3A 6683  13.175  10.069   8.029 -0.1339 -0.2437  0.0613
  422POPI   C4A 6684  13.290   9.902   8.450 -0.2061  0.4296 -0.2543
  422POPI   C1B 6685  13.909  10.142   7.550 -0.1066 -0.1522 -0.3758
  422POPI   C2B 6686  13.709  10.164   7.960  0.0946  0.0642  0.0714
  422POPI   C3B 6687  13.746  10.229   8.471 -0.0924  0.1019  0.0297
  422POPI   C4B 6688  13.733   9.880   8.711  0.3358  0.0879  0.2752
  423POPI    C1 6689   5.382  13.057   6.374 -0.0725 -0.0591 -0.0360
  423POPI    C2 6690   5.728  12.884   6.271 -0.0716 -0.1411  0.1026
  423POPI    C3 6691   5.384  12.755   6.113 -0.0428 -0.0824 -0.0088
  423POPI   PO4 6692   5.483  13.170   6.609  0.2059 -0.0153 -0.1834
  423POPI   GL1 6693   5.511  12.911   6.989 -0.0573  0.1028 -0.2256
  423POPI   GL2 6694   5.654  13.021   7.297 -0.2264 -0.2598 -0.1635
  423POPI   C1A 6695   5.165  13.089   7.216 -0.0897 -0.4308 -0.2276
  423POPI   D2A 6696   5.187  13.410   7.634 -0.2465 -0.2242  0.0237
  423POPI   C3A 6697   5.394  13.331   8.057  0.0048 -0.1605  0.0628
  423POPI   C4A 6698   5.383  13.140   8.396  0.0775 -0.0078 -0.3067
  423POPI   C1B 6699   5.450  12.921   7.648  0.1118 -0.2693  0.0230
  423POPI   C2B 6700   5.031  12.990   7.930 -0.0736 -0.0659  0.2398
  423POPI   C3B 6701   4.814  13.074   8.293 -0.1214  0.2925 -0.1987
  423POPI   C4B 6702   4.906  13.051   8.812  0.0918 -0.0834  0.3252
  424POPI    C1 6703  14.362   7.624   6.262 -0.0917 -0.1876  0.2155
  424POPI    C2 6704  14.152   7.284   6.255 -0.2251 -0.1025 -0.0566
  424POPI    C3 6705  14.371   7.390   5.938 -0.2464  0.1035 -0.0038
  424POPI   PO4 6706  14.168   7.731   6.490  0.1170 -0.1436  0.2989
  424POPI   GL1 6707  14.100   7.761   6.836 -0.0719 -0.0514 -0.0516
  424POPI   GL2 6708  14.073   7.489   6.976 -0.3941 -0.5874 -0.3592
  424POPI   C1A 6709  14.266   7.901   7.246  0.2012  0.0289 -0.4274
  424POPI   D2A 6710  14.072   7.867   7.673 -0.0577 -0.2252 -0.0806
  424POPI   C3A 6711  13.875   8.209   7.971 -0.1103  0.0249 -0.0389
  424POPI   C4A 6712  13.646   8.261   8.396  0.3541 -0.0346 -0.0716
  424POPI   C1B 6713  14.057   7.489   7.431  0.2176  0.2754 -0.3226
  424POPI   C2B 6714  13.907   7.351   7.788  0.3207 -0.0084 -0.0130
  424POPI   C3B 6715  13.925   7.149   8.166 -0.1123 -0.1177  0.1803
  424POPI   C4B 6716  13.968   7.423   8.610  0.1045  0.0256  0.1314
  425POPI    C1 6717   4.552   9.156   6.343  0.0392  0.1565  0.0925
  425POPI    C2 6718   4.930   9.114   6.218 -0.0571  0.0423 -0.1657
  425POPI    C3 6719   4.752   9.471   6.199  0.0954  0.1364  0.1264
  425POPI   PO4 6720   4.566   9.024   6.639  0.1082  0.1283  0.1120
  425POPI   GL1 6721   4.474   9.171   7.108 -0.5227  0.0237 -0.1534
  425POPI   GL2 6722   4.270   8.938   7.105  0.0559 -0.2722 -0.0143
  425POPI   C1A 6723   4.397   9.229   7.557  0.1746 -0.1160 -0.0384
  425POPI   D2A 6724   4.188   9.250   7.976 -0.2670  0.1823  0.2858
  425POPI   C3A 6725   4.366   9.152   8.377 -0.0907  0.1233 -0.0415
  425POPI   C4A 6726   4.492   8.922   8.797  0.1691 -0.0308  0.1380
  425POPI   C1B 6727   3.842   8.903   7.287  0.3181 -0.0491 -0.3300
  425POPI   C2B 6728   3.790   9.060   7.750  0.1396 -0.2160  0.1008
  425POPI   C3B 6729   3.714   9.068   8.176 -0.1525  0.0330 -0.2201
  425POPI   C4B 6730   3.909   8.936   8.513  0.2152  0.0828  0.0632
  426POPI    C1 6731  10.063  10.838   6.704  0.0219 -0.3341 -0.1950
  426POPI    C2 6732   9.741  10.936   6.487 -0.1023 -0.0669  0.1018
  426POPI    C3 6733   9.841  10.551   6.534 -0.2515 -0.1415 -0.1690
  426POPI   PO4 6734  10.045  10.944   6.957 -0.3842 -0.0615 -0.1014
  426POPI   GL1 6735  10.158  11.184   7.290  0.2577  0.0221  0.3690
  426POPI   GL2 6736   9.966  11.014   7.493  0.0579  0.1837  0.4859
  426POPI   C1A 6737  10.483  11.308   7.494  0.0758 -0.2489  0.0079
  426POPI   D2A 6738  10.758  11.543   7.783  0.0601  0.2001  0.1397
  426POPI   C3A 6739  10.687  11.544   8.199  0.0939 -0.0277  0.0822
  426POPI   C4A 6740  10.542  11.522   8.539  0.1767  0.0866 -0.1956
  426POPI   C1B 6741   9.771  10.790   7.938 -0.4463 -0.1502 -0.0572
  426POPI   C2B 6742   9.839  10.619   8.246  0.3767  0.1589 -0.2689
  426POPI   C3B 6743   9.543  10.707   8.538  0.2651 -0.2205  0.2344
  426POPI   C4B 6744   9.321  10.962   8.738 -0.1430 -0.0477  0.3441
  427POPI    C1 6745   4.453   3.316   6.554  0.1408  0.2050  0.2306
  427POPI    C2 6746   4.794   3.181   6.395  0.1212  0.0994  0.2769
  427POPI    C3 6747   4.605   3.493   6.229 -0.0582 -0.1959 -0.0902
  427POPI   PO4 6748   4.541   3.385   6.798 -0.0388  0.0646  0.4274
  427POPI   GL1 6749   4.706   3.522   7.153  0.0462 -0.1638  0.0093
  427POPI   GL2 6750   4.892   3.855   7.085 -0.2056  0.0437  0.0715
  427POPI   C1A 6751   4.985   3.352   7.391 -0.0002 -0.0464 -0.3280
  427POPI   D2A 6752   4.888   3.240   7.801  0.0651  0.1970 -0.1286
  427POPI   C3A 6753   4.564   2.982   7.918 -0.1738  0.0810  0.4204
  427POPI   C4A 6754   4.180   3.154   7.852  0.0536 -0.3370 -0.3936
  427POPI   C1B 6755   4.927   3.820   7.487 -0.0334  0.1167  0.0264
  427POPI   C2B 6756   4.912   3.750   7.914 -0.0585  0.2814  0.0054
  427POPI   C3B 6757   4.902   3.693   8.315  0.3272  0.2424 -0.1112
  427POPI   C4B 6758   4.761   3.565   8.703 -0.1056  0.2124 -0.1098
  428POPI    C1 6759   5.891  14.318   6.210  0.0265  0.0619  0.0551
  428POPI    C2 6760   5.836  13.929   6.284  0.1252 -0.0341 -0.3509
  428POPI    C3 6761   5.592  14.121   6.032 -0.0133  0.2068 -0.0401
  428POPI   PO4 6762   5.854  14.442   6.503 -0.0392 -0.0318 -0.0311
  428POPI   GL1 6763   5.669  14.287   6.854 -0.0567  0.2472  0.2316
  428POPI   GL2 6764   5.743  14.124   7.151 -0.1621 -0.1901 -0.2643
  428POPI   C1A 6765   5.324  14.430   7.191  0.1778 -0.2589 -0.2383
  428POPI   D2A 6766   5.240  14.558   7.714  0.2316  0.0020  0.1030
  428POPI   C3A 6767   5.378  14.516   8.112  0.0932 -0.0076 -0.1192
  428POPI   C4A 6768   5.713  14.735   8.346 -0.1264  0.0556  0.1488
  428POPI   C1B 6769   5.683  14.226   7.619 -0.0377  0.1133  0.1781
  428POPI   C2B 6770   5.733  14.180   7.992 -0.1063 -0.2631  0.0574
  428POPI   C3B 6771   6.045  13.957   8.315  0.1015 -0.1744  0.1229
  428POPI   C4B 6772   6.353  13.594   8.348  0.2693 -0.0149  0.0739
  429POPS   CNO 6773  11.728  16.415   6.928 -0.0811  0.1196 -0.0945
  429POPS   PO4 6774  11.351  16.284   6.947 -0.1524 -0.0884  0.0466
  429POPS   GL1 6775  11.565  15.963   7.270  0.0514 -0.0373 -0.0488
  429POPS   GL2 6776  11.792  15.941   7.124  0.0750 -0.1958  0.0275
  429POPS   C1A 6777  11.585  15.796   7.691  0.3764 -0.0192 -0.2531
  429POPS   D2A 6778  11.644  15.754   8.079  0.0984  0.2544  0.3190
  429POPS   C3A 6779  11.315  16.045   8.227 -0.1362 -0.1681 -0.0461
  429POPS   C4A 6780  11.003  16.110   8.651  0.1723  0.4726  0.0605
  429POPS   C1B 6781  11.940  15.569   7.231  0.1096  0.2757 -0.1606
  429POPS   C2B 6782  12.100  15.144   7.247  0.1486 -0.0038 -0.1251
  429POPS   C3B 6783  12.166  14.884   7.519 -0.3093 -0.0608 -0.1853
  429POPS   C4B 6784  12.104  14.621   7.965  0.2313  0.0232 -0.1184
  430POPS   CNO 6785   2.184   8.662   6.249 -0.0914  0.1572 -0.0275
  430POPS   PO4 6786   2.472   8.675   6.621 -0.1662  0.2682  0.0158
  430POPS   GL1 6787   2.449   8.719   7.083 -0.1377  0.1010 -0.0357
  430POPS   GL2 6788   2.205   8.593   7.280  0.0442 -0.2253  0.2951
  430POPS   C1A 6789   2.702   8.822   7.407 -0.0701 -0.1202 -0.1022
  430POPS   D2A 6790   2.732   8.883   7.883  0.1732  0.0014  0.0014
  430POPS   C3A 6791   2.985   8.885   8.059 -0.0884  0.1566  0.1554
  430POPS   C4A 6792   3.051   8.996   8.463  0.0778 -0.0243 -0.3594
  430POPS   C1B 6793   2.510   8.429   7.579  0.0885  0.2364  0.0620
  430POPS   C2B 6794   2.883   8.429   7.815 -0.0189  0.1473  0.1197
  430POPS   C3B 6795   3.004   8.421   8.276  0.0491 -0.2426 -0.2538
  430POPS   C4B 6796   3.116   8.575   8.696  0.3597 -0.0804  0.1697
  431POPS   CNO 6797  16.799  14.903   6.767  0.0005 -0.0526  0.1436
  431POPS   PO4 6798  16.914  15.316   6.765 -0.0057 -0.0531  0.0209
  431POPS   GL1 6799  16.750  15.282   7.228 -0.0834  0.0234 -0.0060
  431POPS   GL2 6800  16.639  15.622   7.353 -0.0109 -0.0900 -0.1538
  431POPS   C1A 6801  16.787  15.254   7.612  0.0894  0.0296  0.1511
  431POPS   D2A 6802  16.831  15.342   7.978 -0.2784  0.0693 -0.0780
  431POPS   C3A 6803  16.835  15.793   8.250  0.3998 -0.0186 -0.1365
  431POPS   C4A 6804  17.099  16.087   8.354 -0.0196  0.1529 -0.0881
  431POPS   C1B 6805  16.534  15.914   7.649 -0.1316 -0.0544 -0.1881
  431POPS   C2B 6806  16.384  15.743   7.995  0.1369 -0.2218 -0.0535
  431POPS   C3B 6807  16.235  15.801   8.425 -0.1271 -0.2752 -0.2098
  431POPS   C4B 6808  16.253  16.169   8.812  0.0960  0.3366  0.0049
  432POPS   CNO 6809   5.777   3.546   6.698  0.2189 -0.0480 -0.1002
  432POPS   PO4 6810   5.387   3.496   6.766 -0.0985  0.2468 -0.1143
  432POPS   GL1 6811   5.526   3.311   7.129  0.0194 -0.3304 -0.2797
  432POPS   GL2 6812   5.756   3.481   7.295 -0.1147 -0.0502 -0.4412
  432POPS   C1A 6813   5.463   3.250   7.625 -0.1154 -0.1294 -0.0422
  432POPS   D2A 6814   5.282   3.358   8.058  0.2659 -0.2807 -0.1389
  432POPS   C3A 6815   4.869   3.181   8.279  0.2794 -0.1835 -0.0970
  432POPS   C4A 6816   4.870   2.826   8.558 -0.0880  0.0638 -0.4511
  432POPS   C1B 6817   5.845   3.709   7.653  0.0616  0.0136 -0.4460
  432POPS   C2B 6818   5.791   3.486   8.017  0.2468  0.3959 -0.1797
  432POPS   C3B 6819   5.693   3.353   8.376 -0.2036 -0.1700 -0.2435
  432POPS   C4B 6820   5.327   3.477   8.524  0.1922  0.0727  0.1650
  433POPS   CNO 6821  14.101   8.251   6.639 -0.1181  0.2369 -0.2295
  433POPS   PO4 6822  13.683   8.329   6.790  0.0844 -0.0125  0.1184
  433POPS   GL1 6823  13.949   8.254   7.149 -0.0859 -0.2721 -0.0621
  433POPS   GL2 6824  14.266   8.394   7.192 -0.1091  0.3992 -0.0948
  433POPS   C1A 6825  13.783   8.265   7.487 -0.0988  0.2729  0.0499
  433POPS   D2A 6826  13.563   8.584   7.739 -0.1356 -0.1307 -0.2245
  433POPS   C3A 6827  13.578   8.683   8.268 -0.1637 -0.1212 -0.0182
  433POPS   C4A 6828  13.478   8.817   8.557  0.2309 -0.2400 -0.3072
  433POPS   C1B 6829  14.284   8.329   7.654 -0.1577  0.0395 -0.0417
  433POPS   C2B 6830  14.390   8.153   8.090  0.0337 -0.1220  0.0831
  433POPS   C3B 6831  14.084   8.066   8.408 -0.0257  0.1107 -0.0351
  433POPS   C4B 6832  13.762   7.915   8.779 -0.1288 -0.0314  0.1640
  434POPS   CNO 6833  15.947  17.118   6.256 -0.1430  0.1355  0.1270
  434POPS   PO4 6834  16.111  16.848   6.525  0.3988 -0.1226  0.3040
  434POPS   GL1 6835  16.140  17.006   6.913  0.2391 -0.2191  0.2072
  434POPS   GL2 6836  15.884  16.952   7.076  0.1247  0.2234 -0.0714
  434POPS   C1A 6837  16.084  17.484   7.145 -0.0223 -0.3325  0.1338
  434POPS   D2A 6838  15.966  17.596   7.746 -0.4690 -0.1363  0.5808
  434POPS   C3A 6839  15.888  17.727   8.290  0.0787 -0.0932 -0.0736
  434POPS   C4A 6840  15.634  18.122   8.358  0.1732  0.0145 -0.0246
  434POPS   C1B 6841  16.066  17.073   7.434  0.0878  0.1552 -0.0221
  434POPS   C2B 6842  16.104  17.173   7.907  0.2208  0.5089 -0.1540
  434POPS   C3B 6843  16.274  17.402   8.295  0.2047 -0.0370  0.0389
  434POPS   C4B 6844  16.286  17.541   8.718 -0.2155 -0.0896  0.2935
  435POPS   CNO 6845   7.281  11.261   6.381  0.1174 -0.1241  0.1613
  435POPS   PO4 6846   7.056  11.127   6.727  0.0609  0.1964 -0.1314
  435POPS   GL1 6847   6.863  10.891   7.034 -0.1957  0.0061  0.1835
  435POPS   GL2 6848   6.551  11.022   7.131 -0.0300  0.4473  0.1320
  435POPS   C1A 6849   6.933  10.523   7.283 -0.0393  0.2090 -0.1312
  435POPS   D2A 6850   7.035  10.174   7.448 -0.0651 -0.0644  0.0026
  435POPS   C3A 6851   7.149  10.167   7.711  0.3370  0.2980  0.2779
  435POPS   C4A 6852   7.211  10.093   8.061  0.0348  0.2244 -0.1579
  435POPS   C1B 6853   6.484  10.622   7.327  0.2640 -0.4287  0.3627
  435POPS   C2B 6854   6.716  10.462   7.766  0.2548  0.1344 -0.0643
  435POPS   C3B 6855   6.575  10.312   8.227 -0.1794 -0.0088 -0.2020
  435POPS   C4B 6856   6.324   9.980   8.278 -0.2731  0.3609  0.0138
  436POPS   CNO 6857  10.388   4.019   6.198 -0.0487 -0.0220 -0.0009
  436POPS   PO4 6858  10.361   4.272   6.476  0.3394  0.0555  0.1904
  436POPS   GL1 6859  10.242   4.413   6.908 -0.2726  0.3206  0.1443
  436POPS   GL2 6860  10.210   4.670   7.142  0.0169  0.1070  0.2523
  436POPS   C1A 6861   9.995   4.208   7.210  0.2556 -0.1286 -0.1618
  436POPS   D2A 6862   9.688   4.066   7.596  0.0284 -0.1250  0.3262
  436POPS   C3A 6863   9.836   4.007   8.044  0.0134  0.3857  0.2868
  436POPS   C4A 6864   9.628   3.904   8.446 -0.1720 -0.1429  0.1335
  436POPS   C1B 6865  10.169   4.512   7.616 -0.2527 -0.2450  0.1537
  436POPS   C2B 6866  10.238   4.293   7.983 -0.2735 -0.1033 -0.0154
  436POPS   C3B 6867  10.145   4.308   8.384  0.1599  0.1202  0.0418
  436POPS   C4B 6868  10.151   4.041   8.706  0.0193  0.3359  0.3879
  437POPS   CNO 6869   4.752   1.742   6.336 -0.1852 -0.1629  0.1886
  437POPS   PO4 6870   4.536   1.941   6.739  0.2907  0.0488  0.0331
  437POPS   GL1 6871   4.648   1.817   7.085  0.1491 -0.2004 -0.5093
  437POPS   GL2 6872   4.498   1.585   7.291 -0.4655  0.1755  0.1577
  437POPS   C1A 6873   4.874   2.080   7.319  0.1212  0.3695  0.2125
  437POPS   D2A 6874   5.008   2.470   7.158  0.0415  0.3234  0.0427
  437POPS   C3A 6875   4.826   2.869   7.210  0.0200 -0.1506 -0.2467
  437POPS   C4A 6876   4.548   3.138   7.455 -0.0956  0.2357  0.0894
  437POPS   C1B 6877   4.232   1.556   7.638  0.0104  0.0238 -0.0818
  437POPS   C2B 6878   3.866   1.339   7.784 -0.1380  0.2597 -0.1119
  437POPS   C3B 6879   3.755   1.457   8.174 -0.1145 -0.2131  0.2946
  437POPS   C4B 6880   3.827   1.827   8.479 -0.2804 -0.1405 -0.2729
  438POPS   CNO 6881   6.220   9.014   6.414 -0.1314  0.1491  0.2154
  438POPS   PO4 6882   5.986   8.819   6.271  0.2115 -0.2030  0.0191
  438POPS   GL1 6883   6.074   8.537   6.605 -0.0235 -0.1122  0.0618
  438POPS   GL2 6884   6.348   8.682   6.750 -0.1324  0.0072  0.1401
  438POPS   C1A 6885   5.762   8.296   6.863 -0.1823  0.0011  0.1508
  438POPS   D2A 6886   5.571   8.269   7.127  0.2159 -0.0302  0.1835
  438POPS   C3A 6887   5.492   8.048   7.453 -0.0004 -0.1737  0.0381
  438POPS   C4A 6888   5.629   8.012   7.855 -0.1589 -0.1316 -0.0968
  438POPS   C1B 6889   6.485   8.582   7.180  0.1395  0.0333 -0.0192
  438POPS   C2B 6890   6.677   8.283   7.504  0.0942  0.1666 -0.2151
  438POPS   C3B 6891   6.665   8.201   7.846  0.0816 -0.2261 -0.1398
  438POPS   C4B 6892   6.761   7.932   8.161 -0.0829 -0.2456 -0.0478
  439POPS   CNO 6893   9.349   7.529   6.263 -0.0117 -0.5292  0.0462
  439POPS   PO4 6894   8.922   7.562   6.351  0.0396  0.0806  0.0421
  439POPS   GL1 6895   8.775   7.690   6.771  0.1347 -0.0209  0.1319
  439POPS   GL2 6896   8.681   7.500   6.997 -0.1674  0.3576  0.1004
  439POPS   C1A 6897   8.936   7.875   7.142 -0.3053 -0.1791 -0.1488
  439POPS   D2A 6898   9.024   7.958   7.663 -0.1045 -0.1340 -0.0125
  439POPS   C3A 6899   9.038   7.704   8.072  0.2757  0.2868 -0.0538
  439POPS   C4A 6900   9.150   7.383   8.452 -0.1284 -0.1190 -0.2529
  439POPS   C1B 6901   8.867   7.225   7.243 -0.2065  0.0444  0.0058
  439POPS   C2B 6902   8.886   7.415   7.549  0.2804 -0.0801  0.2215
  439POPS   C3B 6903   8.798   7.232   7.887  0.0401 -0.2245  0.1381
  439POPS   C4B 6904   8.374   7.155   7.919 -0.2529  0.4522 -0.0300
  440POPS   CNO 6905  12.765   6.075   6.711  0.1623 -0.3294 -0.1381
  440POPS   PO4 6906  13.115   5.720   6.707  0.1363 -0.1822  0.0492
  440POPS   GL1 6907  13.089   5.799   7.072  0.0825 -0.0683 -0.3174
  440POPS   GL2 6908  13.435   5.883   7.162 -0.3431 -0.0742  0.0054
  440POPS   C1A 6909  12.949   5.619   7.500  0.0161 -0.3356 -0.0429
  440POPS   D2A 6910  12.820   5.454   7.963  0.0384 -0.0520 -0.1282
  440POPS   C3A 6911  13.082   5.495   8.268  0.1767 -0.2744  0.0109
  440POPS   C4A 6912  13.168   5.619   8.685 -0.3146 -0.0366 -0.0913
  440POPS   C1B 6913  13.409   5.777   7.527  0.2308  0.1519 -0.4762
  440POPS   C2B 6914  13.432   5.953   7.925  0.3379  0.0910 -0.0297
  440POPS   C3B 6915  13.369   5.987   8.326  0.0029 -0.0290  0.2612
  440POPS   C4B 6916  13.303   6.502   8.442  0.1948 -0.1675  0.4019
  441POPS   CNO 6917  15.699   4.140   6.358 -0.0427 -0.1563 -0.1247
  441POPS   PO4 6918  15.933   3.804   6.573  0.0572  0.2554 -0.0281
  441POPS   GL1 6919  15.640   3.995   6.819 -0.0591  0.1637  0.1511
  441POPS   GL2 6920  15.609   3.848   7.039 -0.1391  0.0599  0.3980
  441POPS   C1A 6921  15.334   4.296   7.153  0.3648  0.4071 -0.0704
  441POPS   D2A 6922  15.116   4.163   7.482 -0.0204 -0.0766  0.4322
  441POPS   C3A 6923  15.134   4.180   7.836  0.0276  0.1922  0.1650
  441POPS   C4A 6924  14.940   4.166   8.365 -0.0598  0.0197  0.0538
  441POPS   C1B 6925  15.632   4.091   7.496 -0.0894 -0.0264  0.0409
  441POPS   C2B 6926  15.594   4.237   7.974  0.3144  0.0096 -0.0738
  441POPS   C3B 6927  15.284   4.434   8.248  0.2129 -0.1342 -0.0461
  441POPS   C4B 6928  15.287   4.575   8.641 -0.0203 -0.0174  0.0977
  442POPS   CNO 6929   5.292   9.528   6.392 -0.4238 -0.0805  0.1893
  442POPS   PO4 6930   5.404   9.265   6.545  0.1432 -0.0730 -0.0991
  442POPS   GL1 6931   5.421   9.237   6.930 -0.1935 -0.1564  0.1270
  442POPS   GL2 6932   5.294   9.425   7.043  0.0799 -0.1205  0.1005
  442POPS   C1A 6933   5.442   9.104   7.408  0.3648  0.0370  0.0730
  442POPS   D2A 6934   5.575   8.955   7.730 -0.0354  0.1353 -0.0573
  442POPS   C3A 6935   5.477   8.965   8.133  0.2014  0.2072 -0.2987
  442POPS   C4A 6936   5.413   9.140   8.516  0.2535 -0.3636  0.1073
  442POPS   C1B 6937   5.117   9.624   7.342  0.0792  0.1894 -0.2031
  442POPS   C2B 6938   5.074   9.857   7.792  0.1508 -0.0369 -0.2136
  442POPS   C3B 6939   5.441   9.892   8.133  0.0642 -0.0957 -0.1984
  442POPS   C4B 6940   5.376  10.054   8.569 -0.1689  0.1401  0.1927
  443POPS   CNO 6941   6.185   2.773   6.731  0.1819  0.2208 -0.0257
  443POPS   PO4 6942   6.565   2.946   6.926  0.2377  0.2585  0.1112
  443POPS   GL1 6943   6.449   2.709   7.207 -0.0505 -0.0670 -0.0580
  443POPS   GL2 6944   6.333   2.831   7.410  0.2621 -0.3622  0.0724
  443POPS   C1A 6945   6.516   2.318   7.368  0.1803 -0.0041 -0.1984
  443POPS   D2A 6946   6.859   2.139   7.607 -0.0159 -0.0976 -0.3402
  443POPS   C3A 6947   6.908   2.206   7.993 -0.0836  0.1521  0.3012
  443POPS   C4A 6948   6.908   2.538   8.275 -0.3967  0.0290  0.3304
  443POPS   C1B 6949   6.491   2.994   7.909  0.2649  0.1162 -0.1196
  443POPS   C2B 6950   6.593   3.059   8.313 -0.0376  0.1490 -0.0328
  443POPS   C3B 6951   6.981   3.188   8.394 -0.0349  0.1990  0.0893
  443POPS   C4B 6952   7.414   3.230   8.417 -0.1916 -0.1299  0.3736
  444POPS   CNO 6953   7.741  11.474   6.552 -0.0673 -0.1451  0.3107
  444POPS   PO4 6954   7.643  11.256   6.921 -0.0617 -0.3413  0.2452
  444POPS   GL1 6955   7.398  11.288   7.181  0.1158 -0.1337 -0.1098
  444POPS   GL2 6956   7.094  11.282   7.205 -0.1826 -0.4517 -0.1268
  444POPS   C1A 6957   7.308  11.361   7.615 -0.0241 -0.1438  0.4118
  444POPS   D2A 6958   7.159  11.303   8.040 -0.0329  0.0311  0.3041
  444POPS   C3A 6959   7.444  11.470   8.336 -0.0074  0.0283  0.1209
  444POPS   C4A 6960   7.391  11.337   8.719  0.0320 -0.1191  0.3536
  444POPS   C1B 6961   6.874  11.070   7.538  0.2318 -0.0988  0.1988
  444POPS   C2B 6962   6.791  10.984   7.943 -0.1542  0.1402 -0.0637
  444POPS   C3B 6963   6.592  10.825   8.329 -0.0279 -0.3595  0.2761
  444POPS   C4B 6964   6.558  10.578   8.643  0.1688 -0.0518  0.2344
  445POPS   CNO 6965  16.755  11.199   7.278 -0.1016 -0.1834 -0.0897
  445POPS   PO4 6966  17.144  11.334   7.015 -0.3311 -0.0479 -0.2133
  445POPS   GL1 6967  17.420  11.301   7.424 -0.0852 -0.0486 -0.0584
  445POPS   GL2 6968  17.665  11.027   7.489 -0.3232 -0.0310  0.1215
  445POPS   C1A 6969  17.232  11.277   7.828  0.1211 -0.0659 -0.0260
  445POPS   D2A 6970  17.058  10.978   8.151  0.0037 -0.0303  0.2391
  445POPS   C3A 6971  17.053  11.052   8.564  0.2170  0.1260 -0.1575
  445POPS   C4A 6972  17.078  11.043   8.908 -0.0503 -0.1644 -0.1944
  445POPS   C1B 6973  17.923  10.973   7.754 -0.2237  0.1137  0.1778
  445POPS   C2B 6974  18.086  11.041   8.143  0.0598  0.1861  0.2288
  445POPS   C3B 6975  18.007  11.295   8.520  0.1294  0.1128  0.2930
  445POPS   C4B 6976  18.216  11.625   8.786 -0.3069  0.0417  0.0750
  446POPS   CNO 6977   9.015  14.705   6.654 -0.3467  0.2955 -0.0590
  446POPS   PO4 6978   9.050  14.497   7.076  0.3806  0.1446 -0.0036
  446POPS   GL1 6979   8.847  14.607   7.440 -0.0174  0.0569 -0.1047
  446POPS   GL2 6980   8.663  14.845   7.490 -0.0283 -0.0213  0.0328
  446POPS   C1A 6981   8.902  14.546   7.809  0.2228 -0.0607  0.1456
  446POPS   D2A 6982   8.943  14.695   8.201  0.2377 -0.1351  0.0366
  446POPS   C3A 6983   8.876  14.674   8.669  0.0099  0.4213  0.1834
  446POPS   C4A 6984   8.754  14.921   9.004  0.1808 -0.1393  0.2973
  446POPS   C1B 6985   8.633  15.000   7.864  0.3322  0.0777 -0.2209
  446POPS   C2B 6986   8.591  15.055   8.346  0.1856 -0.1496 -0.0583
  446POPS   C3B 6987   8.339  14.913   8.694  0.0019 -0.0163 -0.1438
  446POPS   C4B 6988   8.270  14.815   9.086  0.1650 -0.0918  0.0228
  447POPS   CNO 6989  17.446   4.680   6.261 -0.1290 -0.1188  0.0870
  447POPS   PO4 6990  17.194   4.650   6.634 -0.0846 -0.1848  0.1553
  447POPS   GL1 6991  16.964   4.705   6.952  0.1919  0.0637 -0.0442
  447POPS   GL2 6992  17.030   4.403   7.186 -0.3064  0.0835 -0.2163
  447POPS   C1A 6993  16.567   4.844   7.109 -0.1599  0.2169 -0.2865
  447POPS   D2A 6994  16.228   4.649   7.365 -0.2361  0.0247  0.1250
  447POPS   C3A 6995  15.752   4.559   7.373 -0.3917  0.0212  0.0252
  447POPS   C4A 6996  15.390   4.580   7.579 -0.2487 -0.0037  0.0581
  447POPS   C1B 6997  16.703   4.401   7.369  0.0559 -0.3180 -0.2411
  447POPS   C2B 6998  16.529   4.652   7.783 -0.0935  0.3537 -0.1535
  447POPS   C3B 6999  16.450   5.008   7.924  0.0964  0.2901 -0.0631
  447POPS   C4B 7000  16.049   5.036   8.104  0.3498  0.0163 -0.2466
  448POPS   CNO 7001  12.468   7.271   6.342  0.1341 -0.2124  0.1668
  448POPS   PO4 7002  12.398   6.893   6.447 -0.2701 -0.0249  0.1651
  448POPS   GL1 7003  12.432   6.700   6.888  0.0907  0.1712 -0.2350
  448POPS   GL2 7004  12.563   6.883   7.238 -0.1172 -0.1907 -0.1429
  448POPS   C1A 7005  12.117   6.717   7.105 -0.2662 -0.0631  0.3199
  448POPS   D2A 7006  11.792   7.071   7.186  0.1042  0.4046  0.1332
  448POPS   C3A 7007  11.708   7.167   7.594 -0.0491  0.0099 -0.2767
  448POPS   C4A 7008  11.753   7.535   7.696  0.0145  0.1670 -0.0033
  448POPS   C1B 7009  12.721   7.101   7.573 -0.1597 -0.3012  0.0855
  448POPS   C2B 7010  13.017   7.077   7.920  0.0613 -0.0938 -0.1155
  448POPS   C3B 7011  12.960   6.865   8.267 -0.2694  0.2867 -0.0510
  448POPS   C4B 7012  12.579   6.894   8.532  0.0665 -0.1263 -0.0793
  449POPS   CNO 7013   4.586   7.846   6.516 -0.0994 -0.0069  0.3217
  449POPS   PO4 7014   4.406   8.252   6.510 -0.0606 -0.1460 -0.2009
  449POPS   GL1 7015   4.365   8.526   6.796 -0.0868  0.1515 -0.1566
  449POPS   GL2 7016   4.652   8.603   6.982 -0.0135 -0.3717  0.0110
  449POPS   C1A 7017   4.084   8.491   7.224 -0.1138  0.3269 -0.0676
  449POPS   D2A 7018   4.187   8.775   7.640  0.1224  0.1969  0.0710
  449POPS   C3A 7019   4.227   8.767   8.153 -0.0223 -0.1544 -0.1217
  449POPS   C4A 7020   4.439   8.529   8.476  0.1424  0.1082  0.1790
  449POPS   C1B 7021   4.649   8.705   7.320  0.1489  0.3605  0.1359
  449POPS   C2B 7022   4.662   8.481   7.733  0.0439 -0.0244  0.2765
  449POPS   C3B 7023   4.564   8.138   8.102 -0.0446  0.0762  0.2352
  449POPS   C4B 7024   4.512   7.921   8.502 -0.1667 -0.3101  0.0667
  450POPS   CNO 7025   3.836   9.031   6.175 -0.2761 -0.1646 -0.1613
  450POPS   PO4 7026   3.606   9.007   6.503  0.1195  0.2550 -0.0098
  450POPS   GL1 7027   3.629   9.204   6.847 -0.1721  0.0192  0.1631
  450POPS   GL2 7028   3.786   9.472   6.865  0.3560  0.3381 -0.3713
  450POPS   C1A 7029   3.420   9.327   7.272 -0.1424  0.0184 -0.3634
  450POPS   D2A 7030   3.433   9.473   7.621 -0.0452 -0.1074  0.1775
  450POPS   C3A 7031   3.300   9.357   8.113  0.1453  0.0653  0.0402
  450POPS   C4A 7032   3.424   9.334   8.522  0.2207 -0.0002 -0.1447
  450POPS   C1B 7033   4.053   9.465   7.289 -0.1969  0.1138 -0.2992
  450POPS   C2B 7034   4.156   9.656   7.702 -0.1025 -0.0398 -0.0315
  450POPS   C3B 7035   4.096   9.862   8.114 -0.0427 -0.1680  0.2272
  450POPS   C4B 7036   4.186   9.821   8.592  0.1035 -0.1610  0.1002
  451POPS   CNO 7037   7.247  12.453   6.886  0.0206 -0.1389  0.0403
  451POPS   PO4 7038   7.257  12.098   6.943 -0.2393  0.0273  0.0496
  451POPS   GL1 7039   7.457  12.193   7.292 -0.2375  0.1370  0.1641
  451POPS   GL2 7040   7.291  12.408   7.367 -0.2261  0.2904 -0.2169
  451POPS   C1A 7041   7.800  12.208   7.606  0.2507 -0.0015  0.0762
  451POPS   D2A 7042   8.004  12.538   7.916 -0.1122 -0.0455 -0.0963
  451POPS   C3A 7043   7.894  12.624   8.393  0.2257 -0.0467  0.1231
  451POPS   C4A 7044   7.846  12.741   8.732  0.0565  0.2403 -0.0426
  451POPS   C1B 7045   7.411  12.327   7.835  0.0008 -0.0909  0.1536
  451POPS   C2B 7046   7.692  12.237   8.127 -0.0806  0.0365 -0.0098
  451POPS   C3B 7047   7.649  12.242   8.516 -0.0054 -0.1259  0.0804
  451POPS   C4B 7048   7.819  12.266   9.017  0.1383  0.2415  0.0872
  452POPS   CNO 7049   5.304   5.355   6.316 -0.0424 -0.1044 -0.1205
  452POPS   PO4 7050   5.088   5.378   6.704 -0.0860 -0.2124  0.0589
  452POPS   GL1 7051   4.886   5.130   6.920 -0.0356 -0.1413  0.0354
  452POPS   GL2 7052   5.035   5.241   7.156 -0.1069 -0.0156 -0.0039
  452POPS   C1A 7053   4.629   5.128   7.489 -0.0996  0.2547  0.0288
  452POPS   D2A 7054   4.543   5.026   7.861  0.2022  0.0133 -0.2341
  452POPS   C3A 7055   4.510   5.339   8.244 -0.4742  0.0490 -0.2166
  452POPS   C4A 7056   4.397   5.598   8.593 -0.0485 -0.0121  0.1670
  452POPS   C1B 7057   5.245   5.065   7.549  0.0868 -0.1061  0.0920
  452POPS   C2B 7058   5.045   4.913   7.847 -0.2444  0.0692 -0.1016
  452POPS   C3B 7059   4.780   4.803   8.276  0.1659  0.1048  0.0134
  452POPS   C4B 7060   4.648   4.762   8.700 -0.2740  0.0093 -0.1257
  453POPS   CNO 7061  15.838  11.007   6.459 -0.0665  0.1479  0.0001
  453POPS   PO4 7062  15.764  10.682   6.746 -0.0450 -0.2688 -0.0198
  453POPS   GL1 7063  15.608  10.614   7.167  0.0602 -0.1683  0.6208
  453POPS   GL2 7064  15.773  10.779   7.505 -0.0417 -0.3081  0.0337
  453POPS   C1A 7065  15.555  10.288   7.539 -0.0109 -0.1642 -0.1484
  453POPS   D2A 7066  15.641   9.949   7.757 -0.0262  0.0121  0.2028
  453POPS   C3A 7067  16.067  10.050   7.917  0.1959 -0.3161 -0.1660
  453POPS   C4A 7068  16.225  10.275   8.258 -0.1190 -0.0809  0.2436
  453POPS   C1B 7069  15.775  10.473   7.996  0.2457  0.0899  0.0710
  453POPS   C2B 7070  15.734  10.115   8.320 -0.1794 -0.1844 -0.0138
  453POPS   C3B 7071  15.847   9.770   8.623 -0.1923 -0.0504  0.1330
  453POPS   C4B 7072  16.046   9.639   8.978  0.0504  0.2105 -0.2069
  454POPS   CNO 7073   1.076   4.486   6.237 -0.0131 -0.0579 -0.1801
  454POPS   PO4 7074   1.345   4.264   6.496 -0.1157  0.2037  0.0948
  454POPS   GL1 7075   1.348   4.421   6.916 -0.1826 -0.2506 -0.0707
  454POPS   GL2 7076   1.690   4.631   6.930 -0.1005  0.2164  0.1021
  454POPS   C1A 7077   1.486   4.399   7.428  0.0234  0.1092  0.0354
  454POPS   D2A 7078   1.476   4.331   7.889 -0.3539 -0.0487  0.0597
  454POPS   C3A 7079   1.729   4.317   8.268 -0.1832  0.1350  0.1856
  454POPS   C4A 7080   1.909   4.442   8.603  0.1087  0.2451 -0.0952
  454POPS   C1B 7081   1.827   4.689   7.446  0.2668 -0.3495  0.2597
  454POPS   C2B 7082   1.825   4.681   7.823 -0.0590  0.3691 -0.1387
  454POPS   C3B 7083   1.675   4.811   8.275 -0.1740  0.2484  0.1165
  454POPS   C4B 7084   1.873   4.911   8.720 -0.1673  0.1564  0.3284
  455POPS   CNO 7085  14.786   1.027   6.463 -0.0091  0.0683 -0.0276
  455POPS   PO4 7086  14.566   0.824   6.415  0.1641 -0.2129 -0.2894
  455POPS   GL1 7087  14.222   0.591   6.661  0.2939 -0.1062  0.1380
  455POPS   GL2 7088  13.813   0.620   6.628  0.0440 -0.2267 -0.0365
  455POPS   C1A 7089  14.120   0.617   6.993  0.2759  0.0975 -0.0170
  455POPS   D2A 7090  14.112   0.681   7.477  0.3767 -0.1680 -0.1534
  455POPS   C3A 7091  14.251   0.860   7.825 -0.2548 -0.1035  0.5835
  455POPS   C4A 7092  14.080   1.139   8.095  0.1526 -0.1270  0.0062
  455POPS   C1B 7093  13.930   1.068   6.740  0.4241  0.0012 -0.1440
  455POPS   C2B 7094  13.988   1.144   7.044 -0.0812  0.0975  0.1583
  455POPS   C3B 7095  14.077   1.209   7.535  0.1751  0.0182  0.0277
  455POPS   C4B 7096  14.451   1.296   7.854 -0.2160  0.0016  0.0538
  456POPS   CNO 7097   2.155  15.642   6.202 -0.2322  0.2811 -0.2254
  456POPS   PO4 7098   1.887  15.694   6.539  0.1423 -0.2109  0.3130
  456POPS   GL1 7099   1.949  15.759   6.963 -0.3115  0.1049 -0.0158
  456POPS   GL2 7100   1.703  15.948   7.071 -0.0532 -0.0711  0.0872
  456POPS   C1A 7101   2.017  15.790   7.392  0.3649  0.0059 -0.2076
  456POPS   D2A 7102   1.951  15.997   7.791  0.2893  0.0380 -0.0310
  456POPS   C3A 7103   1.781  15.949   8.210  0.3228  0.1786  0.0124
  456POPS   C4A 7104   1.616  15.690   8.482 -0.1363  0.1218 -0.0647
  456POPS   C1B 7105   1.584  16.194   7.404 -0.1291  0.1169  0.0138
  456POPS   C2B 7106   1.487  16.282   7.905 -0.0070 -0.0797  0.2979
  456POPS   C3B 7107   1.486  16.294   8.382 -0.1217 -0.3155 -0.0699
  456POPS   C4B 7108   1.195  16.497   8.613  0.0524  0.3497 -0.0590
  457POPS   CNO 7109   9.000   2.128   6.410 -0.1441  0.0340  0.1029
  457POPS   PO4 7110   8.897   1.679   6.454 -0.0866 -0.2629 -0.4020
  457POPS   GL1 7111   8.963   1.823   6.876 -0.0542  0.1042  0.0347
  457POPS   GL2 7112   8.818   2.213   6.901  0.1077 -0.0752 -0.0063
  457POPS   C1A 7113   9.275   1.878   7.273 -0.1948 -0.1486 -0.0816
  457POPS   D2A 7114   9.305   1.680   7.606 -0.3497 -0.1181 -0.7978
  457POPS   C3A 7115   9.403   1.844   8.033 -0.0146 -0.0843  0.0091
  457POPS   C4A 7116   9.709   1.738   8.428  0.3891  0.1939  0.0734
  457POPS   C1B 7117   8.883   2.231   7.322 -0.0437 -0.3007  0.4584
  457POPS   C2B 7118   9.224   2.190   7.730  0.0198  0.0349  0.1073
  457POPS   C3B 7119   9.153   2.301   8.133  0.0209 -0.0559  0.2493
  457POPS   C4B 7120   9.335   2.651   8.391 -0.1993  0.0865 -0.2385
  458POPS   CNO 7121  13.333   4.529   6.587  0.2827  0.4290 -0.0525
  458POPS   PO4 7122  12.964   4.509   6.836 -0.1337 -0.1837  0.0330
  458POPS   GL1 7123  13.010   4.882   7.113 -0.1579  0.0000 -0.0151
  458POPS   GL2 7124  13.299   4.810   7.161 -0.2964  0.1884 -0.1352
  458POPS   C1A 7125  12.713   5.114   7.427 -0.0577  0.2004 -0.2269
  458POPS   D2A 7126  12.628   5.003   7.846  0.1833  0.0740 -0.2411
  458POPS   C3A 7127  12.584   4.555   7.855  0.0095 -0.0334  0.2262
  458POPS   C4A 7128  12.577   4.346   8.230  0.0187 -0.2539  0.2645
  458POPS   C1B 7129  13.546   4.569   7.537  0.0673 -0.1635 -0.1677
  458POPS   C2B 7130  13.592   4.598   7.863 -0.2615 -0.0408  0.1150
  458POPS   C3B 7131  13.821   4.437   8.193  0.0430 -0.0898 -0.2050
  458POPS   C4B 7132  13.968   4.505   8.639 -0.0535 -0.1681 -0.0507
  459POPS   CNO 7133   8.981   6.292   6.155 -0.1536  0.0643  0.0432
  459POPS   PO4 7134   9.248   6.615   6.210  0.0076 -0.0912  0.1446
  459POPS   GL1 7135   9.279   6.363   6.580  0.1797  0.0685  0.2373
  459POPS   GL2 7136   9.471   6.493   6.893 -0.2597 -0.3325 -0.4917
  459POPS   C1A 7137   9.192   6.029   6.812  0.1072  0.0012 -0.4572
  459POPS   D2A 7138   9.051   5.919   7.083  0.1075 -0.0719 -0.0833
  459POPS   C3A 7139   8.593   5.964   6.909 -0.4155 -0.0165 -0.2286
  459POPS   C4A 7140   8.366   6.254   7.062  0.2487 -0.0398 -0.0956
  459POPS   C1B 7141   9.348   6.514   7.335  0.1290  0.4900 -0.0599
  459POPS   C2B 7142   9.261   6.494   7.804  0.0430 -0.0275 -0.0180
  459POPS   C3B 7143   9.015   6.270   8.149 -0.2196  0.0976 -0.1088
  459POPS   C4B 7144   8.723   6.468   8.474 -0.1973 -0.0392  0.0154
  460POPS   CNO 7145   5.419  17.460   6.943 -0.1228 -0.0306 -0.1843
  460POPS   PO4 7146   5.002  17.671   6.958  0.0522  0.3097  0.0254
  460POPS   GL1 7147   4.763  17.567   7.218  0.0879  0.1368  0.4078
  460POPS   GL2 7148   4.763  17.905   7.400  0.1454  0.0600 -0.0788
  460POPS   C1A 7149   4.631  17.483   7.623 -0.0860  0.0540  0.1244
  460POPS   D2A 7150   4.527  17.353   8.095 -0.0150  0.1158  0.0111
  460POPS   C3A 7151   4.495  17.538   8.494  0.2293  0.1555  0.1514
  460POPS   C4A 7152   4.657  17.898   8.637 -0.2189 -0.2891 -0.0361
  460POPS   C1B 7153   4.843  17.953   7.878  0.0519 -0.1338  0.0330
  460POPS   C2B 7154   4.923  18.167   8.335 -0.0751  0.0627  0.0031
  460POPS   C3B 7155   4.991  18.507   8.722  0.0861  0.1829  0.2145
  460POPS   C4B 7156   5.221  18.785   8.970  0.3507 -0.2008 -0.1081
  461POPS   CNO 7157   9.447  15.188   7.206  0.0084  0.0971 -0.1029
  461POPS   PO4 7158   9.449  14.793   6.940  0.0472 -0.1202 -0.0153
  461POPS   GL1 7159   9.431  14.664   7.324  0.2319  0.0150  0.1674
  461POPS   GL2 7160   9.721  14.714   7.413 -0.0270 -0.2687  0.0662
  461POPS   C1A 7161   9.367  14.579   7.743  0.2608  0.0613 -0.0738
  461POPS   D2A 7162   9.399  14.679   8.208  0.2875  0.0805 -0.2546
  461POPS   C3A 7163   9.365  14.530   8.667  0.1279 -0.0159 -0.3275
  461POPS   C4A 7164   9.271  14.827   8.966 -0.2230  0.0415  0.0358
  461POPS   C1B 7165   9.926  14.378   7.534 -0.0317 -0.1331 -0.1281
  461POPS   C2B 7166   9.854  14.314   8.086  0.3130 -0.0474 -0.1106
  461POPS   C3B 7167   9.794  14.333   8.645 -0.0036  0.2122  0.2366
  461POPS   C4B 7168   9.979  14.338   9.058  0.0751  0.2032  0.1030
  462POPS   CNO 7169   8.924  10.916   6.581  0.0954  0.0318 -0.2098
  462POPS   PO4 7170   8.890  10.474   6.689  0.1469 -0.0430 -0.1036
  462POPS   GL1 7171   9.168  10.385   7.121 -0.2543 -0.0632  0.3759
  462POPS   GL2 7172   8.917  10.259   7.230  0.1165  0.0827  0.2389
  462POPS   C1A 7173   9.307  10.004   7.377  0.2644 -0.0928 -0.0223
  462POPS   D2A 7174   9.589   9.759   7.605  0.1148  0.0691 -0.2097
  462POPS   C3A 7175   9.987   9.842   7.629  0.1128  0.0236 -0.1213
  462POPS   C4A 7176  10.264   9.490   7.717  0.1406 -0.0762 -0.1654
  462POPS   C1B 7177   8.775  10.387   7.505 -0.0229  0.1201  0.0732
  462POPS   C2B 7178   8.752  10.384   7.930  0.1463  0.0089 -0.3125
  462POPS   C3B 7179   8.750  10.271   8.370 -0.0402 -0.0416 -0.0974
  462POPS   C4B 7180   8.767  10.205   8.861 -0.0524  0.1019  0.0368
  463POPS   CNO 7181  13.448   3.181   6.591 -0.1838  0.5236  0.0419
  463POPS   PO4 7182  13.176   2.829   6.460 -0.0352  0.3849  0.1926
  463POPS   GL1 7183  13.079   2.729   6.831  0.0620 -0.4455  0.0107
  463POPS   GL2 7184  13.195   3.035   6.983 -0.0043  0.2970 -0.2261
  463POPS   C1A 7185  13.176   2.341   7.073  0.3134  0.4007 -0.0284
  463POPS   D2A 7186  13.008   1.921   7.294 -0.2360  0.0217 -0.3295
  463POPS   C3A 7187  12.997   1.790   7.756  0.0501 -0.0396 -0.1216
  463POPS   C4A 7188  13.079   1.606   8.140  0.0252  0.1196  0.1427
  463POPS   C1B 7189  13.176   3.184   7.369 -0.1547 -0.0437  0.0305
  463POPS   C2B 7190  13.293   3.258   7.733  0.1322  0.4291 -0.0897
  463POPS   C3B 7191  13.328   3.274   8.249 -0.1552 -0.2449  0.2325
  463POPS   C4B 7192  13.353   3.381   8.653 -0.2650 -0.2573  0.3047
  464POPS   CNO 7193   4.987  14.962   6.342 -0.1363  0.2644  0.4232
  464POPS   PO4 7194   4.946  14.465   6.448  0.2149  0.3590  0.0001
  464POPS   GL1 7195   4.847  14.358   6.902 -0.0801  0.2230 -0.0342
  464POPS   GL2 7196   4.763  14.064   7.040 -0.1302 -0.1452 -0.1217
  464POPS   C1A 7197   4.861  14.400   7.386 -0.0625  0.0621 -0.2748
  464POPS   D2A 7198   4.625  14.377   7.800 -0.0408  0.1147  0.0280
  464POPS   C3A 7199   4.865  14.510   8.157  0.3120  0.0153  0.3791
  464POPS   C4A 7200   5.179  14.571   8.573  0.2308 -0.0116  0.0783
  464POPS   C1B 7201   4.459  14.078   7.337  0.2732 -0.1529 -0.2554
  464POPS   C2B 7202   4.407  13.897   7.766 -0.0224 -0.2420 -0.2104
  464POPS   C3B 7203   4.417  13.642   8.249  0.0192 -0.1540 -0.1811
  464POPS   C4B 7204   4.401  13.264   8.561 -0.1483  0.2171 -0.0590
  465POPS   CNO 7205   5.410  10.089   6.554  0.1970  0.1694 -0.1747
  465POPS   PO4 7206   5.404  10.568   6.429  0.2583  0.3421  0.1000
  465POPS   GL1 7207   5.466  10.424   6.960  0.2081  0.1361 -0.1074
  465POPS   GL2 7208   5.608  10.142   7.056 -0.0833 -0.2327 -0.2100
  465POPS   C1A 7209   5.663  10.537   7.260  0.5626 -0.2890  0.1047
  465POPS   D2A 7210   5.745  10.976   7.582 -0.2675  0.3533  0.0019
  465POPS   C3A 7211   5.787  10.954   8.000  0.2171  0.0026 -0.2302
  465POPS   C4A 7212   5.916  11.243   8.465  0.1505  0.0857 -0.0214
  465POPS   C1B 7213   5.504  10.113   7.458  0.0452  0.1636 -0.0518
  465POPS   C2B 7214   5.729   9.931   7.749  0.2122 -0.1145  0.1169
  465POPS   C3B 7215   5.937   9.653   8.062  0.0596 -0.0731 -0.0256
  465POPS   C4B 7216   6.071   9.479   8.411 -0.1191 -0.0709 -0.3326
  466POPS   CNO 7217  12.283   0.123   5.944  0.0697  0.0036 -0.0686
  466POPS   PO4 7218  12.213   0.325   6.339 -0.3218  0.2217  0.1028
  466POPS   GL1 7219  12.319   0.585   6.669  0.3320  0.3504  0.0025
  466POPS   GL2 7220  12.403   0.420   6.918  0.0418  0.1097 -0.1029
  466POPS   C1A 7221  12.232   0.928   7.023  0.0814  0.1347  0.0047
  466POPS   D2A 7222  12.384   1.189   7.287 -0.1808  0.1236  0.3260
  466POPS   C3A 7223  12.437   0.982   7.612 -0.2222  0.0065  0.3570
  466POPS   C4A 7224  12.751   0.896   7.939 -0.0980 -0.0511  0.1105
  466POPS   C1B 7225  12.300   0.139   7.233 -0.2785  0.1412  0.3069
  466POPS   C2B 7226  12.215   0.093   7.625 -0.3596  0.0291 -0.0732
  466POPS   C3B 7227  12.189  -0.052   8.138  0.1807 -0.2513 -0.2762
  466POPS   C4B 7228  12.082  -0.428   8.350 -0.0486  0.0154 -0.2173
  467POPS   CNO 7229   5.978   7.470   6.198 -0.0455  0.1992 -0.0363
  467POPS   PO4 7230   5.555   7.576   6.528 -0.1413 -0.2259  0.0010
  467POPS   GL1 7231   5.775   7.705   6.809 -0.1952 -0.4990  0.2167
  467POPS   GL2 7232   5.700   7.788   6.998  0.2911  0.1040  0.3615
  467POPS   C1A 7233   6.220   7.640   7.043  0.0359 -0.2500  0.2252
  467POPS   D2A 7234   6.417   7.414   7.357  0.0609  0.1950 -0.0963
  467POPS   C3A 7235   6.230   7.237   7.757  0.1197 -0.3946  0.0781
  467POPS   C4A 7236   6.311   6.948   8.068 -0.0740  0.0317  0.0965
  467POPS   C1B 7237   5.864   7.609   7.367 -0.0506  0.2906 -0.2797
  467POPS   C2B 7238   5.908   7.632   7.806  0.0244 -0.3124  0.0776
  467POPS   C3B 7239   5.683   7.667   8.217 -0.0500 -0.2677 -0.0442
  467POPS   C4B 7240   5.594   7.578   8.705  0.2235 -0.0961  0.0793
  468POPS   CNO 7241  11.620  14.440   6.634  0.0936  0.0079  0.1937
  468POPS   PO4 7242  11.353  14.594   6.881 -0.1145 -0.0631  0.0395
  468POPS   GL1 7243  11.330  14.490   7.260  0.0541  0.1262  0.0348
  468POPS   GL2 7244  11.236  14.190   7.203  0.2112 -0.1781  0.3028
  468POPS   C1A 7245  11.386  14.325   7.666  0.3453 -0.1997  0.0179
  468POPS   D2A 7246  11.555  14.449   8.058  0.0228 -0.3086 -0.0287
  468POPS   C3A 7247  11.574  14.381   8.534 -0.0626  0.1647  0.1092
  468POPS   C4A 7248  11.436  14.518   8.885  0.2471  0.2470  0.1891
  468POPS   C1B 7249  10.971  14.079   7.509  0.0426 -0.0838  0.2263
  468POPS   C2B 7250  10.920  13.993   7.846  0.2679 -0.2887 -0.1489
  468POPS   C3B 7251  11.014  13.857   8.234 -0.2881  0.0647 -0.0694
  468POPS   C4B 7252  10.980  13.531   8.518  0.0258 -0.2629  0.0730
  469YOPS   CNO 7253   2.060   3.965   6.725  0.0062 -0.2583 -0.3490
  469YOPS   PO4 7254   2.149   4.340   6.969  0.0334 -0.0453  0.1906
  469YOPS   GL1 7255   1.950   4.212   7.336  0.0906  0.1274 -0.6541
  469YOPS   GL2 7256   1.855   3.891   7.378  0.5060 -0.1541 -0.1469
  469YOPS   C1A 7257   1.932   4.192   7.788 -0.3689  0.2550 -0.1643
  469YOPS   D2A 7258   2.166   4.099   8.185  0.1449 -0.5586 -0.0264
  469YOPS   C3A 7259   2.419   4.297   8.544  0.1396  0.2388 -0.0090
  469YOPS   C4A 7260   2.681   4.619   8.580 -0.1664 -0.0298  0.1989
  469YOPS   C1B 7261   1.518   3.920   7.584  0.3426 -0.1123 -0.0633
  469YOPS   C2B 7262   1.534   3.837   8.085  0.3799  0.1177 -0.1118
  469YOPS   D3B 7263   1.416   3.583   8.422 -0.1337 -0.0512 -0.1233
  469YOPS   C4B 7264   1.677   3.423   8.685  0.0212 -0.0326 -0.5542
  470YOPS   CNO 7265  12.980  12.234   6.857 -0.1298  0.6476 -0.0368
  470YOPS   PO4 7266  12.510  12.117   6.814  0.1323 -0.0208 -0.2020
  470YOPS   GL1 7267  12.624  12.366   7.150  0.2762  0.3042 -0.1609
  470YOPS   GL2 7268  12.874  12.188   7.372 -0.1819  0.1714 -0.0247
  470YOPS   C1A 7269  12.494  12.630   7.427 -0.1424  0.0527 -0.3877
  470YOPS   D2A 7270  12.226  12.744   7.760  0.1727 -0.0744 -0.1514
  470YOPS   C3A 7271  11.967  12.972   8.060 -0.2063 -0.2611 -0.2521
  470YOPS   C4A 7272  12.226  13.159   8.268  0.1399 -0.0201 -0.0187
  470YOPS   C1B 7273  12.797  12.056   7.730  0.0704  0.2704 -0.0075
  470YOPS   C2B 7274  12.662  12.095   8.190 -0.3643  0.0664  0.3154
  470YOPS   D3B 7275  12.678  11.937   8.532  0.2959  0.0044 -0.0459
  470YOPS   C4B 7276  12.515  12.000   8.914  0.1828  0.4843  0.2081
  471YOPS   CNO 7277   4.936   0.562   6.983 -0.0730 -0.0291 -0.0339
  471YOPS   PO4 7278   4.657   0.978   6.921  0.2008  0.3927 -0.1156
  471YOPS   GL1 7279   4.489   0.799   7.294 -0.2062 -0.0176 -0.1176
  471YOPS   GL2 7280   4.442   1.010   7.415  0.0210 -0.2542  0.0096
  471YOPS   C1A 7281   4.387   0.633   7.690 -0.2337 -0.1768 -0.0456
  471YOPS   D2A 7282   4.321   0.692   8.086 -0.2694  0.1180 -0.0714
  471YOPS   C3A 7283   4.503   0.693   8.568 -0.0485 -0.0249  0.4211
  471YOPS   C4A 7284   4.557   1.159   8.643 -0.0804  0.1085 -0.0346
  471YOPS   C1B 7285   4.415   1.156   7.820  0.2029 -0.3823  0.1492
  471YOPS   C2B 7286   4.334   1.314   8.177  0.3514  0.1119  0.1150
  471YOPS   D3B 7287   4.056   1.385   8.542 -0.0143  0.0589  0.1218
  471YOPS   C4B 7288   4.305   1.351   8.998  0.2115  0.2440 -0.1472
  472YOPS   CNO 7289  17.198   8.413   6.286  0.1156 -0.1618 -0.2980
  472YOPS   PO4 7290  16.870   8.584   6.602 -0.0653  0.0652  0.0370
  472YOPS   GL1 7291  17.107   8.563   7.097  0.2457 -0.2178 -0.1249
  472YOPS   GL2 7292  17.307   8.734   7.169  0.0454  0.1423  0.1865
  472YOPS   C1A 7293  17.183   8.301   7.437 -0.1317 -0.0660  0.1419
  472YOPS   D2A 7294  17.263   8.295   7.886  0.2186 -0.4385  0.0899
  472YOPS   C3A 7295  17.280   8.279   8.314 -0.1092  0.0383 -0.1775
  472YOPS   C4A 7296  17.057   8.600   8.546  0.0656  0.2252 -0.0379
  472YOPS   C1B 7297  17.411   8.713   7.637 -0.0427 -0.1075 -0.0075
  472YOPS   C2B 7298  17.683   8.568   8.046  0.1150 -0.0412  0.1052
  472YOPS   D3B 7299  17.551   8.682   8.449  0.1136 -0.0449 -0.3444
  472YOPS   C4B 7300  17.756   8.462   8.767 -0.0880 -0.3786 -0.2753
  473YOPS   CNO 7301   1.488   3.052   6.668  0.1224 -0.1160  0.1426
  473YOPS   PO4 7302   1.875   3.007   6.714  0.2421 -0.1989  0.1824
  473YOPS   GL1 7303   1.852   3.026   7.166 -0.0171 -0.0079 -0.2662
  473YOPS   GL2 7304   2.094   2.911   7.338 -0.2112  0.0117  0.2353
  473YOPS   C1A 7305   1.798   3.289   7.490 -0.1143  0.0563 -0.2004
  473YOPS   D2A 7306   1.991   3.578   7.770 -0.2876  0.0530 -0.0907
  473YOPS   C3A 7307   2.019   3.669   8.217  0.1609  0.0020 -0.1589
  473YOPS   C4A 7308   1.870   3.911   8.603  0.0480 -0.0855  0.2854
  473YOPS   C1B 7309   2.171   2.611   7.670 -0.0127  0.3507 -0.2822
  473YOPS   C2B 7310   2.243   2.625   8.178 -0.4071  0.2603 -0.1197
  473YOPS   D3B 7311   2.176   2.473   8.568 -0.0385 -0.2089  0.1290
  473YOPS   C4B 7312   2.487   2.200   8.765 -0.0499  0.4672 -0.2834
  474YOPS   CNO 7313  11.022   7.222   6.157  0.0196 -0.1696  0.0191
  474YOPS   PO4 7314  10.797   7.383   6.519  0.0610  0.0989 -0.0899
  474YOPS   GL1 7315  10.892   7.383   6.841  0.0805  0.0893  0.1819
  474YOPS   GL2 7316  10.656   7.641   6.960  0.0225 -0.1160  0.2509
  474YOPS   C1A 7317  10.876   7.199   7.235 -0.4683  0.0368 -0.0210
  474YOPS   D2A 7318  10.766   7.349   7.677 -0.1098  0.2623  0.1960
  474YOPS   C3A 7319  10.842   7.699   8.014 -0.3982  0.3002  0.4904
  474YOPS   C4A 7320  10.816   8.085   7.867 -0.2973 -0.2238 -0.3299
  474YOPS   C1B 7321  10.929   7.723   7.286 -0.1484  0.3663 -0.1610
  474YOPS   C2B 7322  11.086   8.059   7.473  0.0349 -0.2434 -0.1856
  474YOPS   D3B 7323  11.301   8.368   7.878  0.1068 -0.1217 -0.0002
  474YOPS   C4B 7324  11.614   8.691   7.940  0.2437 -0.1343  0.0652
  475YOPS   CNO 7325   9.858  11.915   6.720  0.2127  0.0056  0.0975
  475YOPS   PO4 7326   9.874  12.307   6.863 -0.1208  0.1825 -0.1007
  475YOPS   GL1 7327  10.056  12.132   7.194  0.2760 -0.2154 -0.0600
  475YOPS   GL2 7328  10.350  12.151   7.193 -0.1966 -0.1403  0.1574
  475YOPS   C1A 7329   9.989  11.929   7.558 -0.0564  0.4590 -0.0492
  475YOPS   D2A 7330   9.919  11.882   7.998  0.0107  0.1128 -0.1657
  475YOPS   C3A 7331   9.862  12.007   8.466 -0.1748 -0.2817  0.0236
  475YOPS   C4A 7332  10.163  11.891   8.724  0.2723  0.0695 -0.0177
  475YOPS   C1B 7333  10.450  11.971   7.570  0.1346 -0.2331 -0.3293
  475YOPS   C2B 7334  10.381  11.812   7.950 -0.0732 -0.1711  0.1395
  475YOPS   D3B 7335  10.485  12.009   8.390 -0.0662  0.1280 -0.2336
  475YOPS   C4B 7336  10.851  12.145   8.464  0.1665 -0.0056 -0.0135
  476YOPS   CNO 7337   3.759  12.017   6.357 -0.0466 -0.1107  0.0420
  476YOPS   PO4 7338   4.063  12.032   6.556  0.1198  0.1259  0.0658
  476YOPS   GL1 7339   4.130  11.968   6.961  0.0094  0.2301  0.3197
  476YOPS   GL2 7340   3.826  12.169   7.001  0.2070  0.0421  0.1194
  476YOPS   C1A 7341   4.167  12.133   7.384  0.0682  0.1378 -0.0886
  476YOPS   D2A 7342   4.209  12.225   7.786  0.1467 -0.1881  0.0481
  476YOPS   C3A 7343   4.327  12.291   8.213 -0.2523 -0.0809  0.1432
  476YOPS   C4A 7344   3.936  12.074   8.366  0.1811  0.0880  0.0101
  476YOPS   C1B 7345   3.829  11.777   7.216  0.1443 -0.0734  0.1532
  476YOPS   C2B 7346   3.996  11.461   7.476  0.1902  0.3396  0.2939
  476YOPS   D3B 7347   4.234  11.096   7.622 -0.2848  0.0864 -0.1647
  476YOPS   C4B 7348   4.105  10.681   7.529  0.2346 -0.1071 -0.0865
  477YOPS   CNO 7349   5.348   5.754   6.624 -0.2179 -0.2403  0.0765
  477YOPS   PO4 7350   5.220   6.098   6.876 -0.0033 -0.2819 -0.0031
  477YOPS   GL1 7351   5.186   6.264   7.217  0.0812 -0.0356  0.4459
  477YOPS   GL2 7352   5.206   6.508   7.308  0.2559 -0.3088  0.1350
  477YOPS   C1A 7353   5.264   6.007   7.536 -0.1294  0.0225  0.1294
  477YOPS   D2A 7354   5.260   5.902   8.043 -0.0105  0.2954  0.2254
  477YOPS   C3A 7355   5.086   6.034   8.422  0.2606 -0.1963  0.2484
  477YOPS   C4A 7356   5.110   5.873   8.825 -0.1323 -0.1904 -0.3699
  477YOPS   C1B 7357   5.317   6.493   7.756  0.0403 -0.2255  0.3204
  477YOPS   C2B 7358   5.415   6.425   8.189 -0.2357 -0.0188  0.1543
  477YOPS   D3B 7359   5.558   6.183   8.544 -0.0479  0.0284 -0.0184
  477YOPS   C4B 7360   5.683   6.481   8.798  0.0861  0.0988  0.0506
  478YOPS   CNO 7361   0.425  13.866   6.831 -0.0138 -0.0848  0.1789
  478YOPS   PO4 7362   0.043  14.012   6.842 -0.1621 -0.2231 -0.3280
  478YOPS   GL1 7363   0.154  13.952   7.337  0.0214 -0.0658 -0.2244
  478YOPS   GL2 7364   0.433  14.068   7.364 -0.1218  0.0730  0.0792
  478YOPS   C1A 7365   0.091  13.633   7.671 -0.2702  0.3405  0.4433
  478YOPS   D2A 7366   0.056  13.748   8.071  0.0728 -0.2772 -0.3422
  478YOPS   C3A 7367   0.076  13.676   8.575 -0.0943  0.2345  0.0092
  478YOPS   C4A 7368   0.355  13.922   8.822  0.1929 -0.0550  0.1061
  478YOPS   C1B 7369   0.541  13.681   7.477 -0.4305  0.1487 -0.0185
  478YOPS   C2B 7370   0.407  13.401   7.968  0.4336 -0.0085 -0.2016
  478YOPS   D3B 7371   0.364  13.339   8.348 -0.0604  0.2974 -0.0803
  478YOPS   C4B 7372   0.347  12.890   8.298  0.1263  0.0620  0.2132
  479YOPS   CNO 7373  17.439  10.535   6.680 -0.2806  0.1493 -0.0543
  479YOPS   PO4 7374  17.582  10.387   7.032  0.1669 -0.1686 -0.2044
  479YOPS   GL1 7375  17.390  10.605   7.310  0.1190  0.0488  0.2464
  479YOPS   GL2 7376  17.142  10.903   7.450 -0.3484  0.4765  0.2746
  479YOPS   C1A 7377  16.994  10.525   7.625 -0.0732  0.2116  0.0159
  479YOPS   D2A 7378  17.048  10.428   8.067 -0.0307 -0.2006  0.2148
  479YOPS   C3A 7379  17.112  10.332   8.634 -0.1849 -0.0163  0.0897
  479YOPS   C4A 7380  16.964  10.177   8.967 -0.0126 -0.2129  0.2208
  479YOPS   C1B 7381  17.376  10.733   7.796  0.0819  0.1721  0.0727
  479YOPS   C2B 7382  17.653  10.590   7.963  0.0671  0.0977  0.2164
  479YOPS   D3B 7383  18.012  10.557   8.281  0.4289 -0.0762  0.0950
  479YOPS   C4B 7384  17.860  10.787   8.713  0.1996 -0.0879  0.0985
  480YOPS   CNO 7385  11.182   1.828   6.098 -0.2898  0.0732  0.1276
  480YOPS   PO4 7386  11.042   1.626   6.475  0.2410  0.2831  0.0126
  480YOPS   GL1 7387  11.239   1.737   6.826 -0.0112  0.2192  0.1461
  480YOPS   GL2 7388  11.261   2.002   7.035  0.1327  0.0512  0.2351
  480YOPS   C1A 7389  11.096   1.654   7.327  0.1020  0.0761 -0.1963
  480YOPS   D2A 7390  11.199   1.429   7.777  0.2444  0.0104 -0.0512
  480YOPS   C3A 7391  11.553   1.316   8.020 -0.1178 -0.0411  0.1511
  480YOPS   C4A 7392  11.498   1.024   8.407  0.3595  0.3560 -0.0810
  480YOPS   C1B 7393  11.379   2.016   7.563  0.2534 -0.1048 -0.1128
  480YOPS   C2B 7394  11.316   2.294   7.790 -0.0121  0.1741  0.2295
  480YOPS   D3B 7395  11.090   2.330   8.226  0.1114 -0.0288 -0.2529
  480YOPS   C4B 7396  11.308   2.658   8.357 -0.0932 -0.2216 -0.1604
  481YOPS   CNO 7397   3.899   6.834   6.594  0.0572 -0.1538 -0.0446
  481YOPS   PO4 7398   3.865   6.434   6.484  0.0459  0.0327  0.5835
  481YOPS   GL1 7399   3.685   6.230   6.828  0.1543  0.2028  0.1277
  481YOPS   GL2 7400   3.703   6.575   6.955  0.2405  0.2092 -0.0390
  481YOPS   C1A 7401   3.668   5.794   6.871 -0.3348  0.0985 -0.1441
  481YOPS   D2A 7402   4.044   5.454   6.794  0.2985 -0.0999 -0.2623
  481YOPS   C3A 7403   4.354   5.108   7.133  0.0044  0.0764  0.0654
  481YOPS   C4A 7404   4.392   4.762   7.104 -0.0937  0.2549  0.1697
  481YOPS   C1B 7405   3.496   6.297   7.288 -0.1164  0.0611  0.1403
  481YOPS   C2B 7406   3.312   6.470   7.636 -0.0133 -0.0968 -0.1908
  481YOPS   D3B 7407   2.914   6.444   7.650  0.2005 -0.2222 -0.2365
  481YOPS   C4B 7408   2.715   6.000   7.672 -0.0465  0.2639  0.0366
  482YOPS   CNO 7409   0.240  15.097   6.211 -0.2083 -0.1247 -0.3938
  482YOPS   PO4 7410   0.183  15.262   6.670 -0.4525 -0.1261 -0.0767
  482YOPS   GL1 7411   0.206  15.459   7.089  0.1831 -0.0418  0.1417
  482YOPS   GL2 7412   0.364  15.237   7.362  0.0409  0.1701 -0.0703
  482YOPS   C1A 7413  -0.011  15.571   7.429 -0.1258 -0.0311 -0.2535
  482YOPS   D2A 7414   0.184  15.752   7.773  0.3443 -0.1869  0.2331
  482YOPS   C3A 7415   0.226  15.701   8.242  0.4991  0.0540 -0.4167
  482YOPS   C4A 7416   0.504  15.365   8.487 -0.1223  0.2607 -0.4101
  482YOPS   C1B 7417   0.630  15.192   7.720 -0.0002 -0.0936 -0.0093
  482YOPS   C2B 7418   0.827  15.133   8.072 -0.0515 -0.0970  0.3693
  482YOPS   D3B 7419   1.271  14.964   8.119 -0.0957  0.0781 -0.0024
  482YOPS   C4B 7420   1.531  14.704   8.174  0.1386  0.1185 -0.2006
  483YOPS   CNO 7421  15.216   4.021   6.288  0.2514 -0.2911  0.0642
  483YOPS   PO4 7422  15.065   3.815   6.629  0.1369 -0.0383 -0.1042
  483YOPS   GL1 7423  15.138   3.888   6.937  0.4554 -0.1436  0.2854
  483YOPS   GL2 7424  14.877   4.178   6.987 -0.0565  0.1623 -0.2223
  483YOPS   C1A 7425  15.266   3.729   7.370  0.1649  0.1498  0.1921
  483YOPS   D2A 7426  15.215   3.698   7.751  0.2907  0.5567 -0.1311
  483YOPS   C3A 7427  15.363   3.868   8.169 -0.0665  0.0398 -0.0956
  483YOPS   C4A 7428  15.469   4.076   8.522  0.4136 -0.0017 -0.1205
  483YOPS   C1B 7429  14.668   3.885   7.331  0.0875  0.0265  0.0583
  483YOPS   C2B 7430  14.654   3.547   7.680  0.2151 -0.1513 -0.0936
  483YOPS   D3B 7431  14.591   3.355   8.027  0.1222 -0.0732 -0.2034
  483YOPS   C4B 7432  14.954   3.051   7.973 -0.1246 -0.1533 -0.0384
  484YOPS   CNO 7433  13.499  14.798   7.346 -0.1520 -0.0570  0.1811
  484YOPS   PO4 7434  13.078  14.860   7.137  0.1619  0.4067  0.1670
  484YOPS   GL1 7435  13.050  14.801   7.606 -0.3949 -0.0005 -0.1062
  484YOPS   GL2 7436  13.299  14.766   7.797 -0.1132 -0.3269 -0.3597
  484YOPS   C1A 7437  12.867  14.996   8.030 -0.0414 -0.0242 -0.0243
  484YOPS   D2A 7438  12.563  15.253   8.242 -0.1411  0.1827  0.1188
  484YOPS   C3A 7439  12.339  15.463   8.502 -0.0295  0.1442 -0.2191
  484YOPS   C4A 7440  11.936  15.330   8.755 -0.0605 -0.2634  0.2148
  484YOPS   C1B 7441  13.323  14.847   8.177  0.0516  0.2141 -0.0497
  484YOPS   C2B 7442  13.588  15.007   8.565 -0.2583 -0.1441  0.2007
  484YOPS   D3B 7443  13.818  15.212   8.895 -0.3125 -0.0274  0.4131
  484YOPS   C4B 7444  14.069  15.087   9.105  0.1313 -0.0731 -0.1016
  485YOPS   CNO 7445   0.241  17.271   6.526  0.0795 -0.1510 -0.1604
  485YOPS   PO4 7446  -0.053  17.735   6.516  0.2908  0.3287 -0.0691
  485YOPS   GL1 7447   0.005  17.877   6.912  0.0846 -0.2443  0.0386
  485YOPS   GL2 7448   0.150  17.485   6.997  0.3327  0.2611 -0.2752
  485YOPS   C1A 7449  -0.035  17.910   7.374 -0.2138 -0.4408 -0.0608
  485YOPS   D2A 7450  -0.100  17.998   7.807 -0.1681  0.2221 -0.0775
  485YOPS   C3A 7451  -0.320  18.055   8.197 -0.3793  0.0065 -0.3771
  485YOPS   C4A 7452  -0.643  17.780   8.452  0.1120 -0.2645 -0.2446
  485YOPS   C1B 7453   0.278  17.515   7.408  0.2478  0.1431 -0.0488
  485YOPS   C2B 7454   0.260  17.627   7.808  0.0377  0.2708  0.0141
  485YOPS   D3B 7455   0.307  17.815   8.138  0.0325  0.1756 -0.0848
  485YOPS   C4B 7456   0.177  18.170   8.336 -0.0487 -0.1204 -0.0557
  486POPE   NH3 7457   7.084   0.439   6.414  0.4469 -0.0100  0.2378
  486POPE   PO4 7458   7.057   0.712   6.854  0.1042 -0.0194  0.1814
  486POPE   GL1 7459   7.322   0.805   7.178 -0.2761  0.1806 -0.0969
  486POPE   GL2 7460   7.677   0.765   7.021  0.0148  0.2748  0.0975
  486POPE   C1A 7461   7.241   0.876   7.690  0.3926  0.1035 -0.0458
  486POPE   D2A 7462   7.253   0.784   8.131  0.2666  0.1577  0.2355
  486POPE   C3A 7463   7.484   0.984   8.403 -0.1555 -0.1349 -0.1918
  486POPE   C4A 7464   7.698   0.954   8.740  0.2166 -0.1401 -0.2679
  486POPE   C1B 7465   7.750   0.793   7.501  0.1680  0.1131  0.0801
  486POPE   C2B 7466   7.728   0.916   7.951  0.2813  0.0010  0.0633
  486POPE   C3B 7467   8.112   0.773   8.309 -0.0111  0.3159  0.1531
  486POPE   C4B 7468   8.120   0.549   8.698  0.3246  0.3226 -0.0206
  487POPE   NH3 7469   2.729   5.038   6.463 -0.0801  0.2598 -0.1714
  487POPE   PO4 7470   2.383   5.193   6.570  0.0749 -0.1524  0.0286
  487POPE   GL1 7471   2.414   5.222   6.991 -0.4311 -0.0701  0.0621
  487POPE   GL2 7472   2.418   4.810   6.982 -0.1398 -0.0308  0.0707
  487POPE   C1A 7473   2.714   5.218   7.185  0.0460  0.1492  0.0104
  487POPE   D2A 7474   2.730   5.060   7.653  0.0533  0.0505  0.2185
  487POPE   C3A 7475   2.581   5.217   8.014 -0.0390  0.1323  0.1930
  487POPE   C4A 7476   2.768   5.283   8.367 -0.1573 -0.2327 -0.0049
  487POPE   C1B 7477   2.273   4.992   7.389 -0.0449  0.1097  0.1563
  487POPE   C2B 7478   2.215   5.117   7.688 -0.0662 -0.2322  0.1240
  487POPE   C3B 7479   2.069   5.342   8.010  0.0677  0.0074  0.0995
  487POPE   C4B 7480   1.858   5.409   8.378 -0.1104 -0.4217 -0.1452
  488POPE   NH3 7481  14.759   2.611   6.306 -0.1274 -0.0418 -0.0597
  488POPE   PO4 7482  14.558   2.911   6.549  0.0731 -0.3050 -0.1121
  488POPE   GL1 7483  14.483   2.648   6.856 -0.2293 -0.0172 -0.0843
  488POPE   GL2 7484  14.743   2.386   6.832  0.2075 -0.7197 -0.0414
  488POPE   C1A 7485  14.435   2.478   7.335 -0.2865 -0.2227 -0.1429
  488POPE   D2A 7486  14.319   2.393   7.676 -0.1112 -0.1329  0.3292
  488POPE   C3A 7487  14.486   2.174   7.990 -0.3101  0.1240  0.1073
  488POPE   C4A 7488  14.370   2.164   8.387 -0.1515  0.4070 -0.1518
  488POPE   C1B 7489  15.001   2.514   7.239 -0.1337  0.1170  0.0784
  488POPE   C2B 7490  14.853   2.537   7.738 -0.0135 -0.2111 -0.2078
  488POPE   C3B 7491  14.781   2.588   8.189 -0.2629  0.2466  0.0521
  488POPE   C4B 7492  14.763   2.444   8.626  0.0332 -0.0227  0.0497
  489POPE   NH3 7493   6.873   9.360   6.302 -0.0445  0.2701 -0.0852
  489POPE   PO4 7494   6.698   9.005   6.497 -0.0156  0.1365 -0.1233
  489POPE   GL1 7495   6.625   9.362   6.764 -0.0155 -0.1667 -0.2415
  489POPE   GL2 7496   6.387   9.169   6.892 -0.0188 -0.1204 -0.3456
  489POPE   C1A 7497   6.562   9.651   7.153 -0.0640 -0.1668  0.2129
  489POPE   D2A 7498   6.215   9.542   7.417 -0.1336  0.0107 -0.2125
  489POPE   C3A 7499   6.243   9.851   7.718  0.0602 -0.0102  0.0243
  489POPE   C4A 7500   6.261  10.222   7.863 -0.3508 -0.2248 -0.1096
  489POPE   C1B 7501   6.455   9.116   7.378 -0.1526  0.1203  0.1319
  489POPE   C2B 7502   6.437   9.070   7.878  0.0781 -0.5522  0.2303
  489POPE   C3B 7503   6.352   9.025   8.341 -0.2239 -0.1824  0.1015
  489POPE   C4B 7504   6.551   8.855   8.705 -0.1968  0.1885  0.2913
  490POPE   NH3 7505  17.110   6.894   6.819 -0.0081 -0.3576 -0.0061
  490POPE   PO4 7506  16.953   7.219   6.629  0.0584 -0.1678 -0.1378
  490POPE   GL1 7507  16.754   7.365   6.973  0.1449  0.2936 -0.0105
  490POPE   GL2 7508  16.603   7.068   6.983  0.0293  0.2632 -0.0774
  490POPE   C1A 7509  16.901   7.402   7.460 -0.0220 -0.2392  0.0133
  490POPE   D2A 7510  16.872   7.488   7.950 -0.1573 -0.0623  0.0367
  490POPE   C3A 7511  16.937   7.184   8.218 -0.0322  0.1686 -0.0929
  490POPE   C4A 7512  16.838   7.242   8.677  0.1574 -0.0883  0.1713
  490POPE   C1B 7513  16.606   6.958   7.404 -0.1187  0.0255 -0.3545
  490POPE   C2B 7514  16.556   7.001   7.858 -0.1040  0.2770 -0.0736
  490POPE   C3B 7515  16.303   7.087   8.321  0.1050  0.1086  0.1963
  490POPE   C4B 7516  16.082   6.905   8.595  0.1384 -0.0148 -0.2118
  491POPE   NH3 7517   6.792  11.532   6.840  0.1063 -0.1005 -0.2114
  491POPE   PO4 7518   6.781  11.962   6.834  0.2206  0.0624 -0.2968
  491POPE   GL1 7519   6.591  11.766   7.228 -0.0632  0.1059  0.3011
  491POPE   GL2 7520   6.667  11.484   7.307  0.1829 -0.1711  0.1367
  491POPE   C1A 7521   6.280  11.777   7.601  0.0890 -0.2612 -0.2139
  491POPE   D2A 7522   6.316  11.789   8.014 -0.0402 -0.3299  0.0094
  491POPE   C3A 7523   6.028  11.755   8.384 -0.1796  0.0568  0.0561
  491POPE   C4A 7524   5.756  11.624   8.675 -0.1400 -0.1456  0.0284
  491POPE   C1B 7525   6.638  11.434   7.785 -0.3169  0.1239 -0.1933
  491POPE   C2B 7526   6.767  11.503   8.245  0.1316  0.0280 -0.0625
  491POPE   C3B 7527   7.012  11.651   8.575 -0.1854  0.0122  0.2601
  491POPE   C4B 7528   7.166  11.668   8.975  0.0624  0.1718 -0.0981
  492POPE   NH3 7529  12.658  12.573   6.582  0.0824  0.2594 -0.3405
  492POPE   PO4 7530  12.994  12.792   6.684 -0.0126 -0.0211  0.2854
  492POPE   GL1 7531  12.835  12.862   7.165  0.1942  0.3056 -0.0798
  492POPE   GL2 7532  12.677  13.076   7.283  0.2749  0.0512 -0.0643
  492POPE   C1A 7533  12.972  12.593   7.582  0.1457 -0.0694  0.2267
  492POPE   D2A 7534  12.692  12.516   7.899  0.1780  0.0831  0.1419
  492POPE   C3A 7535  12.384  12.636   8.227  0.3429  0.0786  0.1056
  492POPE   C4A 7536  12.148  12.772   8.567  0.1692 -0.3720 -0.0221
  492POPE   C1B 7537  12.701  13.064   7.696  0.0272 -0.0681  0.3366
  492POPE   C2B 7538  12.583  13.063   7.985  0.1096 -0.2838 -0.0453
  492POPE   C3B 7539  12.682  13.053   8.485  0.1233 -0.1403 -0.4872
  492POPE   C4B 7540  12.939  12.914   8.698 -0.1506 -0.1891  0.0170
  493POPE   NH3 7541  13.744   3.577   6.733 -0.0665 -0.1178 -0.1707
  493POPE   PO4 7542  13.968   3.197   6.559  0.0804 -0.5169 -0.2474
  493POPE   GL1 7543  13.949   3.051   6.920 -0.2250 -0.0658  0.1831
  493POPE   GL2 7544  13.821   3.215   7.049 -0.2195  0.2015 -0.0817
  493POPE   C1A 7545  14.120   2.857   7.180  0.0389  0.1646 -0.1550
  493POPE   D2A 7546  14.012   2.824   7.570 -0.1000 -0.1844  0.1331
  493POPE   C3A 7547  13.804   2.992   7.912  0.2527  0.0514 -0.1763
  493POPE   C4A 7548  13.544   2.880   8.312  0.4321  0.0644 -0.1793
  493POPE   C1B 7549  13.747   3.336   7.409 -0.0486  0.3134 -0.2044
  493POPE   C2B 7550  13.743   3.481   7.929  0.3104 -0.0268 -0.0750
  493POPE   C3B 7551  13.796   3.410   8.396 -0.0566  0.3031  0.0174
  493POPE   C4B 7552  13.873   3.262   8.825 -0.1932  0.0401  0.4264
  494POPE   NH3 7553  13.498   8.811   6.700  0.0349 -0.0329 -0.0102
  494POPE   PO4 7554  13.157   8.409   6.707  0.0140  0.1240 -0.0722
  494POPE   GL1 7555  13.351   8.414   7.094  0.0161  0.0568  0.0067
  494POPE   GL2 7556  13.472   8.656   7.233  0.1146  0.4919 -0.0596
  494POPE   C1A 7557  13.280   8.190   7.479  0.0668  0.0453  0.0048
  494POPE   D2A 7558  13.294   8.178   7.942 -0.2170  0.2661 -0.2006
  494POPE   C3A 7559  13.076   8.397   8.424  0.0800  0.1071 -0.1105
  494POPE   C4A 7560  12.559   8.353   8.448 -0.1476  0.0001  0.1660
  494POPE   C1B 7561  13.474   9.055   7.452  0.0647 -0.0942 -0.1864
  494POPE   C2B 7562  13.507   9.046   7.918 -0.1379  0.1347 -0.1126
  494POPE   C3B 7563  13.402   9.225   8.277  0.0016 -0.0532  0.0975
  494POPE   C4B 7564  13.487   9.448   8.642  0.0929 -0.1076  0.0553
  495POPE   NH3 7565   0.097   7.774   6.161  0.0461  0.1302 -0.4305
  495POPE   PO4 7566   0.453   7.413   6.299  0.0758 -0.3361 -0.0492
  495POPE   GL1 7567   0.429   7.565   6.723 -0.1462  0.1786  0.1543
  495POPE   GL2 7568   0.719   7.911   6.748  0.0401 -0.1192  0.1610
  495POPE   C1A 7569   0.339   7.364   7.097 -0.0548 -0.0437 -0.0156
  495POPE   D2A 7570   0.343   6.964   7.332 -0.1348 -0.1012  0.2538
  495POPE   C3A 7571   0.706   6.867   7.570  0.1020  0.2411  0.3053
  495POPE   C4A 7572   0.905   6.591   7.898  0.0976 -0.3117 -0.1789
  495POPE   C1B 7573   0.531   7.864   7.128 -0.4211 -0.0437 -0.2184
  495POPE   C2B 7574   0.624   7.589   7.461 -0.1322 -0.0321  0.5704
  495POPE   C3B 7575   0.900   7.454   7.674  0.1919 -0.1508  0.1892
  495POPE   C4B 7576   1.184   7.529   8.031 -0.1481 -0.1281 -0.1151
  496POPE   NH3 7577  11.733   8.423   6.729  0.1225  0.3786 -0.1409
  496POPE   PO4 7578  11.550   8.742   6.574  0.0276  0.2912 -0.1301
  496POPE   GL1 7579  11.506   8.757   7.100  0.0676  0.0636  0.1609
  496POPE   GL2 7580  11.714   8.641   7.238 -0.0656 -0.0195  0.0314
  496POPE   C1A 7581  11.248   8.616   7.408 -0.0392  0.1901  0.3597
  496POPE   D2A 7582  10.856   8.510   7.635 -0.0536 -0.2831  0.2873
  496POPE   C3A 7583  10.758   8.772   8.015 -0.1579 -0.2364  0.2665
  496POPE   C4A 7584  10.890   8.960   8.488  0.0825  0.1769 -0.1119
  496POPE   C1B 7585  11.662   8.364   7.520  0.1336 -0.1985 -0.0592
  496POPE   C2B 7586  11.745   8.161   7.808 -0.2691 -0.0998  0.0753
  496POPE   C3B 7587  11.943   7.848   8.033 -0.1770 -0.2669 -0.2256
  496POPE   C4B 7588  12.038   7.522   8.091 -0.0526  0.2280 -0.1311
  497POPE   NH3 7589  12.654   8.094   6.729  0.3447  0.0937  0.2727
  497POPE   PO4 7590  12.248   8.315   6.711 -0.1095 -0.0529  0.2530
  497POPE   GL1 7591  12.115   8.696   6.975  0.2532  0.0056 -0.1590
  497POPE   GL2 7592  12.396   8.533   7.187  0.1083 -0.0065 -0.0986
  497POPE   C1A 7593  12.054   8.988   7.355  0.0824 -0.0533  0.1451
  497POPE   D2A 7594  11.708   9.051   7.642  0.0626 -0.0561 -0.0659
  497POPE   C3A 7595  11.784   9.124   8.130 -0.1131  0.1672  0.1710
  497POPE   C4A 7596  11.689   9.383   8.385 -0.1788 -0.2120 -0.2427
  497POPE   C1B 7597  12.160   8.523   7.614 -0.0912 -0.1075 -0.0001
  497POPE   C2B 7598  12.268   8.280   8.022  0.0207  0.0740  0.1182
  497POPE   C3B 7599  12.276   7.997   8.445 -0.0396  0.0946 -0.2855
  497POPE   C4B 7600  12.407   7.531   8.399  0.1751 -0.1585  0.0173
  498POPE   NH3 7601   9.950  15.473   7.070  0.0599  0.0032  0.2553
  498POPE   PO4 7602   9.556  15.690   7.005 -0.1369 -0.0592 -0.3439
  498POPE   GL1 7603   9.643  15.725   7.356  0.0387 -0.2299  0.2169
  498POPE   GL2 7604   9.923  15.790   7.469 -0.1599  0.0561  0.3427
  498POPE   C1A 7605   9.509  15.535   7.663  0.2230  0.0398  0.0650
  498POPE   D2A 7606   9.710  15.399   8.047 -0.1288  0.1614  0.1986
  498POPE   C3A 7607  10.055  15.167   8.146 -0.0555  0.0303 -0.0742
  498POPE   C4A 7608  10.393  15.091   8.475  0.1772 -0.0396 -0.4198
  498POPE   C1B 7609   9.774  15.917   7.859 -0.4111 -0.0718  0.0746
  498POPE   C2B 7610   9.815  15.881   8.331  0.0961 -0.0467  0.0654
  498POPE   C3B 7611  10.084  15.780   8.675 -0.1198  0.1030  0.2388
  498POPE   C4B 7612  10.034  15.387   8.620 -0.1485 -0.1288  0.0973
  499POPE   NH3 7613  16.300  10.696   6.560  0.0278 -0.0358  0.1773
  499POPE   PO4 7614  16.669  10.540   6.706  0.0944 -0.1627  0.0025
  499POPE   GL1 7615  16.606  10.441   7.155 -0.0252 -0.3902 -0.0975
  499POPE   GL2 7616  16.671  10.728   7.318 -0.3145  0.1491  0.6728
  499POPE   C1A 7617  16.786  10.141   7.471  0.2510 -0.0275  0.0622
  499POPE   D2A 7618  16.603  10.014   7.756 -0.0581 -0.0492  0.3050
  499POPE   C3A 7619  16.772  10.009   8.158 -0.0871 -0.1530  0.4560
  499POPE   C4A 7620  16.590  10.234   8.585  0.0350  0.1862  0.2709
  499POPE   C1B 7621  16.777  11.041   7.732 -0.0915  0.0749 -0.3517
  499POPE   C2B 7622  16.496  11.139   8.125 -0.2025  0.3550  0.2912
  499POPE   C3B 7623  16.566  11.161   8.484  0.2321 -0.1674 -0.1814
  499POPE   C4B 7624  16.604  10.956   8.836  0.0501 -0.0756  0.5044
  500POPE   NH3 7625  14.633   6.214   6.311  0.2764  0.0666  0.1636
  500POPE   PO4 7626  15.007   6.358   6.478 -0.3787  0.0245  0.1813
  500POPE   GL1 7627  14.734   6.377   6.896 -0.2368  0.1301  0.1662
  500POPE   GL2 7628  14.916   6.337   7.119  0.1075  0.0007 -0.1815
  500POPE   C1A 7629  14.397   6.190   7.210  0.1244 -0.4437 -0.2270
  500POPE   D2A 7630  13.990   6.436   7.335 -0.0285  0.1579 -0.1023
  500POPE   C3A 7631  13.908   6.406   7.743  0.2675 -0.1924  0.1671
  500POPE   C4A 7632  13.498   6.425   8.000 -0.0225  0.1622  0.0378
  500POPE   C1B 7633  14.847   6.289   7.519  0.0837 -0.3971 -0.3080
  500POPE   C2B 7634  14.883   6.328   7.883  0.1152  0.0830 -0.0800
  500POPE   C3B 7635  15.062   6.138   8.225  0.0471  0.1269  0.0683
  500POPE   C4B 7636  15.190   6.099   8.627 -0.1415  0.0126 -0.0094
  501POPE   NH3 7637  10.705   3.968   6.648  0.1629  0.1961 -0.0167
  501POPE   PO4 7638  11.053   4.129   6.477  0.2337  0.0090  0.1166
  501POPE   GL1 7639  11.032   4.256   6.922 -0.1077  0.1749 -0.5448
  501POPE   GL2 7640  10.731   4.438   6.934  0.2997 -0.3605 -0.0606
  501POPE   C1A 7641  11.191   4.270   7.271  0.1198  0.0709 -0.1037
  501POPE   D2A 7642  11.265   4.246   7.684  0.2264 -0.2989  0.2102
  501POPE   C3A 7643  11.230   4.262   8.097  0.2907 -0.2687 -0.0004
  501POPE   C4A 7644  11.452   4.606   8.234  0.3645  0.0147 -0.0518
  501POPE   C1B 7645  10.560   4.354   7.331  0.2606 -0.4231  0.1058
  501POPE   C2B 7646  10.718   4.311   7.746 -0.2077  0.1968 -0.1095
  501POPE   C3B 7647  10.733   4.449   8.185 -0.1293  0.2466  0.3272
  501POPE   C4B 7648  10.603   4.293   8.647  0.0871  0.1458  0.0209
  502POPE   NH3 7649   8.833  11.224   7.118 -0.0308  0.4017 -0.2034
  502POPE   PO4 7650   9.079  10.884   7.107 -0.1278  0.0640 -0.2614
  502POPE   GL1 7651   9.380  10.891   7.459  0.0306 -0.1609 -0.0905
  502POPE   GL2 7652   9.167  10.632   7.587 -0.0555 -0.0035 -0.0066
  502POPE   C1A 7653   9.398  11.127   7.806  0.0130  0.0541 -0.2268
  502POPE   D2A 7654   9.362  11.131   8.249  0.1376  0.1123  0.1415
  502POPE   C3A 7655   9.799  11.109   8.373  0.1606 -0.4523  0.0966
  502POPE   C4A 7656  10.086  11.125   8.690 -0.0785  0.2816  0.0771
  502POPE   C1B 7657   9.196  10.651   8.007  0.2825  0.2406 -0.1043
  502POPE   C2B 7658   8.967  10.805   8.344 -0.0818  0.1311 -0.1439
  502POPE   C3B 7659   8.650  10.716   8.634 -0.2461  0.0221  0.0470
  502POPE   C4B 7660   8.263  10.877   8.892 -0.1491 -0.1501  0.1106
  503YOPE   NH3 7661   3.049   3.809   6.656  0.0620 -0.2469  0.2121
  503YOPE   PO4 7662   3.215   3.486   6.745 -0.1365  0.2311 -0.1667
  503YOPE   GL1 7663   3.063   3.661   7.175 -0.2475 -0.0278 -0.2655
  503YOPE   GL2 7664   2.768   3.822   7.103 -0.1432 -0.2801 -0.1546
  503YOPE   C1A 7665   3.112   3.779   7.591  0.2347  0.0056  0.1374
  503YOPE   D2A 7666   3.206   3.910   8.020  0.0019 -0.0524  0.0693
  503YOPE   C3A 7667   3.006   3.705   8.352 -0.3292 -0.3081 -0.1428
  503YOPE   C4A 7668   2.753   3.364   8.525  0.0572  0.0435 -0.1103
  503YOPE   C1B 7669   2.840   4.148   7.257 -0.1153 -0.0892 -0.0593
  503YOPE   C2B 7670   3.142   4.268   7.489 -0.1569 -0.0345 -0.0008
  503YOPE   D3B 7671   3.235   4.387   7.886 -0.0489  0.0613  0.1582
  503YOPE   C4B 7672   3.326   4.554   8.301 -0.0305 -0.1932 -0.1292
  504YOPE   NH3 7673   8.683  12.128   7.340 -0.2598  0.1754 -0.1484
  504YOPE   PO4 7674   9.043  11.916   7.109 -0.0839 -0.1073 -0.0233
  504YOPE   GL1 7675   9.060  11.795   7.520  0.0255 -0.0447  0.0032
  504YOPE   GL2 7676   9.187  11.970   7.557  0.0259 -0.0542  0.1631
  504YOPE   C1A 7677   9.142  11.572   7.837 -0.0433  0.0657 -0.0456
  504YOPE   D2A 7678   9.199  11.587   8.221 -0.1214 -0.1839  0.0437
  504YOPE   C3A 7679   9.646  11.578   8.346  0.1382  0.0514  0.3751
  504YOPE   C4A 7680  10.086  11.572   8.356 -0.0740  0.1431  0.0354
  504YOPE   C1B 7681   9.367  12.034   7.989 -0.1038 -0.1801 -0.0988
  504YOPE   C2B 7682   9.352  12.034   8.431  0.0490  0.3411  0.1019
  504YOPE   D3B 7683   9.514  11.920   8.839 -0.0849 -0.0052  0.0748
  504YOPE   C4B 7684   9.662  12.059   9.218 -0.0501 -0.0032 -0.1727
  505YOPE   NH3 7685   6.753   1.112   6.782  0.1176  0.0313  0.0540
  505YOPE   PO4 7686   6.504   1.460   6.983 -0.0491  0.0744 -0.4449
  505YOPE   GL1 7687   6.437   1.175   7.262  0.1806  0.1362  0.2923
  505YOPE   GL2 7688   6.205   1.166   7.553 -0.2429 -0.0441 -0.2237
  505YOPE   C1A 7689   6.638   0.834   7.621 -0.1815  0.0059  0.2423
  505YOPE   D2A 7690   6.519   0.440   7.761 -0.3387 -0.1186  0.4784
  505YOPE   C3A 7691   6.366   0.504   8.177  0.3023  0.3642 -0.2862
  505YOPE   C4A 7692   6.350   0.466   8.711  0.1856 -0.0410  0.2471
  505YOPE   C1B 7693   6.276   1.097   7.932 -0.0078 -0.2317  0.2950
  505YOPE   C2B 7694   6.633   0.928   8.160 -0.1292  0.3625 -0.0018
  505YOPE   D3B 7695   6.790   0.689   8.452  0.2934 -0.0484 -0.0602
  505YOPE   C4B 7696   6.890   0.398   8.845  0.1089  0.0424 -0.1882
  506YOPE   NH3 7697   1.545   4.671   6.207 -0.0382 -0.0718 -0.3101
  506YOPE   PO4 7698   1.543   5.110   6.470  0.0185  0.0984 -0.2298
  506YOPE   GL1 7699   1.659   5.308   6.840  0.3427  0.2759 -0.0208
  506YOPE   GL2 7700   1.892   5.156   6.991 -0.2311 -0.2772 -0.0451
  506YOPE   C1A 7701   1.520   5.596   7.098 -0.0997  0.1142  0.0325
  506YOPE   D2A 7702   1.354   5.609   7.565 -0.0315 -0.0853  0.0271
  506YOPE   C3A 7703   1.382   5.881   7.822  0.0805 -0.1501  0.1419
  506YOPE   C4A 7704   1.279   6.141   8.117  0.1247  0.0580 -0.1496
  506YOPE   C1B 7705   1.698   5.246   7.402  0.0387  0.1986  0.0721
  506YOPE   C2B 7706   1.569   5.241   7.856 -0.1808  0.2523  0.2422
  506YOPE   D3B 7707   1.445   5.208   8.307 -0.2432  0.1846  0.0301
  506YOPE   C4B 7708   1.469   5.185   8.733 -0.0173 -0.2919  0.1499
  507YOPE   NH3 7709   5.395   0.286   6.902  0.0107 -0.1836  0.2715
  507YOPE   PO4 7710   5.454   0.603   7.036  0.0189  0.0835  0.0559
  507YOPE   GL1 7711   5.574   0.867   7.423 -0.0883  0.4231 -0.0483
  507YOPE   GL2 7712   5.724   1.112   7.258  0.2032 -0.2712  0.1456
  507YOPE   C1A 7713   5.415   0.801   7.799 -0.2173 -0.3309  0.0480
  507YOPE   D2A 7714   5.290   0.391   7.957 -0.1593 -0.0035  0.1091
  507YOPE   C3A 7715   5.433   0.377   8.370  0.2027 -0.3255  0.0515
  507YOPE   C4A 7716   5.780   0.155   8.637 -0.0614  0.2621  0.1484
  507YOPE   C1B 7717   5.735   1.197   7.763 -0.1932  0.1040  0.1408
  507YOPE   C2B 7718   5.959   1.478   8.020  0.0166  0.0586 -0.1528
  507YOPE   D3B 7719   5.860   1.756   8.297  0.1893 -0.1965  0.2191
  507YOPE   C4B 7720   6.042   1.963   8.637 -0.0637 -0.0614  0.2563
  508YOPE   NH3 7721   1.835  14.041   7.084 -0.0138 -0.1959 -0.0249
  508YOPE   PO4 7722   1.765  14.391   6.803 -0.0730 -0.1965  0.1710
  508YOPE   GL1 7723   2.049  14.653   7.168 -0.0799 -0.0711  0.2622
  508YOPE   GL2 7724   2.288  14.408   7.352 -0.2878 -0.0705 -0.1053
  508YOPE   C1A 7725   2.052  14.890   7.516  0.1192 -0.0682  0.0842
  508YOPE   D2A 7726   1.671  15.055   7.805 -0.3139 -0.0647  0.1935
  508YOPE   C3A 7727   1.768  15.121   8.305 -0.2744  0.2934  0.1352
  508YOPE   C4A 7728   1.787  15.336   8.721 -0.0074  0.1057  0.1544
  508YOPE   C1B 7729   2.197  14.288   7.816 -0.1324  0.0748 -0.1098
  508YOPE   C2B 7730   1.961  14.462   8.188  0.2428 -0.1886 -0.0017
  508YOPE   D3B 7731   1.897  14.703   8.591  0.3363 -0.2982  0.0702
  508YOPE   C4B 7732   1.613  14.880   8.816 -0.1626 -0.2664 -0.1215
  509YOPE   NH3 7733   7.949   7.753   6.557  0.0271 -0.0079 -0.1704
  509YOPE   PO4 7734   7.566   7.728   6.757 -0.3377 -0.1091 -0.2094
  509YOPE   GL1 7735   7.221   7.749   7.058 -0.1358  0.0067 -0.0340
  509YOPE   GL2 7736   7.121   8.036   7.112  0.1773  0.0945  0.1411
  509YOPE   C1A 7737   6.967   7.367   7.198  0.3246  0.0571 -0.0369
  509YOPE   D2A 7738   6.766   7.221   7.597  0.1673 -0.1699  0.1290
  509YOPE   C3A 7739   6.837   6.989   7.938  0.0368 -0.0611 -0.0544
  509YOPE   C4A 7740   6.757   6.692   8.210  0.2395 -0.2096 -0.0181
  509YOPE   C1B 7741   7.036   7.856   7.572 -0.2004  0.1967 -0.2135
  509YOPE   C2B 7742   7.117   7.678   7.949 -0.0093  0.2906  0.2578
  509YOPE   D3B 7743   7.092   7.449   8.247  0.0469 -0.0397  0.0842
  509YOPE   C4B 7744   7.282   7.468   8.703 -0.3743 -0.0509 -0.0277
  510YOPE   NH3 7745  14.019   8.720   6.912  0.1403 -0.2073  0.1282
  510YOPE   PO4 7746  13.879   9.135   6.632  0.0782  0.1358  0.0612
  510YOPE   GL1 7747  13.799   9.195   7.016 -0.0790 -0.1442  0.0920
  510YOPE   GL2 7748  14.117   9.223   7.174 -0.0236  0.2407 -0.1331
  510YOPE   C1A 7749  13.590   9.554   7.162  0.0218 -0.3730  0.2675
  510YOPE   D2A 7750  13.517   9.791   7.611  0.3094 -0.1105 -0.0039
  510YOPE   C3A 7751  13.568   9.553   7.909  0.4245  0.0045 -0.1909
  510YOPE   C4A 7752  13.709   9.685   8.221 -0.1534  0.2569 -0.2250
  510YOPE   C1B 7753  13.991   9.322   7.545  0.1461 -0.1039 -0.2858
  510YOPE   C2B 7754  14.002   9.300   8.056  0.0464  0.0829 -0.1020
  510YOPE   D3B 7755  13.899   9.072   8.431 -0.1076  0.1188  0.1842
  510YOPE   C4B 7756  13.919   9.149   8.864  0.1309 -0.1970  0.1450
  511YOPE   NH3 7757   6.781   4.745   6.309 -0.1497  0.1968 -0.1174
  511YOPE   PO4 7758   7.137   4.997   6.434 -0.0048 -0.0950  0.0848
  511YOPE   GL1 7759   7.054   5.371   6.714 -0.0729  0.0802  0.1349
  511YOPE   GL2 7760   7.345   5.544   6.716 -0.2543 -0.2204 -0.0427
  511YOPE   C1A 7761   6.958   5.644   7.107  0.0638 -0.2817  0.0655
  511YOPE   D2A 7762   6.972   5.890   7.395  0.0331 -0.0216  0.1295
  511YOPE   C3A 7763   6.809   6.303   7.575 -0.0626  0.2768 -0.3241
  511YOPE   C4A 7764   6.589   6.723   7.622 -0.2068  0.0574  0.0673
  511YOPE   C1B 7765   7.431   5.738   7.031 -0.0683  0.3338  0.0573
  511YOPE   C2B 7766   7.461   5.892   7.503 -0.1380 -0.0687  0.0927
  511YOPE   D3B 7767   7.819   6.003   7.770 -0.1111  0.2755  0.2391
  511YOPE   C4B 7768   7.900   6.197   8.068 -0.1478  0.3807  0.2881
  512YOPE   NH3 7769  14.228   5.544   6.427 -0.0133  0.1596  0.2018
  512YOPE   PO4 7770  13.992   5.796   6.558 -0.2468  0.2290 -0.1032
  512YOPE   GL1 7771  14.031   5.686   6.954  0.2519 -0.0699 -0.0163
  512YOPE   GL2 7772  13.942   5.988   7.024 -0.0264  0.1415 -0.1797
  512YOPE   C1A 7773  13.763   5.508   7.295  0.0396  0.1206 -0.1043
  512YOPE   D2A 7774  13.817   5.428   7.788 -0.0688 -0.0613 -0.0593
  512YOPE   C3A 7775  13.583   5.544   8.156 -0.1407 -0.0692  0.1220
  512YOPE   C4A 7776  13.503   5.277   8.512 -0.4089 -0.1353  0.2548
  512YOPE   C1B 7777  13.917   5.907   7.533 -0.1116 -0.1290 -0.0629
  512YOPE   C2B 7778  13.964   5.994   8.002  0.0769 -0.1288  0.3238
  512YOPE   D3B 7779  14.183   5.821   8.418 -0.2837  0.0029 -0.2021
  512YOPE   C4B 7780  14.448   5.682   8.709 -0.0275 -0.1023 -0.0150
  513YOPE   NH3 7781  15.538  12.302   7.147 -0.0989 -0.3677 -0.1491
  513YOPE   PO4 7782  15.211  12.310   6.991  0.2878  0.0449  0.2312
  513YOPE   GL1 7783  15.128  12.337   7.462 -0.2744 -0.0705 -0.2294
  513YOPE   GL2 7784  15.093  12.029   7.668 -0.1924  0.2150  0.1334
  513YOPE   C1A 7785  15.078  12.438   7.911 -0.1420  0.2777  0.0906
  513YOPE   D2A 7786  14.873  12.315   8.208 -0.1716 -0.1058 -0.1911
  513YOPE   C3A 7787  14.370  12.418   8.268 -0.0054 -0.1253 -0.0876
  513YOPE   C4A 7788  13.977  12.725   8.436 -0.1093  0.0253 -0.0236
  513YOPE   C1B 7789  15.307  12.002   7.964  0.0579  0.5667 -0.2280
  513YOPE   C2B 7790  15.597  12.006   8.241  0.0106  0.0650 -0.2820
  513YOPE   D3B 7791  15.522  12.060   8.682  0.4351 -0.1813 -0.1201
  513YOPE   C4B 7792  15.519  12.291   9.043  0.1332 -0.1270 -0.2787
  514YOPE   NH3 7793   8.868   4.917   6.086  0.1816  0.2107 -0.0448
  514YOPE   PO4 7794   8.640   4.660   6.192  0.1315  0.1630 -0.0102
  514YOPE   GL1 7795   9.028   4.520   6.531 -0.2572 -0.0308 -0.1873
  514YOPE   GL2 7796   9.438   4.603   6.642  0.2229 -0.0080  0.2785
  514YOPE   C1A 7797   9.064   4.622   6.994 -0.0039 -0.0651 -0.2376
  514YOPE   D2A 7798   9.160   4.459   7.326 -0.0209 -0.0732 -0.2333
  514YOPE   C3A 7799   9.233   4.759   7.536  0.2411  0.0922 -0.2075
  514YOPE   C4A 7800   9.255   4.760   7.995 -0.0478 -0.0615 -0.0834
  514YOPE   C1B 7801   9.644   4.518   7.015  0.0597 -0.0792  0.0514
  514YOPE   C2B 7802   9.655   4.542   7.488 -0.0424 -0.0221 -0.2684
  514YOPE   D3B 7803   9.660   4.485   7.945 -0.3220 -0.0661  0.1132
  514YOPE   C4B 7804   9.336   4.250   8.294 -0.0783  0.2254 -0.0674
  515YOPE   NH3 7805   3.073   0.296   6.965 -0.0650 -0.0976 -0.0167
  515YOPE   PO4 7806   2.896  -0.054   6.638  0.0010  0.2522  0.1134
  515YOPE   GL1 7807   3.121  -0.231   7.003 -0.2130  0.0998  0.0215
  515YOPE   GL2 7808   2.916  -0.485   7.177 -0.0163  0.0318  0.0131
  515YOPE   C1A 7809   3.429  -0.462   7.296 -0.1057 -0.1129 -0.0632
  515YOPE   D2A 7810   3.707  -0.670   7.108 -0.1089  0.0342 -0.2674
  515YOPE   C3A 7811   3.629  -1.087   7.332 -0.0275 -0.3077  0.1405
  515YOPE   C4A 7812   3.211  -1.432   7.329 -0.2244  0.0765  0.0361
  515YOPE   C1B 7813   2.996  -0.379   7.637 -0.3352  0.1209  0.0279
  515YOPE   C2B 7814   3.212  -0.374   7.961  0.3247  0.1378 -0.0318
  515YOPE   D3B 7815   3.109  -0.572   8.355  0.0435 -0.2935  0.0852
  515YOPE   C4B 7816   2.827  -0.561   8.667  0.0658  0.0403  0.1714
  516YOPE   NH3 7817  14.315   2.324   6.428 -0.4264  0.0906 -0.2370
  516YOPE   PO4 7818  14.766   2.138   6.352 -0.1079  0.0541 -0.1244
  516YOPE   GL1 7819  14.847   1.814   6.699  0.1747 -0.1510  0.1292
  516YOPE   GL2 7820  15.134   1.929   6.849 -0.1873  0.0542  0.1724
  516YOPE   C1A 7821  14.691   1.405   6.800  0.0858 -0.1986 -0.0727
  516YOPE   D2A 7822  14.492   1.018   6.919  0.1041 -0.1276  0.0721
  516YOPE   C3A 7823  14.527   0.955   7.262  0.0489  0.0105  0.1615
  516YOPE   C4A 7824  14.771   1.000   7.460  0.0337  0.0876  0.0643
  516YOPE   C1B 7825  15.325   1.794   7.147 -0.1459  0.3640 -0.0568
  516YOPE   C2B 7826  15.411   1.817   7.584  0.0143  0.3924 -0.0611
  516YOPE   D3B 7827  15.434   1.677   7.941 -0.0885  0.1403 -0.2566
  516YOPE   C4B 7828  15.318   1.317   8.182  0.2276 -0.2051  0.1365
  517YOPE   NH3 7829   5.184   4.372   6.382 -0.0649 -0.1298  0.0472
  517YOPE   PO4 7830   5.359   4.459   6.736 -0.0487 -0.2106  0.0797
  517YOPE   GL1 7831   5.638   4.508   7.087  0.0080 -0.3103  0.0142
  517YOPE   GL2 7832   5.405   4.705   7.239 -0.1273 -0.1604 -0.0138
  517YOPE   C1A 7833   5.848   4.545   7.399 -0.3214  0.2185  0.1129
  517YOPE   D2A 7834   6.018   4.493   7.875 -0.0930  0.0159 -0.2288
  517YOPE   C3A 7835   6.098   4.449   8.370 -0.0163  0.1687 -0.1915
  517YOPE   C4A 7836   6.373   4.347   8.712 -0.4210 -0.1878  0.2573
  517YOPE   C1B 7837   5.543   4.693   7.700 -0.0219  0.1491 -0.0565
  517YOPE   C2B 7838   5.470   4.819   8.086 -0.0351 -0.1632  0.3253
  517YOPE   D3B 7839   5.202   4.998   8.389  0.3191  0.2459  0.3135
  517YOPE   C4B 7840   5.188   4.945   8.761  0.0446  0.0371  0.3291
  518YOPE   NH3 7841   6.746  12.530   6.787 -0.0207 -0.3007 -0.1597
  518YOPE   PO4 7842   6.278  12.692   6.757  0.1951  0.0416 -0.0435
  518YOPE   GL1 7843   6.512  12.306   7.147  0.0698  0.1177 -0.1765
  518YOPE   GL2 7844   6.846  12.284   7.239 -0.1623  0.0559 -0.0098
  518YOPE   C1A 7845   6.305  12.289   7.522 -0.1968 -0.0388 -0.1932
  518YOPE   D2A 7846   6.064  12.261   7.839 -0.0665 -0.3412  0.0644
  518YOPE   C3A 7847   6.253  12.242   8.280  0.4131  0.1431  0.0413
  518YOPE   C4A 7848   6.131  12.162   8.623  0.0211 -0.0363  0.3271
  518YOPE   C1B 7849   6.755  12.387   7.637 -0.0384  0.4187 -0.1162
  518YOPE   C2B 7850   7.009  12.541   7.987  0.1948 -0.0784 -0.1548
  518YOPE   D3B 7851   7.132  12.561   8.447 -0.2308 -0.0046  0.1189
  518YOPE   C4B 7852   7.393  12.538   8.838 -0.2185  0.2097 -0.1968
  519YOPE   NH3 7853  16.109  14.005   7.098  0.1091  0.0132  0.1311
  519YOPE   PO4 7854  15.726  14.113   7.052 -0.2071  0.0304  0.1841
  519YOPE   GL1 7855  15.664  14.100   7.429  0.0271  0.0928  0.1857
  519YOPE   GL2 7856  15.297  13.972   7.309 -0.4659 -0.0327  0.0418
  519YOPE   C1A 7857  15.465  14.035   7.866 -0.2931  0.4231 -0.0589
  519YOPE   D2A 7858  15.288  14.160   8.232  0.0030 -0.0310 -0.2141
  519YOPE   C3A 7859  15.024  14.453   8.387  0.3142  0.1946  0.0651
  519YOPE   C4A 7860  14.883  14.833   8.619  0.2442 -0.2123 -0.2332
  519YOPE   C1B 7861  15.136  14.322   7.499 -0.2020  0.2519  0.0060
  519YOPE   C2B 7862  15.067  14.484   7.885  0.1209 -0.2357 -0.1902
  519YOPE   D3B 7863  14.736  14.716   8.035 -0.0562  0.0954 -0.2541
  519YOPE   C4B 7864  14.472  14.960   8.359  0.2963  0.0460  0.3562
  520YOPE   NH3 7865   1.994   8.467   6.672 -0.1354 -0.3056 -0.6959
  520YOPE   PO4 7866   2.021   8.137   6.530  0.1163  0.2735 -0.1263
  520YOPE   GL1 7867   1.620   8.081   6.918  0.0715  0.2415  0.1998
  520YOPE   GL2 7868   1.900   8.193   7.119  0.1993 -0.0329 -0.3482
  520YOPE   C1A 7869   1.417   8.304   7.326 -0.1440  0.0151 -0.2081
  520YOPE   D2A 7870   1.215   8.474   7.691  0.0675  0.3591 -0.4298
  520YOPE   C3A 7871   1.337   8.798   7.702 -0.0583  0.0963 -0.0106
  520YOPE   C4A 7872   1.246   9.184   7.741 -0.1945  0.0186 -0.2205
  520YOPE   C1B 7873   2.134   8.128   7.396 -0.0232  0.3946  0.0078
  520YOPE   C2B 7874   2.139   7.911   7.784  0.0282  0.0494  0.1380
  520YOPE   D3B 7875   1.955   7.987   8.211  0.2394 -0.0508 -0.0887
  520YOPE   C4B 7876   1.869   8.218   8.650 -0.0096  0.0863 -0.2376
  521YOPE   NH3 7877  13.871  17.023   6.206  0.4593 -0.3029 -0.4340
  521YOPE   PO4 7878  14.016  16.903   6.709 -0.2743  0.1115 -0.0705
  521YOPE   GL1 7879  13.956  17.255   6.979  0.1181  0.0202  0.2398
  521YOPE   GL2 7880  13.819  17.023   7.289 -0.2597 -0.0133  0.1066
  521YOPE   C1A 7881  13.705  17.479   7.371  0.0866 -0.2641  0.2755
  521YOPE   D2A 7882  13.765  17.259   7.761 -0.1182 -0.0452  0.1876
  521YOPE   C3A 7883  13.723  17.503   7.936  0.0814  0.0541 -0.2278
  521YOPE   C4A 7884  13.694  17.757   8.211 -0.0428  0.1041 -0.3463
  521YOPE   C1B 7885  14.157  17.294   7.425 -0.1798 -0.1080 -0.0942
  521YOPE   C2B 7886  14.246  17.445   7.874 -0.1277 -0.1861 -0.4699
  521YOPE   D3B 7887  14.345  17.621   8.316 -0.0828 -0.0813 -0.1652
  521YOPE   C4B 7888  14.548  17.903   8.681 -0.1156  0.1433 -0.2090
  522YOPE   NH3 7889   9.091   9.520   6.578 -0.0341 -0.1202  0.1305
  522YOPE   PO4 7890   9.098   9.176   6.866 -0.2987  0.2658 -0.0368
  522YOPE   GL1 7891   8.932   9.155   7.171 -0.0986 -0.2574 -0.1397
  522YOPE   GL2 7892   8.663   9.049   7.169  0.0326  0.0442 -0.0346
  522YOPE   C1A 7893   8.746   9.398   7.528 -0.1641 -0.0172  0.0306
  522YOPE   D2A 7894   8.847   9.513   8.022 -0.0870  0.0428 -0.3838
  522YOPE   C3A 7895   8.807   9.210   8.366  0.1531  0.0808 -0.0335
  522YOPE   C4A 7896   8.772   8.951   8.674  0.0788  0.2182  0.0401
  522YOPE   C1B 7897   8.754   8.828   7.588  0.2700  0.1794  0.0252
  522YOPE   C2B 7898   8.743   8.811   8.003  0.0957  0.1010  0.0453
  522YOPE   D3B 7899   9.044   8.739   8.337 -0.2981  0.1548  0.2020
  522YOPE   C4B 7900   9.231   9.064   8.639  0.0584  0.2443  0.1205
  523YOPE   NH3 7901   9.810   5.421   6.381 -0.2856 -0.1475 -0.1619
  523YOPE   PO4 7902  10.077   5.729   6.584 -0.2410  0.4351 -0.0268
  523YOPE   GL1 7903  10.212   5.541   6.950 -0.0940 -0.0230  0.0219
  523YOPE   GL2 7904  10.347   5.779   7.068  0.1941  0.1501  0.3165
  523YOPE   C1A 7905  10.209   5.266   7.312  0.4087 -0.0720 -0.2498
  523YOPE   D2A 7906  10.082   5.432   7.756  0.0592 -0.3330  0.0465
  523YOPE   C3A 7907   9.823   5.383   7.989 -0.2778  0.2526  0.1289
  523YOPE   C4A 7908   9.561   5.030   8.277 -0.0149 -0.2353  0.0745
  523YOPE   C1B 7909  10.455   5.740   7.466 -0.1432  0.0959  0.0546
  523YOPE   C2B 7910  10.398   5.939   7.822  0.0062  0.2116 -0.2535
  523YOPE   D3B 7911  10.211   6.232   8.050 -0.0782 -0.2832 -0.0716
  523YOPE   C4B 7912   9.991   6.159   8.420 -0.0322 -0.1193  0.0712
  524YOPE   NH3 7913   2.340   1.340   6.185  0.1882  0.1694  0.0481
  524YOPE   PO4 7914   2.463   1.154   6.557  0.1463  0.0198 -0.0623
  524YOPE   GL1 7915   2.663   0.993   6.928 -0.2164 -0.0709 -0.1129
  524YOPE   GL2 7916   2.834   0.717   7.071 -0.1208  0.0293 -0.0712
  524YOPE   C1A 7917   2.675   1.095   7.280  0.2262  0.4652 -0.2514
  524YOPE   D2A 7918   2.579   1.042   7.756  0.0921 -0.1018 -0.1377
  524YOPE   C3A 7919   2.188   1.239   7.977 -0.1494 -0.0389  0.1264
  524YOPE   C4A 7920   2.091   1.500   8.344 -0.2782 -0.0253 -0.2185
  524YOPE   C1B 7921   2.537   0.616   7.478  0.0207 -0.2771  0.0670
  524YOPE   C2B 7922   2.659   0.508   7.900  0.3873 -0.1649  0.1224
  524YOPE   D3B 7923   2.773   0.421   8.263 -0.0404  0.1642  0.0883
  524YOPE   C4B 7924   3.183   0.374   8.501 -0.0057 -0.0447  0.1570
  525YOPE   NH3 7925   2.738  11.179   6.222 -0.0343  0.3583 -0.0928
  525YOPE   PO4 7926   2.468  10.790   6.071  0.3152  0.2237 -0.0696
  525YOPE   GL1 7927   2.253  10.849   6.565 -0.1888 -0.0852  0.1643
  525YOPE   GL2 7928   2.392  11.144   6.697  0.0090  0.0371  0.0237
  525YOPE   C1A 7929   2.085  10.794   6.987  0.1793 -0.0381  0.1908
  525YOPE   D2A 7930   2.076  10.710   7.374  0.0447  0.3114 -0.1189
  525YOPE   C3A 7931   2.060  10.914   7.738 -0.1746  0.1876 -0.3817
  525YOPE   C4A 7932   2.132  10.924   8.121  0.0302 -0.0276 -0.0927
  525YOPE   C1B 7933   2.264  11.244   7.186 -0.1244  0.2659 -0.1051
  525YOPE   C2B 7934   2.431  11.277   7.514 -0.0606 -0.1044 -0.0390
  525YOPE   D3B 7935   2.283  11.327   7.940  0.0834 -0.0974 -0.1055
  525YOPE   C4B 7936   2.482  11.240   8.382 -0.0445 -0.1255 -0.1514
  526YOPE   NH3 7937  12.634  17.626   6.343 -0.0151 -0.2986  0.0828
  526YOPE   PO4 7938  12.607  17.213   6.465  0.1217  0.0264  0.2884
  526YOPE   GL1 7939  12.763  17.049   6.834 -0.0974 -0.0156  0.0846
  526YOPE   GL2 7940  12.442  17.002   6.987  0.1480  0.0890 -0.3639
  526YOPE   C1A 7941  12.800  17.230   7.225 -0.0246 -0.1731  0.0231
  526YOPE   D2A 7942  12.848  17.498   7.604  0.0271  0.0650 -0.0942
  526YOPE   C3A 7943  12.832  17.806   7.507  0.3166 -0.1038 -0.0538
  526YOPE   C4A 7944  12.852  17.848   7.001  0.0666  0.1076 -0.1730
  526YOPE   C1B 7945  12.312  17.306   7.316  0.2409  0.1048 -0.1723
  526YOPE   C2B 7946  12.316  17.308   7.722  0.0052 -0.2365 -0.0650
  526YOPE   D3B 7947  12.307  17.006   8.003 -0.1187  0.4073 -0.0391
  526YOPE   C4B 7948  12.155  16.571   7.855  0.0258 -0.0126  0.2023
  527YOPE   NH3 7949  13.325   2.926   5.783 -0.1707  0.1577  0.0801
  527YOPE   PO4 7950  13.134   2.490   6.053 -0.1577  0.1140 -0.1603
  527YOPE   GL1 7951  13.128   2.327   6.447 -0.2059 -0.1574 -0.1174
  527YOPE   GL2 7952  13.377   2.357   6.555 -0.0732  0.0927 -0.1274
  527YOPE   C1A 7953  12.878   2.018   6.696  0.0641 -0.1998  0.1589
  527YOPE   D2A 7954  12.705   1.678   6.920  0.1866  0.0588  0.0994
  527YOPE   C3A 7955  12.320   1.753   7.236  0.0947  0.2777  0.3701
  527YOPE   C4A 7956  12.198   1.547   7.550  0.1413  0.2147  0.0610
  527YOPE   C1B 7957  13.409   1.966   6.920 -0.0877  0.0459 -0.1025
  527YOPE   C2B 7958  13.489   2.098   7.435  0.1500  0.0512 -0.3192
  527YOPE   D3B 7959  13.511   1.905   7.864  0.2437 -0.2982  0.0592
  527YOPE   C4B 7960  13.898   2.048   8.057 -0.1839 -0.3429 -0.0787
  528YOPE   NH3 7961  17.411  11.721   7.055  0.1325  0.0190  0.0790
  528YOPE   PO4 7962  17.399  12.104   7.095 -0.2653  0.1973  0.0952
  528YOPE   GL1 7963  17.235  12.036   7.452  0.0969 -0.1029  0.1479
  528YOPE   GL2 7964  17.261  11.769   7.581 -0.0496  0.3650  0.1196
  528YOPE   C1A 7965  17.413  12.199   7.833  0.2782 -0.0438 -0.1493
  528YOPE   D2A 7966  17.587  12.102   8.225  0.0284  0.0225  0.0201
  528YOPE   C3A 7967  17.333  12.084   8.551  0.2090  0.2250  0.1448
  528YOPE   C4A 7968  17.167  11.803   8.874  0.0081 -0.1407  0.1928
  528YOPE   C1B 7969  17.201  11.746   8.035  0.2623 -0.0662 -0.2205
  528YOPE   C2B 7970  17.287  11.616   8.449 -0.0475  0.1682 -0.1821
  528YOPE   D3B 7971  17.488  11.260   8.755 -0.0290  0.1517 -0.1562
  528YOPE   C4B 7972  17.930  11.202   8.991  0.1053 -0.1097  0.0723
  529YOPE   NH3 7973   0.702   2.673   6.426 -0.0109 -0.1607  0.4335
  529YOPE   PO4 7974   0.930   3.008   6.635  0.0198  0.1447  0.1333
  529YOPE   GL1 7975   1.095   3.168   7.048 -0.1530 -0.3441  0.0556
  529YOPE   GL2 7976   1.394   3.017   7.212  0.0594  0.1837  0.0185
  529YOPE   C1A 7977   1.292   3.479   7.407 -0.2822 -0.1519 -0.2326
  529YOPE   D2A 7978   1.291   3.434   7.917 -0.1442  0.0390 -0.1158
  529YOPE   C3A 7979   1.679   3.258   8.122  0.0898 -0.0362 -0.1928
  529YOPE   C4A 7980   1.910   2.910   8.399 -0.1252  0.0451  0.2863
  529YOPE   C1B 7981   1.311   3.047   7.629 -0.2007  0.0036 -0.1830
  529YOPE   C2B 7982   1.243   2.828   8.065 -0.4299  0.1067 -0.0490
  529YOPE   D3B 7983   1.345   2.970   8.461  0.3030 -0.0823 -0.1669
  529YOPE   C4B 7984   1.244   2.828   8.920  0.0722 -0.3230  0.0313
  530YOPE   NH3 7985   6.123  14.060   6.758  0.1387 -0.1307 -0.0280
  530YOPE   PO4 7986   6.252  13.665   6.566  0.0347  0.3701 -0.1804
  530YOPE   GL1 7987   6.354  13.727   7.020  0.0157  0.0245  0.2053
  530YOPE   GL2 7988   6.595  13.903   7.097  0.0717 -0.1765 -0.2346
  530YOPE   C1A 7989   6.220  13.993   7.423 -0.1509  0.2799  0.0986
  530YOPE   D2A 7990   6.007  13.820   7.753 -0.0602  0.2691 -0.0038
  530YOPE   C3A 7991   6.278  13.455   7.873 -0.1160  0.1547 -0.0254
  530YOPE   C4A 7992   6.358  13.136   8.145  0.0189  0.3134  0.4364
  530YOPE   C1B 7993   6.612  13.754   7.560  0.1514  0.2052 -0.0978
  530YOPE   C2B 7994   6.427  13.932   7.986  0.1418  0.4829 -0.0494
  530YOPE   D3B 7995   6.598  14.135   8.354 -0.1635  0.2708 -0.1822
  530YOPE   C4B 7996   6.610  14.411   8.785 -0.0699 -0.1345  0.1484
  531YOPE   NH3 7997  14.045   4.104   6.260 -0.2749 -0.1881 -0.3069
  531YOPE   PO4 7998  14.227   4.250   6.647  0.2038 -0.0323 -0.2205
  531YOPE   GL1 7999  14.384   4.447   6.987 -0.2397 -0.3024 -0.3279
  531YOPE   GL2 8000  14.305   4.779   6.919 -0.3061 -0.0278 -0.2263
  531YOPE   C1A 8001  14.466   4.376   7.413 -0.2158  0.3007 -0.0161
  531YOPE   D2A 8002  14.634   4.178   7.815 -0.2461 -0.1511 -0.5390
  531YOPE   C3A 8003  14.674   3.866   8.086 -0.0065  0.2187  0.2022
  531YOPE   C4A 8004  14.610   3.735   8.421  0.0397 -0.2293  0.3104
  531YOPE   C1B 8005  14.404   4.871   7.284  0.0695  0.0013 -0.2157
  531YOPE   C2B 8006  14.444   4.923   7.722  0.1559 -0.0616 -0.0738
  531YOPE   D3B 8007  14.437   4.858   8.115  0.0681  0.0559 -0.1962
  531YOPE   C4B 8008  14.325   4.834   8.511 -0.0465 -0.0099  0.3538
  532YOPE   NH3 8009  14.681  15.224   7.296  0.1175 -0.3162 -0.2777
  532YOPE   PO4 8010  14.516  15.723   7.246  0.0026 -0.0468 -0.1274
  532YOPE   GL1 8011  14.282  15.498   7.590  0.0867  0.0807  0.0520
  532YOPE   GL2 8012  14.433  15.266   7.734  0.2905 -0.3061  0.0188
  532YOPE   C1A 8013  13.970  15.472   7.820  0.0044  0.0904 -0.1171
  532YOPE   D2A 8014  13.824  15.649   8.086 -0.3631  0.1898 -0.0706
  532YOPE   C3A 8015  13.897  15.616   8.538 -0.0946  0.1204 -0.2534
  532YOPE   C4A 8016  13.727  15.759   8.908  0.4539  0.1716  0.0008
  532YOPE   C1B 8017  14.776  15.214   8.111 -0.0832 -0.0226  0.0453
  532YOPE   C2B 8018  14.839  15.288   8.483 -0.0278 -0.0366  0.1054
  532YOPE   D3B 8019  15.069  15.286   8.869 -0.2476  0.0146 -0.1725
  532YOPE   C4B 8020  15.251  15.473   9.304  0.0173 -0.1971  0.1579
  533YOPE   NH3 8021  10.074   1.105   6.416  0.3039  0.2598  0.1742
  533YOPE   PO4 8022  10.290   0.821   6.637 -0.1180  0.1529 -0.1332
  533YOPE   GL1 8023  10.454   1.067   6.981 -0.1265  0.1698 -0.5966
  533YOPE   GL2 8024  10.427   0.869   7.249  0.0361 -0.1755 -0.1715
  533YOPE   C1A 8025  10.706   1.293   7.380 -0.2006 -0.0989  0.0114
  533YOPE   D2A 8026  10.735   1.408   7.730  0.1508  0.3361 -0.2073
  533YOPE   C3A 8027  10.892   1.117   8.132  0.2170  0.3112  0.1194
  533YOPE   C4A 8028  10.987   1.015   8.666 -0.1975 -0.1962 -0.1924
  533YOPE   C1B 8029  10.563   0.896   7.679 -0.0566  0.0161 -0.0735
  533YOPE   C2B 8030  10.825   0.654   7.942 -0.2326  0.1340  0.0663
  533YOPE   D3B 8031  10.763   0.396   8.264  0.2206 -0.1432 -0.1594
  533YOPE   C4B 8032  10.471   0.215   8.350 -0.2541 -0.0971 -0.1436
  534YOPE   NH3 8033   4.555  12.161   6.817 -0.1902  0.0346 -0.1575
  534YOPE   PO4 8034   4.782  12.526   6.635  0.3738  0.1211 -0.1100
  534YOPE   GL1 8035   4.895  12.663   7.043 -0.0018  0.0579 -0.0201
  534YOPE   GL2 8036   4.645  12.925   7.093  0.0182  0.0399 -0.1678
  534YOPE   C1A 8037   4.897  12.577   7.573  0.1549  0.1720  0.2119
  534YOPE   D2A 8038   5.180  12.363   7.849  0.2489 -0.0138  0.0127
  534YOPE   C3A 8039   5.248  12.189   8.165 -0.2735  0.2199  0.1111
  534YOPE   C4A 8040   5.248  12.221   8.570 -0.0181  0.0121  0.1965
  534YOPE   C1B 8041   4.777  13.077   7.540  0.0471 -0.1941  0.2127
  534YOPE   C2B 8042   4.496  13.094   7.950  0.2032  0.3268  0.0427
  534YOPE   D3B 8043   4.393  12.802   8.373  0.3477 -0.3467  0.0641
  534YOPE   C4B 8044   4.033  12.490   8.592 -0.1843 -0.1667  0.0999
  535YOPE   NH3 8045   0.701  17.035   6.480 -0.0911  0.2087  0.0558
  535YOPE   PO4 8046   0.594  16.606   6.405 -0.1213 -0.2960 -0.4528
  535YOPE   GL1 8047   0.520  16.690   6.845  0.0313 -0.2275 -0.0145
  535YOPE   GL2 8048   0.418  17.017   6.910  0.0726  0.0594 -0.0393
  535YOPE   C1A 8049   0.523  16.558   7.194 -0.0856  0.0458 -0.0362
  535YOPE   D2A 8050   0.610  16.663   7.653 -0.0969  0.1430 -0.1325
  535YOPE   C3A 8051   0.652  16.763   8.104 -0.4540 -0.3133  0.3153
  535YOPE   C4A 8052   0.899  16.920   8.437  0.1015  0.2432  0.1508
  535YOPE   C1B 8053   0.416  17.041   7.307  0.0377 -0.2357 -0.2421
  535YOPE   C2B 8054   0.383  17.134   7.784  0.3611 -0.0195  0.0425
  535YOPE   D3B 8055   0.295  17.264   8.233  0.0586  0.1448  0.0918
  535YOPE   C4B 8056   0.398  16.923   8.563 -0.1813 -0.3317 -0.2421
  536YOPE   NH3 8057  11.402   3.727   6.492 -0.5008 -0.0482 -0.0822
  536YOPE   PO4 8058  11.713   3.456   6.866  0.0432 -0.2939  0.1359
  536YOPE   GL1 8059  11.726   3.402   7.298  0.0047  0.0057  0.0124
  536YOPE   GL2 8060  11.899   3.557   7.416  0.2195  0.1172  0.2241
  536YOPE   C1A 8061  11.413   3.326   7.607  0.0374 -0.1004  0.3897
  536YOPE   D2A 8062  11.257   3.314   7.983 -0.1532  0.1682  0.1911
  536YOPE   C3A 8063  11.180   3.109   8.383  0.1123  0.2876 -0.1915
  536YOPE   C4A 8064  11.108   3.295   8.787  0.0964 -0.1315 -0.0091
  536YOPE   C1B 8065  11.938   3.959   7.710 -0.0563  0.0412 -0.0005
  536YOPE   C2B 8066  11.997   3.888   8.140  0.0304 -0.2327  0.2038
  536YOPE   D3B 8067  12.219   4.098   8.456  0.0779 -0.1192  0.2127
  536YOPE   C4B 8068  12.287   4.284   8.982 -0.0849  0.1189  0.0152
  537YOPE   NH3 8069  15.884   7.125   6.764  0.0049  0.4602  0.1854
  537YOPE   PO4 8070  15.632   6.775   6.881 -0.0214 -0.1298 -0.2532
  537YOPE   GL1 8071  15.787   7.013   7.320  0.2089 -0.2054  0.3740
  537YOPE   GL2 8072  16.020   7.114   7.265 -0.0951  0.0087  0.2773
  537YOPE   C1A 8073  15.983   7.043   7.789 -0.0407 -0.0917  0.1248
  537YOPE   D2A 8074  15.974   6.807   8.089 -0.0823 -0.2038  0.0066
  537YOPE   C3A 8075  15.608   6.976   8.406  0.1275  0.2196  0.2101
  537YOPE   C4A 8076  15.648   6.983   8.814  0.0385  0.0856  0.2559
  537YOPE   C1B 8077  16.398   7.336   7.562  0.0938 -0.1820  0.0065
  537YOPE   C2B 8078  16.375   7.450   7.967 -0.0194 -0.2897 -0.0575
  537YOPE   D3B 8079  16.516   7.612   8.350  0.1504  0.0808 -0.1251
  537YOPE   C4B 8080  16.498   7.568   8.817  0.3410 -0.3226  0.3244
  538YOPE   NH3 8081  15.322  11.020   6.957 -0.4143 -0.0743 -0.0106
  538YOPE   PO4 8082  15.175  10.650   6.693 -0.2218  0.2000 -0.2204
  538YOPE   GL1 8083  15.112  10.570   7.075 -0.1807 -0.2467  0.0896
  538YOPE   GL2 8084  15.093  10.302   7.098 -0.1006 -0.1097 -0.0553
  538YOPE   C1A 8085  15.215  10.668   7.481 -0.1465 -0.1281  0.0910
  538YOPE   D2A 8086  15.364  10.721   7.829 -0.0975  0.2933  0.1920
  538YOPE   C3A 8087  15.222  10.858   8.270 -0.2702 -0.1753 -0.1341
  538YOPE   C4A 8088  14.983  11.143   8.573 -0.0536  0.2495 -0.2774
  538YOPE   C1B 8089  14.981  10.227   7.445 -0.0290  0.1104 -0.2506
  538YOPE   C2B 8090  15.117  10.290   7.779 -0.0957  0.0346  0.2433
  538YOPE   D3B 8091  15.315  10.317   8.141  0.1939 -0.0549  0.0592
  538YOPE   C4B 8092  15.271  10.323   8.541  0.2101  0.0146 -0.1321
  539YOPE   NH3 8093  11.523  12.176   6.889 -0.0019  0.0983 -0.0545
  539YOPE   PO4 8094  11.724  12.554   6.901 -0.1192 -0.1661  0.2872
  539YOPE   GL1 8095  11.714  12.582   7.290  0.2018  0.0431  0.1452
  539YOPE   GL2 8096  11.667  12.263   7.395  0.0373 -0.3868 -0.2450
  539YOPE   C1A 8097  11.665  12.765   7.662 -0.1986 -0.1326 -0.3024
  539YOPE   D2A 8098  11.393  12.719   7.973  0.1333  0.3382  0.0377
  539YOPE   C3A 8099  11.611  12.791   8.416 -0.1128 -0.1816  0.0390
  539YOPE   C4A 8100  11.710  13.012   8.733 -0.0602  0.1884  0.0906
  539YOPE   C1B 8101  11.323  12.293   7.744  0.0243  0.0119 -0.0763
  539YOPE   C2B 8102  11.300  12.204   8.119  0.2641 -0.0109  0.1025
  539YOPE   D3B 8103  11.222  12.485   8.436 -0.0507 -0.2823 -0.5704
  539YOPE   C4B 8104  11.085  12.498   8.836  0.0939 -0.2761 -0.0585
  540YOPE   NH3 8105   0.888   1.275   6.208 -0.1241 -0.0583  0.1797
  540YOPE   PO4 8106   1.277   1.408   6.551  0.2417 -0.1238  0.3736
  540YOPE   GL1 8107   1.077   1.646   6.961 -0.2252  0.0476  0.3277
  540YOPE   GL2 8108   1.370   1.853   7.126  0.0602  0.1700  0.0069
  540YOPE   C1A 8109   0.972   1.680   7.383 -0.2134  0.1186  0.1238
  540YOPE   D2A 8110   0.757   1.637   7.828 -0.0982 -0.0842  0.0422
  540YOPE   C3A 8111   0.278   1.312   7.880  0.2020  0.3521  0.0710
  540YOPE   C4A 8112  -0.179   1.224   7.752  0.3427 -0.0955 -0.0585
  540YOPE   C1B 8113   1.440   1.508   7.407 -0.1969 -0.1092 -0.2556
  540YOPE   C2B 8114   1.672   1.268   7.714 -0.1868 -0.3319 -0.1418
  540YOPE   D3B 8115   1.679   1.139   8.155  0.2347  0.0356  0.2869
  540YOPE   C4B 8116   1.638   1.156   8.486  0.3204 -0.2166 -0.0294
  541YOPE   NH3 8117  11.781   0.518   6.533 -0.0959  0.2094 -0.2576
  541YOPE   PO4 8118  11.518   0.125   6.703  0.0638  0.0524 -0.0757
  541YOPE   GL1 8119  11.675   0.268   7.062 -0.1122  0.2689  0.0735
  541YOPE   GL2 8120  11.914   0.492   7.034 -0.2512 -0.0758 -0.2464
  541YOPE   C1A 8121  11.777   0.367   7.544 -0.0797 -0.0696  0.0051
  541YOPE   D2A 8122  11.798   0.328   7.962  0.0211  0.3398  0.0277
  541YOPE   C3A 8123  11.509   0.498   8.287  0.2828 -0.1194 -0.1154
  541YOPE   C4A 8124  11.167   0.643   8.380  0.1238  0.2907 -0.1132
  541YOPE   C1B 8125  12.201   0.598   7.435  0.3693  0.2345 -0.0590
  541YOPE   C2B 8126  12.204   0.628   7.833 -0.1366  0.3373 -0.1979
  541YOPE   D3B 8127  12.415   0.546   8.187 -0.1262 -0.2429  0.0289
  541YOPE   C4B 8128  12.254   0.304   8.486 -0.2343 -0.0985 -0.2031
  542YOPE   NH3 8129  14.726  10.781   6.800  0.0392 -0.3484 -0.1714
  542YOPE   PO4 8130  14.273  10.657   6.830  0.0785 -0.2386  0.0588
  542YOPE   GL1 8131  14.138  10.950   7.182 -0.1305 -0.1606 -0.0336
  542YOPE   GL2 8132  14.148  11.291   7.223  0.1677 -0.2419  0.0268
  542YOPE   C1A 8133  14.324  11.027   7.644  0.2382  0.1273  0.4740
  542YOPE   D2A 8134  14.322  10.761   8.032 -0.1155 -0.1268 -0.0081
  542YOPE   C3A 8135  14.487  10.821   8.375 -0.1086 -0.1606  0.0500
  542YOPE   C4A 8136  14.695  10.762   8.777 -0.3080  0.1603 -0.2209
  542YOPE   C1B 8137  13.878  11.299   7.655  0.2202  0.0436  0.3077
  542YOPE   C2B 8138  13.603  11.501   7.956  0.0661  0.0080 -0.1368
  542YOPE   D3B 8139  13.526  11.669   8.365 -0.0467  0.1844  0.1074
  542YOPE   C4B 8140  13.161  11.792   8.706  0.0501 -0.0154 -0.2038
  543POPC   NC3 8141  14.745  12.526   6.692  0.1627  0.0479 -0.0185
  543POPC   PO4 8142  14.463  12.929   6.636 -0.1965  0.1736 -0.2424
  543POPC   GL1 8143  14.611  13.120   7.101 -0.1576 -0.2886  0.1631
  543POPC   GL2 8144  14.270  13.165   7.257  0.0089 -0.0953 -0.1318
  543POPC   C1A 8145  14.689  13.036   7.586  0.1032 -0.1751  0.2611
  543POPC   D2A 8146  14.526  12.752   7.885 -0.0618 -0.0385 -0.2957
  543POPC   C3A 8147  14.663  12.863   8.222 -0.1679  0.0349  0.1476
  543POPC   C4A 8148  14.806  12.659   8.680  0.3706 -0.0090 -0.1784
  543POPC   C1B 8149  14.232  13.126   7.728  0.0660  0.0450  0.0334
  543POPC   C2B 8150  14.234  13.176   8.193  0.3454 -0.1395  0.0087
  543POPC   C3B 8151  13.776  13.234   8.467 -0.1086  0.0909  0.2150
  543POPC   C4B 8152  13.345  13.157   8.547  0.0434  0.2820 -0.1651
  544POPC   NC3 8153   9.686   4.632   6.079 -0.0332 -0.0758  0.1307
  544POPC   PO4 8154   9.954   4.955   6.369 -0.0800 -0.1948  0.1482
  544POPC   GL1 8155   9.746   4.994   6.678 -0.0283  0.0103 -0.0171
  544POPC   GL2 8156   9.980   5.105   6.863  0.3329 -0.1439  0.1397
  544POPC   C1A 8157   9.310   5.011   6.966 -0.0359 -0.2704 -0.1746
  544POPC   D2A 8158   8.871   5.037   7.347 -0.0146  0.1507 -0.0087
  544POPC   C3A 8159   8.843   5.264   7.760 -0.2845  0.2744 -0.2060
  544POPC   C4A 8160   8.624   5.419   8.213  0.1731 -0.2074 -0.0944
  544POPC   C1B 8161   9.842   4.932   7.263  0.0235 -0.0219  0.0477
  544POPC   C2B 8162   9.897   4.919   7.773 -0.1437  0.0911 -0.3046
  544POPC   C3B 8163   9.990   4.751   8.264 -0.1309 -0.0942 -0.0729
  544POPC   C4B 8164   9.764   4.621   8.546  0.2655 -0.1770  0.1150
  545POPC   NC3 8165  16.725   6.014   6.566 -0.1044  0.1570  0.3852
  545POPC   PO4 8166  16.395   5.836   6.833  0.1244 -0.3105  0.1505
  545POPC   GL1 8167  16.505   5.554   7.187 -0.2262 -0.3412 -0.2141
  545POPC   GL2 8168  16.665   5.322   7.065 -0.1875 -0.0989  0.3043
  545POPC   C1A 8169  16.725   5.456   7.602 -0.3917  0.0213  0.0616
  545POPC   D2A 8170  16.692   5.588   8.075 -0.1697  0.0754  0.1340
  545POPC   C3A 8171  16.441   5.260   8.325  0.1845 -0.3188  0.3473
  545POPC   C4A 8172  16.190   5.127   8.648  0.0701  0.2464  0.0110
  545POPC   C1B 8173  16.972   5.208   7.254 -0.1779 -0.1082  0.2578
  545POPC   C2B 8174  16.953   4.873   7.569 -0.1906  0.0471  0.0924
  545POPC   C3B 8175  16.969   4.411   7.756 -0.1032  0.0628 -0.2294
  545POPC   C4B 8176  17.296   4.328   8.063 -0.1211 -0.1946  0.0923
  546POPC   NC3 8177  15.727   2.448   6.476 -0.2386  0.2475 -0.0589
  546POPC   PO4 8178  15.618   2.021   6.593 -0.0941 -0.3085  0.2147
  546POPC   GL1 8179  15.710   2.036   6.939 -0.0157  0.0908 -0.0434
  546POPC   GL2 8180  15.824   2.298   6.971 -0.2780  0.0224 -0.1601
  546POPC   C1A 8181  15.569   2.213   7.334  0.3398 -0.1033  0.0139
  546POPC   D2A 8182  15.338   2.352   7.564 -0.2769 -0.0339  0.1133
  546POPC   C3A 8183  15.359   2.194   7.947  0.0804 -0.0103 -0.1732
  546POPC   C4A 8184  15.299   2.317   8.513 -0.1520  0.1295 -0.0318
  546POPC   C1B 8185  16.201   2.550   7.075  0.0530  0.2167 -0.1181
  546POPC   C2B 8186  16.224   2.580   7.508 -0.3242  0.3907 -0.1221
  546POPC   C3B 8187  16.059   2.955   7.827  0.0625  0.4933 -0.1520
  546POPC   C4B 8188  16.038   3.237   8.134 -0.1195  0.1583  0.2379
  547POPC   NC3 8189   4.135  15.938   6.918 -0.2178  0.1002 -0.3876
  547POPC   PO4 8190   3.986  15.494   7.012  0.2987  0.0985 -0.2571
  547POPC   GL1 8191   4.079  15.595   7.410  0.0009  0.0027  0.0095
  547POPC   GL2 8192   4.198  15.890   7.475  0.1043 -0.4661  0.1538
  547POPC   C1A 8193   3.726  15.460   7.692  0.0125 -0.2075  0.0773
  547POPC   D2A 8194   3.341  15.378   7.724 -0.1630 -0.3650  0.0520
  547POPC   C3A 8195   3.088  15.522   8.011 -0.2069 -0.1444 -0.0599
  547POPC   C4A 8196   3.166  15.503   8.404 -0.1996  0.0647  0.2046
  547POPC   C1B 8197   4.242  15.860   7.876  0.2043  0.2546 -0.2588
  547POPC   C2B 8198   4.201  15.756   8.324  0.0223 -0.3644 -0.2191
  547POPC   C3B 8199   4.416  15.357   8.615 -0.0151 -0.0319 -0.1961
  547POPC   C4B 8200   4.378  14.901   8.764  0.2421 -0.0308  0.0991
  548POPC   NC3 8201   6.062  12.193   6.942 -0.2039 -0.1293 -0.0365
  548POPC   PO4 8202   6.266  11.823   6.841  0.0991  0.0557 -0.1378
  548POPC   GL1 8203   5.973  11.683   7.149  0.0327 -0.2061  0.0334
  548POPC   GL2 8204   6.068  11.360   7.351  0.0332  0.0808  0.0971
  548POPC   C1A 8205   5.805  11.941   7.594  0.0332 -0.3018  0.3442
  548POPC   D2A 8206   5.709  11.945   8.025  0.1453 -0.0964  0.1100
  548POPC   C3A 8207   5.688  12.318   8.275 -0.4188 -0.3865  0.1612
  548POPC   C4A 8208   5.642  12.696   8.562 -0.1498  0.3323 -0.2051
  548POPC   C1B 8209   6.183  11.286   7.739 -0.2052 -0.5316 -0.1110
  548POPC   C2B 8210   6.293  11.296   8.169 -0.1790 -0.1889 -0.0607
  548POPC   C3B 8211   6.444  11.296   8.675 -0.0767 -0.0913 -0.0237
  548POPC   C4B 8212   6.383  11.197   9.066  0.0381 -0.2768  0.4375
  549POPC   NC3 8213   7.338   2.553   6.467  0.2131 -0.1194  0.1217
  549POPC   PO4 8214   7.791   2.765   6.394  0.0446 -0.3690 -0.2661
  549POPC   GL1 8215   7.986   2.790   6.806 -0.0414  0.1219 -0.0033
  549POPC   GL2 8216   8.281   3.016   6.890 -0.0486 -0.0462 -0.0346
  549POPC   C1A 8217   7.891   3.033   7.161 -0.1970 -0.0885 -0.2893
  549POPC   D2A 8218   7.484   3.260   7.310 -0.5084  0.0260 -0.1405
  549POPC   C3A 8219   7.143   2.995   7.575 -0.0379  0.0274 -0.2790
  549POPC   C4A 8220   7.132   2.901   8.029 -0.0142  0.4015  0.1718
  549POPC   C1B 8221   8.424   3.264   7.248  0.1836 -0.1079  0.3486
  549POPC   C2B 8222   8.379   3.547   7.683  0.0622  0.1743  0.2071
  549POPC   C3B 8223   8.386   3.581   8.108 -0.1900  0.1587 -0.0248
  549POPC   C4B 8224   8.322   3.393   8.452  0.1121 -0.0709  0.0439
  550POPC   NC3 8225  11.293   5.101   6.545 -0.1114  0.0928 -0.1637
  550POPC   PO4 8226  10.847   4.874   6.545  0.0773 -0.1048  0.1930
  550POPC   GL1 8227  10.724   5.115   6.816  0.2573 -0.1741  0.5011
  550POPC   GL2 8228  10.524   5.009   7.033  0.3149 -0.0429  0.0453
  550POPC   C1A 8229  10.711   5.400   7.185 -0.1777  0.0948 -0.2208
  550POPC   D2A 8230  10.653   5.291   7.745 -0.3346  0.0263 -0.1295
  550POPC   C3A 8231  10.544   5.533   8.090 -0.4891 -0.1239  0.0073
  550POPC   C4A 8232  10.545   5.937   8.365 -0.0185 -0.0562 -0.2436
  550POPC   C1B 8233  10.486   4.880   7.497 -0.0369 -0.2864  0.2329
  550POPC   C2B 8234  10.383   4.860   7.959 -0.1368 -0.0328 -0.2483
  550POPC   C3B 8235  10.596   4.908   8.311 -0.4016  0.0243 -0.2044
  550POPC   C4B 8236  10.553   5.248   8.665 -0.3857 -0.1371  0.1620
  551POPC   NC3 8237   1.052  14.446   6.288 -0.2613 -0.0863 -0.3405
  551POPC   PO4 8238   0.807  14.599   6.574 -0.3067  0.0570  0.0190
  551POPC   GL1 8239   0.857  14.581   6.973 -0.2069 -0.0045 -0.0580
  551POPC   GL2 8240   0.816  14.331   7.188 -0.1322 -0.1666 -0.0043
  551POPC   C1A 8241   0.802  14.780   7.363 -0.1835 -0.1056 -0.1397
  551POPC   D2A 8242   1.042  14.770   7.640  0.1549 -0.1347 -0.3018
  551POPC   C3A 8243   1.286  14.529   7.738 -0.0427 -0.4450  0.0585
  551POPC   C4A 8244   1.707  14.450   7.588  0.1290 -0.0158 -0.0924
  551POPC   C1B 8245   0.856  14.272   7.575 -0.1426 -0.0393  0.1790
  551POPC   C2B 8246   0.936  14.288   7.988  0.0952  0.1782 -0.3526
  551POPC   C3B 8247   1.073  14.514   8.225  0.0943 -0.2256 -0.1399
  551POPC   C4B 8248   1.212  14.669   8.521  0.1273  0.1557 -0.3490
  552POPC   NC3 8249   6.983  10.297   6.377 -0.0817 -0.1718 -0.3737
  552POPC   PO4 8250   7.308  10.380   6.650 -0.1764 -0.1561  0.3457
  552POPC   GL1 8251   7.572  10.216   6.963  0.0437  0.1299  0.2368
  552POPC   GL2 8252   7.651  10.387   7.110 -0.0618  0.0036  0.1740
  552POPC   C1A 8253   7.534   9.930   7.330 -0.0195  0.0896 -0.0664
  552POPC   D2A 8254   7.499   9.790   7.772  0.1790  0.3624  0.3777
  552POPC   C3A 8255   7.156   9.369   7.936  0.2071  0.3366 -0.1020
  552POPC   C4A 8256   6.851   9.174   8.193  0.1229  0.2049 -0.0270
  552POPC   C1B 8257   7.634  10.341   7.580  0.0839  0.1112  0.0621
  552POPC   C2B 8258   7.669  10.239   7.936 -0.1177 -0.2135  0.3033
  552POPC   C3B 8259   7.482  10.328   8.357 -0.2756 -0.1273 -0.0210
  552POPC   C4B 8260   7.714  10.174   8.754 -0.1566  0.1025 -0.1566
  553POPC   NC3 8261  16.293   0.357   6.224 -0.2748 -0.1281  0.1564
  553POPC   PO4 8262  16.561  -0.001   6.286  0.1398  0.0405 -0.1959
  553POPC   GL1 8263  16.659   0.395   6.545 -0.2087  0.1887 -0.0813
  553POPC   GL2 8264  16.398   0.722   6.520  0.4301 -0.0356 -0.0691
  553POPC   C1A 8265  16.835   0.469   7.025 -0.1133  0.0354 -0.1706
  553POPC   D2A 8266  16.688   0.834   7.375 -0.2089 -0.1181 -0.1972
  553POPC   C3A 8267  16.287   0.735   7.507  0.0119 -0.1053 -0.0077
  553POPC   C4A 8268  16.065   1.001   7.538 -0.2502  0.1351 -0.1858
  553POPC   C1B 8269  16.624   0.849   6.860 -0.0061 -0.1195 -0.0980
  553POPC   C2B 8270  17.048   0.946   7.033  0.0496 -0.0379 -0.0529
  553POPC   C3B 8271  17.372   1.027   7.187  0.0966  0.1608 -0.1565
  553POPC   C4B 8272  17.632   1.363   7.199 -0.0800  0.1109  0.0868
  554POPC   NC3 8273  15.100   6.881   6.304  0.4017 -0.2210 -0.0188
  554POPC   PO4 8274  15.428   7.183   6.600 -0.2634 -0.1700 -0.1421
  554POPC   GL1 8275  15.362   7.167   7.087  0.1906  0.0659 -0.1995
  554POPC   GL2 8276  15.262   7.473   7.228  0.1746 -0.2612 -0.0545
  554POPC   C1A 8277  15.316   7.032   7.526  0.0850 -0.0920  0.0972
  554POPC   D2A 8278  15.468   7.111   7.902 -0.0905  0.1348  0.0267
  554POPC   C3A 8279  15.282   7.290   8.238 -0.1784  0.0626 -0.1974
  554POPC   C4A 8280  15.381   7.386   8.628 -0.1440  0.3077 -0.0588
  554POPC   C1B 8281  15.030   7.401   7.459 -0.1625 -0.0053 -0.1064
  554POPC   C2B 8282  14.904   7.290   7.951  0.0262 -0.2666  0.0251
  554POPC   C3B 8283  14.813   7.312   8.355 -0.0808  0.1473  0.2174
  554POPC   C4B 8284  14.515   7.288   8.710  0.0809  0.0543 -0.0306
  555POPC   NC3 8285   4.020   7.353   6.579  0.0264 -0.0753 -0.1496
  555POPC   PO4 8286   4.339   7.478   6.711  0.2534  0.1846  0.0473
  555POPC   GL1 8287   4.074   7.451   7.060  0.0397  0.0329  0.1579
  555POPC   GL2 8288   3.747   7.599   6.977  0.1130  0.1279 -0.1078
  555POPC   C1A 8289   4.000   7.378   7.430  0.0242  0.3249 -0.0676
  555POPC   D2A 8290   4.093   7.508   7.736  0.1316 -0.0078  0.0847
  555POPC   C3A 8291   3.888   7.266   8.015 -0.0531 -0.1401  0.2182
  555POPC   C4A 8292   3.715   7.154   8.426 -0.1580  0.1920 -0.0884
  555POPC   C1B 8293   3.456   7.435   7.316  0.0855 -0.4052 -0.0387
  555POPC   C2B 8294   3.350   7.398   7.716 -0.1042 -0.0307  0.1054
  555POPC   C3B 8295   3.282   7.262   8.087  0.0611  0.0901 -0.0831
  555POPC   C4B 8296   3.183   6.953   8.421 -0.1353  0.1736  0.0123
  556POPC   NC3 8297  14.866  15.074   6.861  0.1149 -0.0645  0.0072
  556POPC   PO4 8298  14.989  14.812   7.124  0.1456  0.1820  0.5055
  556POPC   GL1 8299  15.286  14.886   7.399 -0.1002 -0.3424 -0.0773
  556POPC   GL2 8300  15.561  14.663   7.501 -0.1283 -0.2318 -0.0299
  556POPC   C1A 8301  15.269  14.925   7.909  0.1426 -0.2240  0.3218
  556POPC   D2A 8302  15.284  15.001   8.353 -0.0081  0.0075  0.1318
  556POPC   C3A 8303  15.425  14.610   8.634  0.2546 -0.1019  0.0893
  556POPC   C4A 8304  15.502  14.370   9.000 -0.0125  0.1979  0.1806
  556POPC   C1B 8305  15.611  14.555   7.927  0.1561  0.1120  0.2920
  556POPC   C2B 8306  15.804  14.517   8.264 -0.0586  0.0293  0.0993
  556POPC   C3B 8307  16.028  14.383   8.658 -0.0936  0.0109 -0.0217
  556POPC   C4B 8308  16.004  14.218   9.106 -0.0727  0.2759  0.2655
  557POPC   NC3 8309   2.317  16.081   6.439 -0.3189  0.1436 -0.1025
  557POPC   PO4 8310   2.249  16.490   6.607  0.1283  0.2638  0.0577
  557POPC   GL1 8311   2.228  16.290   6.857 -0.0105  0.2831  0.0327
  557POPC   GL2 8312   2.609  16.207   7.023 -0.2448  0.0266  0.0005
  557POPC   C1A 8313   2.164  16.248   7.327 -0.3393 -0.3332 -0.2726
  557POPC   D2A 8314   2.036  16.448   7.642 -0.0196 -0.1619 -0.0043
  557POPC   C3A 8315   2.081  16.357   8.094 -0.4502  0.0767 -0.4623
  557POPC   C4A 8316   1.912  16.499   8.527  0.3349  0.0940 -0.0456
  557POPC   C1B 8317   2.653  16.423   7.401  0.1420  0.0663 -0.1330
  557POPC   C2B 8318   2.491  16.565   7.811 -0.2155 -0.0163  0.0430
  557POPC   C3B 8319   2.630  16.376   8.163 -0.3021  0.2750  0.1424
  557POPC   C4B 8320   2.823  16.009   8.242  0.1395  0.0928 -0.2766
  558POPC   NC3 8321   3.818  17.580   6.969  0.1162  0.1881 -0.0815
  558POPC   PO4 8322   4.275  17.481   7.060  0.2118 -0.0324  0.3158
  558POPC   GL1 8323   4.082  17.366   7.383 -0.4342  0.0556  0.2233
  558POPC   GL2 8324   3.722  17.586   7.489  0.0866  0.3071  0.0053
  558POPC   C1A 8325   4.188  17.262   7.719 -0.1832  0.2171  0.0674
  558POPC   D2A 8326   4.217  16.802   7.908 -0.1310 -0.2168  0.1106
  558POPC   C3A 8327   4.031  16.738   8.263  0.2394 -0.0715  0.0511
  558POPC   C4A 8328   3.814  16.641   8.688 -0.0690 -0.0036  0.0307
  558POPC   C1B 8329   3.835  17.477   7.936 -0.0346 -0.0079  0.0820
  558POPC   C2B 8330   3.994  17.371   8.289  0.0210  0.0781  0.0426
  558POPC   C3B 8331   3.915  17.513   8.697 -0.0273  0.0552 -0.2409
  558POPC   C4B 8332   3.667  17.816   8.814  0.0161  0.0799  0.0822
  559POPC   NC3 8333  12.230  15.742   6.660 -0.2119  0.0171 -0.1849
  559POPC   PO4 8334  12.458  16.137   6.699 -0.3696  0.1603  0.0912
  559POPC   GL1 8335  12.733  15.906   6.935 -0.0914  0.0148 -0.1177
  559POPC   GL2 8336  12.637  15.560   6.853  0.0092 -0.1084 -0.3088
  559POPC   C1A 8337  12.830  15.857   7.401  0.1826  0.2774  0.0367
  559POPC   D2A 8338  12.923  15.991   7.813 -0.0165 -0.0413  0.1606
  559POPC   C3A 8339  13.251  15.855   8.115  0.0145 -0.1853 -0.3779
  559POPC   C4A 8340  13.603  16.006   8.357 -0.0237 -0.0560 -0.1617
  559POPC   C1B 8341  12.493  15.512   7.351  0.0850 -0.1074 -0.0791
  559POPC   C2B 8342  12.487  15.733   7.760  0.0739  0.1452 -0.1794
  559POPC   C3B 8343  12.556  15.836   8.155  0.2972  0.0394 -0.0888
  559POPC   C4B 8344  12.914  16.152   8.363 -0.1023 -0.0828 -0.0245
  560POPC   NC3 8345  14.830  16.620   6.997  0.0203  0.0600  0.1542
  560POPC   PO4 8346  14.887  16.981   6.847 -0.1455 -0.0069 -0.0029
  560POPC   GL1 8347  14.940  17.177   7.189  0.0569 -0.0442 -0.1121
  560POPC   GL2 8348  14.881  16.956   7.426 -0.2587 -0.0757 -0.1734
  560POPC   C1A 8349  15.163  17.343   7.642  0.1790  0.3633  0.2349
  560POPC   D2A 8350  15.099  17.072   7.945 -0.2884 -0.0039  0.3312
  560POPC   C3A 8351  15.108  17.200   8.411  0.1203  0.0459  0.2106
  560POPC   C4A 8352  15.173  17.372   8.806 -0.3692  0.1151  0.2676
  560POPC   C1B 8353  14.648  17.085   7.761  0.0641 -0.0397  0.0092
  560POPC   C2B 8354  14.619  17.206   8.111 -0.4083  0.0903 -0.0253
  560POPC   C3B 8355  14.597  17.175   8.528 -0.1146  0.1011 -0.1603
  560POPC   C4B 8356  14.515  16.833   8.784 -0.1059  0.3765  0.1866
  561POPC   NC3 8357  15.634   9.489   6.469 -0.3558  0.1744 -0.1942
  561POPC   PO4 8358  15.785   9.906   6.445  0.1189  0.0364 -0.3833
  561POPC   GL1 8359  16.028   9.792   6.837 -0.0394  0.1135 -0.1644
  561POPC   GL2 8360  16.204   9.436   6.917  0.0793  0.5148  0.1515
  561POPC   C1A 8361  15.871   9.752   7.306  0.1323 -0.5215 -0.0651
  561POPC   D2A 8362  16.081   9.511   7.683 -0.1417  0.0832  0.0404
  561POPC   C3A 8363  15.873   9.570   8.045  0.0600 -0.3978 -0.0227
  561POPC   C4A 8364  15.386   9.623   8.263  0.2593  0.0585  0.1599
  561POPC   C1B 8365  16.383   9.284   7.327  0.2431 -0.2396 -0.0860
  561POPC   C2B 8366  16.447   9.107   7.720 -0.0210 -0.0039 -0.1818
  561POPC   C3B 8367  16.599   9.092   8.258 -0.0426 -0.4811  0.2280
  561POPC   C4B 8368  16.552   9.410   8.682 -0.0119 -0.0499  0.0294
  562POPC   NC3 8369   4.431   0.282   6.923  0.0226 -0.2791 -0.0234
  562POPC   PO4 8370   3.914   0.443   6.999 -0.0756 -0.0454 -0.1206
  562POPC   GL1 8371   3.981   0.714   7.300 -0.1691 -0.0725  0.0745
  562POPC   GL2 8372   3.833   1.039   7.409 -0.0606 -0.0827 -0.0828
  562POPC   C1A 8373   3.910   0.695   7.743 -0.1414  0.0358 -0.1650
  562POPC   D2A 8374   3.845   0.978   8.106 -0.0854  0.0811 -0.0489
  562POPC   C3A 8375   3.534   1.133   8.504  0.2193 -0.1856 -0.1312
  562POPC   C4A 8376   3.280   0.923   8.720 -0.0164  0.0751 -0.0336
  562POPC   C1B 8377   3.476   1.040   7.731 -0.0314 -0.1327 -0.3359
  562POPC   C2B 8378   3.329   1.086   8.031 -0.0525  0.3402 -0.3914
  562POPC   C3B 8379   2.901   0.947   8.259 -0.0624  0.1833  0.1098
  562POPC   C4B 8380   2.782   0.792   8.695  0.0219  0.0207  0.2048
  563POPC   NC3 8381   1.028  16.208   6.567 -0.2159  0.0114 -0.2113
  563POPC   PO4 8382   1.085  15.964   6.952 -0.2224  0.2204  0.1437
  563POPC   GL1 8383   1.106  16.158   7.238  0.3045  0.0124  0.2732
  563POPC   GL2 8384   0.989  16.487   7.026 -0.2574  0.0169  0.1436
  563POPC   C1A 8385   1.082  16.510   7.593  0.1369  0.0380  0.1831
  563POPC   D2A 8386   1.146  16.673   8.032  0.1563 -0.1673  0.0813
  563POPC   C3A 8387   1.340  17.045   8.271  0.0589  0.0160  0.1838
  563POPC   C4A 8388   1.311  17.494   8.510  0.0258  0.1315 -0.0337
  563POPC   C1B 8389   1.402  16.679   7.264  0.1325  0.0124  0.1211
  563POPC   C2B 8390   1.590  16.871   7.625 -0.1917 -0.2216 -0.1805
  563POPC   C3B 8391   1.777  17.161   7.908 -0.4838 -0.2189 -0.2193
  563POPC   C4B 8392   1.969  17.401   8.221 -0.0983 -0.0028 -0.1808
  564POPC   NC3 8393  15.224  11.672   6.630  0.0574  0.0528  0.0273
  564POPC   PO4 8394  15.037  11.511   7.028  0.1006 -0.2161 -0.3492
  564POPC   GL1 8395  14.913  11.561   7.495  0.1345 -0.3296 -0.1174
  564POPC   GL2 8396  14.606  11.648   7.479 -0.1477 -0.0182 -0.0194
  564POPC   C1A 8397  14.881  11.645   8.042 -0.2825 -0.1442 -0.0113
  564POPC   D2A 8398  15.042  11.870   8.395 -0.1479 -0.1609  0.0429
  564POPC   C3A 8399  15.263  11.627   8.731 -0.1184 -0.0489 -0.0180
  564POPC   C4A 8400  15.521  11.720   9.059 -0.2450  0.0121  0.1990
  564POPC   C1B 8401  14.392  11.554   7.835 -0.1865 -0.0913  0.0364
  564POPC   C2B 8402  14.155  11.277   8.069 -0.3471 -0.0249  0.0696
  564POPC   C3B 8403  13.806  11.223   8.347  0.2017  0.1997 -0.0667
  564POPC   C4B 8404  13.458  10.970   8.403 -0.1038 -0.3322  0.1277
  565POPC   NC3 8405   5.880  14.805   6.201  0.3313  0.2595  0.2188
  565POPC   PO4 8406   5.900  15.296   6.278  0.1097  0.0998  0.0966
  565POPC   GL1 8407   5.852  15.052   6.642 -0.0385 -0.1094 -0.2590
  565POPC   GL2 8408   6.155  14.907   6.621  0.1632  0.0218  0.2651
  565POPC   C1A 8409   5.771  14.775   6.997  0.0779  0.1628  0.0682
  565POPC   D2A 8410   5.790  14.683   7.408  0.1421  0.1555 -0.1328
  565POPC   C3A 8411   5.630  14.812   7.850 -0.5594 -0.0927 -0.1598
  565POPC   C4A 8412   5.634  15.134   8.054  0.2973  0.0033  0.4905
  565POPC   C1B 8413   6.179  15.118   7.039 -0.1991 -0.1652 -0.1671
  565POPC   C2B 8414   6.192  14.982   7.491 -0.2158 -0.1483  0.1869
  565POPC   C3B 8415   6.113  14.894   7.869 -0.1094 -0.1593 -0.2124
  565POPC   C4B 8416   6.100  14.982   8.240  0.1421 -0.1418 -0.1545
  566YOPC   NC3 8417   7.424  15.583   6.567 -0.1659  0.0869  0.0426
  566YOPC   PO4 8418   7.231  15.868   6.810  0.1333  0.0146  0.0550
  566YOPC   GL1 8419   7.456  15.792   7.197  0.3021 -0.2295  0.2961
  566YOPC   GL2 8420   7.307  15.957   7.389  0.1522 -0.2556  0.0930
  566YOPC   C1A 8421   7.764  15.700   7.493  0.0638 -0.2228 -0.2439
  566YOPC   D2A 8422   7.959  15.540   7.915  0.0455  0.2037  0.0696
  566YOPC   C3A 8423   7.723  15.587   8.305  0.3828  0.0008 -0.3791
  566YOPC   C4A 8424   7.970  15.747   8.676 -0.0351 -0.0747 -0.1212
  566YOPC   C1B 8425   7.314  16.230   7.721 -0.1240 -0.0453 -0.0416
  566YOPC   C2B 8426   7.347  16.583   8.079 -0.5374  0.1053  0.0590
  566YOPC   D3B 8427   7.434  16.696   8.524  0.3167 -0.1036 -0.1079
  566YOPC   C4B 8428   7.186  16.946   8.829  0.3926 -0.1727  0.0938
  567YOPC   NC3 8429  10.911  16.142   6.643 -0.0984  0.2238 -0.1555
  567YOPC   PO4 8430  10.831  15.704   6.761  0.0157  0.0183  0.0704
  567YOPC   GL1 8431  10.872  15.496   7.098  0.0144 -0.0904 -0.2272
  567YOPC   GL2 8432  11.036  15.789   7.333  0.2689  0.0521  0.3790
  567YOPC   C1A 8433  10.850  15.351   7.459  0.0659  0.1606  0.0307
  567YOPC   D2A 8434  10.922  15.111   7.916  0.2420  0.0528  0.0670
  567YOPC   C3A 8435  10.856  15.120   8.314  0.1818  0.1286 -0.1560
  567YOPC   C4A 8436  10.789  15.107   8.795 -0.1174 -0.1425  0.1218
  567YOPC   C1B 8437  10.644  15.890   7.585 -0.2697  0.0508  0.0993
  567YOPC   C2B 8438  10.273  16.014   7.808  0.1318 -0.0347  0.1857
  567YOPC   D3B 8439  10.302  16.101   8.265 -0.0864 -0.1238 -0.0448
  567YOPC   C4B 8440  10.530  16.213   8.642  0.3513 -0.0132  0.0743
  568YOPC   NC3 8441   8.207   3.040   6.387  0.1053 -0.0136  0.0193
  568YOPC   PO4 8442   8.191   3.505   6.595 -0.2355 -0.1071  0.0330
  568YOPC   GL1 8443   8.106   3.559   6.959 -0.0149  0.0605 -0.1452
  568YOPC   GL2 8444   7.873   3.755   6.975 -0.0141  0.2807  0.2159
  568YOPC   C1A 8445   7.943   3.503   7.390  0.2912  0.0998  0.0374
  568YOPC   D2A 8446   8.039   3.165   7.639 -0.0239  0.1362 -0.0380
  568YOPC   C3A 8447   8.214   3.131   8.003 -0.2236  0.1146 -0.1214
  568YOPC   C4A 8448   8.307   2.924   8.468 -0.0349  0.1306  0.1346
  568YOPC   C1B 8449   8.189   4.016   7.087  0.1226 -0.3894 -0.0490
  568YOPC   C2B 8450   8.419   4.021   7.483 -0.1566 -0.1772 -0.0262
  568YOPC   D3B 8451   8.275   4.046   7.927 -0.2572  0.0159  0.2604
  568YOPC   C4B 8452   8.586   4.221   8.232  0.2672  0.2451 -0.0418
  569YOPC   NC3 8453  12.595   6.082   6.251 -0.1631 -0.0317  0.3362
  569YOPC   PO4 8454  12.203   5.817   6.454 -0.2412  0.2690 -0.2197
  569YOPC   GL1 8455  12.295   5.868   6.851  0.1160  0.2660 -0.1466
  569YOPC   GL2 8456  12.009   5.708   6.980  0.0201 -0.3456  0.1794
  569YOPC   C1A 8457  12.560   5.763   7.207  0.1615  0.2884  0.0193
  569YOPC   D2A 8458  12.500   5.973   7.570  0.1434  0.2736 -0.0107
  569YOPC   C3A 8459  12.654   6.404   7.625 -0.0863  0.0357  0.1614
  569YOPC   C4A 8460  12.633   6.729   7.868 -0.6073 -0.0570  0.1142
  569YOPC   C1B 8461  11.969   5.722   7.358  0.1803  0.2559  0.0635
  569YOPC   C2B 8462  12.000   5.923   7.771 -0.0263 -0.0977 -0.0420
  569YOPC   D3B 8463  11.970   5.783   8.090 -0.1084 -0.1459  0.3005
  569YOPC   C4B 8464  11.779   5.872   8.454  0.1005  0.0661  0.3802
  570YOPC   NC3 8465   2.271   1.950   6.741  0.2824 -0.0851 -0.1947
  570YOPC   PO4 8466   1.880   1.945   6.961 -0.2446 -0.0358  0.1871
  570YOPC   GL1 8467   1.617   2.279   7.085  0.0976  0.0106  0.0875
  570YOPC   GL2 8468   1.593   2.615   7.023  0.3576  0.1729 -0.1482
  570YOPC   C1A 8469   1.616   2.149   7.579 -0.0781  0.0525 -0.2614
  570YOPC   D2A 8470   1.500   2.133   8.093  0.2092  0.0004  0.1425
  570YOPC   C3A 8471   1.614   2.516   8.315 -0.2563 -0.0713 -0.2636
  570YOPC   C4A 8472   1.666   2.640   8.732 -0.0720 -0.0727 -0.1502
  570YOPC   C1B 8473   1.535   2.635   7.474 -0.0586  0.1978  0.2281
  570YOPC   C2B 8474   1.724   2.795   7.824  0.1582  0.1172 -0.1249
  570YOPC   D3B 8475   2.080   3.079   7.904 -0.1704 -0.1587  0.0785
  570YOPC   C4B 8476   2.302   3.262   8.221  0.2404  0.0858 -0.1846
  571YOPC   NC3 8477  13.443   1.080   5.839  0.1431 -0.1715  0.0027
  571YOPC   PO4 8478  13.409   1.588   5.900  0.0075 -0.1662 -0.1206
  571YOPC   GL1 8479  13.456   1.537   6.296 -0.2498 -0.3052  0.1445
  571YOPC   GL2 8480  13.230   1.368   6.423  0.0489  0.1153 -0.2016
  571YOPC   C1A 8481  13.634   1.500   6.720 -0.1566 -0.2903  0.2008
  571YOPC   D2A 8482  13.574   1.514   7.121 -0.2648 -0.0652  0.0340
  571YOPC   C3A 8483  13.839   1.592   7.443  0.2900 -0.2304  0.0579
  571YOPC   C4A 8484  13.836   1.529   7.806  0.1503  0.3852  0.0139
  571YOPC   C1B 8485  13.147   1.459   6.833 -0.1498 -0.3243  0.0718
  571YOPC   C2B 8486  13.096   1.451   7.220  0.1343  0.2556 -0.2621
  571YOPC   D3B 8487  12.696   1.507   7.469 -0.1503 -0.1205  0.0400
  571YOPC   C4B 8488  12.546   1.485   7.937  0.1626 -0.0128  0.0165
  572YOPC   NC3 8489  11.157   6.494   6.400  0.0609 -0.0762 -0.0483
  572YOPC   PO4 8490  11.584   6.505   6.512 -0.4070 -0.1140 -0.1043
  572YOPC   GL1 8491  11.475   6.660   6.815 -0.0927 -0.2121  0.1449
  572YOPC   GL2 8492  11.178   6.527   6.947  0.0601 -0.1608  0.0126
  572YOPC   C1A 8493  11.687   6.529   7.210 -0.0855  0.5610 -0.2413
  572YOPC   D2A 8494  11.623   6.469   7.689  0.4715  0.1627  0.2876
  572YOPC   C3A 8495  11.849   6.710   8.017 -0.0472  0.2067 -0.1157
  572YOPC   C4A 8496  11.723   7.146   8.157 -0.0208  0.1410 -0.0539
  572YOPC   C1B 8497  11.230   6.399   7.368 -0.2112  0.2826  0.0887
  572YOPC   C2B 8498  11.115   6.477   7.792  0.1477 -0.2982  0.0460
  572YOPC   D3B 8499  11.174   6.379   8.270 -0.1272 -0.0270  0.1122
  572YOPC   C4B 8500  10.901   6.233   8.611 -0.0642 -0.1320  0.0204
  573YOPC   NC3 8501  16.202   4.214   6.447 -0.2392  0.0006  0.1105
  573YOPC   PO4 8502  16.467   3.872   6.572  0.1510 -0.1734  0.2046
  573YOPC   GL1 8503  16.235   3.732   6.932  0.0798  0.2249 -0.0299
  573YOPC   GL2 8504  16.437   3.598   7.071 -0.0135 -0.3057 -0.0535
  573YOPC   C1A 8505  15.943   3.657   7.410  0.0045  0.1655  0.0796
  573YOPC   D2A 8506  15.783   3.688   7.827 -0.0454 -0.2734 -0.0850
  573YOPC   C3A 8507  15.901   3.775   8.274 -0.1699  0.0698  0.1170
  573YOPC   C4A 8508  16.081   3.870   8.633 -0.2406 -0.0078 -0.2379
  573YOPC   C1B 8509  16.402   3.581   7.513 -0.2600  0.0674 -0.0388
  573YOPC   C2B 8510  16.320   3.628   7.935 -0.0840 -0.1508  0.1402
  573YOPC   D3B 8511  16.474   3.458   8.395 -0.1391 -0.0848  0.1503
  573YOPC   C4B 8512  16.730   3.284   8.646 -0.0321 -0.0010  0.4022
  574YOPC   NC3 8513   0.430   3.867   6.552 -0.2862  0.0214 -0.1303
  574YOPC   PO4 8514   0.179   3.537   6.554  0.0142 -0.0906  0.0031
  574YOPC   GL1 8515   0.097   3.492   6.907 -0.2326 -0.0207 -0.1435
  574YOPC   GL2 8516   0.187   3.697   7.130  0.3573 -0.1096 -0.0867
  574YOPC   C1A 8517   0.226   3.234   7.263 -0.0837 -0.2308 -0.0907
  574YOPC   D2A 8518   0.137   3.203   7.779  0.0335 -0.1919 -0.0249
  574YOPC   C3A 8519   0.384   3.159   8.239  0.3226 -0.0680  0.1370
  574YOPC   C4A 8520   0.383   3.245   8.649  0.4131 -0.1653  0.0986
  574YOPC   C1B 8521   0.096   3.734   7.538 -0.1850 -0.1411 -0.0031
  574YOPC   C2B 8522   0.134   3.939   7.946 -0.5087 -0.2191  0.3681
  574YOPC   D3B 8523  -0.056   3.582   8.243 -0.0671  0.0588  0.1550
  574YOPC   C4B 8524  -0.087   3.148   8.402 -0.0132  0.1301 -0.2609
  575YOPC   NC3 8525   3.517  16.224   6.683  0.3401  0.3477  0.0842
  575YOPC   PO4 8526   4.009  16.289   6.677  0.0617  0.0763 -0.2682
  575YOPC   GL1 8527   4.032  16.404   7.070 -0.1351 -0.4014 -0.0614
  575YOPC   GL2 8528   4.132  16.725   7.006 -0.1510  0.0094 -0.1124
  575YOPC   C1A 8529   4.003  16.328   7.551 -0.0247 -0.1793  0.0888
  575YOPC   D2A 8530   3.708  16.548   7.831  0.2210  0.2218 -0.0047
  575YOPC   C3A 8531   3.534  16.478   8.142  0.2036 -0.0336  0.4639
  575YOPC   C4A 8532   3.075  16.551   8.292  0.1600 -0.0808  0.0404
  575YOPC   C1B 8533   4.054  16.844   7.433 -0.1089 -0.3085 -0.1244
  575YOPC   C2B 8534   3.732  17.087   7.667 -0.1924 -0.0113 -0.0233
  575YOPC   D3B 8535   3.674  17.022   8.061 -0.2867  0.0460 -0.0357
  575YOPC   C4B 8536   3.621  17.075   8.554  0.0553 -0.0710 -0.3428
  576YOPC   NC3 8537  12.255   7.277   6.805 -0.1379  0.3589 -0.0610
  576YOPC   PO4 8538  12.399   7.656   6.774 -0.1010 -0.3317  0.0711
  576YOPC   GL1 8539  12.525   7.758   7.057 -0.2044 -0.0248  0.0600
  576YOPC   GL2 8540  12.463   7.437   7.228  0.2525 -0.0953 -0.1778
  576YOPC   C1A 8541  12.698   8.114   7.388 -0.1254 -0.1436 -0.0190
  576YOPC   D2A 8542  12.651   8.288   7.664 -0.0591 -0.3141 -0.0998
  576YOPC   C3A 8543  12.841   8.265   8.036 -0.1675 -0.1377  0.0019
  576YOPC   C4A 8544  12.656   7.878   8.194 -0.1107 -0.1216 -0.2025
  576YOPC   C1B 8545  12.230   7.291   7.532  0.1913  0.1039  0.0363
  576YOPC   C2B 8546  12.209   7.010   7.808 -0.0907  0.0180 -0.2107
  576YOPC   D3B 8547  12.162   7.054   8.320  0.1873  0.3407  0.0359
  576YOPC   C4B 8548  12.020   6.963   8.734  0.3859  0.1562  0.0645
  577YOPC   NC3 8549   7.122   3.905   6.488  0.1310 -0.2375 -0.1441
  577YOPC   PO4 8550   7.163   3.424   6.546 -0.1649 -0.3115  0.0666
  577YOPC   GL1 8551   7.311   3.619   6.917 -0.2321  0.1886  0.1794
  577YOPC   GL2 8552   7.075   3.811   7.007  0.2969  0.2677  0.0771
  577YOPC   C1A 8553   7.507   3.863   7.252 -0.1898  0.0559 -0.1320
  577YOPC   D2A 8554   7.779   3.928   7.583  0.0419  0.2300  0.2578
  577YOPC   C3A 8555   7.942   3.579   7.871 -0.1508 -0.1626 -0.0663
  577YOPC   C4A 8556   7.882   3.497   8.251  0.0515 -0.1332  0.1403
  577YOPC   C1B 8557   7.038   3.687   7.409  0.1374  0.0051  0.0289
  577YOPC   C2B 8558   6.893   3.907   7.764 -0.2652  0.0419 -0.0462
  577YOPC   D3B 8559   7.137   3.912   8.006 -0.4030 -0.1633  0.0356
  577YOPC   C4B 8560   7.289   3.758   8.361 -0.2450 -0.3130  0.2873
  578YOPC   NC3 8561   7.495  13.752   6.780 -0.1805 -0.1525 -0.0683
  578YOPC   PO4 8562   7.605  13.347   6.908  0.0946  0.0296 -0.5206
  578YOPC   GL1 8563   7.563  13.236   7.355  0.0072  0.0934  0.0648
  578YOPC   GL2 8564   7.446  12.932   7.291 -0.0139 -0.0319  0.0376
  578YOPC   C1A 8565   7.378  13.286   7.786 -0.0241  0.1831 -0.0334
  578YOPC   D2A 8566   7.363  13.399   8.314 -0.0086  0.1981 -0.0344
  578YOPC   C3A 8567   7.225  13.513   8.721  0.1762  0.0521 -0.2280
  578YOPC   C4A 8568   6.864  13.485   9.079 -0.0150  0.0200  0.2954
  578YOPC   C1B 8569   7.637  12.765   7.664  0.2662  0.1484 -0.4373
  578YOPC   C2B 8570   7.534  12.737   8.069  0.0107  0.2011  0.1412
  578YOPC   D3B 8571   7.485  12.950   8.443 -0.0492 -0.0343 -0.3289
  578YOPC   C4B 8572   7.558  13.177   8.888 -0.2930 -0.2048  0.2989
  579YOPC   NC3 8573  12.430  14.134   7.107 -0.2251 -0.1971  0.0576
  579YOPC   PO4 8574  12.800  14.350   7.068  0.1545 -0.1542 -0.4386
  579YOPC   GL1 8575  12.596  14.621   7.380  0.2683  0.2833  0.0516
  579YOPC   GL2 8576  12.205  14.419   7.448 -0.0739 -0.0571 -0.0228
  579YOPC   C1A 8577  12.524  14.693   7.803 -0.0562 -0.4590  0.2232
  579YOPC   D2A 8578  12.506  14.738   8.194 -0.0678 -0.1533 -0.1569
  579YOPC   C3A 8579  12.891  14.754   8.488 -0.0641 -0.2501  0.1839
  579YOPC   C4A 8580  13.278  14.595   8.598  0.1644 -0.1504 -0.1884
  579YOPC   C1B 8581  11.752  14.628   7.583 -0.0289  0.0457 -0.0644
  579YOPC   C2B 8582  11.780  14.981   7.816 -0.1868  0.1195  0.4255
  579YOPC   D3B 8583  11.924  15.302   7.686  0.1376 -0.0222 -0.3642
  579YOPC   C4B 8584  12.118  15.551   8.039 -0.0614 -0.1888  0.2400
  580YOPC   NC3 8585   3.311   5.331   5.812 -0.3293 -0.0549 -0.1120
  580YOPC   PO4 8586   3.188   5.240   6.296 -0.1410 -0.1303  0.1294
  580YOPC   GL1 8587   3.294   5.332   6.744  0.2268 -0.0752 -0.0875
  580YOPC   GL2 8588   3.101   5.114   6.891  0.2536  0.3689 -0.1886
  580YOPC   C1A 8589   3.599   5.314   7.078  0.0732 -0.0353  0.2355
  580YOPC   D2A 8590   3.947   5.435   7.303  0.5009 -0.1846 -0.0135
  580YOPC   C3A 8591   3.817   5.554   7.772  0.1759 -0.1970  0.2669
  580YOPC   C4A 8592   3.605   5.396   8.074  0.2836 -0.0759  0.0490
  580YOPC   C1B 8593   3.185   5.031   7.280  0.2900  0.1087  0.3437
  580YOPC   C2B 8594   3.222   4.884   7.710  0.0702 -0.0014 -0.0876
  580YOPC   D3B 8595   3.103   5.219   7.936 -0.0758 -0.0640 -0.3890
  580YOPC   C4B 8596   2.846   5.643   8.028  0.1734 -0.0269  0.0715
  581YOPC   NC3 8597   9.087   5.731   6.069 -0.0245 -0.1768 -0.1074
  581YOPC   PO4 8598   9.298   5.461   6.289  0.1629  0.1911  0.3133
  581YOPC   GL1 8599   9.333   5.552   6.721 -0.0214  0.1266 -0.1751
  581YOPC   GL2 8600   9.558   5.545   6.883 -0.1315 -0.0110 -0.1009
  581YOPC   C1A 8601   9.253   5.425   7.236  0.1939 -0.1401 -0.1429
  581YOPC   D2A 8602   9.487   5.293   7.616 -0.1072  0.0277  0.1891
  581YOPC   C3A 8603   9.367   5.469   7.945  0.2196  0.0580 -0.2312
  581YOPC   C4A 8604   9.051   5.144   8.215 -0.0762  0.2736 -0.6923
  581YOPC   C1B 8605   9.812   5.497   7.222  0.1600 -0.2155 -0.1257
  581YOPC   C2B 8606   9.975   5.758   7.386  0.1406  0.0135  0.3190
  581YOPC   D3B 8607   9.899   5.876   7.841 -0.0818 -0.2136  0.2870
  581YOPC   C4B 8608  10.113   5.690   8.218 -0.0122  0.1791  0.0888
  582YOPC   NC3 8609  13.248   5.121   6.723  0.2303 -0.3357 -0.0029
  582YOPC   PO4 8610  13.583   4.922   6.832  0.0980 -0.3265 -0.1679
  582YOPC   GL1 8611  13.927   5.087   7.158 -0.1261  0.0245  0.3362
  582YOPC   GL2 8612  13.853   4.985   7.429  0.1837  0.2097  0.0302
  582YOPC   C1A 8613  14.193   5.293   7.496 -0.1535 -0.0114 -0.0096
  582YOPC   D2A 8614  14.220   5.517   7.967  0.0517  0.0646 -0.1822
  582YOPC   C3A 8615  14.550   5.820   8.090 -0.0968 -0.0641  0.1562
  582YOPC   C4A 8616  14.627   6.036   8.409 -0.3691  0.0858  0.1064
  582YOPC   C1B 8617  13.932   4.965   7.821 -0.5379  0.0659 -0.0367
  582YOPC   C2B 8618  13.895   4.994   8.177 -0.0375 -0.0183  0.2232
  582YOPC   D3B 8619  13.511   4.770   8.427  0.0211  0.1863 -0.1150
  582YOPC   C4B 8620  13.366   4.398   8.597  0.0472 -0.1530  0.0374
  583YOPC   NC3 8621   9.780   8.145   6.616 -0.2457  0.0989 -0.1991
  583YOPC   PO4 8622  10.152   7.896   6.611  0.2222  0.1630 -0.1783
  583YOPC   GL1 8623   9.840   7.816   6.957 -0.0439  0.3067 -0.0011
  583YOPC   GL2 8624   9.559   7.771   6.918 -0.2505  0.1628  0.2440
  583YOPC   C1A 8625   9.899   7.730   7.359  0.0169 -0.1158 -0.2073
  583YOPC   D2A 8626   9.890   7.761   7.939 -0.4180  0.2474  0.0274
  583YOPC   C3A 8627   9.853   8.165   8.082 -0.1554 -0.0287  0.1986
  583YOPC   C4A 8628   9.532   8.462   8.364 -0.1353 -0.1459  0.0251
  583YOPC   C1B 8629   9.356   7.663   7.319  0.0047  0.0321 -0.1949
  583YOPC   C2B 8630   9.419   7.665   7.711  0.1147  0.0936  0.1689
  583YOPC   D3B 8631   9.338   8.077   8.029  0.2075 -0.0483  0.0630
  583YOPC   C4B 8632   9.224   8.394   7.894 -0.0581 -0.0241 -0.0277
  584YOPC   NC3 8633   3.036  14.847   6.859 -0.0082  0.2938  0.3337
  584YOPC   PO4 8634   3.214  15.165   7.119 -0.1170  0.4429 -0.0370
  584YOPC   GL1 8635   2.960  15.380   7.341  0.1029  0.2117 -0.0640
  584YOPC   GL2 8636   3.002  15.690   7.072  0.0648  0.0753 -0.0862
  584YOPC   C1A 8637   2.783  15.412   7.644 -0.1244  0.1987  0.1494
  584YOPC   D2A 8638   2.697  15.261   8.073  0.0132  0.0742  0.2019
  584YOPC   C3A 8639   2.607  15.502   8.328 -0.0521 -0.1311  0.0520
  584YOPC   C4A 8640   2.675  15.446   8.780 -0.1767 -0.2472  0.1829
  584YOPC   C1B 8641   3.089  15.811   7.569  0.4758 -0.0093 -0.1316
  584YOPC   C2B 8642   2.969  16.165   7.809  0.3336  0.2228  0.0304
  584YOPC   D3B 8643   3.184  16.483   7.794 -0.0913 -0.0732  0.2725
  584YOPC   C4B 8644   3.305  16.847   7.638  0.0080 -0.2217 -0.1691
  585YOPC   NC3 8645   1.710  10.083   6.807  0.3377  0.0160 -0.1119
  585YOPC   PO4 8646   1.290  10.184   6.825  0.2471 -0.1522 -0.1495
  585YOPC   GL1 8647   1.522  10.158   7.275 -0.2725 -0.0757  0.0570
  585YOPC   GL2 8648   1.928  10.086   7.251 -0.0888 -0.0817 -0.0488
  585YOPC   C1A 8649   1.677  10.405   7.568 -0.2159  0.2438 -0.1160
  585YOPC   D2A 8650   1.753  10.185   7.972  0.0550 -0.1902 -0.0439
  585YOPC   C3A 8651   2.069  10.458   8.306 -0.0331 -0.0285 -0.0676
  585YOPC   C4A 8652   2.446  10.306   8.508 -0.2853 -0.2121  0.0318
  585YOPC   C1B 8653   2.068   9.634   7.447 -0.1049 -0.4799 -0.2553
  585YOPC   C2B 8654   1.926   9.734   7.864  0.3299  0.2603  0.1041
  585YOPC   D3B 8655   2.204   9.530   8.062 -0.2712 -0.1241  0.2201
  585YOPC   C4B 8656   2.305   9.099   8.195  0.0272  0.0974  0.0691
  586YOPC   NC3 8657   6.373   6.361   6.164  0.2287 -0.0794 -0.0527
  586YOPC   PO4 8658   6.274   6.699   6.419 -0.1677  0.0742  0.2113
  586YOPC   GL1 8659   6.259   6.823   6.802 -0.0407 -0.1185 -0.1372
  586YOPC   GL2 8660   6.067   7.168   6.824 -0.1920 -0.0200 -0.0207
  586YOPC   C1A 8661   6.085   6.609   7.109 -0.1167  0.3618 -0.0817
  586YOPC   D2A 8662   6.152   6.614   7.450  0.1378 -0.1188  0.0160
  586YOPC   C3A 8663   5.887   6.657   7.866 -0.0578  0.0481  0.1400
  586YOPC   C4A 8664   5.951   6.696   8.338  0.0164 -0.0179  0.2577
  586YOPC   C1B 8665   6.050   7.066   7.323  0.2159 -0.0079  0.2943
  586YOPC   C2B 8666   5.684   7.156   7.633 -0.0942  0.0155 -0.1068
  586YOPC   D3B 8667   5.862   7.151   8.078  0.1957  0.1582 -0.0136
  586YOPC   C4B 8668   6.042   7.196   8.443  0.1822 -0.0214  0.2236
  587YOPC   NC3 8669  12.919   6.906   6.435  0.0111  0.1931 -0.1808
  587YOPC   PO4 8670  12.799   6.515   6.508  0.0171 -0.0727  0.0791
  587YOPC   GL1 8671  12.931   6.598   6.857 -0.0417 -0.1144  0.0939
  587YOPC   GL2 8672  13.201   6.315   6.971 -0.1150  0.2503  0.2266
  587YOPC   C1A 8673  12.997   6.664   7.297 -0.2047 -0.1361  0.3796
  587YOPC   D2A 8674  13.112   6.664   7.708 -0.0287  0.1992  0.2305
  587YOPC   C3A 8675  12.967   6.392   8.011 -0.1698 -0.1264 -0.3040
  587YOPC   C4A 8676  12.745   6.392   8.398 -0.0605 -0.2272 -0.2973
  587YOPC   C1B 8677  12.785   6.195   7.156  0.2301  0.1154 -0.2230
  587YOPC   C2B 8678  12.320   6.262   7.107 -0.0645 -0.1890  0.0915
  587YOPC   D3B 8679  12.007   6.192   7.386 -0.2927 -0.0003 -0.2109
  587YOPC   C4B 8680  12.120   6.494   7.578 -0.1786 -0.2261  0.1089
  588YOPC   NC3 8681   4.403  17.257   6.367  0.2815 -0.2523  0.0500
  588YOPC   PO4 8682   4.470  17.084   6.823 -0.1980  0.2940  0.0595
  588YOPC   GL1 8683   4.595  17.093   7.267 -0.1625  0.0769 -0.1623
  588YOPC   GL2 8684   4.655  16.805   7.223  0.1851 -0.0110  0.2104
  588YOPC   C1A 8685   4.732  16.985   7.752  0.0110 -0.1380 -0.0836
  588YOPC   D2A 8686   4.668  16.789   8.210  0.0861  0.1559  0.3010
  588YOPC   C3A 8687   4.319  17.005   8.515  0.0186  0.0917  0.0336
  588YOPC   C4A 8688   4.094  17.063   8.818 -0.1814  0.2960 -0.1658
  588YOPC   C1B 8689   4.479  16.617   7.517 -0.0963 -0.0244  0.1463
  588YOPC   C2B 8690   4.389  16.346   7.856 -0.1635  0.0706 -0.0915
  588YOPC   D3B 8691   4.047  16.256   8.095 -0.1594  0.0592 -0.0554
  588YOPC   C4B 8692   3.877  16.122   8.416  0.0577 -0.1222 -0.0311
  589YOPC   NC3 8693   7.594   9.272   5.774  0.0308 -0.1054  0.1293
  589YOPC   PO4 8694   7.404   9.481   6.253 -0.0945 -0.1535 -0.1453
  589YOPC   GL1 8695   7.279   9.396   6.662  0.1049 -0.0540  0.1583
  589YOPC   GL2 8696   7.148   9.102   6.667  0.0208  0.2772 -0.1075
  589YOPC   C1A 8697   7.014   9.401   7.057 -0.0801 -0.1432 -0.1057
  589YOPC   D2A 8698   6.930   9.221   7.449 -0.0965  0.1627 -0.0113
  589YOPC   C3A 8699   6.682   9.498   7.713 -0.0850 -0.0499  0.1537
  589YOPC   C4A 8700   6.433   9.480   8.086 -0.0111  0.2686 -0.1508
  589YOPC   C1B 8701   6.824   8.884   7.073  0.1924  0.2100 -0.1721
  589YOPC   C2B 8702   6.768   8.775   7.581  0.1725 -0.0549 -0.1298
  589YOPC   D3B 8703   6.396   8.659   7.659 -0.0630  0.1643 -0.0949
  589YOPC   C4B 8704   6.049   8.621   7.823  0.0879  0.3743  0.0551
  590YOPC   NC3 8705   1.146   3.449   6.603 -0.1168 -0.2665  0.1127
  590YOPC   PO4 8706   1.074   3.842   6.776 -0.1424 -0.0544 -0.2056
  590YOPC   GL1 8707   0.938   4.088   7.123  0.0799  0.1936  0.1594
  590YOPC   GL2 8708   0.615   3.926   7.042  0.2705  0.0680  0.0324
  590YOPC   C1A 8709   0.946   3.964   7.524 -0.2481  0.0301 -0.1230
  590YOPC   D2A 8710   1.024   3.848   7.957 -0.2225 -0.0961  0.1449
  590YOPC   C3A 8711   1.160   4.149   8.230  0.2376  0.1917  0.1125
  590YOPC   C4A 8712   1.351   4.113   8.581  0.0007  0.0560 -0.0557
  590YOPC   C1B 8713   0.423   4.123   7.467  0.1181  0.2549  0.0517
  590YOPC   C2B 8714   0.190   4.412   7.660  0.0744 -0.0887  0.1852
  590YOPC   D3B 8715   0.124   4.442   8.114 -0.0005  0.0626 -0.1654
  590YOPC   C4B 8716   0.237   4.505   8.596 -0.0613  0.1896 -0.0024
  591YOPC   NC3 8717   3.171  11.411   6.572 -0.0380 -0.0460 -0.1914
  591YOPC   PO4 8718   2.705  11.534   6.614  0.2106 -0.0579 -0.0196
  591YOPC   GL1 8719   2.897  11.733   6.959 -0.3785 -0.1766  0.0742
  591YOPC   GL2 8720   2.533  11.707   7.156  0.0466 -0.1163  0.0639
  591YOPC   C1A 8721   3.026  11.674   7.466  0.3218  0.0575  0.0071
  591YOPC   D2A 8722   3.209  11.717   7.828 -0.2312 -0.0293 -0.0726
  591YOPC   C3A 8723   3.306  11.440   8.166 -0.1959  0.1586 -0.0558
  591YOPC   C4A 8724   3.549  11.102   8.273  0.3521  0.1486 -0.1095
  591YOPC   C1B 8725   2.318  11.766   7.486 -0.2315  0.0860  0.1997
  591YOPC   C2B 8726   2.168  11.931   7.850  0.1045 -0.1253 -0.0160
  591YOPC   D3B 8727   2.282  11.777   8.174  0.1873  0.1474 -0.0324
  591YOPC   C4B 8728   2.201  11.567   8.614 -0.2471 -0.0736 -0.0734
  592YOPC   NC3 8729   8.008   2.033   6.310 -0.0794  0.2034  0.2928
  592YOPC   PO4 8730   7.571   2.105   6.334  0.1325 -0.1260 -0.3666
  592YOPC   GL1 8731   7.755   2.260   6.629  0.0075  0.0021 -0.1369
  592YOPC   GL2 8732   7.575   2.373   6.891 -0.1662 -0.1290  0.1956
  592YOPC   C1A 8733   8.056   2.100   6.959  0.1290  0.0182 -0.0711
  592YOPC   D2A 8734   8.413   2.021   7.218  0.3001 -0.0764 -0.2752
  592YOPC   C3A 8735   8.468   2.186   7.639 -0.1618 -0.1357 -0.0136
  592YOPC   C4A 8736   8.749   2.273   7.892 -0.2175 -0.1633 -0.0099
  592YOPC   C1B 8737   7.842   2.442   7.195 -0.1072  0.3309 -0.1696
  592YOPC   C2B 8738   8.015   2.577   7.497  0.0714  0.0913 -0.3438
  592YOPC   D3B 8739   8.029   2.720   7.932  0.2342  0.1563 -0.3310
  592YOPC   C4B 8740   7.967   2.593   8.311  0.2395 -0.0195 -0.4909
  593YOPC   NC3 8741  11.353   2.619   6.761 -0.2888  0.0475 -0.0273
  593YOPC   PO4 8742  11.599   2.357   6.900  0.1138  0.0334  0.3114
  593YOPC   GL1 8743  11.934   2.482   7.194  0.1492  0.1933 -0.1499
  593YOPC   GL2 8744  12.135   2.487   7.061  0.0290 -0.3166 -0.3087
  593YOPC   C1A 8745  12.029   2.533   7.582 -0.0101  0.2044  0.3212
  593YOPC   D2A 8746  11.872   2.589   8.010  0.0398 -0.0909 -0.0077
  593YOPC   C3A 8747  11.919   2.747   8.497 -0.1163  0.2996  0.0442
  593YOPC   C4A 8748  12.302   2.763   8.710 -0.0200  0.0785  0.2274
  593YOPC   C1B 8749  12.451   2.694   7.292  0.1791  0.0558  0.0610
  593YOPC   C2B 8750  12.915   2.752   7.356 -0.0153  0.0120 -0.0124
  593YOPC   D3B 8751  12.962   2.412   7.616  0.1748  0.0777 -0.0056
  593YOPC   C4B 8752  12.836   2.163   7.997 -0.1109 -0.0310  0.2712
  594YOPC   NC3 8753   3.119  12.661   6.605  0.1520  0.1830  0.4355
  594YOPC   PO4 8754   3.371  12.423   6.826 -0.1500 -0.2244 -0.0095
  594YOPC   GL1 8755   3.415  12.439   7.222 -0.2362 -0.0528 -0.0487
  594YOPC   GL2 8756   3.360  12.626   7.411  0.2680 -0.0715 -0.3214
  594YOPC   C1A 8757   3.462  12.112   7.517 -0.0065  0.1304  0.0977
  594YOPC   D2A 8758   3.853  11.937   7.666  0.0603  0.2179  0.4070
  594YOPC   C3A 8759   3.713  11.779   8.052 -0.1287  0.1940  0.1990
  594YOPC   C4A 8760   3.754  11.562   8.410  0.2622  0.2558  0.1415
  594YOPC   C1B 8761   3.184  12.532   7.829  0.0572 -0.0089  0.0674
  594YOPC   C2B 8762   2.975  12.476   8.223  0.3064  0.2120 -0.4000
  594YOPC   D3B 8763   3.084  12.710   8.623  0.2255 -0.1879  0.0843
  594YOPC   C4B 8764   3.042  13.161   8.876 -0.0259 -0.3649 -0.1522
  595YOPC   NC3 8765  15.526   0.434   6.245  0.0816 -0.2585  0.0957
  595YOPC   PO4 8766  15.906   0.804   6.263  0.1843  0.0907  0.2800
  595YOPC   GL1 8767  15.692   0.913   6.700 -0.1278  0.0057  0.2447
  595YOPC   GL2 8768  15.725   1.188   6.835 -0.2095 -0.1850 -0.1312
  595YOPC   C1A 8769  15.528   0.655   6.972  0.0529 -0.2402  0.0380
  595YOPC   D2A 8770  15.161   0.476   7.067  0.3057 -0.1091 -0.2611
  595YOPC   C3A 8771  14.810   0.510   7.241 -0.0299 -0.1074  0.0139
  595YOPC   C4A 8772  14.601   0.564   7.579  0.0496 -0.0355  0.0384
  595YOPC   C1B 8773  15.635   0.964   7.301 -0.2278 -0.1714 -0.5140
  595YOPC   C2B 8774  15.359   0.744   7.469  0.3207  0.0290 -0.1912
  595YOPC   D3B 8775  15.127   0.890   7.822  0.1520  0.2522  0.3251
  595YOPC   C4B 8776  14.797   0.791   8.014 -0.0195  0.1458  0.0305
  596YOPC   NC3 8777  15.876   4.503   5.954 -0.0198  0.0976 -0.0363
  596YOPC   PO4 8778  15.909   4.747   6.291  0.1584  0.1971 -0.1190
  596YOPC   GL1 8779  15.619   4.774   6.619  0.2193  0.0038 -0.0604
  596YOPC   GL2 8780  15.692   4.495   6.848 -0.0037  0.2663  0.0393
  596YOPC   C1A 8781  15.303   4.845   7.059 -0.0097 -0.1815 -0.0043
  596YOPC   D2A 8782  15.320   5.095   7.394 -0.5317 -0.1252  0.0558
  596YOPC   C3A 8783  15.180   4.990   7.752 -0.1740  0.1517  0.1572
  596YOPC   C4A 8784  15.125   4.929   8.238  0.1901 -0.0122 -0.1304
  596YOPC   C1B 8785  15.774   4.939   7.041 -0.5094  0.1255 -0.0920
  596YOPC   C2B 8786  15.814   5.282   7.359 -0.0756 -0.3394 -0.1669
  596YOPC   D3B 8787  15.855   4.980   7.609  0.1960  0.1687  0.2738
  596YOPC   C4B 8788  15.995   4.655   7.822 -0.1550  0.0209  0.0771
  597YOPC   NC3 8789  15.715  10.199   6.890 -0.1771  0.0688  0.1333
  597YOPC   PO4 8790  15.334   9.952   6.809  0.0169 -0.0803 -0.1788
  597YOPC   GL1 8791  15.251   9.472   6.889 -0.0502  0.0435 -0.1298
  597YOPC   GL2 8792  15.621   9.445   6.942  0.1527 -0.2258 -0.0230
  597YOPC   C1A 8793  15.048   9.295   7.258  0.1211 -0.2387 -0.1882
  597YOPC   D2A 8794  14.881   9.270   7.694 -0.2171  0.2056 -0.1438
  597YOPC   C3A 8795  14.528   9.475   7.931  0.0325  0.1928 -0.0679
  597YOPC   C4A 8796  14.058   9.720   7.826 -0.2630 -0.1489  0.0438
  597YOPC   C1B 8797  15.839   9.236   7.225  0.1131 -0.0020 -0.3369
  597YOPC   C2B 8798  15.972   8.920   7.664 -0.0766 -0.1346  0.1111
  597YOPC   D3B 8799  16.114   9.142   8.110  0.2270  0.1041  0.0495
  597YOPC   C4B 8800  16.078   9.328   8.536  0.0433 -0.2430  0.1091
  598YOPC   NC3 8801  12.039   8.837   6.504 -0.1940 -0.1540  0.1252
  598YOPC   PO4 8802  12.175   9.220   6.794  0.0983  0.1467  0.1490
  598YOPC   GL1 8803  12.507   9.337   7.049 -0.1835  0.0465 -0.1145
  598YOPC   GL2 8804  12.607   9.027   7.176 -0.1828 -0.1137 -0.1551
  598YOPC   C1A 8805  12.614   9.446   7.479 -0.0167 -0.3523  0.2404
  598YOPC   D2A 8806  12.633   9.278   7.973  0.0918  0.1365  0.2256
  598YOPC   C3A 8807  12.339   9.082   8.355  0.0217  0.4854 -0.1761
  598YOPC   C4A 8808  12.050   9.083   8.606 -0.4397 -0.0716  0.2212
  598YOPC   C1B 8809  12.608   8.893   7.624 -0.0764 -0.1909  0.1346
  598YOPC   C2B 8810  12.534   8.682   8.069 -0.3312 -0.0759  0.1641
  598YOPC   D3B 8811  12.070   8.650   8.219  0.0671 -0.1236 -0.4804
  598YOPC   C4B 8812  11.637   8.404   8.342 -0.3726 -0.0353  0.2777
  599YOPC   NC3 8813  12.497   9.950   6.268  0.0245 -0.0606 -0.2877
  599YOPC   PO4 8814  12.077  10.077   6.457  0.0316  0.1615  0.3968
  599YOPC   GL1 8815  12.001  10.178   6.926  0.2276 -0.3178  0.0913
  599YOPC   GL2 8816  11.669  10.202   6.930  0.0168  0.2631 -0.1947
  599YOPC   C1A 8817  12.244  10.199   7.271  0.0744  0.0851 -0.3677
  599YOPC   D2A 8818  12.351  10.186   7.736  0.1346 -0.2481 -0.0193
  599YOPC   C3A 8819  12.169  10.500   7.905  0.0275 -0.3369 -0.3489
  599YOPC   C4A 8820  12.131  10.396   8.308  0.2564  0.2673  0.0496
  599YOPC   C1B 8821  11.713   9.968   7.230  0.0119  0.0225  0.0717
  599YOPC   C2B 8822  11.827  10.223   7.542 -0.1646  0.0664 -0.3130
  599YOPC   D3B 8823  11.950   9.954   7.935 -0.2203  0.1973 -0.2732
  599YOPC   C4B 8824  11.822   9.957   8.357 -0.1380 -0.0369  0.0071
  600YOPC   NC3 8825  17.561  14.402   7.099 -0.3167 -0.0091  0.3508
  600YOPC   PO4 8826  17.737  14.922   7.103  0.0601  0.0253  0.0594
  600YOPC   GL1 8827  17.619  14.755   7.528 -0.1946  0.4151 -0.2803
  600YOPC   GL2 8828  17.569  14.484   7.576  0.1015 -0.1231  0.2282
  600YOPC   C1A 8829  17.639  14.698   7.979  0.3128  0.1643  0.1304
  600YOPC   D2A 8830  17.666  14.706   8.492  0.0971  0.2686 -0.3647
  600YOPC   C3A 8831  17.950  14.492   8.816 -0.1255  0.0304  0.3668
  600YOPC   C4A 8832  18.326  14.263   9.118 -0.0964  0.0907  0.1535
  600YOPC   C1B 8833  17.806  14.178   7.795 -0.3325 -0.0379 -0.3914
  600YOPC   C2B 8834  18.190  14.054   7.983  0.3361 -0.1240 -0.1485
  600YOPC   D3B 8835  18.615  13.845   7.818  0.1857  0.2111 -0.1383
  600YOPC   C4B 8836  18.740  13.603   7.560 -0.0625 -0.0837 -0.1183
  601YOPC   NC3 8837   7.964  13.029   7.074  0.1979  0.0632 -0.0666
  601YOPC   PO4 8838   8.145  12.735   6.951  0.3406  0.1425 -0.3587
  601YOPC   GL1 8839   8.349  12.849   7.409  0.1416 -0.1145  0.1071
  601YOPC   GL2 8840   8.115  12.721   7.499  0.1317  0.1923 -0.1769
  601YOPC   C1A 8841   8.595  13.015   7.849 -0.0313 -0.0125  0.0075
  601YOPC   D2A 8842   8.292  12.948   8.257 -0.1523 -0.0083  0.3838
  601YOPC   C3A 8843   8.363  12.882   8.640 -0.0676  0.1640  0.2313
  601YOPC   C4A 8844   8.540  12.933   9.108  0.7080  0.3557 -0.1924
  601YOPC   C1B 8845   8.047  13.035   7.831  0.0623 -0.0237 -0.1639
  601YOPC   C2B 8846   7.764  13.222   8.040  0.1079  0.1493  0.0351
  601YOPC   D3B 8847   7.888  13.200   8.493 -0.1980 -0.2375 -0.1008
  601YOPC   C4B 8848   8.091  13.128   8.948  0.1522  0.1122 -0.1229
  602YOPC   NC3 8849  11.828   2.932   6.707 -0.1714 -0.3081 -0.0536
  602YOPC   PO4 8850  12.034   2.872   6.226  0.0686 -0.0310 -0.1134
  602YOPC   GL1 8851  12.366   2.781   6.570  0.0182  0.1245 -0.1512
  602YOPC   GL2 8852  12.556   2.942   6.875  0.2297  0.1851 -0.0752
  602YOPC   C1A 8853  12.592   2.490   6.837 -0.0585 -0.3199  0.1964
  602YOPC   D2A 8854  12.579   2.168   7.105 -0.2545 -0.2493 -0.0515
  602YOPC   C3A 8855  12.396   2.074   7.572 -0.2810  0.0795 -0.0500
  602YOPC   C4A 8856  12.292   1.942   7.908 -0.0560  0.0858 -0.0262
  602YOPC   C1B 8857  12.681   3.164   7.242  0.2758 -0.0383 -0.3933
  602YOPC   C2B 8858  12.733   3.165   7.661  0.2515  0.0814 -0.0382
  602YOPC   D3B 8859  12.661   2.727   7.849 -0.1226  0.0203 -0.0147
  602YOPC   C4B 8860  12.407   2.445   8.000 -0.1764  0.4361  0.2386
  603YOPC   NC3 8861   1.577   6.394   6.058 -0.0055  0.0411 -0.1916
  603YOPC   PO4 8862   1.306   6.040   6.052  0.0881  0.2863 -0.1742
  603YOPC   GL1 8863   1.294   6.206   6.535 -0.2377 -0.0503  0.1402
  603YOPC   GL2 8864   1.296   6.020   6.925 -0.0267 -0.2006  0.2422
  603YOPC   C1A 8865   1.252   6.595   6.835  0.0168 -0.2975 -0.2117
  603YOPC   D2A 8866   1.303   6.966   7.104  0.0377  0.0508 -0.1237
  603YOPC   C3A 8867   1.252   7.018   7.606  0.1175  0.1003 -0.3287
  603YOPC   C4A 8868   1.049   7.075   7.961 -0.0552 -0.0697 -0.0676
  603YOPC   C1B 8869   0.992   6.008   7.221  0.0884 -0.0082  0.2905
  603YOPC   C2B 8870   0.909   5.986   7.706  0.1217  0.0296  0.1267
  603YOPC   D3B 8871   0.575   5.693   7.915  0.3666  0.0311 -0.0202
  603YOPC   C4B 8872   0.160   5.539   7.793 -0.0871  0.0840  0.1605
  604YOPC   NC3 8873  11.164   9.241   6.859  0.1376  0.2386 -0.4395
  604YOPC   PO4 8874  10.781   9.269   7.113  0.1086  0.0720 -0.0457
  604YOPC   GL1 8875  11.025   9.391   7.443 -0.3229  0.0468  0.0165
  604YOPC   GL2 8876  11.196   9.094   7.400  0.0774  0.1124 -0.0791
  604YOPC   C1A 8877  11.177   9.453   7.796 -0.1092  0.1661  0.3923
  604YOPC   D2A 8878  11.331   9.340   8.098 -0.0142  0.0046  0.0299
  604YOPC   C3A 8879  11.193   9.326   8.476 -0.2137  0.0735  0.0040
  604YOPC   C4A 8880  11.119   9.192   8.880  0.3759  0.4207 -0.2901
  604YOPC   C1B 8881  11.243   8.928   7.802 -0.1647  0.3280  0.0577
  604YOPC   C2B 8882  11.205   8.690   8.228  0.0914  0.0197  0.2264
  604YOPC   D3B 8883  11.528   8.890   8.444 -0.0173  0.0157  0.0832
  604YOPC   C4B 8884  11.644   9.011   8.818  0.1297 -0.1451 -0.3467
  605YOPC   NC3 8885   3.980   2.618   6.976 -0.0956  0.0040  0.2731
  605YOPC   PO4 8886   4.181   2.474   6.701 -0.0454 -0.1264 -0.2667
  605YOPC   GL1 8887   4.474   2.391   7.065  0.0092  0.0279 -0.3349
  605YOPC   GL2 8888   4.312   2.732   7.323  0.0933 -0.0932  0.1574
  605YOPC   C1A 8889   4.725   2.505   7.544  0.0232  0.0337 -0.0784
  605YOPC   D2A 8890   5.102   2.272   7.762  0.2912  0.1948 -0.1319
  605YOPC   C3A 8891   5.044   1.844   7.721  0.2055  0.0399 -0.4092
  605YOPC   C4A 8892   5.373   1.692   7.365 -0.1711  0.3453 -0.1150
  605YOPC   C1B 8893   4.209   2.665   7.715 -0.2270 -0.0305  0.0115
  605YOPC   C2B 8894   4.023   2.728   8.150  0.1139 -0.2319 -0.1757
  605YOPC   D3B 8895   4.169   2.704   8.593  0.0592 -0.5496 -0.0852
  605YOPC   C4B 8896   4.478   2.540   8.780  0.1423 -0.2043 -0.0478
  606YOPC   NC3 8897   3.040  17.126   6.589  0.0313 -0.1044 -0.0223
  606YOPC   PO4 8898   3.200  16.627   6.766 -0.0612  0.0869  0.1123
  606YOPC   GL1 8899   2.891  16.657   6.962 -0.1254  0.1250 -0.2026
  606YOPC   GL2 8900   2.555  16.805   6.964  0.0347  0.1839 -0.1795
  606YOPC   C1A 8901   2.821  16.848   7.442  0.1197  0.2154 -0.2918
  606YOPC   D2A 8902   2.786  16.962   7.945  0.2092 -0.0343  0.1568
  606YOPC   C3A 8903   2.461  17.195   8.213 -0.1144 -0.0501  0.0851
  606YOPC   C4A 8904   2.279  17.180   8.650 -0.0456  0.1744  0.3257
  606YOPC   C1B 8905   2.235  16.759   7.326 -0.1952 -0.1235  0.0838
  606YOPC   C2B 8906   2.122  16.922   7.676 -0.0365  0.1859  0.0203
  606YOPC   D3B 8907   2.149  16.867   8.138  0.1748 -0.2263 -0.1813
  606YOPC   C4B 8908   2.431  16.694   8.501 -0.1184  0.2934 -0.2355
  607YOPC   NC3 8909  10.523  10.680   6.704  0.0950 -0.1673  0.1657
  607YOPC   PO4 8910  10.967  10.628   6.818  0.1244 -0.0286  0.1715
  607YOPC   GL1 8911  11.005  10.937   7.106 -0.0298  0.2358  0.2864
  607YOPC   GL2 8912  11.215  10.849   7.247 -0.0755  0.1856 -0.0757
  607YOPC   C1A 8913  11.004  11.321   7.376  0.0091  0.0057  0.2145
  607YOPC   D2A 8914  10.816  11.664   7.301  0.0218  0.3249  0.1457
  607YOPC   C3A 8915  10.976  12.030   7.529  0.1210 -0.2408  0.0532
  607YOPC   C4A 8916  10.863  12.000   7.974  0.3044  0.2318 -0.1841
  607YOPC   C1B 8917  11.219  10.849   7.690  0.0811 -0.1084  0.2664
  607YOPC   C2B 8918  11.334  10.753   8.094  0.1679 -0.0080  0.0543
  607YOPC   D3B 8919  11.183  10.790   8.439 -0.1436 -0.2478 -0.0420
  607YOPC   C4B 8920  11.497  10.954   8.743  0.1354  0.0527  0.2567
  608YOPC   NC3 8921  11.120  14.212   6.697 -0.2083 -0.1993 -0.0179
  608YOPC   PO4 8922  11.017  13.810   6.861  0.0386 -0.0587  0.1403
  608YOPC   GL1 8923  11.014  13.704   7.229 -0.0623 -0.0665 -0.0635
  608YOPC   GL2 8924  10.799  13.412   7.229  0.0597 -0.2637  0.5166
  608YOPC   C1A 8925  11.138  13.433   7.563  0.1281 -0.1211  0.0477
  608YOPC   D2A 8926  11.411  13.188   7.775 -0.0128  0.0369  0.0041
  608YOPC   C3A 8927  11.765  13.273   7.754 -0.1016 -0.0307  0.0623
  608YOPC   C4A 8928  12.190  13.247   7.714 -0.0898 -0.2399  0.3627
  608YOPC   C1B 8929  10.687  13.575   7.585  0.1064  0.2912  0.0985
  608YOPC   C2B 8930  10.759  13.456   8.048  0.1215  0.1126 -0.3744
  608YOPC   D3B 8931  11.221  13.408   8.129  0.1177  0.1853 -0.3598
  608YOPC   C4B 8932  11.557  13.296   8.291  0.0741 -0.1077 -0.0510
  609YOPC   NC3 8933   4.528  16.483   6.722 -0.0960 -0.3143  0.0552
  609YOPC   PO4 8934   4.966  16.706   6.733 -0.1171 -0.2030  0.1833
  609YOPC   GL1 8935   5.262  16.560   6.925 -0.3959  0.0335  0.0304
  609YOPC   GL2 8936   5.382  16.252   6.728 -0.3288  0.0449 -0.2172
  609YOPC   C1A 8937   5.432  16.525   7.260  0.1925  0.0155  0.0524
  609YOPC   D2A 8938   5.532  16.173   7.538  0.1108 -0.3572 -0.2317
  609YOPC   C3A 8939   5.500  16.249   7.949  0.1541 -0.2387  0.2023
  609YOPC   C4A 8940   5.382  16.590   7.875 -0.2135  0.1476 -0.0840
  609YOPC   C1B 8941   5.473  15.972   7.058  0.0991 -0.2244  0.1350
  609YOPC   C2B 8942   5.750  15.645   7.291 -0.0217  0.1735  0.4430
  609YOPC   D3B 8943   5.902  15.871   7.704 -0.2548 -0.1411  0.4001
  609YOPC   C4B 8944   5.876  15.928   8.178  0.0150 -0.0379  0.1869
  610YOPC   NC3 8945   7.837   8.639   6.592  0.0126 -0.0179 -0.1016
  610YOPC   PO4 8946   7.501   8.707   6.609 -0.3013 -0.0912 -0.0139
  610YOPC   GL1 8947   7.280   8.610   6.954 -0.0811 -0.1236  0.1442
  610YOPC   GL2 8948   7.301   9.003   7.140 -0.0031  0.1695 -0.0238
  610YOPC   C1A 8949   7.193   8.465   7.360  0.0292  0.1832 -0.0522
  610YOPC   D2A 8950   7.132   8.324   7.724  0.0503  0.3076 -0.4595
  610YOPC   C3A 8951   7.164   8.370   8.239 -0.1308 -0.1199 -0.0224
  610YOPC   C4A 8952   7.436   8.242   8.652 -0.0824 -0.2564  0.0781
  610YOPC   C1B 8953   7.335   8.896   7.574  0.2092  0.0986  0.0648
  610YOPC   C2B 8954   7.154   8.798   7.937  0.3762  0.3080  0.1197
  610YOPC   D3B 8955   6.706   8.668   8.063  0.1784 -0.1874 -0.0884
  610YOPC   C4B 8956   6.314   8.429   8.147  0.2740  0.0782 -0.0293
  611YOPC   NC3 8957   0.205   8.019   6.657  0.0872  0.0938  0.0145
  611YOPC   PO4 8958  -0.074   7.731   6.629  0.1827 -0.2498  0.2167
  611YOPC   GL1 8959  -0.048   7.685   7.064 -0.2452 -0.1149 -0.1079
  611YOPC   GL2 8960   0.050   7.941   7.144  0.0790  0.3243  0.0388
  611YOPC   C1A 8961   0.121   7.509   7.514  0.0304 -0.0443 -0.5283
  611YOPC   D2A 8962   0.399   7.202   7.789  0.3284 -0.0316 -0.0313
  611YOPC   C3A 8963   0.584   7.306   8.127 -0.0122 -0.0827  0.1722
  611YOPC   C4A 8964   0.816   7.751   8.310 -0.1713  0.1855 -0.1135
  611YOPC   C1B 8965  -0.022   8.199   7.539  0.3135  0.0446  0.1326
  611YOPC   C2B 8966  -0.034   8.063   8.020 -0.3201 -0.1626  0.1050
  611YOPC   D3B 8967   0.297   8.214   8.263  0.0003  0.3302 -0.0707
  611YOPC   C4B 8968   0.446   8.042   8.584 -0.0085 -0.1038  0.1607
  612YOPC   NC3 8969   6.653  17.082   6.509 -0.0411 -0.0013  0.0115
  612YOPC   PO4 8970   6.350  16.914   6.790 -0.0830  0.2010  0.3186
  612YOPC   GL1 8971   6.184  16.788   7.259 -0.2484 -0.0200 -0.2821
  612YOPC   GL2 8972   5.909  16.784   7.285 -0.0219  0.2027 -0.1554
  612YOPC   C1A 8973   6.218  16.893   7.687  0.0893  0.0939 -0.1886
  612YOPC   D2A 8974   6.482  17.191   7.779  0.1709 -0.3473 -0.1645
  612YOPC   C3A 8975   6.464  17.348   8.269  0.0118 -0.0262 -0.1070
  612YOPC   C4A 8976   6.792  17.355   8.594 -0.1386 -0.1088 -0.4537
  612YOPC   C1B 8977   5.626  16.908   7.612 -0.0377  0.0509  0.1637
  612YOPC   C2B 8978   5.671  17.058   8.106  0.0709  0.0238  0.2464
  612YOPC   D3B 8979   5.994  17.468   8.181 -0.0210 -0.0169 -0.0747
  612YOPC   C4B 8980   6.237  17.745   8.420  0.5227 -0.3249  0.1258
  613YOPC   NC3 8981   2.362   6.810   6.170  0.1508 -0.0950  0.0888
  613YOPC   PO4 8982   1.887   6.862   6.043  0.1368 -0.4223 -0.0663
  613YOPC   GL1 8983   1.958   6.865   6.490 -0.4949  0.3150  0.0854
  613YOPC   GL2 8984   2.239   6.812   6.670  0.0513  0.0070  0.1290
  613YOPC   C1A 8985   1.736   6.904   6.909  0.1475  0.1967 -0.0916
  613YOPC   D2A 8986   1.722   7.115   7.399 -0.4354  0.0963  0.2010
  613YOPC   C3A 8987   1.885   6.750   7.672 -0.2468  0.1381  0.0733
  613YOPC   C4A 8988   2.021   6.688   8.064 -0.2310 -0.1995 -0.0016
  613YOPC   C1B 8989   2.525   6.796   6.993 -0.0626 -0.1760  0.0061
  613YOPC   C2B 8990   2.915   6.559   7.137  0.0559  0.0113 -0.2933
  613YOPC   D3B 8991   2.957   6.044   7.187  0.2449 -0.2725  0.2376
  613YOPC   C4B 8992   3.156   5.645   7.107  0.0006  0.0178 -0.0276
  614YOPC   NC3 8993  10.190  10.013   6.787 -0.1418 -0.1157 -0.2497
  614YOPC   PO4 8994  10.176  10.347   6.975  0.2269 -0.0179 -0.2706
  614YOPC   GL1 8995  10.325  10.639   7.356 -0.0859  0.1320  0.0922
  614YOPC   GL2 8996  10.664  10.629   7.226  0.3846 -0.2223  0.1536
  614YOPC   C1A 8997  10.315  10.602   7.814  0.2837 -0.0364  0.0357
  614YOPC   D2A 8998  10.403  10.420   8.186  0.4128 -0.0391 -0.0108
  614YOPC   C3A 8999  10.702  10.470   8.439 -0.1084 -0.0935 -0.3335
  614YOPC   C4A 9000  10.688  10.597   8.877  0.0133  0.1057  0.0144
  614YOPC   C1B 9001  10.771  10.841   7.582  0.1358 -0.2017  0.1393
  614YOPC   C2B 9002  10.670  11.056   7.927 -0.1121 -0.1925 -0.3630
  614YOPC   D3B 9003  10.998  11.123   8.133  0.0553 -0.1828 -0.0626
  614YOPC   C4B 9004  11.011  11.290   8.559 -0.2294  0.2653 -0.0598
  615YOPC   NC3 9005   9.448   1.640   6.448  0.2296  0.0276 -0.0851
  615YOPC   PO4 9006   9.916   1.699   6.544 -0.1371 -0.0170  0.1224
  615YOPC   GL1 9007  10.042   1.428   6.815 -0.2004  0.1076  0.1623
  615YOPC   GL2 9008   9.814   1.187   6.966 -0.0132 -0.0344  0.1216
  615YOPC   C1A 9009  10.165   1.355   7.260 -0.2583 -0.0680 -0.0296
  615YOPC   D2A 9010  10.182   1.344   7.638  0.3032  0.1943 -0.0030
  615YOPC   C3A 9011  10.374   1.157   8.065  0.0842  0.2712 -0.0140
  615YOPC   C4A 9012  10.591   0.791   8.467 -0.3491  0.2127  0.1743
  615YOPC   C1B 9013   9.938   0.954   7.325 -0.0591  0.0153 -0.0237
  615YOPC   C2B 9014  10.175   0.560   7.555  0.0881  0.0025  0.0341
  615YOPC   D3B 9015  10.287   0.614   8.075  0.2438  0.1639  0.0728
  615YOPC   C4B 9016  10.118   0.861   8.384 -0.0396  0.0089 -0.2199
  616YOPC   NC3 9017   3.550   9.929   6.442 -0.0058 -0.0369  0.0738
  616YOPC   PO4 9018   3.366   9.558   6.507 -0.0182 -0.1745 -0.1156
  616YOPC   GL1 9019   3.140   9.424   6.840 -0.1341  0.0566 -0.4039
  616YOPC   GL2 9020   2.795   9.460   6.788 -0.2156 -0.1397 -0.0993
  616YOPC   C1A 9021   2.949   9.275   7.225 -0.0560  0.0099  0.1589
  616YOPC   D2A 9022   2.998   9.319   7.683 -0.2048  0.0862  0.1753
  616YOPC   C3A 9023   2.697   9.393   7.974  0.2650 -0.3189  0.1227
  616YOPC   C4A 9024   2.632   9.525   8.327 -0.2681 -0.0842  0.4204
  616YOPC   C1B 9025   2.413   9.341   7.118  0.0127  0.0196  0.0533
  616YOPC   C2B 9026   2.386   9.209   7.554  0.1984 -0.2247  0.1826
  616YOPC   D3B 9027   2.181   8.758   7.726 -0.1609 -0.2476 -0.0995
  616YOPC   C4B 9028   2.299   8.460   8.018  0.1852 -0.1676 -0.2759
  617YOPC   NC3 9029  10.327   7.443   6.683  0.0489  0.0468  0.0643
  617YOPC   PO4 9030   9.984   7.060   6.508  0.1216 -0.1550  0.0749
  617YOPC   GL1 9031   9.859   6.897   6.865  0.0551 -0.0920  0.0724
  617YOPC   GL2 9032   9.746   7.105   6.932  0.0976 -0.0355  0.1239
  617YOPC   C1A 9033   9.900   6.507   7.221 -0.1492 -0.2388 -0.1884
  617YOPC   D2A 9034  10.092   6.271   7.529  0.3257  0.0786 -0.0780
  617YOPC   C3A 9035   9.736   6.387   7.837 -0.1847 -0.2184  0.0336
  617YOPC   C4A 9036   9.540   6.414   8.253  0.0911 -0.1824  0.0275
  617YOPC   C1B 9037   9.880   7.213   7.318  0.1389 -0.0189  0.0771
  617YOPC   C2B 9038   9.893   7.255   7.766 -0.1859  0.2140 -0.1291
  617YOPC   D3B 9039  10.309   7.463   7.898  0.1356  0.2173 -0.0204
  617YOPC   C4B 9040  10.370   7.977   7.835 -0.0044  0.0558 -0.1250
  618YOPC   NC3 9041   7.631   1.232   6.764 -0.3295  0.0487  0.0541
  618YOPC   PO4 9042   7.239   1.247   6.684  0.1335 -0.0761  0.1604
  618YOPC   GL1 9043   7.334   1.279   7.188  0.2733 -0.0370 -0.1560
  618YOPC   GL2 9044   7.691   1.263   7.241 -0.1217 -0.1182 -0.0263
  618YOPC   C1A 9045   7.425   1.328   7.586  0.0782 -0.2058  0.0661
  618YOPC   D2A 9046   7.308   1.353   8.025  0.0550  0.1394 -0.1272
  618YOPC   C3A 9047   7.034   1.150   8.316 -0.0638 -0.1661  0.1131
  618YOPC   C4A 9048   6.728   1.230   8.572  0.0031  0.1201  0.0992
  618YOPC   C1B 9049   7.971   1.308   7.621  0.0496  0.0995 -0.3398
  618YOPC   C2B 9050   7.796   1.386   8.098 -0.0314 -0.2046  0.2475
  618YOPC   D3B 9051   8.050   1.332   8.541  0.1353  0.0626 -0.0011
  618YOPC   C4B 9052   8.164   1.116   8.796 -0.4492  0.1017  0.2149
  619YOPC   NC3 9053  14.853  17.303   6.469 -0.0999  0.1662  0.1438
  619YOPC   PO4 9054  15.269  17.259   6.707  0.1942 -0.1512  0.1286
  619YOPC   GL1 9055  15.466  17.295   7.066  0.0238 -0.0301 -0.0369
  619YOPC   GL2 9056  15.398  17.008   7.231 -0.2554 -0.0533 -0.0055
  619YOPC   C1A 9057  15.583  17.483   7.450 -0.0697  0.1369 -0.0049
  619YOPC   D2A 9058  15.493  17.776   7.790 -0.0932  0.1197  0.2672
  619YOPC   C3A 9059  15.215  17.574   8.085  0.0484  0.5064  0.0586
  619YOPC   C4A 9060  14.859  17.629   8.420  0.1889 -0.5273  0.2253
  619YOPC   C1B 9061  15.525  16.991   7.544 -0.1604  0.3795  0.1790
  619YOPC   C2B 9062  15.643  17.181   7.886  0.1469 -0.1843 -0.2976
  619YOPC   D3B 9063  15.597  17.266   8.245 -0.0932 -0.1926 -0.2429
  619YOPC   C4B 9064  15.516  17.055   8.635 -0.1271 -0.0941  0.2275
  620YOPC   NC3 9065   5.298  13.620   6.685  0.1017 -0.1488  0.0764
  620YOPC   PO4 9066   5.670  13.774   6.714 -0.2555  0.0334  0.0973
  620YOPC   GL1 9067   5.734  13.637   7.008 -0.5301 -0.0804 -0.1225
  620YOPC   GL2 9068   5.508  13.490   7.137  0.0853 -0.0260  0.0418
  620YOPC   C1A 9069   6.001  13.475   7.366  0.3216 -0.2431  0.1976
  620YOPC   D2A 9070   5.819  13.250   7.765  0.0308  0.2369  0.0898
  620YOPC   C3A 9071   5.891  13.483   8.190 -0.1300  0.1634  0.3275
  620YOPC   C4A 9072   5.541  13.708   8.477  0.0251  0.3566  0.0887
  620YOPC   C1B 9073   5.576  13.682   7.575 -0.0178 -0.0541  0.2498
  620YOPC   C2B 9074   5.498  13.776   7.988  0.1011 -0.0320  0.0682
  620YOPC   D3B 9075   5.240  14.076   8.299  0.0054 -0.0444  0.0098
  620YOPC   C4B 9076   4.841  14.038   8.549  0.1507 -0.2531  0.2774
  621YOPC   NC3 9077   8.355  13.815   7.011  0.1520 -0.0820 -0.1252
  621YOPC   PO4 9078   8.652  14.101   7.272 -0.3420  0.0034  0.1710
  621YOPC   GL1 9079   8.675  13.953   7.715 -0.0567  0.0675 -0.1389
  621YOPC   GL2 9080   8.499  14.008   7.904 -0.0374  0.0157 -0.3189
  621YOPC   C1A 9081   8.801  13.723   8.151 -0.2742 -0.1545 -0.3244
  621YOPC   D2A 9082   8.885  13.512   8.518  0.0498  0.1167 -0.0641
  621YOPC   C3A 9083   9.242  13.282   8.482 -0.0462 -0.1475  0.3826
  621YOPC   C4A 9084   9.263  12.860   8.619  0.1756 -0.1096  0.1039
  621YOPC   C1B 9085   8.403  13.976   8.340  0.1949  0.1353 -0.0942
  621YOPC   C2B 9086   8.571  13.920   8.815  0.0385 -0.1809 -0.2473
  621YOPC   D3B 9087   8.464  13.794   9.186  0.2972  0.1548  0.1231
  621YOPC   C4B 9088   8.392  13.810   9.693  0.0361 -0.0666 -0.0505
  622YOPC   NC3 9089  17.112   7.722   6.786  0.1786 -0.0562 -0.0476
  622YOPC   PO4 9090  17.393   7.297   6.858 -0.4330 -0.0575 -0.1138
  622YOPC   GL1 9091  17.431   7.154   7.267  0.1842  0.0065  0.0293
  622YOPC   GL2 9092  17.126   6.921   7.311  0.0585  0.1242 -0.2867
  622YOPC   C1A 9093  17.605   7.042   7.648  0.0993  0.1659 -0.1698
  622YOPC   D2A 9094  17.858   6.677   7.918 -0.0480  0.2336 -0.0536
  622YOPC   C3A 9095  17.729   6.712   8.365 -0.1012  0.1610 -0.0456
  622YOPC   C4A 9096  17.541   6.518   8.696 -0.0065  0.3073 -0.0861
  622YOPC   C1B 9097  17.079   7.044   7.732 -0.1554 -0.0691  0.2291
  622YOPC   C2B 9098  17.423   6.892   8.055 -0.3701 -0.1264  0.0230
  622YOPC   D3B 9099  17.263   6.895   8.490 -0.0568  0.1315  0.1712
  622YOPC   C4B 9100  17.138   6.765   8.929 -0.2155 -0.1076  0.4300
  623YOPC   NC3 9101   4.240   6.158   6.249  0.1983  0.0304 -0.0966
  623YOPC   PO4 9102   4.267   5.705   6.437  0.1155 -0.2359  0.1153
  623YOPC   GL1 9103   4.142   5.946   6.761 -0.3471 -0.0729 -0.1025
  623YOPC   GL2 9104   4.242   6.262   6.821  0.2455 -0.1472  0.0195
  623YOPC   C1A 9105   3.950   6.034   7.234  0.2488  0.1700  0.2002
  623YOPC   D2A 9106   3.550   5.815   7.394 -0.0906 -0.2694  0.0586
  623YOPC   C3A 9107   3.282   5.995   7.592 -0.3359  0.0626 -0.3066
  623YOPC   C4A 9108   3.127   6.203   8.023 -0.4761  0.1401 -0.0232
  623YOPC   C1B 9109   4.590   6.103   7.105 -0.0549  0.0159 -0.0501
  623YOPC   C2B 9110   4.739   6.179   7.461  0.0786  0.0703 -0.2443
  623YOPC   D3B 9111   4.814   6.102   7.851  0.1772 -0.2544 -0.1808
  623YOPC   C4B 9112   4.592   5.940   8.209 -0.0879 -0.1267  0.0301
  624YOPC   NC3 9113  11.392  16.792   6.785  0.0704  0.1887  0.3995
  624YOPC   PO4 9114  10.995  16.626   6.698  0.0636 -0.2508 -0.2404
  624YOPC   GL1 9115  10.919  16.908   6.926 -0.1583 -0.1083  0.0802
  624YOPC   GL2 9116  11.019  16.806   7.185  0.1294  0.1971  0.1606
  624YOPC   C1A 9117  10.784  17.226   7.327  0.4324  0.6052  0.2651
  624YOPC   D2A 9118  10.607  17.390   7.733  0.0420 -0.0006  0.3791
  624YOPC   C3A 9119  10.790  17.813   7.769 -0.1002 -0.3637  0.1782
  624YOPC   C4A 9120  10.804  18.176   7.437 -0.2711 -0.0226  0.0692
  624YOPC   C1B 9121  10.910  16.800   7.641  0.1972 -0.1350  0.1679
  624YOPC   C2B 9122  10.795  16.916   8.032 -0.2765  0.0299 -0.0278
  624YOPC   D3B 9123  10.414  17.156   8.172  0.2190 -0.0782  0.0678
  624YOPC   C4B 9124  10.115  17.442   8.245  0.2025 -0.0120 -0.0572
  625YOPC   NC3 9125   5.755   3.071   6.761 -0.3791  0.3151  0.1743
  625YOPC   PO4 9126   6.137   3.188   6.977  0.0959  0.1304  0.0709
  625YOPC   GL1 9127   6.304   3.307   7.358  0.2311  0.3457 -0.1396
  625YOPC   GL2 9128   6.157   3.251   7.677 -0.1328 -0.2980 -0.2152
  625YOPC   C1A 9129   6.687   3.312   7.607 -0.0136 -0.0774  0.0046
  625YOPC   D2A 9130   6.876   3.297   7.945 -0.2304 -0.4248  0.1522
  625YOPC   C3A 9131   7.202   3.412   7.982 -0.2509 -0.1426  0.2652
  625YOPC   C4A 9132   7.459   3.650   7.763  0.2128 -0.2692  0.2738
  625YOPC   C1B 9133   6.249   3.365   8.198 -0.0682 -0.3198 -0.0656
  625YOPC   C2B 9134   6.411   3.479   8.538 -0.1787 -0.1224  0.0624
  625YOPC   D3B 9135   6.793   3.530   8.715  0.1944  0.0294  0.0891
  625YOPC   C4B 9136   7.183   3.496   8.776  0.2575 -0.1433  0.0069
  626YOPC   NC3 9137   0.859   5.985   6.266 -0.0346  0.1033 -0.0941
  626YOPC   PO4 9138   0.454   6.123   6.483 -0.1227 -0.0087  0.1166
  626YOPC   GL1 9139   0.391   5.921   6.898  0.0645 -0.1464  0.0703
  626YOPC   GL2 9140   0.455   5.537   7.036  0.3230 -0.1337  0.0064
  626YOPC   C1A 9141   0.473   5.949   7.354 -0.1229  0.1042 -0.1504
  626YOPC   D2A 9142   0.342   6.101   7.784  0.0939  0.3212  0.0183
  626YOPC   C3A 9143   0.655   6.186   8.139  0.1855  0.1122 -0.1784
  626YOPC   C4A 9144   0.806   6.038   8.483 -0.1565 -0.1905 -0.1283
  626YOPC   C1B 9145   0.442   5.407   7.403  0.3129 -0.2435  0.2173
  626YOPC   C2B 9146   0.605   5.175   7.823 -0.0310 -0.0202 -0.0103
  626YOPC   D3B 9147   0.417   5.293   8.249  0.1404  0.2281  0.1859
  626YOPC   C4B 9148   0.460   5.718   8.444 -0.5391  0.4647 -0.0620
  627YOPC   NC3 9149   7.433   1.656   6.486  0.0545  0.1176 -0.1001
  627YOPC   PO4 9150   7.486   1.712   6.962  0.1744 -0.0838 -0.1590
  627YOPC   GL1 9151   7.686   1.900   7.277 -0.1544  0.0747 -0.0206
  627YOPC   GL2 9152   7.957   1.739   7.288 -0.3779 -0.0989 -0.0883
  627YOPC   C1A 9153   7.643   1.801   7.677  0.2019 -0.0831  0.2680
  627YOPC   D2A 9154   7.332   1.886   7.929  0.1694 -0.0341 -0.0542
  627YOPC   C3A 9155   7.518   1.724   8.323  0.0401 -0.4509 -0.1262
  627YOPC   C4A 9156   7.583   1.431   8.641  0.3748  0.0238 -0.1564
  627YOPC   C1B 9157   7.990   2.091   7.630  0.2813  0.0506 -0.0738
  627YOPC   C2B 9158   8.182   2.268   8.012 -0.3116 -0.0611 -0.0177
  627YOPC   D3B 9159   8.501   2.642   8.058  0.1350  0.4428 -0.0035
  627YOPC   C4B 9160   8.937   2.768   8.035 -0.0640  0.2918  0.2917
  628YOPC   NC3 9161   4.948   9.342   6.675 -0.1196 -0.1167  0.1703
  628YOPC   PO4 9162   5.091   8.851   6.629  0.1778 -0.1904  0.0027
  628YOPC   GL1 9163   5.186   8.749   6.932  0.1361 -0.1380 -0.0618
  628YOPC   GL2 9164   4.965   9.043   7.122  0.0441 -0.0184 -0.0479
  628YOPC   C1A 9165   5.224   8.678   7.433  0.2452 -0.0730  0.1704
  628YOPC   D2A 9166   5.180   8.679   7.815  0.3647  0.3639  0.0647
  628YOPC   C3A 9167   4.876   8.589   8.153  0.0932  0.0804  0.0794
  628YOPC   C4A 9168   4.913   8.288   8.474  0.5053 -0.0512 -0.1099
  628YOPC   C1B 9169   4.963   9.123   7.563  0.1490  0.2846  0.1626
  628YOPC   C2B 9170   4.741   8.984   7.960 -0.1797  0.0499  0.2560
  628YOPC   D3B 9171   4.906   9.012   8.450 -0.5667  0.1713  0.2071
  628YOPC   C4B 9172   5.043   9.177   8.920  0.0803 -0.1218  0.1706
  629YOPC   NC3 9173   5.211  10.952   6.192  0.4180 -0.1821  0.0216
  629YOPC   PO4 9174   5.344  11.240   6.568  0.2222 -0.0945  0.0729
  629YOPC   GL1 9175   5.183  11.252   6.978  0.1391  0.1866  0.0808
  629YOPC   GL2 9176   5.436  11.446   7.083  0.0215  0.1907  0.1561
  629YOPC   C1A 9177   5.258  11.186   7.429 -0.0167  0.1306  0.0085
  629YOPC   D2A 9178   5.340  11.034   7.840  0.2850  0.2661  0.3452
  629YOPC   C3A 9179   5.119  10.810   8.063 -0.0210 -0.1869  0.2659
  629YOPC   C4A 9180   5.284  10.587   8.379  0.1599  0.0042 -0.1540
  629YOPC   C1B 9181   5.537  11.483   7.599 -0.0383 -0.1010  0.3640
  629YOPC   C2B 9182   5.717  11.403   7.960 -0.2364 -0.1563  0.1352
  629YOPC   D3B 9183   5.426  11.199   8.303 -0.1023 -0.0855  0.2701
  629YOPC   C4B 9184   5.120  10.988   8.509 -0.0695  0.1363  0.0875
  630YOPC   NC3 9185  16.882   3.702   6.841  0.0262  0.0126 -0.1963
  630YOPC   PO4 9186  17.081   3.900   7.030  0.3972 -0.0808 -0.1467
  630YOPC   GL1 9187  17.124   3.957   7.389 -0.1572 -0.0186  0.2737
  630YOPC   GL2 9188  16.765   3.908   7.489 -0.2240 -0.2482  0.0948
  630YOPC   C1A 9189  17.332   4.000   7.673  0.3145  0.0210 -0.0987
  630YOPC   D2A 9190  17.245   3.837   8.037  0.0107  0.3222 -0.0222
  630YOPC   C3A 9191  17.044   4.041   8.420  0.1179 -0.2714 -0.2646
  630YOPC   C4A 9192  16.866   4.356   8.738  0.0615 -0.0459 -0.1108
  630YOPC   C1B 9193  16.722   4.030   8.059  0.1789  0.3904  0.1486
  630YOPC   C2B 9194  16.828   4.524   8.197  0.3464  0.1019  0.1884
  630YOPC   D3B 9195  17.183   4.699   8.472 -0.1348  0.0175 -0.0580
  630YOPC   C4B 9196  17.572   4.834   8.498  0.0199 -0.0804  0.1590
  631YOPC   NC3 9197  14.819  13.698   6.628  0.1234 -0.0446 -0.1862
  631YOPC   PO4 9198  14.455  13.540   6.792  0.2234 -0.1420 -0.0672
  631YOPC   GL1 9199  14.161  13.674   7.103 -0.2002 -0.0692  0.1795
  631YOPC   GL2 9200  13.992  14.010   7.174 -0.2638  0.0000 -0.1683
  631YOPC   C1A 9201  13.975  13.531   7.409  0.1727 -0.1713 -0.0311
  631YOPC   D2A 9202  13.586  13.535   7.540  0.2523 -0.2353 -0.0191
  631YOPC   C3A 9203  13.418  13.742   7.893 -0.1409  0.1876  0.0320
  631YOPC   C4A 9204  13.023  13.916   8.021  0.0376 -0.1672 -0.3255
  631YOPC   C1B 9205  14.216  13.909   7.590 -0.1668  0.0473 -0.0291
  631YOPC   C2B 9206  13.968  13.591   7.879 -0.0122  0.0265 -0.1946
  631YOPC   D3B 9207  14.003  13.678   8.361  0.1613 -0.0323 -0.1086
  631YOPC   C4B 9208  14.065  13.568   8.751  0.2686  0.1591  0.0941
  632YOPC   NC3 9209   1.307   8.692   6.101 -0.1598  0.0329 -0.1474
  632YOPC   PO4 9210   1.695   8.783   6.355  0.1286  0.1159  0.0480
  632YOPC   GL1 9211   1.636   8.748   6.825  0.1534 -0.0133 -0.0690
  632YOPC   GL2 9212   1.340   8.657   6.940  0.0048  0.3070 -0.0778
  632YOPC   C1A 9213   1.699   8.673   7.377 -0.1336 -0.0956 -0.0682
  632YOPC   D2A 9214   1.716   8.503   7.754  0.1052  0.0941  0.0888
  632YOPC   C3A 9215   1.765   8.530   8.142  0.0557  0.2939 -0.1186
  632YOPC   C4A 9216   1.950   8.760   8.456 -0.2835  0.0187  0.3405
  632YOPC   C1B 9217   1.093   8.683   7.269  0.1627 -0.4478  0.0132
  632YOPC   C2B 9218   0.803   8.737   7.592  0.0262 -0.0624  0.1179
  632YOPC   D3B 9219   0.926   8.721   8.042 -0.0897  0.0787  0.1612
  632YOPC   C4B 9220   1.312   8.612   8.236  0.0315 -0.1734 -0.2382
  633YOPC   NC3 9221   2.002   7.794   6.163  0.2490 -0.2115  0.0450
  633YOPC   PO4 9222   2.310   7.755   6.273 -0.3253  0.4039  0.3126
  633YOPC   GL1 9223   2.318   7.730   6.628  0.1046  0.1559  0.1570
  633YOPC   GL2 9224   2.617   7.761   6.742 -0.0613  0.2477  0.0290
  633YOPC   C1A 9225   2.106   7.752   7.000  0.2003  0.1907 -0.0880
  633YOPC   D2A 9226   1.742   7.587   7.095 -0.0915 -0.0664  0.1940
  633YOPC   C3A 9227   1.670   7.793   7.381 -0.1415 -0.1315  0.0999
  633YOPC   C4A 9228   1.637   7.875   7.820  0.2067 -0.3480  0.1639
  633YOPC   C1B 9229   2.774   7.529   7.114 -0.0489 -0.0403 -0.0855
  633YOPC   C2B 9230   2.895   7.460   7.516 -0.3250 -0.1990 -0.0451
  633YOPC   D3B 9231   2.717   7.335   7.916 -0.0727  0.1846  0.0331
  633YOPC   C4B 9232   2.787   7.314   8.393 -0.0893  0.0183  0.0409
  634YOPC   NC3 9233   7.987   6.438   6.148  0.2713 -0.0293  0.0551
  634YOPC   PO4 9234   8.416   6.365   6.168 -0.0605  0.0037  0.1053
  634YOPC   GL1 9235   8.634   6.467   6.608 -0.0312  0.0765 -0.1433
  634YOPC   GL2 9236   8.868   6.637   6.577  0.4246 -0.1312 -0.0418
  634YOPC   C1A 9237   8.878   6.406   7.072 -0.0929  0.1493  0.0170
  634YOPC   D2A 9238   8.932   6.193   7.488 -0.0881 -0.2396 -0.0612
  634YOPC   C3A 9239   8.634   6.197   7.760 -0.2858 -0.1383 -0.2816
  634YOPC   C4A 9240   8.537   6.117   8.169  0.0611  0.2308  0.0787
  634YOPC   C1B 9241   9.064   6.865   6.950  0.1415  0.0905  0.0222
  634YOPC   C2B 9242   9.352   7.001   7.261 -0.0331 -0.3449  0.1109
  634YOPC   D3B 9243   9.286   7.149   7.659  0.0678  0.2242  0.0727
  634YOPC   C4B 9244   9.470   7.353   8.094  0.3650 -0.1892  0.1626
  635YOPC   NC3 9245  12.742   0.916   5.796 -0.2773  0.1026 -0.2194
  635YOPC   PO4 9246  12.673   0.949   6.269  0.1866  0.2721 -0.4126
  635YOPC   GL1 9247  12.811   0.947   6.608  0.2037  0.1056  0.0934
  635YOPC   GL2 9248  12.874   0.670   6.812 -0.1969  0.0123 -0.0735
  635YOPC   C1A 9249  12.814   1.139   6.981 -0.1339  0.0386 -0.0462
  635YOPC   D2A 9250  12.939   1.006   7.376 -0.2289  0.3590  0.0975
  635YOPC   C3A 9251  13.017   1.238   7.726 -0.0468  0.3400  0.1092
  635YOPC   C4A 9252  13.369   1.434   7.656  0.2572 -0.2259  0.0386
  635YOPC   C1B 9253  12.712   0.587   7.209 -0.0325  0.1372  0.0412
  635YOPC   C2B 9254  12.653   0.545   7.659 -0.0012 -0.0911  0.3232
  635YOPC   D3B 9255  12.585   0.164   7.902  0.2274 -0.1131 -0.0239
  635YOPC   C4B 9256  12.619  -0.273   8.101 -0.2854 -0.1282 -0.2469
  636YOPC   NC3 9257   3.908   8.216   6.546 -0.2142  0.0915  0.0381
  636YOPC   PO4 9258   3.696   7.863   6.493  0.4834 -0.0245  0.1327
  636YOPC   GL1 9259   3.444   7.960   6.804  0.1844 -0.2187  0.0874
  636YOPC   GL2 9260   3.475   8.274   6.828 -0.2381  0.1903  0.0962
  636YOPC   C1A 9261   3.270   7.900   7.187 -0.0031  0.1684  0.3153
  636YOPC   D2A 9262   3.055   7.910   7.641 -0.1527  0.3065 -0.1615
  636YOPC   C3A 9263   3.030   7.665   8.037 -0.2105 -0.1706 -0.0092
  636YOPC   C4A 9264   3.303   7.633   8.378 -0.2350  0.4782  0.1233
  636YOPC   C1B 9265   3.623   8.444   7.250 -0.1369 -0.0514  0.3018
  636YOPC   C2B 9266   3.741   8.484   7.650 -0.2750  0.1601 -0.2508
  636YOPC   D3B 9267   3.843   8.244   8.027 -0.1698 -0.1932 -0.0245
  636YOPC   C4B 9268   4.006   8.334   8.374  0.3953  0.1601 -0.3041
  637YOPC   NC3 9269   2.556  13.965   6.702 -0.3182  0.4832  0.0729
  637YOPC   PO4 9270   2.455  13.965   7.152  0.2282  0.0815  0.0623
  637YOPC   GL1 9271   2.199  13.858   7.461 -0.1935  0.1506 -0.0728
  637YOPC   GL2 9272   1.877  14.008   7.564 -0.0942  0.4773  0.0648
  637YOPC   C1A 9273   2.284  13.605   7.927 -0.0117  0.1884 -0.0018
  637YOPC   D2A 9274   2.397  13.508   8.394 -0.0778 -0.4073 -0.1749
  637YOPC   C3A 9275   2.002  13.427   8.691  0.1475 -0.1096  0.1830
  637YOPC   C4A 9276   1.627  13.149   8.593  0.0487 -0.2661 -0.2014
  637YOPC   C1B 9277   1.941  13.961   8.027  0.3322  0.3282  0.3111
  637YOPC   C2B 9278   2.001  13.843   8.424 -0.0106  0.2488  0.0102
  637YOPC   D3B 9279   2.095  14.252   8.631  0.2603  0.0476 -0.1356
  637YOPC   C4B 9280   2.386  14.596   8.541  0.0324 -0.2246  0.1128
  638YOPC   NC3 9281   5.691   2.436   6.177 -0.0189 -0.0462 -0.0429
  638YOPC   PO4 9282   5.570   2.097   6.475 -0.3928 -0.0842  0.0111
  638YOPC   GL1 9283   5.539   2.123   6.906 -0.1008  0.0308  0.2399
  638YOPC   GL2 9284   5.809   1.880   7.161  0.3935  0.1973 -0.1964
  638YOPC   C1A 9285   5.409   2.178   7.300 -0.0965  0.2799  0.0974
  638YOPC   D2A 9286   5.571   2.183   7.678  0.0413  0.1412 -0.2322
  638YOPC   C3A 9287   5.501   2.525   7.900  0.1230 -0.2558  0.3277
  638YOPC   C4A 9288   5.335   2.867   8.284 -0.0725 -0.2667 -0.2887
  638YOPC   C1B 9289   5.885   1.788   7.629  0.1124  0.1742 -0.3241
  638YOPC   C2B 9290   5.564   1.730   7.852 -0.0845  0.2319  0.1936
  638YOPC   D3B 9291   5.447   2.047   8.147  0.0651 -0.0240 -0.0532
  638YOPC   C4B 9292   5.159   2.390   8.323  0.3970  0.1898 -0.0180
  639YOPC   NC3 9293   0.583  12.603   6.836 -0.1663 -0.4079 -0.0849
  639YOPC   PO4 9294   1.014  12.478   6.884  0.0315 -0.2282 -0.2149
  639YOPC   GL1 9295   1.042  12.466   7.297  0.1344 -0.1635 -0.0107
  639YOPC   GL2 9296   1.077  12.872   7.470  0.2454  0.0316  0.0313
  639YOPC   C1A 9297   0.862  12.373   7.719 -0.0648  0.3483 -0.0728
  639YOPC   D2A 9298   1.149  12.295   8.116  0.2427 -0.0444  0.1073
  639YOPC   C3A 9299   1.480  12.541   8.180  0.0131 -0.1579  0.0762
  639YOPC   C4A 9300   1.894  12.701   8.387 -0.0048 -0.2113 -0.2173
  639YOPC   C1B 9301   1.086  13.208   7.831  0.0060  0.0722  0.1030
  639YOPC   C2B 9302   0.895  13.371   8.150 -0.1578  0.1423 -0.0085
  639YOPC   D3B 9303   1.107  13.391   8.565 -0.0210  0.0706 -0.4062
  639YOPC   C4B 9304   1.262  13.566   9.045 -0.0337  0.2139 -0.0173
  640YOPC   NC3 9305  12.846  11.179   6.805 -0.3730  0.0359  0.2931
  640YOPC   PO4 9306  12.473  11.246   6.948  0.1577  0.0676 -0.3636
  640YOPC   GL1 9307  12.307  11.309   7.295  0.3275  0.0703  0.0594
  640YOPC   GL2 9308  12.266  11.631   7.413 -0.0743  0.0499  0.1916
  640YOPC   C1A 9309  12.059  11.262   7.712  0.1672 -0.1061  0.1612
  640YOPC   D2A 9310  11.932  11.457   8.199  0.0104  0.4114  0.3706
  640YOPC   C3A 9311  12.086  11.924   8.361 -0.1745  0.1521 -0.3411
  640YOPC   C4A 9312  12.252  12.287   8.514  0.1191  0.1491  0.1348
  640YOPC   C1B 9313  12.338  11.749   7.873  0.1319  0.0665  0.2924
  640YOPC   C2B 9314  12.409  11.525   8.306 -0.1023 -0.2829  0.1360
  640YOPC   D3B 9315  12.791  11.281   8.455 -0.2595  0.1787  0.1396
  640YOPC   C4B 9316  12.953  10.893   8.515  0.0091  0.1668 -0.1574
  641YOPC   NC3 9317   9.935  13.372   7.011 -0.0919  0.3384  0.2576
  641YOPC   PO4 9318   9.676  13.779   6.945  0.2541 -0.0630 -0.1046
  641YOPC   GL1 9319   9.773  13.753   7.444 -0.0951 -0.1730 -0.2943
  641YOPC   GL2 9320  10.088  13.593   7.424 -0.1076 -0.2976 -0.0716
  641YOPC   C1A 9321  10.011  13.882   7.778  0.1326 -0.3793 -0.3316
  641YOPC   D2A 9322  10.399  13.804   7.951 -0.2555 -0.0782  0.2898
  641YOPC   C3A 9323  10.542  13.806   8.383 -0.1897  0.1173 -0.0146
  641YOPC   C4A 9324  10.801  13.936   8.695  0.3171  0.1267  0.0775
  641YOPC   C1B 9325  10.276  13.277   7.788  0.2033  0.0758 -0.1971
  641YOPC   C2B 9326  10.504  13.035   8.107  0.1296  0.0898  0.0905
  641YOPC   D3B 9327  10.701  13.091   8.536  0.2161 -0.3001  0.0141
  641YOPC   C4B 9328  10.788  12.916   8.960  0.5057 -0.0355  0.2065
  642YOPC   NC3 9329   3.164   3.021   7.129 -0.2720  0.0425 -0.0834
  642YOPC   PO4 9330   2.860   3.210   7.015  0.1367  0.0248  0.1781
  642YOPC   GL1 9331   2.809   3.258   7.392 -0.0284  0.2067 -0.0067
  642YOPC   GL2 9332   3.105   3.311   7.597 -0.0034  0.1028  0.2455
  642YOPC   C1A 9333   2.685   3.588   7.697  0.1986 -0.0790 -0.1677
  642YOPC   D2A 9334   2.573   3.749   8.162 -0.1707 -0.0114  0.2488
  642YOPC   C3A 9335   2.427   3.825   8.550  0.1803 -0.3153 -0.2774
  642YOPC   C4A 9336   2.324   4.102   8.984 -0.0732  0.1324 -0.1341
  642YOPC   C1B 9337   3.239   3.007   7.841  0.2096 -0.3205  0.1794
  642YOPC   C2B 9338   3.470   2.656   8.110 -0.1646 -0.1373 -0.1139
  642YOPC   D3B 9339   3.613   2.800   8.476 -0.0736  0.0390 -0.1617
  642YOPC   C4B 9340   3.750   2.839   8.885 -0.1743  0.3125  0.0302
  643YOPC   NC3 9341  15.900   5.277   6.070 -0.2626  0.0935 -0.0637
  643YOPC   PO4 9342  15.679   5.229   6.405  0.1828  0.2024 -0.0988
  643YOPC   GL1 9343  15.596   5.376   6.804  0.4125 -0.3772  0.1000
  643YOPC   GL2 9344  15.711   5.668   6.943  0.2664 -0.1417 -0.1062
  643YOPC   C1A 9345  15.286   5.531   7.153 -0.1932 -0.2114 -0.2455
  643YOPC   D2A 9346  15.354   5.561   7.621 -0.1323  0.4015  0.2437
  643YOPC   C3A 9347  15.609   5.315   7.833 -0.1550  0.2028  0.1461
  643YOPC   C4A 9348  15.578   4.892   7.989  0.2530  0.0922  0.1094
  643YOPC   C1B 9349  15.696   5.789   7.349 -0.1647 -0.1722 -0.2419
  643YOPC   C2B 9350  15.947   5.645   7.718 -0.0867  0.1144 -0.1163
  643YOPC   D3B 9351  16.203   5.400   7.787 -0.1002 -0.0092  0.3371
  643YOPC   C4B 9352  16.330   5.139   7.428  0.1604 -0.1025  0.1062
  644YOPC   NC3 9353   3.136   3.972   5.910 -0.1767  0.1309  0.3537
  644YOPC   PO4 9354   3.118   4.230   6.285 -0.2355 -0.0633  0.1449
  644YOPC   GL1 9355   3.120   4.303   6.676 -0.1641  0.1088  0.0019
  644YOPC   GL2 9356   3.336   4.204   6.901  0.3189 -0.0970  0.1242
  644YOPC   C1A 9357   3.043   4.602   6.972 -0.1059  0.0821 -0.4353
  644YOPC   D2A 9358   2.831   4.673   7.343  0.1275 -0.0163  0.1730
  644YOPC   C3A 9359   2.803   4.587   7.721  0.3061 -0.2184  0.0156
  644YOPC   C4A 9360   2.860   4.800   8.133 -0.0073  0.2087 -0.0744
  644YOPC   C1B 9361   3.725   4.345   7.055 -0.0396  0.0526  0.1356
  644YOPC   C2B 9362   4.114   4.412   7.339 -0.0217 -0.0079 -0.2205
  644YOPC   D3B 9363   4.237   4.769   7.594  0.0249 -0.2855  0.4377
  644YOPC   C4B 9364   4.143   5.196   7.627  0.2148 -0.1813  0.0228
  645YOPC   NC3 9365  11.976  14.065   6.497  0.0643  0.2453  0.2457
  645YOPC   PO4 9366  11.985  14.172   6.863 -0.1443 -0.1135 -0.0484
  645YOPC   GL1 9367  12.000  14.016   7.264 -0.1913  0.1093 -0.1744
  645YOPC   GL2 9368  11.758  14.157   7.376 -0.1268 -0.1339  0.0960
  645YOPC   C1A 9369  12.004  13.728   7.694 -0.0650 -0.1211 -0.2221
  645YOPC   D2A 9370  12.065  13.554   8.080 -0.2338  0.0360  0.0588
  645YOPC   C3A 9371  12.022  13.741   8.535  0.1446 -0.0482 -0.1044
  645YOPC   C4A 9372  12.175  14.107   8.831  0.2295  0.1924  0.0924
  645YOPC   C1B 9373  11.881  14.213   7.773 -0.1388 -0.0140 -0.1783
  645YOPC   C2B 9374  11.978  14.167   8.228 -0.1128 -0.0815  0.0033
  645YOPC   D3B 9375  12.046  14.481   8.446  0.2235  0.1266  0.4807
  645YOPC   C4B 9376  12.206  14.860   8.589  0.3053 -0.2593  0.1566
  646YOPC   NC3 9377  14.972  15.967   7.148  0.0649 -0.1543 -0.1723
  646YOPC   PO4 9378  14.615  16.146   6.963 -0.0910 -0.3339  0.2639
  646YOPC   GL1 9379  14.611  16.312   7.397  0.0843 -0.0974 -0.1695
  646YOPC   GL2 9380  14.659  16.038   7.606 -0.0492  0.0745  0.1804
  646YOPC   C1A 9381  14.683  16.547   7.677  0.1879  0.2885 -0.0331
  646YOPC   D2A 9382  14.576  16.607   8.037  0.0277 -0.1322 -0.0726
  646YOPC   C3A 9383  14.377  16.787   8.292  0.1472  0.1102 -0.0997
  646YOPC   C4A 9384  14.027  16.788   8.667  0.2671  0.2464 -0.0364
  646YOPC   C1B 9385  14.839  16.156   7.947  0.1190  0.0819 -0.1933
  646YOPC   C2B 9386  14.799  16.292   8.347 -0.1000 -0.1703  0.0993
  646YOPC   D3B 9387  14.827  16.661   8.451 -0.2231 -0.2563  0.0417
  646YOPC   C4B 9388  15.096  16.743   8.706 -0.0795  0.0920  0.2113
  647YOPC   NC3 9389  10.789   1.985   6.736  0.2945  0.4727 -0.1632
  647YOPC   PO4 9390  10.559   2.310   6.547 -0.1536 -0.0681 -0.0278
  647YOPC   GL1 9391  10.467   2.693   6.823  0.0018  0.0595  0.3179
  647YOPC   GL2 9392  10.150   2.695   6.736 -0.0023  0.0411 -0.0956
  647YOPC   C1A 9393  10.396   2.765   7.225  0.1550  0.1228  0.1466
  647YOPC   D2A 9394  10.471   2.967   7.603  0.1087  0.1180  0.2431
  647YOPC   C3A 9395  10.417   2.698   7.939 -0.1833  0.0181  0.0213
  647YOPC   C4A 9396  10.199   2.352   7.953  0.0360 -0.1027  0.1667
  647YOPC   C1B 9397   9.925   2.967   7.026 -0.2324  0.1923  0.2461
  647YOPC   C2B 9398   9.945   3.146   7.442 -0.1817  0.2902 -0.1634
  647YOPC   D3B 9399   9.635   3.082   7.624  0.0123 -0.1688  0.0539
  647YOPC   C4B 9400   9.193   3.232   7.794  0.2135 -0.2873 -0.0456
  648YOPC   NC3 9401   6.171   4.716   6.367  0.0564 -0.0846 -0.1832
  648YOPC   PO4 9402   5.902   4.831   6.762  0.2732  0.0264  0.1050
  648YOPC   GL1 9403   6.193   4.924   7.125  0.0007 -0.0548 -0.0540
  648YOPC   GL2 9404   6.408   4.702   6.930 -0.0627 -0.0511 -0.0442
  648YOPC   C1A 9405   6.387   5.230   7.484 -0.2535  0.1863  0.1869
  648YOPC   D2A 9406   6.522   5.240   7.899 -0.1083 -0.2337  0.2132
  648YOPC   C3A 9407   6.510   5.448   8.273  0.0230  0.2130  0.0551
  648YOPC   C4A 9408   6.492   5.822   8.488 -0.2166  0.0027  0.3147
  648YOPC   C1B 9409   6.302   4.403   7.225 -0.1051  0.3260  0.1625
  648YOPC   C2B 9410   6.250   4.158   7.562  0.0270  0.0382 -0.4824
  648YOPC   D3B 9411   6.553   4.213   7.937 -0.0061  0.0483  0.0413
  648YOPC   C4B 9412   6.913   4.308   8.349 -0.0695  0.0226  0.0866
  649YOPC   NC3 9413   5.717   0.903   6.794 -0.2303 -0.0351 -0.0418
  649YOPC   PO4 9414   6.210   0.915   6.687  0.1767 -0.0286  0.0740
  649YOPC   GL1 9415   6.081   0.816   7.102  0.0533  0.0187 -0.0561
  649YOPC   GL2 9416   5.947   0.419   7.161  0.0882 -0.2508 -0.0968
  649YOPC   C1A 9417   6.069   0.682   7.542  0.0117  0.0367 -0.0994
  649YOPC   D2A 9418   5.874   0.766   8.008  0.1082  0.3875  0.0639
  649YOPC   C3A 9419   5.837   1.078   8.254  0.1796  0.0619  0.0840
  649YOPC   C4A 9420   5.926   1.160   8.667  0.1504 -0.2696 -0.2398
  649YOPC   C1B 9421   6.166   0.189   7.524  0.3360  0.0977 -0.0472
  649YOPC   C2B 9422   6.188   0.071   7.859 -0.1513 -0.0249 -0.1357
  649YOPC   D3B 9423   6.585   0.057   8.010  0.3058  0.1442 -0.1643
  649YOPC   C4B 9424   6.689   0.150   8.432  0.3610 -0.1232 -0.0001
  650YOPC   NC3 9425  10.532   1.225   6.508  0.0649  0.0457  0.1820
  650YOPC   PO4 9426  10.402   1.689   6.692 -0.3117  0.0971  0.0699
  650YOPC   GL1 9427  10.429   1.879   7.102 -0.0149 -0.2539  0.0480
  650YOPC   GL2 9428  10.392   2.238   7.019 -0.1619  0.0884 -0.2310
  650YOPC   C1A 9429  10.524   1.742   7.424 -0.0315 -0.0567 -0.0224
  650YOPC   D2A 9430  10.461   1.900   7.830  0.1925  0.0549 -0.1029
  650YOPC   C3A 9431  10.291   1.661   8.124  0.1346  0.1213 -0.1684
  650YOPC   C4A 9432  10.163   1.544   8.556 -0.1882  0.1568 -0.0057
  650YOPC   C1B 9433  10.474   2.303   7.496 -0.0357 -0.2088  0.0734
  650YOPC   C2B 9434  10.704   2.295   7.910 -0.2362 -0.2434 -0.2136
  650YOPC   D3B 9435  10.643   2.084   8.248  0.1378 -0.0231 -0.2995
  650YOPC   C4B 9436  10.817   1.646   8.161  0.1718 -0.0254  0.0989
  651YOPC   NC3 9437   6.123   3.936   6.533  0.3276  0.0452  0.0446
  651YOPC   PO4 9438   6.498   4.302   6.554  0.1259 -0.0209  0.0364
  651YOPC   GL1 9439   6.857   4.565   6.813  0.1659 -0.0322 -0.1552
  651YOPC   GL2 9440   6.889   4.880   6.859 -0.0650  0.3250 -0.1084
  651YOPC   C1A 9441   7.162   4.283   7.066 -0.0055 -0.1061 -0.4452
  651YOPC   D2A 9442   7.386   4.239   7.544  0.1820  0.2190 -0.0278
  651YOPC   C3A 9443   7.767   4.410   7.781 -0.2170 -0.1204  0.0385
  651YOPC   C4A 9444   8.003   4.767   7.756  0.0188  0.2779  0.0018
  651YOPC   C1B 9445   6.789   5.193   7.094  0.0797 -0.2081 -0.1859
  651YOPC   C2B 9446   6.879   5.364   7.521  0.2669 -0.1149  0.0940
  651YOPC   D3B 9447   6.977   5.072   7.855  0.0895  0.1715 -0.4184
  651YOPC   C4B 9448   7.199   4.816   8.094 -0.0149 -0.1521  0.0630
  652YOPC   NC3 9449   5.248   6.577   6.798 -0.1662 -0.1655  0.2192
  652YOPC   PO4 9450   5.456   7.062   6.852 -0.2262 -0.1213 -0.2613
  652YOPC   GL1 9451   5.379   7.437   7.241 -0.0999 -0.0755 -0.0516
  652YOPC   GL2 9452   5.193   7.650   7.238  0.1491  0.0924  0.0447
  652YOPC   C1A 9453   5.455   7.606   7.675 -0.1367  0.2899  0.3821
  652YOPC   D2A 9454   5.264   7.481   7.980  0.0170 -0.1675  0.0881
  652YOPC   C3A 9455   4.976   7.232   8.068  0.0404  0.0719  0.0916
  652YOPC   C4A 9456   4.901   6.990   8.358  0.1525  0.1462 -0.2923
  652YOPC   C1B 9457   4.953   7.458   7.605 -0.0289  0.2541 -0.0729
  652YOPC   C2B 9458   4.585   7.171   7.741  0.1249 -0.2962 -0.2110
  652YOPC   D3B 9459   4.362   7.147   8.093  0.1995  0.2205  0.2274
  652YOPC   C4B 9460   4.335   6.882   8.435  0.1974  0.2998 -0.0830
  653YOPC   NC3 9461  16.064  15.563   6.553 -0.0140  0.2584  0.3707
  653YOPC   PO4 9462  16.323  15.914   6.673 -0.0674 -0.0473  0.0523
  653YOPC   GL1 9463  16.488  16.042   7.105  0.1216 -0.0122 -0.0280
  653YOPC   GL2 9464  16.278  16.284   7.219 -0.2164 -0.2557 -0.2661
  653YOPC   C1A 9465  16.874  16.166   7.416  0.0504  0.3551  0.1639
  653YOPC   D2A 9466  16.983  16.057   7.800 -0.2421  0.4837  0.2674
  653YOPC   C3A 9467  16.606  16.165   8.049 -0.1692  0.0756  0.0252
  653YOPC   C4A 9468  16.172  16.252   8.199  0.0834 -0.3391  0.1783
  653YOPC   C1B 9469  16.518  16.431   7.593  0.1821 -0.1373 -0.1290
  653YOPC   C2B 9470  16.814  16.559   7.804  0.0525  0.2747 -0.2486
  653YOPC   D3B 9471  16.851  16.626   8.225  0.0301 -0.3743  0.0625
  653YOPC   C4B 9472  17.062  16.483   8.622 -0.2838 -0.1671  0.0274
  654YOPC   NC3 9473   4.453  14.517   6.660  0.1605  0.0277 -0.2017
  654YOPC   PO4 9474   4.085  14.353   6.861  0.0744 -0.2002 -0.1760
  654YOPC   GL1 9475   3.907  14.466   7.225  0.1574 -0.0744 -0.3194
  654YOPC   GL2 9476   3.721  14.344   7.428  0.0973  0.1111  0.0102
  654YOPC   C1A 9477   4.205  14.446   7.575  0.1296 -0.0774  0.0857
  654YOPC   D2A 9478   4.155  14.470   8.020  0.3255  0.0164  0.1369
  654YOPC   C3A 9479   4.174  14.408   8.446  0.0129 -0.0008 -0.1030
  654YOPC   C4A 9480   4.570  14.481   8.678  0.4359 -0.2916  0.2494
  654YOPC   C1B 9481   3.775  14.227   7.773 -0.2570  0.0099 -0.3085
  654YOPC   C2B 9482   3.579  13.890   8.089  0.1640 -0.1442  0.2537
  654YOPC   D3B 9483   3.406  13.982   8.439 -0.2174  0.0177 -0.0418
  654YOPC   C4B 9484   2.998  14.153   8.432 -0.1439  0.2109 -0.0168
  655YOPC   NC3 9485  17.303  15.040   6.816 -0.0753 -0.0099 -0.2360
  655YOPC   PO4 9486  17.221  14.743   7.004 -0.0217  0.1032  0.0399
  655YOPC   GL1 9487  17.149  14.980   7.356  0.2493 -0.1972 -0.1324
  655YOPC   GL2 9488  17.336  15.247   7.314 -0.2208  0.4632 -0.1869
  655YOPC   C1A 9489  17.197  15.068   7.822 -0.0076  0.3040 -0.0520
  655YOPC   D2A 9490  17.323  14.992   8.268  0.0894 -0.1601 -0.1742
  655YOPC   C3A 9491  17.113  15.256   8.551 -0.2112  0.1877  0.0762
  655YOPC   C4A 9492  16.979  15.743   8.727  0.0343  0.5352  0.2491
  655YOPC   C1B 9493  17.748  15.201   7.754  0.0431 -0.0506  0.1585
  655YOPC   C2B 9494  17.903  15.138   8.110  0.2781 -0.0985  0.1204
  655YOPC   D3B 9495  17.744  15.189   8.414 -0.0191 -0.1975 -0.0981
  655YOPC   C4B 9496  17.541  15.082   8.766  0.0505 -0.0511 -0.1033
  656YOPC   NC3 9497   8.116   5.480   6.290  0.1034 -0.0034  0.0617
  656YOPC   PO4 9498   7.967   5.097   6.116 -0.1048  0.3867 -0.0010
  656YOPC   GL1 9499   7.928   5.107   6.599  0.1401  0.1230  0.0369
  656YOPC   GL2 9500   7.948   4.747   6.892  0.0126  0.1940 -0.0546
  656YOPC   C1A 9501   7.780   5.372   6.918 -0.1731 -0.1836  0.0201
  656YOPC   D2A 9502   7.821   5.565   7.380  0.1515 -0.3295  0.0155
  656YOPC   C3A 9503   7.858   5.289   7.740 -0.2287 -0.1262  0.0274
  656YOPC   C4A 9504   8.039   5.169   8.106  0.0944  0.1356  0.0132
  656YOPC   C1B 9505   7.792   4.979   7.244 -0.2125 -0.1296 -0.0112
  656YOPC   C2B 9506   7.521   4.959   7.621 -0.3242  0.1004  0.0050
  656YOPC   D3B 9507   7.544   5.148   8.028  0.4178 -0.0558  0.0007
  656YOPC   C4B 9508   7.488   4.978   8.534 -0.0430 -0.1414  0.2839
  657YOPC   NC3 9509  12.665   5.608   6.565  0.0188  0.3138  0.2095
  657YOPC   PO4 9510  12.567   5.120   6.585 -0.0514  0.0887  0.2910
  657YOPC   GL1 9511  12.434   5.001   7.056  0.0833 -0.2754 -0.2289
  657YOPC   GL2 9512  12.239   5.355   7.234  0.1559 -0.4671  0.0116
  657YOPC   C1A 9513  12.249   4.863   7.466 -0.1247  0.0032  0.3763
  657YOPC   D2A 9514  12.083   4.696   7.736 -0.3489 -0.5924 -0.2997
  657YOPC   C3A 9515  12.227   4.811   8.122  0.1664 -0.2303 -0.1378
  657YOPC   C4A 9516  12.664   4.883   8.329 -0.2541 -0.1340  0.1300
  657YOPC   C1B 9517  12.406   5.515   7.575 -0.2266 -0.0559  0.2074
  657YOPC   C2B 9518  12.449   5.774   7.997 -0.0134  0.0531 -0.3127
  657YOPC   D3B 9519  12.413   6.177   8.066 -0.1211  0.0522 -0.0889
  657YOPC   C4B 9520  12.188   6.521   8.423  0.2577  0.2466  0.0501
  658YOPC   NC3 9521   2.300  11.851   6.717  0.1002  0.1301  0.1355
  658YOPC   PO4 9522   2.379  12.176   6.455  0.1247  0.2311  0.3650
  658YOPC   GL1 9523   2.471  12.288   6.947  0.0431  0.2204 -0.0102
  658YOPC   GL2 9524   2.711  12.150   7.039  0.2454 -0.1278 -0.1295
  658YOPC   C1A 9525   2.388  12.265   7.352  0.0125  0.0009  0.0322
  658YOPC   D2A 9526   2.376  12.370   7.784  0.1185 -0.0026  0.2087
  658YOPC   C3A 9527   2.543  12.153   8.238 -0.0720 -0.0800  0.2180
  658YOPC   C4A 9528   2.437  11.983   8.560 -0.1439  0.0403 -0.0098
  658YOPC   C1B 9529   2.939  12.264   7.443 -0.0742 -0.0733  0.1143
  658YOPC   C2B 9530   2.864  12.137   7.773 -0.0200  0.0450  0.1178
  658YOPC   D3B 9531   2.687  11.729   7.854  0.0117  0.2104 -0.1295
  658YOPC   C4B 9532   2.852  11.419   7.859  0.1850  0.2581 -0.2030
  659ERGO   ROH 9533   8.779   7.333  10.379  0.2897  0.0231  0.0215
  659ERGO    R1 9534   8.879   7.409  10.125  0.2491 -0.0207 -0.0083
  659ERGO    R2 9535   8.973   7.226   9.941  0.1746 -0.0587 -0.0132
  659ERGO    R3 9536   8.793   7.347   9.777  0.1593 -0.0396  0.0182
  659ERGO    R4 9537   8.996   7.235   9.597  0.0834 -0.0957 -0.0206
  659ERGO    R5 9538   8.927   7.442   9.603  0.1292 -0.0851 -0.0257
  659ERGO    C1 9539   8.841   7.355   9.242  0.0159 -0.0991  0.0047
  659ERGO    C2 9540   9.039   7.213   8.982  0.4256  0.2825  0.1086
  660ERGO   ROH 9541   3.350   8.759   6.840 -0.2174  0.0157 -0.1495
  660ERGO    R1 9542   3.318   8.901   7.083 -0.4705 -0.0783 -0.1267
  660ERGO    R2 9543   3.159   8.808   7.290 -0.1449 -0.5044 -0.0657
  660ERGO    R3 9544   3.387   8.840   7.435 -0.1519  0.0698 -0.1574
  660ERGO    R4 9545   3.186   8.754   7.630  0.1616 -0.7051 -0.1165
  660ERGO    R5 9546   3.312   8.931   7.643 -0.3503 -0.3098 -0.0444
  660ERGO    C1 9547   3.416   8.754   7.965  0.3336 -0.2830 -0.2321
  660ERGO    C2 9548   3.495   8.564   8.320  0.0151  0.2772  0.3615
  661ERGO   ROH 9549  10.973   1.002   7.048  0.0639 -0.0897 -0.1371
  661ERGO    R1 9550  11.117   1.042   7.289  0.1163  0.0013 -0.1826
  661ERGO    R2 9551  11.038   0.931   7.530  0.1068  0.1800 -0.0992
  661ERGO    R3 9552  11.291   0.833   7.530  0.0671  0.0779 -0.0815
  661ERGO    R4 9553  11.249   0.930   7.803  0.1009  0.1140 -0.0952
  661ERGO    R5 9554  11.414   0.983   7.671  0.1250  0.0361 -0.0911
  661ERGO    C1 9555  11.609   0.836   7.963  0.0602 -0.0203 -0.0762
  661ERGO    C2 9556  11.951   0.757   8.269  0.1357 -0.1612 -0.0494
  662ERGO   ROH 9557   9.515   9.448  10.888 -0.0653  0.2049  0.0881
  662ERGO    R1 9558   9.616   9.305  10.665 -0.0751  0.1503  0.1183
  662ERGO    R2 9559   9.452   9.199  10.469 -0.0777  0.1896  0.0975
  662ERGO    R3 9560   9.612   9.342  10.303  0.0018  0.1206  0.1146
  662ERGO    R4 9561   9.457   9.169  10.125  0.0551  0.0813  0.1085
  662ERGO    R5 9562   9.674   9.187  10.132  0.0537  0.0610  0.1874
  662ERGO    C1 9563   9.611   9.286   9.769  0.2070 -0.0466  0.1308
  662ERGO    C2 9564   9.709   9.302   9.481 -0.1259 -0.0738  0.2720
  663ERGO   ROH 9565  17.102  15.729   7.436 -0.0319  0.0397 -0.0476
  663ERGO    R1 9566  17.124  15.595   7.684  0.0327  0.0103 -0.0681
  663ERGO    R2 9567  17.368  15.534   7.799  0.0669 -0.0395 -0.1550
  663ERGO    R3 9568  17.263  15.667   8.012  0.1568 -0.0419 -0.1100
  663ERGO    R4 9569  17.466  15.488   8.128  0.1405 -0.0957 -0.1851
  663ERGO    R5 9570  17.256  15.503   8.187  0.1650 -0.0549 -0.1270
  663ERGO    C1 9571  17.425  15.586   8.519  0.2675 -0.1307 -0.1603
  663ERGO    C2 9572  17.688  15.591   8.780  0.1782 -0.1000 -0.1600
  664ERGO   ROH 9573   4.702   6.060  10.307 -0.2913 -0.0314  0.0461
  664ERGO    R1 9574   4.703   6.294  10.147 -0.1709  0.0449  0.1548
  664ERGO    R2 9575   4.608   6.297   9.887  0.0788  0.1520  0.0572
  664ERGO    R3 9576   4.455   6.501   9.980 -0.0437  0.0811  0.0104
  664ERGO    R4 9577   4.540   6.588   9.714  0.0791  0.1674  0.0841
  664ERGO    R5 9578   4.563   6.699   9.900 -0.0671  0.1345  0.1181
  664ERGO    C1 9579   4.355   6.949   9.701 -0.0359  0.1097  0.0558
  664ERGO    C2 9580   4.172   7.154   9.406  0.0303 -0.2281 -0.0061
  665ERGO   ROH 9581   8.342   5.506   6.738  0.0451  0.0718  0.0717
  665ERGO    R1 9582   8.303   5.453   7.013  0.0129 -0.0319  0.0479
  665ERGO    R2 9583   8.186   5.219   7.105 -0.0966 -0.0212 -0.0578
  665ERGO    R3 9584   8.414   5.202   7.253 -0.1075 -0.1889 -0.0593
  665ERGO    R4 9585   8.207   5.077   7.419 -0.2423  0.1489  0.0307
  665ERGO    R5 9586   8.341   5.239   7.478 -0.0549  0.0342 -0.0776
  665ERGO    C1 9587   8.433   4.978   7.741 -0.3376  0.0906  0.0808
  665ERGO    C2 9588   8.578   4.602   7.867 -0.1465  0.2783 -0.1825
  666ERGO   ROH 9589  15.533  15.321   7.467  0.2159 -0.3048 -0.0605
  666ERGO    R1 9590  15.643  15.171   7.681  0.2101 -0.2033  0.0148
  666ERGO    R2 9591  15.824  15.279   7.860  0.1010 -0.0769  0.0539
  666ERGO    R3 9592  15.644  15.191   8.045  0.0745 -0.1125  0.0106
  666ERGO    R4 9593  15.906  15.143   8.167  0.0558 -0.1859  0.0177
  666ERGO    R5 9594  15.747  14.997   8.140  0.0400 -0.1556 -0.0422
  666ERGO    C1 9595  15.785  14.982   8.519  0.0048 -0.2827 -0.0439
  666ERGO    C2 9596  15.825  14.808   8.866  0.1270  0.0217  0.1318
  667ERGO   ROH 9597   8.583   6.812   6.971 -0.1562  0.0578  0.2185
  667ERGO    R1 9598   8.583   6.722   7.240  0.0837 -0.0549  0.1871
  667ERGO    R2 9599   8.802   6.750   7.406  0.1207  0.2092  0.1219
  667ERGO    R3 9600   8.622   6.873   7.569 -0.0128 -0.1200  0.2242
  667ERGO    R4 9601   8.757   6.677   7.741  0.3076  0.0216  0.1052
  667ERGO    R5 9602   8.542   6.698   7.711  0.2791 -0.2812  0.1798
  667ERGO    C1 9603   8.562   6.750   8.089  0.2909 -0.3967  0.1915
  667ERGO    C2 9604   8.486   6.923   8.310  0.1684  0.3338 -0.1799
  668ERGO   ROH 9605   6.332   1.086  10.443  0.3552  0.0048 -0.0242
  668ERGO    R1 9606   6.185   1.051  10.203  0.1727  0.0942  0.0730
  668ERGO    R2 9607   6.256   1.176   9.966  0.2057 -0.0992 -0.0164
  668ERGO    R3 9608   6.252   0.922   9.869 -0.1866 -0.1388  0.0850
  668ERGO    R4 9609   6.123   1.084   9.661  0.2422  0.0291 -0.0721
  668ERGO    R5 9610   6.041   0.905   9.756 -0.1514  0.2041 -0.0513
  668ERGO    C1 9611   6.042   0.791   9.392 -0.1048  0.0666 -0.0095
  668ERGO    C2 9612   6.040   0.716   9.076  0.2248 -0.2405  0.1833
  669ERGO   ROH 9613  16.301  13.845   7.555  0.1063 -0.0988 -0.0921
  669ERGO    R1 9614  16.349  13.715   7.802  0.1966  0.0381 -0.0361
  669ERGO    R2 9615  16.407  13.853   8.035  0.0611  0.1804 -0.0841
  669ERGO    R3 9616  16.197  13.711   8.133  0.1712  0.0406 -0.0480
  669ERGO    R4 9617  16.304  13.856   8.365  0.0566  0.1851 -0.0856
  669ERGO    R5 9618  16.269  13.641   8.350  0.2253  0.1536 -0.0295
  669ERGO    C1 9619  16.047  13.724   8.649  0.1575  0.0567 -0.0526
  669ERGO    C2 9620  15.892  13.720   9.068 -0.0684  0.0640  0.0325
  670ERGO   ROH 9621   7.737  13.293  10.684 -0.1258 -0.0066 -0.1155
  670ERGO    R1 9622   7.932  13.221  10.492 -0.0890 -0.0811 -0.0509
  670ERGO    R2 9623   7.996  12.959  10.435 -0.1513 -0.1042 -0.0102
  670ERGO    R3 9624   7.940  13.034  10.180 -0.0502 -0.1086 -0.0341
  670ERGO    R4 9625   8.114  12.801  10.151 -0.0189 -0.0987  0.0413
  670ERGO    R5 9626   8.144  12.996  10.060  0.0051 -0.0950  0.0525
  670ERGO    C1 9627   8.131  12.780   9.747  0.1530 -0.0996  0.0488
  670ERGO    C2 9628   8.123  12.848   9.447 -0.0726  0.0456  0.2926
  671ERGO   ROH 9629  11.161  14.092   9.113 -0.0965 -0.0740 -0.0589
  671ERGO    R1 9630  10.918  14.237   9.133 -0.0925 -0.0557 -0.1460
  671ERGO    R2 9631  10.890  14.494   9.036 -0.0624 -0.0897 -0.2330
  671ERGO    R3 9632  10.679  14.386   8.903 -0.0502 -0.1174 -0.2330
  671ERGO    R4 9633  10.627  14.673   8.900 -0.0936 -0.1195 -0.2129
  671ERGO    R5 9634  10.491  14.518   8.969 -0.0692 -0.1480 -0.2159
  671ERGO    C1 9635  10.276  14.675   8.697 -0.1002 -0.1628 -0.2012
  671ERGO    C2 9636  10.057  14.705   8.431  0.0060  0.1800 -0.0094
  672ERGO   ROH 9637   9.617  16.186   7.121  0.1756 -0.2950  0.0384
  672ERGO    R1 9638   9.707  16.370   7.316 -0.0721 -0.1795  0.0468
  672ERGO    R2 9639   9.668  16.332   7.587  0.1077 -0.3232  0.0522
  672ERGO    R3 9640   9.937  16.366   7.598  0.0606  0.1597 -0.0497
  672ERGO    R4 9641   9.841  16.435   7.867  0.0593 -0.4094  0.1143
  672ERGO    R5 9642   9.966  16.558   7.738 -0.2299  0.0210  0.2189
  672ERGO    C1 9643  10.195  16.526   8.042 -0.0131 -0.0066  0.0548
  672ERGO    C2 9644  10.364  16.682   8.250  0.0680 -0.0675  0.1619
  673ERGO   ROH 9645  14.745   2.500  10.611  0.1939  0.0859  0.0088
  673ERGO    R1 9646  14.656   2.626  10.374  0.1851  0.1664  0.0546
  673ERGO    R2 9647  14.829   2.748  10.195  0.2003  0.0520 -0.0103
  673ERGO    R3 9648  14.708   2.584  10.016  0.0035  0.1498  0.0296
  673ERGO    R4 9649  14.760   2.830   9.867  0.2449  0.0718 -0.0150
  673ERGO    R5 9650  14.568   2.728   9.887  0.1390  0.2765  0.0239
  673ERGO    C1 9651  14.606   2.722   9.507  0.0861  0.1751  0.0195
  673ERGO    C2 9652  14.715   2.633   9.153 -0.1048 -0.1726 -0.2330
  674ERGO   ROH 9653  14.869   5.439  10.676 -0.1165 -0.1619  0.0038
  674ERGO    R1 9654  14.726   5.396  10.436 -0.1125 -0.0917 -0.0115
  674ERGO    R2 9655  14.637   5.604  10.276 -0.0624 -0.0455  0.0181
  674ERGO    R3 9656  14.774   5.470  10.083 -0.0780 -0.0404  0.0041
  674ERGO    R4 9657  14.606   5.662   9.937 -0.1307 -0.0773  0.0190
  674ERGO    R5 9658  14.616   5.447   9.904 -0.1054 -0.0774  0.0342
  674ERGO    C1 9659  14.716   5.570   9.558 -0.1852 -0.0911  0.0064
  674ERGO    C2 9660  14.630   5.723   9.270  0.2019  0.0306 -0.0308
  675ERGO   ROH 9661  13.631  16.197  10.767  0.0492  0.0384 -0.0407
  675ERGO    R1 9662  13.625  16.019  10.547  0.0946  0.0544 -0.0554
  675ERGO    R2 9663  13.434  16.035  10.348  0.0117 -0.0578  0.0112
  675ERGO    R3 9664  13.652  16.045  10.185 -0.0501  0.1086 -0.0622
  675ERGO    R4 9665  13.422  16.056  10.003 -0.1162  0.0260  0.0205
  675ERGO    R5 9666  13.589  15.916   9.994 -0.0404  0.1244 -0.0740
  675ERGO    C1 9667  13.620  16.078   9.650 -0.2484  0.2314 -0.0431
  675ERGO    C2 9668  13.520  16.017   9.339  0.1644 -0.1400  0.1265
  676ERGO   ROH 9669  12.139   0.153  10.842  0.2240 -0.3188  0.1095
  676ERGO    R1 9670  12.293   0.063  10.622  0.1898 -0.2419  0.0541
  676ERGO    R2 9671  12.192  -0.106  10.428  0.1506 -0.1511 -0.0055
  676ERGO    R3 9672  12.276   0.090  10.259  0.1502 -0.0883  0.0666
  676ERGO    R4 9673  12.179  -0.123  10.083 -0.0652  0.0722 -0.0110
  676ERGO    R5 9674  12.374  -0.027  10.076 -0.0200 -0.0248 -0.0676
  676ERGO    C1 9675  12.250   0.052   9.724 -0.1912  0.2612  0.0536
  676ERGO    C2 9676  12.259   0.009   9.425 -0.0527 -0.0603  0.0547
  677ERGO   ROH 9677  17.150   7.773   7.273  0.0335 -0.0587 -0.1000
  677ERGO    R1 9678  17.342   7.722   7.475 -0.0841  0.1425  0.0669
  677ERGO    R2 9679  17.310   7.808   7.736 -0.4801 -0.0278  0.0825
  677ERGO    R3 9680  17.350   7.545   7.793 -0.1312  0.0007 -0.0097
  677ERGO    R4 9681  17.382   7.683   8.050 -0.0594 -0.0212 -0.0059
  677ERGO    R5 9682  17.524   7.546   7.957  0.0168  0.1590 -0.1628
  677ERGO    C1 9683  17.461   7.364   8.286  0.5128  0.0094 -0.1439
  677ERGO    C2 9684  17.744   7.218   8.407  0.1797  0.1467  0.0501
  678ERGO   ROH 9685   7.162  16.443   7.112 -0.2316 -0.0665  0.1033
  678ERGO    R1 9686   7.185  16.657   7.296 -0.4099  0.1184 -0.0872
  678ERGO    R2 9687   6.968  16.761   7.430 -0.4507 -0.1754  0.0659
  678ERGO    R3 9688   7.120  16.710   7.650 -0.1092  0.2709 -0.0484
  678ERGO    R4 9689   6.897  16.874   7.749 -0.5932 -0.4236  0.1250
  678ERGO    R5 9690   7.110  16.914   7.777 -0.6659  0.2534 -0.0277
  678ERGO    C1 9691   6.998  16.891   8.141 -0.3556 -0.1489  0.0520
  678ERGO    C2 9692   6.963  16.818   8.418 -0.0269 -0.0101 -0.2928
  679ERGO   ROH 9693  10.554   1.365  10.792  0.0917  0.1739 -0.0274
  679ERGO    R1 9694  10.430   1.296  10.547  0.1054  0.1479 -0.0268
  679ERGO    R2 9695  10.265   1.469  10.409  0.0895  0.1228 -0.0392
  679ERGO    R3 9696  10.436   1.418  10.204  0.1003  0.1312 -0.0327
  679ERGO    R4 9697  10.202   1.541  10.077  0.0781  0.0679 -0.0493
  679ERGO    R5 9698  10.293   1.351  10.024  0.1157  0.0802 -0.0252
  679ERGO    C1 9699  10.326   1.535   9.691  0.0816  0.0440 -0.0491
  679ERGO    C2 9700  10.398   1.569   9.273 -0.1215  0.1324 -0.1591
  680ERGO   ROH 9701  11.934   7.351  10.628 -0.1047 -0.1627  0.0025
  680ERGO    R1 9702  11.824   7.307  10.371  0.0455 -0.2101 -0.0553
  680ERGO    R2 9703  11.778   7.513  10.192 -0.2024 -0.1915  0.0267
  680ERGO    R3 9704  11.928   7.359  10.026  0.0880  0.1081  0.0021
  680ERGO    R4 9705  11.748   7.506   9.848 -0.1515 -0.1480  0.0216
  680ERGO    R5 9706  11.776   7.290   9.855  0.2213 -0.1094 -0.0339
  680ERGO    C1 9707  11.872   7.358   9.492  0.1508  0.1586 -0.0045
  680ERGO    C2 9708  11.903   7.330   9.071 -0.1818  0.2736  0.0850
  681ERGO   ROH 9709   6.206   8.130   6.810 -0.0193  0.0152 -0.0682
  681ERGO    R1 9710   6.191   8.200   7.084 -0.0322  0.0909 -0.0871
  681ERGO    R2 9711   6.003   8.091   7.256 -0.0547  0.1516 -0.0678
  681ERGO    R3 9712   6.222   8.026   7.403 -0.0682  0.1728 -0.0398
  681ERGO    R4 9713   6.009   8.060   7.600 -0.0911  0.1536 -0.0676
  681ERGO    R5 9714   6.202   8.159   7.601 -0.1027  0.1698 -0.0438
  681ERGO    C1 9715   6.218   7.981   7.938 -0.1250  0.1746 -0.0412
  681ERGO    C2 9716   6.236   7.633   8.253  0.2217 -0.1480  0.1624
  682ERGO   ROH 9717   7.409  16.510  10.692 -0.0682  0.0690  0.0844
  682ERGO    R1 9718   7.352  16.471  10.418 -0.1016  0.0710  0.0900
  682ERGO    R2 9719   7.400  16.666  10.227 -0.1210  0.0745  0.0803
  682ERGO    R3 9720   7.540  16.466  10.107 -0.1364  0.0712  0.0708
  682ERGO    R4 9721   7.500  16.666   9.896 -0.2883 -0.0140  0.0300
  682ERGO    R5 9722   7.449  16.454   9.886 -0.2421 -0.0241  0.1234
  682ERGO    C1 9723   7.689  16.478   9.590 -0.4001 -0.0686 -0.0084
  682ERGO    C2 9724   7.906  16.379   9.326  0.0717 -0.3435 -0.0697
  683ERGO   ROH 9725   1.884   9.228   7.220 -0.1301 -0.0353 -0.0567
  683ERGO    R1 9726   1.924   9.099   7.469 -0.0023  0.0948 -0.0071
  683ERGO    R2 9727   1.933   9.236   7.708 -0.2185  0.1904 -0.0461
  683ERGO    R3 9728   1.738   9.061   7.780 -0.0087 -0.0410 -0.0284
  683ERGO    R4 9729   1.793   9.216   8.023 -0.3116  0.1549 -0.0899
  683ERGO    R5 9730   1.794   8.998   8.004 -0.0085  0.1479  0.0218
  683ERGO    C1 9731   1.527   9.039   8.274 -0.1688 -0.0829 -0.0989
  683ERGO    C2 9732   1.443   9.066   8.663  0.0065  0.2716 -0.0818
  684ERGO   ROH 9733  17.491   2.550   6.855 -0.0776  0.0116 -0.2005
  684ERGO    R1 9734  17.481   2.480   7.130  0.0400 -0.0117 -0.2001
  684ERGO    R2 9735  17.250   2.500   7.280  0.1692  0.2698 -0.0161
  684ERGO    R3 9736  17.301   2.239   7.335 -0.1231  0.1921 -0.1044
  684ERGO    R4 9737  17.142   2.332   7.562  0.0067  0.2848 -0.0696
  684ERGO    R5 9738  17.336   2.233   7.571 -0.1114  0.0648 -0.1158
  684ERGO    C1 9739  17.127   1.989   7.777 -0.3623  0.2206 -0.1836
  684ERGO    C2 9740  17.100   1.525   7.828 -0.0344  0.0561 -0.0800
  685ERGO   ROH 9741   6.838   6.963   6.587 -0.0864  0.1524  0.1344
  685ERGO    R1 9742   6.868   6.866   6.851  0.0002 -0.0587  0.0496
  685ERGO    R2 9743   7.001   6.630   6.908  0.1878 -0.0129 -0.1655
  685ERGO    R3 9744   7.145   6.790   7.075  0.0723 -0.0416 -0.0338
  685ERGO    R4 9745   6.996   6.611   7.254 -0.1218 -0.0124 -0.1672
  685ERGO    R5 9746   6.999   6.829   7.261 -0.0858 -0.0135 -0.1628
  685ERGO    C1 9747   7.129   6.749   7.611 -0.4104 -0.0391 -0.0446
  685ERGO    C2 9748   7.117   6.570   7.928  0.1076  0.0654 -0.3014
  686ERGO   ROH 9749  12.872  16.701   7.247  0.0458  0.0495  0.0060
  686ERGO    R1 9750  12.901  16.613   7.515 -0.0837  0.1661  0.0596
  686ERGO    R2 9751  13.097  16.434   7.592 -0.3087 -0.0347  0.1755
  686ERGO    R3 9752  13.158  16.628   7.772 -0.0806 -0.0040  0.0686
  686ERGO    R4 9753  13.262  16.382   7.892 -0.3638 -0.0668  0.2004
  686ERGO    R5 9754  13.126  16.524   7.985 -0.2003  0.1448  0.1266
  686ERGO    C1 9755  13.415  16.534   8.235 -0.1818 -0.0567  0.1145
  686ERGO    C2 9756  13.580  16.620   8.459 -0.0439 -0.1241  0.0571
  687ERGO   ROH 9757   5.414   7.618  10.137  0.1770 -0.1661 -0.0604
  687ERGO    R1 9758   5.224   7.577   9.931  0.0795 -0.2157  0.0377
  687ERGO    R2 9759   5.219   7.729   9.701 -0.2166 -0.0711  0.1320
  687ERGO    R3 9760   5.232   7.486   9.579 -0.0621  0.0147 -0.0256
  687ERGO    R4 9761   5.126   7.667   9.373 -0.0744  0.0960  0.0588
  687ERGO    R5 9762   5.038   7.479   9.439 -0.0086  0.0122 -0.0968
  687ERGO    C1 9763   5.085   7.403   9.068  0.1535  0.2739 -0.1318
  687ERGO    C2 9764   5.097   7.324   8.722 -0.0380  0.1592  0.0823
  688ERGO   ROH 9765  12.565   2.380  10.678 -0.1903  0.1278 -0.0556
  688ERGO    R1 9766  12.452   2.320  10.425 -0.0607  0.1263 -0.1126
  688ERGO    R2 9767  12.442   2.504  10.220  0.0847  0.1068 -0.1288
  688ERGO    R3 9768  12.567   2.308  10.080  0.1243  0.0756 -0.0526
  688ERGO    R4 9769  12.470   2.493   9.875 -0.0155 -0.0656 -0.1337
  688ERGO    R5 9770  12.433   2.279   9.884  0.0704 -0.0843 -0.0007
  688ERGO    C1 9771  12.604   2.302   9.544 -0.0367 -0.1953 -0.0650
  688ERGO    C2 9772  12.568   2.436   9.195  0.2407  0.1834 -0.1601
  689ERGO   ROH 9773  12.011   8.161   7.150 -0.1934  0.0946  0.0958
  689ERGO    R1 9774  12.226   8.072   7.312 -0.2769  0.1207  0.2226
  689ERGO    R2 9775  12.203   8.042   7.586 -0.5298 -0.1743  0.1751
  689ERGO    R3 9776  12.291   7.790   7.533 -0.2564 -0.0481  0.0049
  689ERGO    R4 9777  12.361   7.835   7.814 -0.3948 -0.1939  0.0647
  689ERGO    R5 9778  12.496   7.771   7.655 -0.2757  0.0653  0.0560
  689ERGO    C1 9779  12.535   7.478   7.896 -0.0595 -0.0870 -0.1593
  689ERGO    C2 9780  12.564   7.174   8.075  0.0271  0.2798 -0.1497
  690ERGO   ROH 9781   1.103  17.386  10.466 -0.1314  0.0344 -0.1064
  690ERGO    R1 9782   1.080  17.202  10.251 -0.0962 -0.0346 -0.0502
  690ERGO    R2 9783   0.843  17.161  10.116 -0.0445  0.0017 -0.1430
  690ERGO    R3 9784   0.995  17.218   9.898  0.0749 -0.1353 -0.0981
  690ERGO    R4 9785   0.742  17.118   9.788 -0.0517  0.2309 -0.1734
  690ERGO    R5 9786   0.942  17.044   9.742 -0.1338 -0.0257 -0.1582
  690ERGO    C1 9787   0.826  17.146   9.393  0.0561  0.2357 -0.1491
  690ERGO    C2 9788   0.622  17.024   9.080  0.1352 -0.0978 -0.0061
  691ERGO   ROH 9789   0.289   1.618  10.623 -0.2736 -0.2552  0.0672
  691ERGO    R1 9790   0.376   1.662  10.358 -0.1927 -0.1095  0.1184
  691ERGO    R2 9791   0.557   1.497  10.231 -0.0716  0.0282  0.1171
  691ERGO    R3 9792   0.363   1.483  10.041  0.0129  0.0154  0.0382
  691ERGO    R4 9793   0.614   1.446   9.894  0.0616 -0.1401  0.1616
  691ERGO    R5 9794   0.458   1.593   9.851  0.1361 -0.1050  0.0301
  691ERGO    C1 9795   0.464   1.404   9.520  0.2184 -0.2502  0.1134
  691ERGO    C2 9796   0.694   1.262   9.368 -0.1115 -0.0549 -0.3024
  692ERGO   ROH 9797  16.529  17.272   7.078  0.1165  0.0779 -0.0405
  692ERGO    R1 9798  16.588  17.438   7.299  0.1254  0.0013  0.0164
  692ERGO    R2 9799  16.429  17.447   7.525  0.0472  0.0359 -0.0340
  692ERGO    R3 9800  16.664  17.392   7.652 -0.0243 -0.1160  0.0330
  692ERGO    R4 9801  16.486  17.489   7.864  0.0149  0.0928 -0.0362
  692ERGO    R5 9802  16.685  17.565   7.816  0.0844 -0.0852 -0.0170
  692ERGO    C1 9803  16.739  17.462   8.179 -0.0712 -0.0169  0.0254
  692ERGO    C2 9804  16.709  17.466   8.585  0.1782  0.1996 -0.4904
  693ERGO   ROH 9805   9.609  11.659   7.645  0.0004 -0.0251 -0.1190
  693ERGO    R1 9806   9.784  11.440   7.688  0.0766  0.0277 -0.1594
  693ERGO    R2 9807  10.052  11.473   7.749  0.0122  0.1161  0.0835
  693ERGO    R3 9808   9.989  11.316   7.961 -0.0812 -0.0926 -0.0944
  693ERGO    R4 9809  10.280  11.305   7.948 -0.0617  0.0881  0.1456
  693ERGO    R5 9810  10.145  11.135   7.952  0.0309  0.0043 -0.1066
  693ERGO    C1 9811  10.353  11.060   8.263 -0.1923 -0.1241  0.0147
  693ERGO    C2 9812  10.620  10.995   8.495 -0.3966 -0.1696 -0.1706
  694ERGO   ROH 9813  13.576   2.743   6.743 -0.0359 -0.0312 -0.1412
  694ERGO    R1 9814  13.571   2.637   7.005 -0.0157 -0.0963 -0.1665
  694ERGO    R2 9815  13.631   2.790   7.228  0.1886 -0.1990 -0.1465
  694ERGO    R3 9816  13.388   2.702   7.313  0.1524 -0.0331 -0.0790
  694ERGO    R4 9817  13.503   2.840   7.545  0.1748  0.1572 -0.2050
  694ERGO    R5 9818  13.424   2.637   7.540  0.1075  0.1793 -0.0099
  694ERGO    C1 9819  13.200   2.788   7.809  0.1328  0.5204 -0.1757
  694ERGO    C2 9820  13.037   2.953   8.091 -0.3500  0.0079  0.0790
  695ERGO   ROH 9821  15.936  13.655   7.703  0.3083  0.0727  0.1006
  695ERGO    R1 9822  15.793  13.654   7.947  0.0326 -0.1153 -0.0586
  695ERGO    R2 9823  15.677  13.425   8.050  0.3658 -0.3092 -0.1156
  695ERGO    R3 9824  15.823  13.488   8.270 -0.0023  0.0624  0.0387
  695ERGO    R4 9825  15.595  13.337   8.374  0.2307 -0.4834 -0.1934
  695ERGO    R5 9826  15.660  13.534   8.439 -0.3020 -0.3083 -0.1306
  695ERGO    C1 9827  15.685  13.345   8.769 -0.1935 -0.2359 -0.0939
  695ERGO    C2 9828  15.692  13.254   9.124  0.1915 -0.1533  0.0730
  696ERGO   ROH 9829   0.181  11.527   7.260 -0.1363  0.1713  0.0928
  696ERGO    R1 9830   0.345  11.387   7.444 -0.0685  0.1239 -0.0011
  696ERGO    R2 9831   0.603  11.466   7.504 -0.0853  0.1814  0.0192
  696ERGO    R3 9832   0.510  11.460   7.760 -0.0646  0.0077  0.0226
  696ERGO    R4 9833   0.800  11.423   7.785 -0.0746 -0.0439 -0.0221
  696ERGO    R5 9834   0.645  11.294   7.868 -0.0793 -0.0834 -0.1042
  696ERGO    C1 9835   0.827  11.392   8.188 -0.0489 -0.3381 -0.0430
  696ERGO    C2 9836   0.870  11.387   8.506  0.6811  0.1385  0.0880
  697ERGO   ROH 9837   7.798   8.735   7.101  0.1195  0.0082  0.0837
  697ERGO    R1 9838   7.687   8.601   7.324  0.0848 -0.0583  0.0275
  697ERGO    R2 9839   7.840   8.451   7.499  0.0964  0.0776  0.1376
  697ERGO    R3 9840   7.727   8.612   7.686 -0.1481  0.0087  0.0525
  697ERGO    R4 9841   7.766   8.357   7.823  0.1279  0.1000  0.1508
  697ERGO    R5 9842   7.580   8.468   7.808 -0.0063 -0.1288  0.0640
  697ERGO    C1 9843   7.617   8.454   8.188 -0.0831  0.0484  0.0787
  697ERGO    C2 9844   7.845   8.433   8.460 -0.0488 -0.0375 -0.1360
  698ERGO   ROH 9845   8.425   2.457   8.502 -0.0697 -0.1623 -0.3450
  698ERGO    R1 9846   8.262   2.226   8.514 -0.0600 -0.1626 -0.1854
  698ERGO    R2 9847   8.343   1.995   8.641  0.0133 -0.1238 -0.1559
  698ERGO    R3 9848   8.108   2.024   8.774  0.0852 -0.0841 -0.0375
  698ERGO    R4 9849   8.180   1.742   8.811  0.0968 -0.0720  0.0017
  698ERGO    R5 9850   7.991   1.818   8.734  0.0584 -0.0910  0.0830
  698ERGO    C1 9851   7.865   1.622   9.036  0.2128 -0.0045  0.2044
  698ERGO    C2 9852   7.753   1.325   9.186  0.0940 -0.0785 -0.0754
  699ERGO   ROH 9853   1.446  16.032  10.831 -0.0641 -0.0823  0.0994
  699ERGO    R1 9854   1.468  16.198  10.603  0.1776 -0.0340  0.1552
  699ERGO    R2 9855   1.705  16.232  10.465  0.1980 -0.4621  0.0730
  699ERGO    R3 9856   1.555  16.156  10.252 -0.0517 -0.0805  0.1022
  699ERGO    R4 9857   1.771  16.319  10.137  0.2606 -0.4966  0.0758
  699ERGO    R5 9858   1.556  16.347  10.107  0.2995 -0.0302  0.1629
  699ERGO    C1 9859   1.668  16.298   9.746  0.0628 -0.1585  0.1051
  699ERGO    C2 9860   1.944  16.299   9.518  0.2983  0.0687  0.0879
  700ERGO   ROH 9861   4.022  13.928   7.200  0.0398  0.3192  0.4096
  700ERGO    R1 9862   4.041  13.844   7.470 -0.0701  0.1209  0.3577
  700ERGO    R2 9863   3.828  13.728   7.604 -0.0948 -0.0783  0.1548
  700ERGO    R3 9864   4.009  13.530   7.652 -0.0307 -0.0358  0.1002
  700ERGO    R4 9865   3.847  13.542   7.895  0.0389 -0.0719  0.1509
  700ERGO    R5 9866   4.064  13.553   7.883  0.0352 -0.0196  0.0842
  700ERGO    C1 9867   4.027  13.248   8.109  0.1769 -0.0280  0.0974
  700ERGO    C2 9868   3.881  13.075   8.426 -0.1947  0.2762 -0.0173
  701ERGO   ROH 9869   9.696   8.474   7.193 -0.3048 -0.2778  0.1035
  701ERGO    R1 9870   9.709   8.659   7.407 -0.1704 -0.1440 -0.0183
  701ERGO    R2 9871   9.628   8.595   7.664 -0.1228  0.0539  0.0445
  701ERGO    R3 9872   9.878   8.680   7.728 -0.0712 -0.0014 -0.0776
  701ERGO    R4 9873   9.747   8.634   7.986 -0.0184  0.1836 -0.0086
  701ERGO    R5 9874   9.847   8.817   7.922  0.0316  0.1168 -0.1394
  701ERGO    C1 9875  10.051   8.736   8.234  0.0907  0.2071 -0.1541
  701ERGO    C2 9876  10.370   8.810   8.514 -0.0291  0.1354 -0.2023
  702ERGO   ROH 9877   8.704   1.117   7.249 -0.2558  0.0149  0.0334
  702ERGO    R1 9878   8.859   1.116   7.485 -0.1774 -0.0487 -0.0174
  702ERGO    R2 9879   8.942   1.348   7.610 -0.0191 -0.0810 -0.0571
  702ERGO    R3 9880   8.822   1.237   7.826 -0.0052 -0.0088 -0.0124
  702ERGO    R4 9881   9.049   1.387   7.936  0.0995 -0.1151 -0.0914
  702ERGO    R5 9882   9.003   1.177   7.971  0.0082 -0.0888 -0.0648
  702ERGO    C1 9883   8.998   1.306   8.330  0.1817 -0.0671 -0.0693
  702ERGO    C2 9884   9.293   1.406   8.492 -0.1291  0.2521 -0.1954
  703ERGO   ROH 9885  15.026   5.324   6.735  0.0614 -0.0598 -0.0236
  703ERGO    R1 9886  14.852   5.337   6.958  0.1672  0.2571  0.0445
  703ERGO    R2 9887  14.824   5.129   7.137 -0.3228  0.1969 -0.0890
  703ERGO    R3 9888  14.885   5.321   7.320  0.2606 -0.0721  0.0246
  703ERGO    R4 9889  14.778   5.098   7.478 -0.5655  0.1892 -0.1198
  703ERGO    R5 9890  14.710   5.305   7.483  0.1242  0.4409 -0.0559
  703ERGO    C1 9891  14.808   5.261   7.849 -0.1592 -0.0678 -0.0311
  703ERGO    C2 9892  14.698   5.321   8.108 -0.0959 -0.0264  0.1486
  704ERGO   ROH 9893   0.345   0.990   8.625  0.1431 -0.0003 -0.0673
  704ERGO    R1 9894   0.097   0.885   8.711  0.0193  0.3498  0.0190
  704ERGO    R2 9895  -0.142   1.018   8.674  0.1165  0.4021 -0.4904
  704ERGO    R3 9896  -0.217   0.785   8.556  0.0808  0.1360  0.0287
  704ERGO    R4 9897  -0.469   0.915   8.628  0.0963  0.4253 -0.4003
  704ERGO    R5 9898  -0.408   0.713   8.681 -0.0105  0.5144  0.1190
  704ERGO    C1 9899  -0.729   0.636   8.491  0.0514  0.1891  0.1396
  704ERGO    C2 9900  -1.138   0.727   8.371  0.0695  0.0254  0.1041
  705ERGO   ROH 9901  16.439   2.034   7.108 -0.2021 -0.1085 -0.1511
  705ERGO    R1 9902  16.238   2.109   7.293 -0.1040 -0.0781 -0.0556
  705ERGO    R2 9903  16.050   1.931   7.389 -0.1695 -0.0203 -0.0679
  705ERGO    R3 9904  16.142   2.015   7.631 -0.0435 -0.1674 -0.0638
  705ERGO    R4 9905  15.871   1.914   7.684 -0.1429  0.1147 -0.0435
  705ERGO    R5 9906  15.949   2.110   7.737  0.0765  0.0191 -0.0144
  705ERGO    C1 9907  15.852   1.982   8.083 -0.0094  0.0552 -0.0254
  705ERGO    C2 9908  15.783   2.009   8.497  0.1635 -0.2618  0.1906
  706ERGO   ROH 9909  16.967  12.750  11.129 -0.3446 -0.1342  0.1457
  706ERGO    R1 9910  16.852  12.898  10.917 -0.3429 -0.0388  0.2114
  706ERGO    R2 9911  16.970  12.919  10.668 -0.2802  0.1761  0.2609
  706ERGO    R3 9912  16.729  12.828  10.582 -0.2190  0.1382  0.1264
  706ERGO    R4 9913  16.877  12.888  10.337 -0.1603  0.3701  0.2072
  706ERGO    R5 9914  16.679  12.962  10.390 -0.2102  0.2560  0.2014
  706ERGO    C1 9915  16.596  12.785  10.063 -0.0331  0.4474  0.0497
  706ERGO    C2 9916  16.598  12.808   9.717 -0.0449 -0.0498  0.0856
  707ERGO   ROH 9917  17.526  11.945  11.115  0.2063  0.0158  0.0653
  707ERGO    R1 9918  17.442  12.049  10.866  0.2779  0.1331  0.0905
  707ERGO    R2 9919  17.606  12.052  10.643  0.1884 -0.1875  0.0214
  707ERGO    R3 9920  17.397  11.921  10.528 -0.1005  0.1647  0.1234
  707ERGO    R4 9921  17.494  12.105  10.320  0.3799 -0.2575 -0.0587
  707ERGO    R5 9922  17.289  12.089  10.394  0.3097  0.2914 -0.0721
  707ERGO    C1 9923  17.233  12.013  10.024  0.2202  0.0323 -0.0095
  707ERGO    C2 9924  17.464  12.106   9.738 -0.2088 -0.0059 -0.0111
  708ERGO   ROH 9925   0.230  12.269   7.744 -0.0540  0.1413 -0.1491
  708ERGO    R1 9926   0.400  12.409   7.922 -0.1212  0.0842 -0.0386
  708ERGO    R2 9927   0.363  12.404   8.197 -0.1568 -0.0972 -0.0421
  708ERGO    R3 9928   0.622  12.323   8.197 -0.1329 -0.0186 -0.0621
  708ERGO    R4 9929   0.609  12.524   8.409 -0.2088 -0.1404  0.0421
  708ERGO    R5 9930   0.748  12.521   8.242 -0.1948 -0.0087  0.0561
  708ERGO    C1 9931   0.995  12.517   8.532 -0.2166 -0.0917  0.0724
  708ERGO    C2 9932   1.138  12.424   8.710 -0.0458  0.2716 -0.0209
  709ERGO   ROH 9933   0.899  11.797  10.570  0.0295  0.1500 -0.0404
  709ERGO    R1 9934   0.891  11.643  10.332  0.0748  0.0128  0.0454
  709ERGO    R2 9935   0.690  11.671  10.144  0.0154 -0.2171  0.0711
  709ERGO    R3 9936   0.899  11.709   9.974 -0.0440 -0.1781  0.0064
  709ERGO    R4 9937   0.676  11.628   9.802 -0.1885  0.1649  0.0268
  709ERGO    R5 9938   0.874  11.537   9.810 -0.2467  0.0162 -0.1719
  709ERGO    C1 9939   0.864  11.639   9.442 -0.3631  0.4239 -0.0601
  709ERGO    C2 9940   0.732  11.790   9.257  0.0773  0.3586  0.2677
  710ERGO   ROH 9941   9.823   6.499  10.647 -0.0427  0.1838  0.1897
  710ERGO    R1 9942   9.959   6.604  10.422  0.0141  0.1727  0.2199
  710ERGO    R2 9943  10.124   6.449  10.263  0.0002  0.1509  0.2331
  710ERGO    R3 9944   9.965   6.542  10.063  0.0543  0.2059  0.2138
  710ERGO    R4 9945  10.222   6.492   9.934  0.0535  0.1007  0.2415
  710ERGO    R5 9946  10.109   6.678   9.930  0.1235  0.1472  0.2239
  710ERGO    C1 9947  10.130   6.605   9.556  0.1353  0.1231  0.2282
  710ERGO    C2 9948  10.209   6.615   9.129  0.1750 -0.1971 -0.1888
  711ERGO   ROH 9949  15.335   6.624   7.267  0.2133  0.0383 -0.0851
  711ERGO    R1 9950  15.407   6.511   7.516  0.2159  0.0629 -0.0759
  711ERGO    R2 9951  15.538   6.654   7.713  0.0645  0.1246 -0.0240
  711ERGO    R3 9952  15.329   6.571   7.866  0.0809 -0.0242 -0.0910
  711ERGO    R4 9953  15.544   6.626   8.057 -0.0159  0.1150 -0.0225
  711ERGO    R5 9954  15.431   6.441   8.040  0.1188  0.0406 -0.0660
  711ERGO    C1 9955  15.353   6.532   8.402 -0.0474 -0.0304 -0.0846
  711ERGO    C2 9956  15.371   6.614   8.769 -0.3549  0.1839 -0.1123
  712ERGO   ROH 9957   8.682  11.964   7.813 -0.0287 -0.0566  0.0662
  712ERGO    R1 9958   8.838  11.933   8.047 -0.0192 -0.1276  0.0504
  712ERGO    R2 9959   8.777  12.061   8.285  0.0853 -0.0686  0.0438
  712ERGO    R3 9960   8.786  11.808   8.385 -0.0527 -0.0645  0.0697
  712ERGO    R4 9961   8.730  11.978   8.617  0.3489  0.0339  0.1092
  712ERGO    R5 9962   8.891  11.832   8.599  0.1962 -0.1269 -0.0393
  712ERGO    C1 9963   8.711  11.692   8.904  0.3728  0.0973  0.1716
  712ERGO    C2 9964   8.606  11.607   9.247  0.1399  0.1743  0.5417
  713ERGO   ROH 9965   2.630   5.199  10.437  0.1329  0.1244 -0.0633
  713ERGO    R1 9966   2.663   5.066  10.190 -0.1056  0.0707 -0.0669
  713ERGO    R2 9967   2.468   5.067   9.993 -0.1421  0.3492 -0.0261
  713ERGO    R3 9968   2.671   5.159   9.838 -0.0343  0.0515 -0.0720
  713ERGO    R4 9969   2.474   5.055   9.648 -0.2555  0.3570 -0.0296
  713ERGO    R5 9970   2.685   5.002   9.658 -0.3236  0.0314 -0.0865
  713ERGO    C1 9971   2.667   5.135   9.301 -0.2204  0.0820 -0.0748
  713ERGO    C2 9972   2.709   5.134   8.898  0.3865 -0.1164 -0.0568
  714ERGO   ROH 9973   4.792  14.872  10.720  0.1424 -0.3862 -0.0002
  714ERGO    R1 9974   4.681  14.870  10.459 -0.0037 -0.2672  0.0598
  714ERGO    R2 9975   4.806  14.990  10.244 -0.1284 -0.1717  0.0420
  714ERGO    R3 9976   4.778  14.744  10.132 -0.1907 -0.1158 -0.0551
  714ERGO    R4 9977   4.767  14.930   9.906 -0.1120 -0.0271  0.0136
  714ERGO    R5 9978   4.620  14.777   9.955 -0.1609  0.0001 -0.0599
  714ERGO    C1 9979   4.718  14.664   9.604 -0.1610  0.1094 -0.0942
  714ERGO    C2 9980   4.753  14.606   9.243  0.1910  0.0483  0.0315
  715ERGO   ROH 9981   0.821  12.769  10.789 -0.2227 -0.1241  0.0337
  715ERGO    R1 9982   0.828  12.659  10.529 -0.2151 -0.1700  0.0537
  715ERGO    R2 9983   0.607  12.654  10.363 -0.1578 -0.0188 -0.0250
  715ERGO    R3 9984   0.775  12.779  10.189  0.0052 -0.1800  0.0135
  715ERGO    R4 9985   0.577  12.645  10.019 -0.1490  0.0877 -0.0293
  715ERGO    R5 9986   0.794  12.626  10.006 -0.1653 -0.1686 -0.0177
  715ERGO    C1 9987   0.718  12.756   9.655  0.0092 -0.0016  0.0044
  715ERGO    C2 9988   0.651  12.870   9.427  0.0235  0.2175 -0.0311
  716ERGO   ROH 9989   4.471  14.663   7.249  0.0688  0.3123 -0.0425
  716ERGO    R1 9990   4.622  14.836   7.415 -0.1770  0.2779  0.2270
  716ERGO    R2 9991   4.580  14.855   7.688 -0.1268 -0.3016  0.2955
  716ERGO    R3 9992   4.845  14.800   7.700 -0.0206  0.1292  0.0845
  716ERGO    R4 9993   4.795  14.966   7.934 -0.1351 -0.1102  0.2163
  716ERGO    R5 9994   4.945  15.001   7.781 -0.2930  0.2371  0.1432
  716ERGO    C1 9995   5.170  14.979   8.089 -0.0401  0.4057 -0.0279
  716ERGO    C2 9996   5.269  15.054   8.549 -0.1118  0.0439 -0.2330
  717ERGO   ROH 9997  16.225   0.471  10.598  0.1596 -0.0393 -0.0462
  717ERGO    R1 9998  16.376   0.403  10.369  0.1286 -0.1628 -0.0313
  717ERGO    R2 9999  16.360   0.153  10.249 -0.0644 -0.1548 -0.0337
  717ERGO    R310000  16.305   0.299  10.027  0.0756 -0.1040 -0.0379
  717ERGO    R410001  16.329   0.024   9.931 -0.1969 -0.1311 -0.0302
  717ERGO    R510002  16.436   0.198   9.855 -0.0262 -0.2373 -0.0371
  717ERGO    C110003  16.258   0.086   9.536 -0.1427 -0.0696 -0.0322
  717ERGO    C210004  16.333   0.034   9.208  0.3168  0.0272  0.3592
  718ERGO   ROH10005   5.247   0.260  10.438 -0.1412 -0.1001  0.0028
  718ERGO    R110006   5.238   0.326  10.163  0.1216 -0.0234  0.0093
  718ERGO    R210007   5.362   0.173   9.969  0.0945 -0.1142  0.0580
  718ERGO    R310008   5.114   0.171   9.858  0.1643  0.1800 -0.1120
  718ERGO    R410009   5.296   0.145   9.631  0.2846 -0.2969  0.0343
  718ERGO    R510010   5.138   0.293   9.654  0.4958 -0.0290 -0.2019
  718ERGO    C110011   5.025   0.128   9.330  0.4608 -0.1272 -0.1389
  718ERGO    C210012   4.859   0.026   9.070 -0.1606 -0.3963  0.1540
  719ERGO   ROH10013  10.895   3.784   7.126 -0.0604 -0.1307 -0.0222
  719ERGO    R110014  10.887   3.884   7.391 -0.0928 -0.1959  0.0017
  719ERGO    R210015  10.813   3.729   7.606  0.0541 -0.2952 -0.0173
  719ERGO    R310016  11.052   3.809   7.707  0.0062 -0.1455 -0.0397
  719ERGO    R410017  10.904   3.707   7.939  0.1164 -0.2791 -0.0336
  719ERGO    R510018  10.997   3.904   7.920 -0.0258 -0.2169 -0.0198
  719ERGO    C110019  11.181   3.771   8.227  0.1078 -0.1291 -0.0640
  719ERGO    C210020  11.355   3.580   8.443  0.1514 -0.0717 -0.4262
  720ERGO   ROH10021   8.920   4.310  10.395 -0.2428 -0.0558 -0.0029
  720ERGO    R110022   9.043   4.368  10.147 -0.1333  0.0015  0.0639
  720ERGO    R210023   8.976   4.236   9.914 -0.0065  0.0321  0.0101
  720ERGO    R310024   8.937   4.488   9.820  0.0052  0.0418  0.0327
  720ERGO    R410025   8.968   4.323   9.579  0.0505  0.0674  0.0178
  720ERGO    R510026   9.081   4.503   9.629  0.0392  0.0647  0.0588
  720ERGO    C110027   8.926   4.610   9.297  0.0947  0.0972  0.0435
  720ERGO    C210028   8.890   4.577   9.006 -0.1192 -0.0428  0.1228
  721ERGO   ROH10029   8.065  16.030   7.217  0.0098 -0.1506  0.1299
  721ERGO    R110030   7.918  16.218   7.369  0.1056  0.0156  0.0166
  721ERGO    R210031   7.826  16.164   7.624 -0.2446  0.0878 -0.0960
  721ERGO    R310032   7.960  16.392   7.686 -0.0005 -0.1164  0.1011
  721ERGO    R410033   7.795  16.338   7.921 -0.3444  0.0725 -0.0960
  721ERGO    R510034   7.802  16.523   7.808  0.0442  0.0797 -0.0533
  721ERGO    C110035   7.903  16.653   8.152 -0.1733 -0.1280  0.0891
  721ERGO    C210036   7.963  16.893   8.526 -0.0154 -0.1224 -0.0152
  722ERGO   ROH10037  16.769  10.006  10.935 -0.1317 -0.3010  0.0316
  722ERGO    R110038  16.667  10.094  10.686 -0.1204 -0.2631  0.0413
  722ERGO    R210039  16.829  10.172  10.477 -0.1131 -0.2365  0.0623
  722ERGO    R310040  16.687   9.987  10.339 -0.1113 -0.2111  0.0247
  722ERGO    R410041  16.769  10.185  10.137  0.0201 -0.2443  0.0369
  722ERGO    R510042  16.565  10.115  10.176 -0.0168 -0.1879 -0.0323
  722ERGO    C110043  16.600  10.018   9.809  0.0994 -0.2251 -0.0131
  722ERGO    C210044  16.666  10.113   9.435 -0.2109 -0.5074  0.2475
  723ERGO   ROH10045   8.024   9.392  10.603 -0.1812  0.2232 -0.0095
  723ERGO    R110046   7.959   9.353  10.330 -0.2482  0.3917 -0.0193
  723ERGO    R210047   8.034   9.530  10.132  0.1866  0.2420  0.0011
  723ERGO    R310048   8.142   9.307  10.019 -0.3109 -0.0106 -0.0028
  723ERGO    R410049   8.081   9.484   9.793  0.2329  0.2133  0.0112
  723ERGO    R510050   8.017   9.277   9.817 -0.3006  0.3551 -0.0702
  723ERGO    C110051   8.209   9.249   9.489 -0.2071 -0.0404  0.0135
  723ERGO    C210052   8.194   9.355   9.119  0.2134  0.3250 -0.2517
  724ERGO   ROH10053   5.918  15.140  10.218 -0.3239  0.1656  0.1888
  724ERGO    R110054   5.889  15.000   9.973 -0.1572  0.1272  0.1894
  724ERGO    R210055   5.642  14.953   9.857 -0.0912 -0.0335  0.1103
  724ERGO    R310056   5.757  15.073   9.641 -0.0921  0.0201  0.1396
  724ERGO    R410057   5.564  14.883   9.528  0.1239 -0.1691  0.0867
  724ERGO    R510058   5.777  14.897   9.480  0.1350  0.0028  0.1840
  724ERGO    C110059   5.627  14.954   9.134  0.2482 -0.1978  0.1004
  724ERGO    C210060   5.567  14.729   8.799 -0.1206 -0.3138  0.0768
  725ERGO   ROH10061  16.911   3.501  10.692 -0.0243 -0.2166  0.0564
  725ERGO    R110062  16.941   3.655  10.456 -0.1422 -0.1224  0.1037
  725ERGO    R210063  17.128   3.597  10.262 -0.1009  0.0786  0.0879
  725ERGO    R310064  16.911   3.600  10.098 -0.1016 -0.0325  0.0846
  725ERGO    R410065  17.140   3.638   9.919 -0.1134  0.1969  0.1009
  725ERGO    R510066  16.964   3.765   9.933 -0.2149  0.0644  0.1380
  725ERGO    C110067  16.944   3.666   9.565 -0.1215  0.1614  0.1052
  725ERGO    C210068  16.760   3.549   9.157  0.2321 -0.2850 -0.0214
  726ERGO   ROH10069  13.954   4.893  10.793 -0.1565 -0.0749  0.1907
  726ERGO    R110070  13.935   5.009  10.536 -0.0037 -0.0022  0.2101
  726ERGO    R210071  14.146   5.011  10.357  0.0303 -0.1725  0.2407
  726ERGO    R310072  13.964   4.895  10.192 -0.0619  0.0354  0.1937
  726ERGO    R410073  14.159   5.022  10.012 -0.0289  0.0414  0.2440
  726ERGO    R510074  13.942   5.050  10.010 -0.0105  0.1620  0.2976
  726ERGO    C110075  13.996   4.919   9.656 -0.1498  0.3610  0.2020
  726ERGO    C210076  13.985   4.905   9.319  0.3349  0.1474 -0.2586
  727ERGO   ROH10077   3.500  14.848   7.453  0.1261  0.1951  0.0318
  727ERGO    R110078   3.687  14.871   7.664  0.1040  0.0672  0.0693
  727ERGO    R210079   3.630  15.005   7.899  0.1664  0.1539  0.0494
  727ERGO    R310080   3.705  14.770   8.013 -0.0632  0.0989  0.0843
  727ERGO    R410081   3.666  14.953   8.239  0.1727  0.1646  0.0484
  727ERGO    R510082   3.844  14.834   8.197  0.0317 -0.0262  0.0448
  727ERGO    C110083   3.757  14.701   8.543 -0.0391  0.1191  0.0805
  727ERGO    C210084   3.909  14.641   8.782 -0.1543 -0.1730 -0.2459
  728ERGO   ROH10085   7.817   6.005  10.312 -0.0789  0.1653  0.0959
  728ERGO    R110086   7.850   6.176  10.090 -0.0601  0.1888  0.1170
  728ERGO    R210087   8.064   6.157   9.917  0.0313  0.3019  0.2186
  728ERGO    R310088   7.869   6.140   9.728  0.1294  0.2108  0.1233
  728ERGO    R410089   8.114   6.198   9.577  0.1832  0.3160  0.2419
  728ERGO    R510090   7.927   6.309   9.568  0.1356  0.2346  0.1481
  728ERGO    C110091   7.961   6.206   9.202  0.3639  0.2388  0.1662
  728ERGO    C210092   7.984   6.352   8.910 -0.2821  0.2251 -0.1079
  729ERGO   ROH10093  13.159   6.367  10.822  0.0463  0.0130 -0.0858
  729ERGO    R110094  13.118   6.191  10.604 -0.0722  0.0303 -0.0787
  729ERGO    R210095  12.902   6.214  10.433 -0.0769  0.1473 -0.0604
  729ERGO    R310096  13.096   6.220  10.242 -0.0892  0.0361 -0.0767
  729ERGO    R410097  12.845   6.197  10.092 -0.1093  0.1293 -0.0538
  729ERGO    R510098  13.019   6.067  10.075 -0.1697  0.0497 -0.0512
  729ERGO    C110099  12.993   6.193   9.715 -0.1398  0.0146 -0.0653
  729ERGO    C210100  12.981   6.143   9.360  0.1958  0.0388  0.0580
  730ERGO   ROH10101   9.506  16.636  10.656  0.0915 -0.0362  0.0033
  730ERGO    R110102   9.417  16.525  10.411 -0.0899  0.0449  0.0306
  730ERGO    R210103   9.250  16.662  10.238  0.0672  0.2467  0.0285
  730ERGO    R310104   9.446  16.607  10.058 -0.0224 -0.0443  0.0163
  730ERGO    R410105   9.217  16.689   9.895  0.0302  0.0898  0.0198
  730ERGO    R510106   9.331  16.505   9.874 -0.1557 -0.0325  0.0956
  730ERGO    C110107   9.381  16.653   9.527 -0.0753 -0.2749  0.0031
  730ERGO    C210108   9.604  16.768   9.270 -0.1342 -0.0334  0.0314
  731ERGO   ROH10109  16.610   4.790  10.566 -0.1002 -0.1275  0.0784
  731ERGO    R110110  16.478   4.903  10.342 -0.1719 -0.2559  0.0556
  731ERGO    R210111  16.613   5.040  10.143 -0.2889  0.0659  0.1934
  731ERGO    R310112  16.488   4.862   9.981  0.1054 -0.0862  0.0404
  731ERGO    R410113  16.557   5.087   9.806 -0.1266  0.0843  0.1669
  731ERGO    R510114  16.359   4.998   9.831 -0.0099 -0.2406 -0.0037
  731ERGO    C110115  16.407   4.947   9.456  0.3379 -0.0478  0.0078
  731ERGO    C210116  16.463   4.991   9.121  0.0611 -0.1354 -0.1810
  732ERGO   ROH10117   1.712  13.551   7.241  0.0187  0.1857  0.0252
  732ERGO    R110118   1.556  13.619   7.467  0.0303  0.1808  0.0345
  732ERGO    R210119   1.512  13.444   7.676 -0.1027  0.1148 -0.0492
  732ERGO    R310120   1.609  13.649   7.826  0.0011 -0.0091  0.0563
  732ERGO    R410121   1.463  13.480   8.016 -0.2184  0.0419 -0.0576
  732ERGO    R510122   1.435  13.694   7.984 -0.0331  0.0787 -0.0028
  732ERGO    C110123   1.525  13.693   8.355 -0.1882 -0.1168  0.0367
  732ERGO    C210124   1.553  13.703   8.694 -0.0392 -0.0594  0.0495
  733ERGO   ROH10125   6.281  14.585   7.057  0.1109  0.2585  0.0086
  733ERGO    R110126   6.256  14.435   7.296 -0.0777  0.1043 -0.1056
  733ERGO    R210127   6.400  14.493   7.524  0.0005 -0.2521 -0.0590
  733ERGO    R310128   6.153  14.499   7.639  0.0054 -0.0282 -0.0551
  733ERGO    R410129   6.340  14.464   7.863 -0.0299 -0.3845 -0.0751
  733ERGO    R510130   6.167  14.339   7.817 -0.1821 -0.1542 -0.1503
  733ERGO    C110131   6.074  14.453   8.169 -0.0431 -0.2515 -0.0808
  733ERGO    C210132   6.205  14.494   8.480 -0.0040 -0.0362  0.1525
  734ERGO   ROH10133   1.405   9.646  10.588  0.2702 -0.2964  0.0927
  734ERGO    R110134   1.330   9.540  10.337  0.1884 -0.2039  0.0779
  734ERGO    R210135   1.196   9.690  10.147  0.1286 -0.1330  0.1753
  734ERGO    R310136   1.402   9.612   9.987  0.0765 -0.0771  0.0797
  734ERGO    R410137   1.190   9.693   9.801 -0.1094 -0.3316  0.1746
  734ERGO    R510138   1.296   9.502   9.802  0.0265 -0.2574  0.2123
  734ERGO    C110139   1.379   9.623   9.450 -0.2969 -0.3947  0.0844
  734ERGO    C210140   1.294   9.521   9.142 -0.0997 -0.1357 -0.3106
  735ERGO   ROH10141   5.969   6.154  10.200  0.1383  0.0256 -0.1454
  735ERGO    R110142   5.936   6.049   9.939  0.1423  0.0257 -0.1462
  735ERGO    R210143   5.811   6.189   9.737  0.1471  0.0272 -0.1496
  735ERGO    R310144   6.041   6.139   9.602  0.1497  0.0252 -0.1438
  735ERGO    R410145   5.838   6.166   9.393  0.1343 -0.0929 -0.1427
  735ERGO    R510146   5.975   5.998   9.420  0.1693 -0.0546 -0.0890
  735ERGO    C110147   6.070   6.105   9.067  0.1294 -0.1647 -0.1332
  735ERGO    C210148   6.084   6.118   8.765  0.1181  0.0313 -0.2725
  736ERGO   ROH10149   4.593  11.748   7.097  0.1005  0.1592 -0.0684
  736ERGO    R110150   4.411  11.712   7.311  0.0631  0.1676 -0.0996
  736ERGO    R210151   4.459  11.540   7.521  0.0122  0.1558 -0.1011
  736ERGO    R310152   4.413  11.761   7.671  0.0074  0.1517 -0.0964
  736ERGO    R410153   4.399  11.538   7.861 -0.1285  0.1337 -0.1250
  736ERGO    R510154   4.248  11.692   7.830 -0.0768  0.1765 -0.1714
  736ERGO    C110155   4.321  11.745   8.201 -0.2149  0.1170 -0.1344
  736ERGO    C210156   4.366  11.606   8.504 -0.0035 -0.2587  0.1072
  737ERGO   ROH10157  11.607   5.458   7.289  0.0210 -0.1668 -0.0802
  737ERGO    R110158  11.660   5.326   7.533  0.0971 -0.1343 -0.0785
  737ERGO    R210159  11.906   5.212   7.591  0.1697  0.0196 -0.0700
  737ERGO    R310160  11.890   5.369   7.813  0.0620  0.0114 -0.0720
  737ERGO    R410161  12.141   5.220   7.844 -0.0131 -0.0743  0.1048
  737ERGO    R510162  11.978   5.231   7.988 -0.1138 -0.0269 -0.0143
  737ERGO    C110163  12.263   5.371   8.200 -0.2208 -0.1367  0.2049
  737ERGO    C210164  12.592   5.382   8.386 -0.0484 -0.1037 -0.2570
  738ERGO   ROH10165   6.915   3.558  10.247  0.0917  0.0850 -0.0788
  738ERGO    R110166   6.783   3.453  10.020  0.1017 -0.0666 -0.0159
  738ERGO    R210167   6.756   3.596   9.785 -0.1356 -0.1123 -0.0163
  738ERGO    R310168   6.871   3.376   9.675  0.0391 -0.0095 -0.0458
  738ERGO    R410169   6.763   3.524   9.447 -0.2289 -0.1408 -0.0126
  738ERGO    R510170   6.724   3.315   9.496  0.0086 -0.1793  0.0320
  738ERGO    C110171   6.874   3.275   9.147 -0.1192 -0.0607 -0.0383
  738ERGO    C210172   6.899   3.059   8.906  0.0844  0.0208 -0.0115
  739ERGO   ROH10173   7.673   0.709  10.478  0.0327  0.1931 -0.0252
  739ERGO    R110174   7.521   0.646  10.248  0.0764  0.0640 -0.0215
  739ERGO    R210175   7.265   0.743  10.208 -0.0152 -0.1477 -0.0159
  739ERGO    R310176   7.370   0.830   9.973 -0.0859 -0.0579 -0.0131
  739ERGO    R410177   7.100   0.739   9.904 -0.0076 -0.2564 -0.0177
  739ERGO    R510178   7.286   0.676   9.809  0.0337 -0.1084 -0.0202
  739ERGO    C110179   7.103   0.818   9.506 -0.0694 -0.2353 -0.0162
  739ERGO    C210180   6.908   0.773   9.165 -0.3613 -0.0552 -0.0293
  740ERGO   ROH10181   5.056   5.740   7.127 -0.1136 -0.0607 -0.1141
  740ERGO    R110182   4.913   5.716   7.370 -0.0888 -0.2675 -0.1181
  740ERGO    R210183   4.913   5.484   7.521  0.3117 -0.2445 -0.0742
  740ERGO    R310184   4.993   5.652   7.719  0.0071 -0.0607 -0.1001
  740ERGO    R410185   4.892   5.415   7.858  0.2277 -0.1362 -0.0566
  740ERGO    R510186   4.831   5.621   7.892 -0.0462 -0.1924 -0.1700
  740ERGO    C110187   4.955   5.531   8.241 -0.1072  0.0995 -0.0707
  740ERGO    C210188   4.940   5.502   8.568  0.1082  0.2062  0.1111
  741ERGO   ROH10189   9.333  13.580  11.447 -0.1213  0.0230 -0.1484
  741ERGO    R110190   9.394  13.724  11.211  0.0436 -0.0336 -0.1431
  741ERGO    R210191   9.622  13.679  11.064  0.0787 -0.1712 -0.0562
  741ERGO    R310192   9.446  13.647  10.859  0.1340 -0.1022 -0.1136
  741ERGO    R410193   9.702  13.714  10.729  0.0751  0.3143 -0.0125
  741ERGO    R510194   9.510  13.815  10.700 -0.0217  0.1553  0.0928
  741ERGO    C110195   9.584  13.704  10.342  0.1250  0.6617 -0.0412
  741ERGO    C210196   9.815  13.467  10.095 -0.1344 -0.1289 -0.0767
  742ERGO   ROH10197   0.109  10.138   7.474  0.0423  0.1295 -0.0331
  742ERGO    R110198   0.253  10.049   7.700  0.0454  0.1505 -0.0273
  742ERGO    R210199   0.225  10.165   7.950  0.0437  0.1684 -0.0378
  742ERGO    R310200   0.173   9.909   8.027  0.0517  0.1729 -0.0157
  742ERGO    R410201   0.245  10.048   8.275  0.2630  0.1463 -0.0573
  742ERGO    R510202   0.334   9.865   8.198  0.1728  0.1326 -0.1365
  742ERGO    C110203   0.208   9.741   8.536  0.3982  0.1377 -0.0477
  742ERGO    C210204   0.135   9.874   8.777  0.1424  0.0492  0.2871
  743ERGO   ROH10205  13.922   3.420  10.784  0.1815  0.2511  0.1646
  743ERGO    R110206  13.870   3.479  10.512  0.1873  0.2538  0.1640
  743ERGO    R210207  14.017   3.665  10.369  0.3000  0.1334  0.1215
  743ERGO    R310208  14.051   3.457  10.197  0.1315  0.0866  0.1423
  743ERGO    R410209  14.033   3.693  10.025  0.0034  0.0458  0.0977
  743ERGO    R510210  13.914   3.511  10.009 -0.0283  0.0518  0.2469
  743ERGO    C110211  14.075   3.515   9.663 -0.3273 -0.0491  0.1035
  743ERGO    C210212  13.932   3.449   9.297 -0.0871 -0.1036 -0.0362
  744ERGO   ROH10213  16.614   6.170  10.983  0.1403  0.1576  0.0412
  744ERGO    R110214  16.507   6.158  10.721  0.1682 -0.0185  0.0382
  744ERGO    R210215  16.394   6.378  10.596  0.0778 -0.1369 -0.0724
  744ERGO    R310216  16.573   6.318  10.401  0.1163 -0.1422 -0.0380
  744ERGO    R410217  16.340   6.416  10.257  0.1236 -0.1505 -0.0828
  744ERGO    R510218  16.442   6.228  10.223  0.1392 -0.1572 -0.0563
  744ERGO    C110219  16.478   6.382   9.877  0.1866 -0.1633 -0.0564
  744ERGO    C210220  16.476   6.319   9.456  0.1494  0.2372  0.0585
  745ERGO   ROH10221   4.182   7.943   6.812  0.1308  0.0176  0.0896
  745ERGO    R110222   4.124   8.013   7.080 -0.1335 -0.0236  0.0469
  745ERGO    R210223   3.866   8.042   7.174 -0.2360 -0.2368 -0.1489
  745ERGO    R310224   3.949   7.863   7.361 -0.2249 -0.1669 -0.0863
  745ERGO    R410225   3.701   7.975   7.470 -0.0722  0.0581  0.0126
  745ERGO    R510226   3.894   7.967   7.570 -0.0134  0.0008 -0.1153
  745ERGO    C110227   3.683   7.769   7.819  0.0336  0.2953  0.1654
  745ERGO    C210228   3.714   7.709   8.176 -0.4212  0.0366  0.0786
  746ERGO   ROH10229  10.311   3.298  10.481  0.1721  0.0445  0.1408
  746ERGO    R110230  10.318   3.303  10.199  0.0243  0.0113  0.1358
  746ERGO    R210231  10.278   3.534  10.053  0.0632  0.0156  0.1356
  746ERGO    R310232  10.517   3.468   9.942 -0.0281 -0.1154  0.0111
  746ERGO    R410233  10.362   3.584   9.722  0.0104  0.2276  0.1528
  746ERGO    R510234  10.461   3.390   9.723 -0.1697  0.1273 -0.0452
  746ERGO    C110235  10.636   3.552   9.425 -0.1060  0.2282  0.0459
  746ERGO    C210236  10.716   3.485   9.115  0.1251  0.1307 -0.0445
  747ERGO   ROH10237  17.080  12.454   7.552  0.2216 -0.2318 -0.1263
  747ERGO    R110238  17.106  12.585   7.802  0.1964 -0.2796 -0.1000
  747ERGO    R210239  16.905  12.585   7.991  0.1301 -0.2066 -0.1789
  747ERGO    R310240  17.102  12.490   8.153  0.0219 -0.3235 -0.1112
  747ERGO    R410241  16.882  12.561   8.335  0.0139 -0.1338 -0.1795
  747ERGO    R510242  17.090  12.628   8.348  0.0653 -0.2778 -0.1353
  747ERGO    C110243  17.054  12.457   8.687 -0.1554 -0.2012 -0.1164
  747ERGO    C210244  16.985  12.317   8.956 -0.2552  0.2058  0.0667
  748ERGO   ROH10245   2.352   7.288   7.000  0.0472 -0.0399  0.0772
  748ERGO    R110246   2.251   7.223   7.257 -0.0507 -0.0056  0.0480
  748ERGO    R210247   2.365   7.317   7.490 -0.0090 -0.1469  0.0855
  748ERGO    R310248   2.112   7.403   7.541  0.0545  0.0566  0.0601
  748ERGO    R410249   2.240   7.391   7.804 -0.0374 -0.2314  0.0943
  748ERGO    R510250   2.053   7.296   7.746 -0.1091 -0.0209 -0.0260
  748ERGO    C110251   1.930   7.515   8.034  0.0057 -0.0895  0.0756
  748ERGO    C210252   1.631   7.605   8.213  0.1666 -0.1222 -0.1666
  749ERGO   ROH10253   2.759  15.996  10.625 -0.1188  0.2440  0.1979
  749ERGO    R110254   2.706  16.108  10.370  0.0785  0.2457  0.1573
  749ERGO    R210255   2.890  16.265  10.236  0.3090 -0.0236  0.1552
  749ERGO    R310256   2.850  16.085  10.037  0.1215 -0.0247  0.1917
  749ERGO    R410257   2.915  16.335   9.898 -0.2069  0.0290  0.1188
  749ERGO    R510258   2.740  16.210   9.865 -0.1938 -0.0622  0.3555
  749ERGO    C110259   2.892  16.206   9.515 -0.6834  0.0589  0.1318
  749ERGO    C210260   2.759  16.288   9.195  0.2344 -0.2237  0.1267
  750ERGO   ROH10261  11.082   4.839   7.028  0.2655  0.1591 -0.0530
  750ERGO    R110262  10.937   4.818   7.271  0.0668  0.2014 -0.1675
  750ERGO    R210263  11.017   4.654   7.478 -0.2080  0.0950 -0.1510
  750ERGO    R310264  11.001   4.884   7.623 -0.1564  0.0675 -0.0985
  750ERGO    R410265  11.051   4.673   7.822 -0.0619  0.0169 -0.1595
  750ERGO    R510266  10.888   4.818   7.825 -0.0725  0.0146 -0.0621
  750ERGO    C110267  11.056   4.899   8.158  0.0715 -0.0543 -0.1152
  750ERGO    C210268  11.026   5.080   8.514  0.1531 -0.3696 -0.0166
  751ERGO   ROH10269   2.408  15.665   7.097 -0.0669  0.1392 -0.1567
  751ERGO    R110270   2.537  15.703   7.347 -0.0701  0.0486 -0.1416
  751ERGO    R210271   2.527  15.943   7.484 -0.0431  0.0065 -0.0761
  751ERGO    R310272   2.436  15.786   7.686 -0.0685 -0.0378 -0.1175
  751ERGO    R410273   2.470  16.050   7.808 -0.0378 -0.0605 -0.0521
  751ERGO    R510274   2.554  15.863   7.880 -0.0585 -0.0953 -0.0944
  751ERGO    C110275   2.351  15.965   8.186 -0.0586 -0.1410 -0.0770
  751ERGO    C210276   2.352  16.127   8.524 -0.1353 -0.0987 -0.1228
  752ERGO   ROH10277   8.289  14.358   7.515  0.1596  0.1739 -0.1421
  752ERGO    R110278   8.401  14.517   7.721  0.1453  0.1333 -0.1025
  752ERGO    R210279   8.255  14.602   7.940  0.1077  0.1590 -0.1366
  752ERGO    R310280   8.457  14.485   8.079  0.0396  0.0981 -0.0889
  752ERGO    R410281   8.255  14.550   8.281  0.1301  0.4137 -0.0958
  752ERGO    R510282   8.466  14.606   8.285  0.1778  0.2462 -0.1802
  752ERGO    C110283   8.445  14.409   8.611  0.0794  0.5048 -0.0272
  752ERGO    C210284   8.574  14.391   8.986 -0.1789  0.0777  0.0805
  753ERGO   ROH10285  14.056   3.941   7.004  0.0139  0.1139 -0.0200
  753ERGO    R110286  14.177   3.916   7.259  0.0765 -0.0267 -0.0622
  753ERGO    R210287  14.088   4.055   7.481  0.3454  0.1150 -0.0334
  753ERGO    R310288  14.074   3.807   7.591  0.0507  0.1403 -0.0176
  753ERGO    R410289  14.141   3.982   7.815  0.4553  0.0255 -0.0706
  753ERGO    R510290  14.248   3.803   7.754  0.1448 -0.1266 -0.1339
  753ERGO    C110291  14.159   3.706   8.112  0.2427 -0.0028 -0.0775
  753ERGO    C210292  14.148   3.831   8.470  0.3004 -0.0926 -0.2181
  754ERGO   ROH10293  10.742  12.529   7.235  0.0237 -0.1915  0.0846
  754ERGO    R110294  10.724  12.439   7.502  0.0706 -0.0204  0.1460
  754ERGO    R210295  10.873  12.549   7.707 -0.1065  0.3062  0.1006
  754ERGO    R310296  10.630  12.582   7.824 -0.1736  0.1017  0.0256
  754ERGO    R410297  10.819  12.555   8.048 -0.2151  0.1773  0.0866
  754ERGO    R510298  10.637  12.438   8.015 -0.1278  0.0502 -0.0075
  754ERGO    C110299  10.559  12.590   8.356 -0.3411 -0.0897  0.0081
  754ERGO    C210300  10.618  12.585   8.646 -0.0900  0.1283 -0.2867
  755ERGO   ROH10301  14.436   9.990   7.243 -0.0050  0.0793 -0.1206
  755ERGO    R110302  14.466  10.145   7.478 -0.0876  0.0151 -0.0675
  755ERGO    R210303  14.378  10.058   7.725 -0.0545 -0.1105 -0.0990
  755ERGO    R310304  14.635  10.110   7.798 -0.0814 -0.0110 -0.0737
  755ERGO    R410305  14.520   9.968   8.027 -0.0504 -0.0490 -0.0823
  755ERGO    R510306  14.621  10.161   8.032 -0.1243 -0.0104 -0.0764
  755ERGO    C110307  14.843   9.964   8.271 -0.0733  0.0803 -0.0488
  755ERGO    C210308  14.985   9.853   8.474 -0.1838 -0.1489  0.1768
  756ERGO   ROH10309  13.532   2.447  10.711 -0.0245 -0.0379  0.0938
  756ERGO    R110310  13.497   2.554  10.450 -0.0654 -0.0265  0.1033
  756ERGO    R210311  13.708   2.593  10.276 -0.0588  0.2095  0.1592
  756ERGO    R310312  13.555   2.442  10.109  0.1275  0.0876  0.0970
  756ERGO    R410313  13.719   2.606   9.931 -0.0965  0.3986  0.1652
  756ERGO    R510314  13.502   2.589   9.928 -0.0781  0.1125  0.1735
  756ERGO    C110315  13.583   2.473   9.573  0.0565  0.3942  0.1103
  756ERGO    C210316  13.611   2.511   9.318 -0.2052  0.1208  0.0584
  757ERGO   ROH10317   0.936  17.021   6.972 -0.0474  0.0914  0.0721
  757ERGO    R110318   0.926  16.957   7.248 -0.1730  0.1786  0.0871
  757ERGO    R210319   1.124  17.033   7.425 -0.1112 -0.0176  0.0957
  757ERGO    R310320   0.915  17.143   7.561 -0.0001  0.2771  0.0378
  757ERGO    R410321   1.126  17.111   7.762 -0.1604 -0.2459  0.1515
  757ERGO    R510322   0.921  17.037   7.775 -0.3170  0.1129 -0.0230
  757ERGO    C110323   0.932  17.259   8.085 -0.0848 -0.1026  0.1297
  757ERGO    C210324   0.796  17.399   8.436  0.1509 -0.3254  0.0597
  758ERGO   ROH10325   4.754   1.843  10.505 -0.3139 -0.1358 -0.2020
  758ERGO    R110326   4.728   1.764  10.235 -0.0412 -0.2523 -0.1966
  758ERGO    R210327   4.639   1.935  10.037 -0.1330 -0.4221 -0.3052
  758ERGO    R310328   4.872   1.863   9.915  0.0401 -0.1681 -0.1343
  758ERGO    R410329   4.687   1.919   9.695  0.0802 -0.5503 -0.2713
  758ERGO    R510330   4.802   1.736   9.724  0.3222 -0.3761 -0.1050
  758ERGO    C110331   4.933   1.842   9.382  0.3668 -0.3866 -0.0913
  758ERGO    C210332   4.959   1.920   9.021 -0.1147  0.1128 -0.2994
  759ERGO   ROH10333   1.278   5.491  10.523  0.1279 -0.0867  0.0648
  759ERGO    R110334   1.415   5.469  10.276  0.1276 -0.2013  0.0746
  759ERGO    R210335   1.399   5.244  10.116 -0.1943 -0.1211 -0.0111
  759ERGO    R310336   1.325   5.424   9.926  0.1000  0.0672  0.0443
  759ERGO    R410337   1.395   5.182   9.777 -0.5045 -0.0907 -0.0162
  759ERGO    R510338   1.474   5.382   9.744 -0.0750 -0.2503 -0.0358
  759ERGO    C110339   1.323   5.314   9.400 -0.4088  0.1037  0.0328
  759ERGO    C210340   1.318   5.491   9.065 -0.1209 -0.2113 -0.1984
  760ERGO   ROH10341   9.859   6.008   6.925  0.0123 -0.0751 -0.0607
  760ERGO    R110342   9.646   6.074   7.099  0.0475 -0.0017 -0.0463
  760ERGO    R210343   9.512   5.885   7.249  0.0063  0.0483 -0.0248
  760ERGO    R310344   9.578   6.050   7.455  0.0700  0.0410 -0.0382
  760ERGO    R410345   9.426   5.832   7.580 -0.0606  0.1315 -0.0278
  760ERGO    R510346   9.386   6.046   7.599  0.0482  0.1581 -0.0594
  760ERGO    C110347   9.438   5.956   7.966 -0.0397  0.1732 -0.0421
  760ERGO    C210348   9.597   5.937   8.239 -0.0938  0.1769 -0.2781
  761ERGO   ROH10349   7.236   1.736   7.371 -0.0880  0.0809 -0.0734
  761ERGO    R110350   6.984   1.644   7.460  0.0550 -0.3661 -0.0964
  761ERGO    R210351   6.954   1.414   7.612  0.5125 -0.1369  0.4066
  761ERGO    R310352   6.823   1.582   7.781 -0.0467 -0.0477 -0.0891
  761ERGO    R410353   6.748   1.314   7.871  0.2544  0.0102  0.2580
  761ERGO    R510354   6.612   1.476   7.819  0.0689 -0.3083 -0.2416
  761ERGO    C110355   6.505   1.414   8.180 -0.4208  0.1796 -0.2938
  761ERGO    C210356   6.323   1.490   8.403 -0.4277  0.1022 -0.0008
  762ERGO   ROH10357   4.403   0.697  10.364 -0.3420 -0.3974  0.0454
  762ERGO    R110358   4.435   0.836  10.120 -0.1203 -0.2020  0.1815
  762ERGO    R210359   4.354   0.731   9.877  0.1600 -0.0394  0.0147
  762ERGO    R310360   4.217   0.965   9.858  0.1198 -0.0596  0.0471
  762ERGO    R410361   4.245   0.872   9.581 -0.0132 -0.1076  0.0444
  762ERGO    R510362   4.302   1.067   9.659  0.0045 -0.0844 -0.0186
  762ERGO    C110363   4.053   1.173   9.390 -0.1518 -0.1662  0.0919
  762ERGO    C210364   3.831   1.185   9.022 -0.0123  0.3604  0.2134
  763ERGO   ROH10365   2.626   9.813  10.271 -0.2945  0.1478  0.0535
  763ERGO    R110366   2.467   9.722  10.056 -0.0676 -0.0816 -0.0199
  763ERGO    R210367   2.298   9.888   9.914 -0.2150 -0.3217 -0.1155
  763ERGO    R310368   2.437   9.794   9.700  0.0081 -0.1575 -0.0437
  763ERGO    R410369   2.236   9.974   9.585 -0.2246 -0.4495 -0.1483
  763ERGO    R510370   2.271   9.766   9.530  0.0994 -0.4198 -0.1039
  763ERGO    C110371   2.330   9.935   9.193 -0.0208 -0.3696 -0.0998
  763ERGO    C210372   2.284  10.132   8.956  0.1429 -0.2532 -0.0591
  764ERGO   ROH10373  13.998   0.711  10.652  0.1768 -0.2732  0.0195
  764ERGO    R110374  13.934   0.814  10.396  0.0022 -0.1713  0.1023
  764ERGO    R210375  14.123   0.844  10.196 -0.1086  0.0174  0.0215
  764ERGO    R310376  13.946   0.696  10.052 -0.1124  0.0084  0.0351
  764ERGO    R410377  14.078   0.867   9.855 -0.1158 -0.0077  0.0211
  764ERGO    R510378  13.863   0.847   9.886 -0.1147 -0.0039  0.0261
  764ERGO    C110379  13.886   0.741   9.520 -0.1235 -0.0307  0.0335
  764ERGO    C210380  13.921   0.667   9.143 -0.6457 -0.1011 -0.0616
  765ERGO   ROH10381  16.693   1.314  10.706  0.2581  0.0637 -0.0720
  765ERGO    R110382  16.659   1.200  10.450 -0.0719  0.1279 -0.0604
  765ERGO    R210383  16.517   1.325  10.249  0.2018  0.4796 -0.0412
  765ERGO    R310384  16.746   1.287  10.107  0.0978 -0.1052 -0.0804
  765ERGO    R410385  16.532   1.270   9.908  0.0002  0.5271 -0.0594
  765ERGO    R510386  16.688   1.122   9.944 -0.3796  0.0807 -0.1194
  765ERGO    C110387  16.756   1.201   9.577 -0.2147  0.0059 -0.1067
  765ERGO    C210388  16.737   1.424   9.234 -0.0488 -0.1411  0.2057
  766ERGO   ROH10389   7.725   3.018  10.210 -0.2509 -0.0814  0.1471
  766ERGO    R110390   7.690   2.995   9.929 -0.2322 -0.0538  0.1410
  766ERGO    R210391   7.724   3.209   9.757 -0.1713 -0.0420  0.1531
  766ERGO    R310392   7.897   3.041   9.634 -0.1942 -0.0736  0.1677
  766ERGO    R410393   7.784   3.200   9.417  0.0027  0.0582  0.1815
  766ERGO    R510394   7.790   2.984   9.428 -0.1089  0.0605  0.0934
  766ERGO    C110395   7.982   3.037   9.103  0.0825  0.0869  0.2118
  766ERGO    C210396   8.179   3.252   8.899  0.0876 -0.0527  0.1802
  767ERGO   ROH10397  12.134   3.057   7.105  0.1231  0.0593 -0.1045
  767ERGO    R110398  12.201   3.137   7.368  0.3450 -0.0029 -0.1412
  767ERGO    R210399  12.040   3.083   7.586  0.3547  0.2516 -0.0737
  767ERGO    R310400  12.268   2.973   7.685  0.2428 -0.0601 -0.1470
  767ERGO    R410401  12.103   3.027   7.921  0.4275  0.2907 -0.0798
  767ERGO    R510402  12.308   3.093   7.889  0.5228 -0.0317 -0.2093
  767ERGO    C110403  12.353   2.892   8.210  0.3647  0.0209 -0.1522
  767ERGO    C210404  12.659   2.867   8.401 -0.2189 -0.0697 -0.0697
  768ERGO   ROH10405   8.201   7.703   7.001 -0.1122  0.3643 -0.0166
  768ERGO    R110406   8.015   7.742   7.210  0.0001  0.1624  0.1221
  768ERGO    R210407   7.756   7.645   7.199 -0.0325  0.2845  0.1080
  768ERGO    R310408   7.823   7.530   7.436  0.0149 -0.0591 -0.0619
  768ERGO    R410409   7.533   7.499   7.419 -0.1191  0.5994  0.2363
  768ERGO    R510410   7.644   7.588   7.584  0.2932  0.2365  0.1957
  768ERGO    C110411   7.467   7.307   7.770 -0.1250  0.4601  0.1514
  768ERGO    C210412   7.366   7.064   8.090  0.2850 -0.2990 -0.2508
  769ERGO   ROH10413  16.552  13.442   7.494  0.1094 -0.0867 -0.0295
  769ERGO    R110414  16.611  13.345   7.754  0.0662 -0.0316  0.0010
  769ERGO    R210415  16.785  13.476   7.925  0.0693 -0.0170 -0.0137
  769ERGO    R310416  16.573  13.465   8.095  0.0497  0.0602 -0.0324
  769ERGO    R410417  16.796  13.560   8.260  0.0562  0.0391 -0.0271
  769ERGO    R510418  16.667  13.389   8.302  0.0133  0.0748 -0.0098
  769ERGO    C110419  16.605  13.598   8.615  0.0300  0.1443 -0.0525
  769ERGO    C210420  16.710  13.723   8.913  0.1047  0.2353 -0.0397
  770ERGO   ROH10421  13.995   8.795   7.472  0.0444 -0.0361 -0.0648
  770ERGO    R110422  14.085   8.855   7.734 -0.1214  0.0200 -0.0193
  770ERGO    R210423  13.962   8.755   7.961 -0.1088 -0.1433 -0.0821
  770ERGO    R310424  14.213   8.668   8.019 -0.0387  0.1092  0.0022
  770ERGO    R410425  14.059   8.620   8.263 -0.0615 -0.0095 -0.0371
  770ERGO    R510426  14.246   8.731   8.248 -0.1647  0.1715  0.0033
  770ERGO    C110427  14.351   8.460   8.494  0.0319  0.3055  0.0682
  770ERGO    C210428  14.386   8.376   8.814  0.0884  0.1492 -0.0358
  771ERGO   ROH10429   9.908   4.690  10.447  0.0847  0.0996  0.0517
  771ERGO    R110430  10.050   4.642  10.207  0.0671  0.2241  0.0156
  771ERGO    R210431   9.949   4.486  10.002  0.1960  0.0432  0.0856
  771ERGO    R310432  10.000   4.707   9.852 -0.1367  0.0766  0.0164
  771ERGO    R410433   9.991   4.487   9.659  0.1134  0.0153  0.0755
  771ERGO    R510434  10.152   4.632   9.684 -0.0736  0.2400  0.0004
  771ERGO    C110435  10.062   4.696   9.319 -0.2470  0.0304  0.0047
  771ERGO    C210436   9.917   4.755   9.031 -0.2879 -0.1297  0.1242
  772ERGO   ROH10437  15.313   9.918   7.320 -0.0063 -0.0308  0.0668
  772ERGO    R110438  15.295   9.666   7.447  0.0666 -0.0270  0.0844
  772ERGO    R210439  15.502   9.483   7.443  0.1426  0.0595  0.1527
  772ERGO    R310440  15.471   9.491   7.713  0.0716  0.0678  0.1447
  772ERGO    R410441  15.557   9.216   7.656 -0.0172  0.0315  0.1601
  772ERGO    R510442  15.380   9.277   7.769 -0.0276  0.0990  0.1140
  772ERGO    C110443  15.560   9.069   8.034 -0.1768  0.0232  0.1569
  772ERGO    C210444  15.665   9.210   8.369 -0.0139 -0.0701 -0.2458
  773ERGO   ROH10445  15.415  15.212  11.095  0.0254 -0.0554 -0.0176
  773ERGO    R110446  15.565  15.103  10.881  0.0690  0.0313 -0.0327
  773ERGO    R210447  15.455  14.932  10.694  0.1745 -0.1190  0.0326
  773ERGO    R310448  15.552  15.114  10.517 -0.0429 -0.0640 -0.0293
  773ERGO    R410449  15.522  14.866  10.362  0.4151 -0.1888  0.0933
  773ERGO    R510450  15.702  14.987  10.379  0.2121  0.1047  0.0985
  773ERGO    C110451  15.652  14.998  10.001  0.3510 -0.1780  0.0704
  773ERGO    C210452  15.545  15.010   9.660 -0.1296 -0.0333 -0.1412
  774ERGO   ROH10453   2.642   6.274  10.258  0.3448 -0.0494  0.0816
  774ERGO    R110454   2.734   6.225   9.995  0.1899 -0.4011  0.0855
  774ERGO    R210455   2.634   6.020   9.838 -0.5163 -0.1115  0.1093
  774ERGO    R310456   2.589   6.222   9.661  0.1593  0.0439  0.0916
  774ERGO    R410457   2.616   5.984   9.494 -0.2541  0.0101  0.0819
  774ERGO    R510458   2.727   6.170   9.474  0.2277 -0.2529  0.2264
  774ERGO    C110459   2.564   6.152   9.129  0.5328  0.2268  0.0494
  774ERGO    C210460   2.477   6.033   8.818 -0.1192 -0.0210 -0.3648
  775ERGO   ROH10461   0.453  14.700  10.611 -0.2776  0.0875  0.0873
  775ERGO    R110462   0.441  14.842  10.367 -0.1279  0.0437  0.0568
  775ERGO    R210463   0.606  14.784  10.152 -0.1555 -0.1371  0.0992
  775ERGO    R310464   0.370  14.764  10.019 -0.1491  0.0367  0.0604
  775ERGO    R410465   0.566  14.829   9.812 -0.0528 -0.1347  0.0846
  775ERGO    R510466   0.381  14.935   9.852  0.0196  0.0185  0.0445
  775ERGO    C110467   0.322  14.837   9.488  0.0131  0.0298  0.0398
  775ERGO    C210468   0.462  14.814   9.220  0.1013  0.0221 -0.3196
  776W        W10469   5.002   3.467   3.705  0.2585 -0.0360 -0.1698
  777W        W10470   4.841   3.405  14.554 -0.1016  0.1915 -0.4906
  778W        W10471   5.345   0.603   6.482  0.2085 -0.0011 -0.2190
  779W        W10472  11.531   4.215   4.544 -0.0271 -0.1424  0.0110
  780W        W10473   7.364  11.815   2.130  0.1647  0.1280 -0.2608
  781W        W10474  17.083   3.280   4.851  0.0645  0.0990  0.2280
  782W        W10475   8.708   6.403   5.628  0.0994 -0.0774 -0.2492
  783W        W10476  12.975  15.844  13.177 -0.6336  0.2116  0.1795
  784W        W10477   2.694  10.098   5.303  0.3178  0.5225 -0.1851
  785W        W10478  17.007   8.130  16.637  0.0830 -0.0958 -0.1274
  786W        W10479   5.254   2.223   0.564  0.1094 -0.3009 -0.3043
  787W        W10480   6.152  11.919   4.609  0.0171  0.1827 -0.1478
  788W        W10481  14.541   4.030   1.537 -0.2764  0.1084 -0.1726
  789W        W10482   2.543   1.765  13.733  0.0897 -0.2485 -0.0283
  790W        W10483   0.267  14.785   5.808  0.1067  0.0502  0.0301
  791W        W10484   1.508  15.503  14.874  0.0360 -0.0817  0.2996
  792W        W10485   0.523   5.514  16.781  0.0343  0.2091 -0.1652
  793W        W10486   8.123  11.628   2.466  0.0839  0.0314  0.1775
  794W        W10487  13.364   6.360  15.063  0.1747  0.3018  0.1740
  795W        W10488   9.784   9.073  15.529  0.1548  0.2124  0.1355
  796W        W10489   5.951   9.230  13.412  0.1914  0.3801 -0.3402
  797W        W10490  12.576   2.710  13.426  0.2892 -0.2730  0.0755
  798W        W10491   4.045  17.170  13.518 -0.0732 -0.1206  0.2542
  799W        W10492  17.094   9.540  13.302  0.0416  0.0508  0.2000
  800W        W10493  10.504   5.723   1.789 -0.0604  0.3302 -0.1636
  801W        W10494  16.582  10.064  14.218 -0.0369  0.1264 -0.0297
  802W        W10495  14.257  15.508   4.002 -0.1672 -0.1249 -0.0777
  803W        W10496   4.888   9.398  13.374  0.1118 -0.1960 -0.1212
  804W        W10497   5.212  14.929  13.193  0.2703  0.2070 -0.5352
  805W        W10498   1.194   8.714   2.617  0.3347  0.0044 -0.2364
  806W        W10499  10.794  17.014   5.205 -0.1563  0.1077  0.0104
  807W        W10500   1.465   6.487   4.730 -0.0186  0.1633 -0.1108
  808W        W10501  10.327  14.518   4.918  0.1150  0.0630 -0.1114
  809W        W10502  15.316  17.322  14.263  0.3063 -0.3611  0.1294
  810W        W10503   7.589  11.398  13.149  0.0992  0.1032  0.1551
  811W        W10504   1.992   9.976   2.936  0.3291 -0.0288  0.1641
  812W        W10505  15.917  11.372   7.463 -0.0971  0.1727  0.2497
  813W        W10506   6.595   7.770  16.842 -0.0218 -0.0766 -0.2219
  814W        W10507  15.675  17.069   2.352 -0.1828  0.3675  0.0102
  815W        W10508   6.438   4.676   1.321 -0.0677  0.0981 -0.1673
  816W        W10509  13.924   5.894   1.675  0.0150  0.0292  0.2352
  817W        W10510   3.142  12.713  14.409  0.2255  0.1286  0.2122
  818W        W10511  14.839  10.624   1.958 -0.3011  0.1752  0.1703
  819W        W10512  15.377   3.923   1.848 -0.0192  0.0127  0.0933
  820W        W10513  17.114  16.411   1.330 -0.1023  0.0807  0.4201
  821W        W10514   4.609   7.840   0.037  0.3137  0.1404  0.2160
  822W        W10515   8.392   2.253   5.953 -0.1220 -0.0576  0.3216
  823W        W10516   0.270   6.898  11.822  0.1678 -0.1931 -0.0108
  824W        W10517   7.289   9.593   2.264  0.1523 -0.1442 -0.2229
  825W        W10518   3.175  14.342   4.614  0.0985 -0.1650 -0.2229
  826W        W10519   1.209   5.193   5.496  0.0555 -0.0031  0.1482
  827W        W10520  15.157   9.400  13.014  0.0387 -0.1671  0.2024
  828W        W10521  12.009   4.895  14.069 -0.0066 -0.3458  0.0314
  829W        W10522  13.881   6.490   5.513 -0.0832 -0.0563 -0.1234
  830W        W10523   2.329  13.132  14.450  0.1168  0.2735  0.1161
  831W        W10524  11.483  13.890   6.456 -0.0446  0.0668  0.0007
  832W        W10525  10.351  14.139  14.838  0.1833 -0.1538  0.2650
  833W        W10526   4.956  15.255   4.745  0.2337 -0.0313  0.0298
  834W        W10527  13.662   6.049  13.756 -0.1107  0.1255 -0.0949
  835W        W10528   5.348   2.620   4.717 -0.0393 -0.1971 -0.3919
  836W        W10529  14.583  16.919  13.165 -0.1188  0.0990  0.0759
  837W        W10530  14.303  16.573   4.145  0.2250 -0.2488  0.0126
  838W        W10531   9.095   8.767   2.509  0.4347 -0.1753 -0.1872
  839W        W10532   6.114  11.548   6.286  0.1809 -0.2109  0.3013
  840W        W10533   1.864  13.276  14.337  0.0161 -0.0911  0.3026
  841W        W10534   5.064  16.102  16.402  0.2462  0.3068  0.0629
  842W        W10535  16.567  12.598  13.497 -0.0345  0.3082  0.3572
  843W        W10536   3.290  13.441  15.355  0.1139 -0.2047  0.2785
  844W        W10537   0.684   4.855  13.551 -0.0182 -0.2027  0.1639
  845W        W10538  15.210   7.976   1.027 -0.2159 -0.0379  0.2747
  846W        W10539   3.688  15.575  12.061 -0.0608 -0.2189 -0.1068
  847W        W10540   8.162  13.439  16.464  0.0425 -0.1649 -0.1498
  848W        W10541  12.953   3.714   4.621  0.0546 -0.0048 -0.2012
  849W        W10542  14.119  14.035  14.648 -0.1906  0.1047  0.0461
  850W        W10543  14.996   5.107  13.172  0.0170  0.1296 -0.0009
  851W        W10544  17.538   6.119  17.556 -0.1336  0.2367  0.1475
  852W        W10545   4.025   4.935   1.576 -0.1614 -0.4799  0.3747
  853W        W10546   6.300  13.582  13.471 -0.0846  0.1712 -0.1439
  854W        W10547   7.405  17.040   4.535 -0.1178  0.0473 -0.2650
  855W        W10548  16.638  16.808   2.538 -0.1482  0.0783 -0.1453
  856W        W10549   6.425   8.441  14.474 -0.0427 -0.0241 -0.1813
  857W        W10550   4.396   4.358  15.546 -0.2911 -0.0551 -0.1629
  858W        W10551   8.037  16.807  11.208  0.1493  0.1917  0.0977
  859W        W10552   8.296  12.704   3.044  0.1683 -0.0317  0.3409
  860W        W10553   1.176   4.027  16.716  0.2751  0.2291  0.1659
  861W        W10554   1.475   9.466   4.411  0.0781 -0.0849  0.0255
  862W        W10555   2.377   2.140  14.626 -0.0297 -0.1082  0.2598
  863W        W10556  12.514  14.090   5.888 -0.1469 -0.3645 -0.3393
  864W        W10557   5.142   2.233   6.206  0.0449  0.0995 -0.1756
  865W        W10558  16.442  15.442  14.360  0.1901 -0.3919  0.0199
  866W        W10559   8.808   4.197  12.189 -0.0684 -0.0294 -0.1365
  867W        W10560  10.353  17.181   6.006  0.0369 -0.3366 -0.1175
  868W        W10561   8.934  16.256  12.930 -0.5698  0.0125 -0.4150
  869W        W10562  13.788  14.249  15.553  0.1038  0.2232  0.0476
  870W        W10563   4.668  17.433   0.430 -0.0651 -0.3625 -0.1395
  871W        W10564   1.981   1.329  17.389 -0.2465 -0.1269 -0.2390
  872W        W10565  17.155   8.910   2.663  0.3693  0.0187 -0.3027
  873W        W10566  10.109   7.989   1.415  0.1774  0.2054 -0.3132
  874W        W10567  16.348   4.871  15.557  0.0930  0.1834 -0.2392
  875W        W10568  11.717   9.110   0.909  0.0516  0.1289  0.0226
  876W        W10569   0.634   3.977  13.558  0.4971 -0.0283 -0.1180
  877W        W10570   4.547   0.106   3.045 -0.0627  0.4135 -0.0339
  878W        W10571   8.854   5.426  15.529  0.1951 -0.2323  0.1782
  879W        W10572  14.863  11.130  14.559  0.1692 -0.5103  0.0453
  880W        W10573  15.631   5.341   4.461  0.0252  0.1182 -0.2487
  881W        W10574   0.433  16.546  14.228  0.2114 -0.1655  0.1144
  882W        W10575   6.681   5.551   5.164  0.2672 -0.0589  0.0862
  883W        W10576   5.936   9.243   0.464  0.1147 -0.0041  0.2002
  884W        W10577   7.657   6.051   2.581  0.0334 -0.0823 -0.1431
  885W        W10578   0.688  12.268   0.731 -0.3603  0.1287  0.2635
  886W        W10579   8.079   3.778   4.248 -0.0789  0.1532 -0.1685
  887W        W10580   5.360   4.610  15.685 -0.0146  0.1318  0.0828
  888W        W10581  12.791  13.889   6.779 -0.1120  0.1693 -0.0311
  889W        W10582   1.358   3.895   3.363 -0.0293 -0.5424 -0.2089
  890W        W10583   0.218   6.487   1.916  0.1673 -0.1233  0.1690
  891W        W10584   5.497   2.778   2.273  0.0896 -0.0394  0.0534
  892W        W10585  12.653  17.291   5.146 -0.2304  0.0769  0.3318
  893W        W10586   4.053   1.563   0.997  0.0976  0.0409 -0.0741
  894W        W10587   5.089   9.141   4.882  0.0208  0.0231  0.4337
  895W        W10588  12.151  17.137   2.073  0.2060  0.1455  0.1161
  896W        W10589  12.949  15.803  13.908 -0.0912  0.1759 -0.1758
  897W        W10590  16.640   1.938   3.112 -0.2432 -0.0668 -0.0829
  898W        W10591   6.029  11.524  16.666  0.0706  0.0012 -0.0561
  899W        W10592  12.813  13.077  16.748  0.2494  0.1083  0.0330
  900W        W10593  10.354  15.023   2.278  0.1392  0.2834 -0.0925
  901W        W10594   8.768   6.259   0.987  0.0592 -0.2815 -0.0659
  902W        W10595  17.426  16.124  12.081  0.0834  0.1254 -0.3332
  903W        W10596   6.615   0.608  14.238  0.2905  0.0685  0.3355
  904W        W10597   1.857   1.976  12.465  0.1603  0.5135  0.2047
  905W        W10598   5.076   9.850  17.543 -0.2532 -0.1373  0.1552
  906W        W10599  13.322   6.131   3.217 -0.0488 -0.0828 -0.0003
  907W        W10600   1.784   0.227  16.241 -0.0288  0.0221  0.0845
  908W        W10601   8.247  16.006  16.705 -0.1550 -0.2433 -0.3476
  909W        W10602  16.102   1.951   1.119 -0.2087  0.1638 -0.0593
  910W        W10603   1.834   8.552  15.253 -0.1281  0.0070 -0.0296
  911W        W10604   4.167  16.396  11.699 -0.1160  0.2573  0.0471
  912W        W10605  11.135  11.270   5.867 -0.1842 -0.1538 -0.1505
  913W        W10606   1.056   8.546   5.519 -0.0852  0.0171  0.1961
  914W        W10607   1.973   5.135  11.600 -0.0291 -0.0413  0.3041
  915W        W10608  13.662   3.830  15.284  0.0051 -0.1173  0.1487
  916W        W10609  10.581   4.701   1.650 -0.1484  0.1596  0.0860
  917W        W10610   1.181   3.132   3.133 -0.3117  0.3079 -0.0441
  918W        W10611   1.471  16.174   3.573 -0.1789 -0.0213 -0.1117
  919W        W10612  16.910  12.643  12.557 -0.1941 -0.0662  0.0245
  920W        W10613   3.993   6.146   3.385  0.1195 -0.1379  0.0980
  921W        W10614  17.469   8.086  12.508 -0.2483  0.2226  0.0444
  922W        W10615   3.789   2.724  14.482  0.1444  0.0898  0.0627
  923W        W10616   1.890   1.047  15.240  0.0229  0.0615 -0.0808
  924W        W10617   1.483  10.960  10.845  0.1401  0.1868 -0.2871
  925W        W10618  10.221  14.486  13.353  0.0416  0.0999  0.2391
  926W        W10619   3.794  16.420   0.357 -0.1245 -0.2027  0.2658
  927W        W10620   3.524  10.710  16.813 -0.0377 -0.0411 -0.0058
  928W        W10621  17.263   0.893   3.962  0.3210  0.0088  0.0736
  929W        W10622  11.564   3.759  16.494 -0.1365  0.0835  0.0752
  930W        W10623   4.516   5.174   3.354  0.0023  0.0472 -0.0668
  931W        W10624  12.635  10.987   1.334 -0.4034  0.0093 -0.1910
  932W        W10625   7.285  13.929   2.019 -0.0912 -0.1285 -0.1839
  933W        W10626  13.668   6.603  16.867 -0.2466 -0.2370  0.0495
  934W        W10627  15.418  14.650  16.377 -0.0804 -0.2453 -0.0251
  935W        W10628  14.726   8.749   0.877 -0.1520  0.2494 -0.2251
  936W        W10629  14.115  11.276   4.466  0.2137  0.0121  0.1458
  937W        W10630   2.784  16.690  11.802  0.2048 -0.0683  0.0647
  938W        W10631  15.259   3.110  13.187 -0.0367 -0.4206  0.2063
  939W        W10632  10.469  11.260   2.203  0.2811  0.1630 -0.0260
  940W        W10633   0.453  15.080  17.334  0.2183  0.1047 -0.1090
  941W        W10634  10.188   2.616  14.826  0.1310  0.3601 -0.0729
  942W        W10635   0.022   6.775   1.075  0.1387 -0.3085  0.0365
  943W        W10636   4.589  15.450  12.573 -0.0161  0.1558 -0.2346
  944W        W10637   8.585  11.681  16.706 -0.0070 -0.0426 -0.1057
  945W        W10638   8.524  17.368   5.317  0.3477  0.1485 -0.0343
  946W        W10639  15.588   0.537   1.214  0.0837 -0.0502 -0.1813
  947W        W10640  14.127   9.107   2.777 -0.0332  0.0335 -0.1912
  948W        W10641  10.583   0.405   0.428  0.1212  0.0502 -0.0050
  949W        W10642  15.824  10.059  17.488  0.0779 -0.3454 -0.0402
  950W        W10643  10.475   1.765   4.380  0.0746  0.1954 -0.0970
  951W        W10644   3.981   9.096  12.729  0.1939 -0.0196  0.2142
  952W        W10645  16.332   6.216  12.829  0.0730  0.0422 -0.0596
  953W        W10646   8.564  11.892  17.179 -0.0790 -0.0130 -0.0947
  954W        W10647  15.702  11.349   0.248  0.0254  0.0089 -0.1838
  955W        W10648   7.054  16.101  13.918  0.0709  0.0179 -0.4036
  956W        W10649   8.504   2.099   6.440  0.0091 -0.1257 -0.0308
  957W        W10650   9.536  12.478   2.726 -0.0575 -0.0915  0.1583
  958W        W10651  15.880   8.591   6.003  0.1399 -0.0507  0.0141
  959W        W10652  12.014  10.282  15.095  0.2043  0.0104 -0.0030
  960W        W10653  16.548  16.966  12.702  0.1042  0.1930  0.0897
  961W        W10654  16.944  14.014   3.023  0.0319 -0.0984 -0.2297
  962W        W10655  16.846   3.182  16.794  0.0878  0.1324 -0.1859
  963W        W10656  12.047   9.077  14.917  0.0692  0.0342  0.2790
  964W        W10657  11.883  17.220   1.546  0.2091 -0.1265  0.1648
  965W        W10658   5.385  10.899  16.321  0.0836  0.0027 -0.0973
  966W        W10659  17.412  11.418   0.791 -0.1898 -0.0198 -0.0755
  967W        W10660   7.165  15.965   4.831  0.3424  0.2166 -0.2317
  968W        W10661   8.767  15.368  15.198  0.0955 -0.3304 -0.1964
  969W        W10662  15.316   3.112  15.953  0.1021 -0.3214  0.0535
  970W        W10663  13.909   4.746   2.939  0.0396 -0.1319  0.0980
  971W        W10664  11.379   8.747  11.858 -0.0520 -0.1204  0.0878
  972W        W10665   3.924   0.146  11.734 -0.0073  0.0901  0.0804
  973W        W10666   7.395   9.336   1.283  0.0803 -0.0776  0.2153
  974W        W10667   6.316  16.968  12.195  0.0626  0.0915  0.2296
  975W        W10668  12.144  10.295   4.881 -0.0655  0.3308 -0.0796
  976W        W10669  12.261   7.419  15.771  0.0607 -0.2402 -0.1183
  977W        W10670  14.266   4.652   1.112 -0.0524 -0.2774  0.2209
  978W        W10671  17.521   3.502  11.680  0.1242 -0.1458 -0.0099
  979W        W10672   2.034   8.249   3.025 -0.0482  0.2314 -0.3240
  980W        W10673  10.507  17.449   3.344  0.0554 -0.1566 -0.1866
  981W        W10674   8.813   7.237   1.166  0.1231 -0.0207 -0.0161
  982W        W10675   2.519   0.457  17.662  0.1019 -0.1068  0.0146
  983W        W10676  16.071   6.673  12.758 -0.0450 -0.2240 -0.2320
  984W        W10677   2.209   9.617  15.082  0.1138  0.1350  0.0198
  985W        W10678  10.161   7.861  12.119 -0.0570  0.0802 -0.0367
  986W        W10679  16.032   8.353  12.209 -0.1825 -0.1910  0.1878
  987W        W10680   0.231   9.869   1.531 -0.2033  0.1070  0.1966
  988W        W10681  11.043   7.939  12.101  0.1494  0.0997 -0.2657
  989W        W10682   8.358   0.731  17.383 -0.1154 -0.0019  0.2333
  990W        W10683   0.991  16.569   2.539  0.0715 -0.1420 -0.0909
  991W        W10684   6.542   2.710  16.121 -0.1336 -0.1978 -0.1324
  992W        W10685   8.958  14.127   6.779 -0.2423 -0.1009 -0.4182
  993W        W10686   5.204  17.481   1.003 -0.0960 -0.2560 -0.1011
  994W        W10687   8.521   6.666  11.486 -0.0639 -0.0510  0.1742
  995W        W10688  11.426  11.211  16.767 -0.0256 -0.0293  0.2744
  996W        W10689   5.194  14.266  17.284 -0.0651  0.3260 -0.1220
  997W        W10690  10.341   3.063  17.103  0.3466 -0.0655 -0.3710
  998W        W10691   2.049  15.056   2.018 -0.3540 -0.1264 -0.0687
  999W        W10692   6.307   7.528   4.761  0.1215  0.1609  0.2624
 1000W        W10693   6.310   4.259  17.363 -0.0881 -0.3250  0.0310
 1001W        W10694  12.809   8.291   5.300 -0.1351 -0.4182 -0.2264
 1002W        W10695   0.701   4.234   4.044 -0.0472 -0.0894  0.0123
 1003W        W10696  14.681   5.166   2.545  0.1085 -0.0465  0.0548
 1004W        W10697   0.293   3.995  15.930 -0.2154 -0.0277  0.0164
 1005W        W10698   4.772  13.984  12.793  0.4179  0.1406  0.2874
 1006W        W10699  11.145   1.515   1.330  0.1807  0.2512 -0.0229
 1007W        W10700   2.984  15.388   6.614 -0.2274  0.3316  0.3244
 1008W        W10701  11.136   8.496   0.517  0.0778 -0.2141 -0.3038
 1009W        W10702   2.475   0.621  11.121 -0.0446  0.2179 -0.2780
 1010W        W10703   7.948  13.958   6.702  0.1671 -0.2508 -0.0126
 1011W        W10704   2.413   6.735  12.847  0.2378 -0.2204 -0.0534
 1012W        W10705   1.458   0.914   5.537  0.0743 -0.0863  0.0506
 1013W        W10706   7.314   6.764   3.122 -0.1511 -0.0544 -0.2886
 1014W        W10707   6.683   7.135   4.818 -0.1403 -0.1469  0.2803
 1015W        W10708  10.871  17.192  16.147  0.2772  0.1464  0.1622
 1016W        W10709  10.285  10.154  12.523  0.1207 -0.0475  0.2218
 1017W        W10710   4.185  11.573   3.336  0.1636 -0.0518 -0.2352
 1018W        W10711   2.584   6.380  13.990  0.2936  0.2126  0.1030
 1019W        W10712  17.168   9.878   6.283 -0.2986  0.1842 -0.0651
 1020W        W10713  13.292   6.500  17.236  0.0253  0.0182  0.2440
 1021W        W10714   5.809  17.026   1.802 -0.0047 -0.1091 -0.0358
 1022W        W10715  14.721   0.402   6.666  0.1027  0.2386  0.0002
 1023W        W10716   9.133   0.385  13.331 -0.2241 -0.1058 -0.0334
 1024W        W10717   2.283  17.048   2.064  0.0629  0.2314  0.0718
 1025W        W10718   1.418   6.816  15.196 -0.3858 -0.1192  0.2847
 1026W        W10719  17.357  17.206  12.485  0.1706  0.0062  0.3046
 1027W        W10720   8.536   4.475   6.766  0.0700 -0.1203 -0.0215
 1028W        W10721   6.854  14.314  12.595 -0.0061 -0.2473  0.0962
 1029W        W10722   1.064  12.166   6.098 -0.0558  0.0004 -0.2226
 1030W        W10723  10.439  12.855  16.412 -0.2244 -0.0690 -0.2221
 1031W        W10724  10.571  12.835   1.222  0.1695 -0.0060  0.0160
 1032W        W10725  11.504  10.499  12.677 -0.0726  0.0825 -0.1049
 1033W        W10726   7.822   1.820   4.061 -0.2423  0.1727  0.3944
 1034W        W10727   2.193  17.072   5.386 -0.1156  0.1798  0.0598
 1035W        W10728   4.425  12.950  15.074  0.1732 -0.0342 -0.0171
 1036W        W10729   3.869  11.521  17.362 -0.1767  0.3270  0.2314
 1037W        W10730   8.180  13.739   0.039  0.1914 -0.0337 -0.3126
 1038W        W10731   7.371  16.169   2.958  0.0319  0.0900  0.1230
 1039W        W10732  17.471  11.588  17.125 -0.0773 -0.1521  0.1586
 1040W        W10733  14.348  15.546  15.100 -0.1242 -0.1322 -0.1239
 1041W        W10734   8.043   9.593   3.786 -0.0055  0.0513  0.3562
 1042W        W10735   3.801   8.924  16.548  0.1490 -0.3949 -0.0557
 1043W        W10736  17.178  17.159  15.059 -0.0461  0.1140  0.1792
 1044W        W10737  17.125  11.496   4.988 -0.0886 -0.0426 -0.1145
 1045W        W10738   6.151   6.011   1.204  0.0514  0.0194  0.1470
 1046W        W10739   8.086  14.117  13.313  0.1317  0.1036 -0.0677
 1047W        W10740   3.662  12.085  14.738  0.1419 -0.0312  0.1487
 1048W        W10741   2.635   9.638  16.502  0.0193  0.2950  0.1269
 1049W        W10742  11.604  13.097  14.060 -0.1229  0.0308  0.0986
 1050W        W10743  16.017  14.698  13.051  0.0867  0.2272  0.1726
 1051W        W10744  13.528  13.776  14.614  0.1054 -0.1338  0.2608
 1052W        W10745   6.803  11.567   3.663  0.1886  0.0524 -0.0319
 1053W        W10746   6.965   0.911   6.264  0.2568  0.0882 -0.2327
 1054W        W10747  17.245  11.967  14.721  0.1175 -0.1298 -0.1629
 1055W        W10748   6.457   9.888   2.974  0.0513  0.0846 -0.0268
 1056W        W10749   7.668   8.920  16.477 -0.1339  0.1006 -0.1381
 1057W        W10750   4.142   2.110  13.110  0.0203  0.3256 -0.1250
 1058W        W10751  13.582  12.081   1.482 -0.0065 -0.2307  0.0908
 1059W        W10752  11.935  11.725   6.019 -0.3243 -0.0292 -0.0744
 1060W        W10753   2.948  14.212   2.008 -0.0336 -0.3092 -0.2247
 1061W        W10754  16.838   5.212   2.295 -0.2309 -0.0147 -0.0711
 1062W        W10755   0.925  12.646  12.741  0.1408  0.0644  0.1966
 1063W        W10756   0.474  12.418  12.391 -0.0475  0.1555 -0.1237
 1064W        W10757   0.356   6.404   6.966 -0.1936  0.1839  0.1940
 1065W        W10758  10.314  17.237  13.883 -0.2747  0.1060 -0.0014
 1066W        W10759   1.272  14.960   3.477 -0.1437 -0.0276 -0.1061
 1067W        W10760   6.656   3.577  15.591 -0.0282 -0.3528  0.2263
 1068W        W10761   0.481  10.540  12.886  0.1722  0.1350 -0.2321
 1069W        W10762   4.781  16.345   3.222  0.2446 -0.1212  0.1137
 1070W        W10763   2.460   9.635   5.009  0.1182  0.0558 -0.2958
 1071W        W10764   0.034  10.500   1.755  0.1298 -0.1099 -0.0758
 1072W        W10765  16.040   7.027  16.654  0.0725 -0.2833 -0.0860
 1073W        W10766   5.897   4.986  13.285 -0.0386  0.4041  0.0501
 1074W        W10767   9.930   6.098  11.940 -0.4260 -0.0832  0.2657
 1075W        W10768   2.612   3.837   4.484 -0.0569  0.0565 -0.0959
 1076W        W10769  10.427  15.629   1.013  0.2514  0.2698  0.2175
 1077W        W10770  13.624   2.174   5.327  0.1076  0.1119 -0.1579
 1078W        W10771  16.213   7.363  13.453  0.0920 -0.0742  0.0684
 1079W        W10772   2.107   8.036   1.317  0.1233 -0.1230  0.1040
 1080W        W10773   1.153   2.301   5.338  0.1505 -0.0520  0.0241
 1081W        W10774   9.005  15.091   1.014 -0.0130 -0.0203 -0.2348
 1082W        W10775   3.205  11.232   4.868 -0.0818 -0.1936 -0.0728
 1083W        W10776   4.208   1.897   4.362 -0.1737 -0.0667  0.0576
 1084W        W10777   7.678   4.284  14.297 -0.1460 -0.3886  0.0538
 1085W        W10778   5.569  11.852  11.338  0.3264 -0.1177 -0.2831
 1086W        W10779   8.197   8.983   5.885  0.0244  0.0312  0.1071
 1087W        W10780   2.545   7.297   4.012  0.0207  0.0014 -0.0613
 1088W        W10781   4.598  16.758   2.672  0.1585 -0.0939 -0.2755
 1089W        W10782  11.536   4.127   3.503 -0.0914 -0.2842  0.0820
 1090W        W10783  14.602  16.330   1.136 -0.0207  0.0312  0.1699
 1091W        W10784   6.010   2.839   2.529 -0.0099  0.0729 -0.2012
 1092W        W10785  10.528   0.061   1.245  0.1804  0.1901  0.0057
 1093W        W10786   4.554   0.796  11.807  0.0120  0.1823 -0.0448
 1094W        W10787   6.118  10.165   3.305 -0.0236 -0.1381 -0.1280
 1095W        W10788   8.416  15.933   0.993 -0.1198 -0.0622 -0.0264
 1096W        W10789   9.051   3.251   5.099 -0.3700  0.1217  0.1724
 1097W        W10790   8.306  14.420   6.115 -0.3947 -0.0041 -0.0695
 1098W        W10791   2.803  10.082  11.793  0.1086  0.0969  0.2487
 1099W        W10792  16.396  13.233  14.896 -0.2179 -0.1644 -0.2892
 1100W        W10793  12.399  17.110   1.598 -0.0671  0.1131  0.4036
 1101W        W10794   5.838   8.975  16.089 -0.0898  0.4482  0.0739
 1102W        W10795   5.518   1.642   1.986 -0.1227 -0.1465 -0.0293
 1103W        W10796  10.574   1.750   5.791 -0.0513 -0.1913 -0.0020
 1104W        W10797   1.725  15.451  15.745 -0.1650 -0.1135 -0.0905
 1105W        W10798   1.896   5.935   1.480  0.1126 -0.2475  0.3435
 1106W        W10799   5.679   6.799   7.236 -0.1589 -0.1280  0.3462
 1107W        W10800   6.382   3.638  16.715 -0.0884 -0.1383 -0.0138
 1108W        W10801  11.452  14.838  16.487 -0.0526 -0.3156 -0.0699
 1109W        W10802   6.482   4.246   3.884 -0.2294 -0.2502  0.0383
 1110W        W10803   3.241   1.464  12.167 -0.0294 -0.0945  0.1042
 1111W        W10804  10.144   9.479   4.612  0.0969  0.1469  0.1810
 1112W        W10805   5.483   5.182   2.320 -0.0558  0.0741  0.1811
 1113W        W10806   2.481   6.477  17.395  0.0995 -0.1093 -0.2268
 1114W        W10807   4.408  16.533   2.300 -0.1339  0.1138  0.1684
 1115W        W10808   0.108  16.007   3.621 -0.2786  0.2468  0.0256
 1116W        W10809   8.567   9.554  15.321 -0.0243 -0.0166  0.0947
 1117W        W10810  10.051  16.979  15.949 -0.3106  0.2577 -0.0958
 1118W        W10811  15.134   0.388   2.647  0.2277  0.0564  0.3128
 1119W        W10812  13.263  16.337   1.712 -0.0177 -0.2634  0.4626
 1120W        W10813  10.296  14.386   0.627 -0.0149 -0.1660  0.1089
 1121W        W10814   3.299   0.587  15.742 -0.1057 -0.3266  0.1137
 1122W        W10815   2.180   3.391   2.661 -0.0561  0.1852 -0.1353
 1123W        W10816  17.117   3.842   3.980 -0.0752  0.1090  0.2657
 1124W        W10817   8.646   9.505   5.736 -0.0248  0.0893 -0.1082
 1125W        W10818  16.665   4.981  17.276  0.2318 -0.0145 -0.1283
 1126W        W10819  14.834  16.234   2.583  0.0909 -0.3461  0.2916
 1127W        W10820   5.354   3.200  11.190  0.3485 -0.0530  0.0761
 1128W        W10821  11.083  10.501   0.546  0.0058 -0.3341 -0.1502
 1129W        W10822   5.986  15.805  11.731  0.0162 -0.0692 -0.3746
 1130W        W10823   1.411  16.277   5.246  0.1405  0.3692  0.3203
 1131W        W10824  13.738   4.389   1.179  0.0724 -0.0911  0.1879
 1132W        W10825   8.212   4.646  12.938  0.1998  0.1777  0.2371
 1133W        W10826   1.948   0.650   5.259 -0.1430  0.0720  0.0229
 1134W        W10827   7.501  16.263   2.392  0.4715  0.4113  0.0708
 1135W        W10828  10.045   0.627  17.404 -0.1531 -0.0676 -0.2913
 1136W        W10829  10.205  11.192  13.378  0.3608 -0.1454 -0.0508
 1137W        W10830   4.090   6.411   2.616 -0.2447  0.0328 -0.0987
 1138W        W10831   2.695   5.573  16.936  0.1643 -0.2259 -0.1209
 1139W        W10832  15.981  11.130  12.519  0.0680  0.1858 -0.1550
 1140W        W10833  14.267   1.685   3.150 -0.0698  0.2256  0.0784
 1141W        W10834   3.690  16.463   6.277  0.0363  0.1617 -0.1507
 1142W        W10835   0.392  15.648  16.443 -0.0909  0.0027  0.1220
 1143W        W10836  13.762   9.204   4.377  0.0911 -0.0009  0.0080
 1144W        W10837  14.015   8.649   2.599 -0.1415 -0.1133  0.3616
 1145W        W10838  17.551   1.872  12.777 -0.0152  0.0826 -0.1259
 1146W        W10839  12.393   3.161   0.539 -0.0670  0.3112 -0.0658
 1147W        W10840  13.777   1.485   1.848 -0.2874 -0.1954 -0.1544
 1148W        W10841  11.899   9.341  12.791 -0.2278  0.1653  0.2466
 1149W        W10842  15.438   6.362  13.683  0.1340 -0.0913  0.2622
 1150W        W10843   8.875   0.993  16.268  0.3149 -0.0408  0.1866
 1151W        W10844   2.332  16.165   2.421 -0.1284  0.0301 -0.0514
 1152W        W10845   7.033   4.020   1.798 -0.2043  0.3096  0.0374
 1153W        W10846   3.008  12.342  12.742  0.0208 -0.0479  0.2394
 1154W        W10847   2.677   2.616  14.795 -0.2005  0.0878 -0.0551
 1155W        W10848  14.048   6.566  15.989  0.2247 -0.0266 -0.1820
 1156W        W10849   5.371  15.936  15.439  0.1411  0.1813  0.1845
 1157W        W10850  10.704   8.348  13.842  0.5010  0.2743  0.4354
 1158W        W10851   6.356   6.409  14.390 -0.2157  0.1566  0.0023
 1159W        W10852   6.529  14.504  17.280  0.0534  0.2310 -0.0022
 1160W        W10853  15.285   5.805  13.934  0.0671 -0.0703  0.1207
 1161W        W10854  15.529  11.106  11.577  0.1127 -0.2367  0.1386
 1162W        W10855   4.265   8.617  15.204 -0.0163  0.0911  0.0029
 1163W        W10856  15.417   7.004   5.963 -0.1114 -0.0610  0.1480
 1164W        W10857   8.637   6.545   4.140  0.0296  0.0715 -0.0517
 1165W        W10858  17.090   6.424  13.118  0.3053 -0.3150 -0.3617
 1166W        W10859  11.202  16.500   3.852 -0.0540 -0.0713 -0.0693
 1167W        W10860   1.989  12.007  12.595  0.1505 -0.1827 -0.0393
 1168W        W10861   6.691   0.210   0.797 -0.3320 -0.2038  0.1393
 1169W        W10862   2.559   2.251   0.411 -0.2762 -0.0051  0.1454
 1170W        W10863   5.407  10.137   5.696 -0.0426  0.2206  0.0202
 1171W        W10864   9.006   4.604  12.445 -0.0215  0.0339  0.0670
 1172W        W10865   6.642   4.564  13.411  0.3816  0.2873 -0.1219
 1173W        W10866  11.880  11.752  12.250 -0.0341 -0.2968 -0.0087
 1174W        W10867  15.765   5.983   4.388  0.2389 -0.1303 -0.0397
 1175W        W10868   8.966   6.243  13.822  0.3330  0.0811  0.1953
 1176W        W10869   8.514   0.116  14.135  0.1089  0.2302 -0.0655
 1177W        W10870   6.619  17.609  11.760 -0.0176 -0.0560  0.0092
 1178W        W10871   9.657   3.362  12.206  0.0060  0.2091 -0.3261
 1179W        W10872   0.067  16.445   5.437  0.2631 -0.0697 -0.0427
 1180W        W10873   1.602   8.223  13.262  0.1304 -0.1805  0.3168
 1181W        W10874  12.730  14.965  15.555  0.0830 -0.1616  0.0397
 1182W        W10875   6.013  16.436  16.696  0.4101 -0.0387  0.0251
 1183W        W10876   9.086   6.386   2.202  0.1426  0.2805  0.1113
 1184W        W10877  16.865   4.903   4.395 -0.2296  0.2199  0.3439
 1185W        W10878  12.382  17.598   1.265  0.3874  0.2537 -0.1374
 1186W        W10879  11.925  10.873  12.596  0.0512 -0.3416 -0.0351
 1187W        W10880   6.727  14.794   3.903  0.0337 -0.1124  0.0065
 1188W        W10881   8.491  11.895  13.077  0.1037 -0.2674 -0.1656
 1189W        W10882   7.721   9.892  11.798  0.1733 -0.1558 -0.0856
 1190W        W10883  16.875   1.443  11.683  0.0691  0.0043 -0.1214
 1191W        W10884   1.275   6.943  17.653 -0.0237  0.2914 -0.2569
 1192W        W10885  12.825   4.159  12.794  0.0335 -0.0599 -0.1156
 1193W        W10886   2.800   9.401  17.113  0.1811 -0.0079  0.0098
 1194W        W10887   2.303   1.821   0.366  0.2803  0.2714 -0.5594
 1195W        W10888   8.541  11.643   6.355  0.4018  0.2723 -0.1241
 1196W        W10889   4.951   3.874  13.439 -0.2145  0.1430 -0.0604
 1197W        W10890  11.576   8.792   1.328 -0.1780  0.1756  0.1048
 1198W        W10891  11.808  17.650   5.273  0.0797 -0.0586 -0.0513
 1199W        W10892   8.870  13.346   0.853  0.3416 -0.2218  0.2678
 1200W        W10893  15.700   0.501  16.268  0.1918 -0.0959 -0.0514
 1201W        W10894  13.382  14.075   4.819  0.0039 -0.1124 -0.2330
 1202W        W10895  11.332   7.845  13.406  0.1544 -0.2627  0.3300
 1203W        W10896  10.539   5.355  16.588 -0.0848 -0.2766 -0.2295
 1204W        W10897  14.342  15.982  17.412  0.0384  0.0690  0.1078
 1205W        W10898   1.846   4.326  17.585 -0.0449  0.0807  0.1115
 1206W        W10899   3.022  15.130  13.904 -0.2884  0.3249  0.1210
 1207W        W10900   5.006   1.369   0.694 -0.1705  0.2267  0.3234
 1208W        W10901  13.055  15.409   6.139  0.0361 -0.0510 -0.0759
 1209W        W10902   6.319  13.352   1.791  0.1993  0.0892 -0.0563
 1210W        W10903  15.720   3.683  12.945  0.0051 -0.3216 -0.0952
 1211W        W10904  10.153  17.370  16.262  0.2220  0.0909  0.1761
 1212W        W10905   9.490   2.704   1.102  0.0919  0.0792  0.0314
 1213W        W10906   9.516  10.247  16.013 -0.0784 -0.0415  0.2045
 1214W        W10907  14.432  10.182   5.869  0.1953 -0.0622  0.1001
 1215W        W10908   0.413   7.353   5.367 -0.1646  0.1285  0.1966
 1216W        W10909   1.030   9.303   5.350  0.0296  0.0238  0.0367
 1217W        W10910   3.640  12.473   3.788  0.3611  0.5684 -0.1523
 1218W        W10911  16.623  15.868   3.159 -0.0604 -0.2209 -0.1111
 1219W        W10912  10.957   9.397  16.461 -0.1330 -0.2851 -0.1871
 1220W        W10913   4.787  15.281  17.530 -0.0306 -0.1288  0.0374
 1221W        W10914   6.652   9.711  11.018  0.1515  0.2227  0.0525
 1222W        W10915   4.380   2.848  15.376 -0.1592  0.2023  0.0234
 1223W        W10916   9.227  14.554  15.333 -0.1247  0.2741 -0.4656
 1224W        W10917   6.231   2.676  17.483 -0.0675 -0.4090  0.1896
 1225W        W10918  17.232   4.861  12.262  0.2170  0.1982  0.1631
 1226W        W10919  15.803   4.994  12.488 -0.3332 -0.1164 -0.2438
 1227W        W10920   1.453  16.881  14.628 -0.0076  0.1684  0.0305
 1228W        W10921   8.938   3.052  17.472  0.0207 -0.2311  0.1667
 1229W        W10922   0.557   2.447   4.166  0.0204  0.1768 -0.1568
 1230W        W10923   7.512   4.397   5.883 -0.1019 -0.2145 -0.0230
 1231W        W10924  15.633   1.021   3.194  0.1007  0.0443  0.1887
 1232W        W10925   6.873   9.215   4.018  0.0354 -0.1010  0.4660
 1233W        W10926  11.664  17.108  12.729  0.2716  0.0796 -0.1599
 1234W        W10927  11.329   0.319  16.147  0.1240 -0.0412 -0.2034
 1235W        W10928   8.771   8.333  14.611  0.0505 -0.2279 -0.0228
 1236W        W10929  15.018  15.924   3.406 -0.0708  0.2087  0.0794
 1237W        W10930  15.918   3.677   3.440  0.4727 -0.1165 -0.0313
 1238W        W10931  13.868  14.327  11.647  0.0048 -0.0746  0.1442
 1239W        W10932   7.371   1.535  15.024 -0.0679 -0.0593 -0.0527
 1240W        W10933  14.933   4.111   5.807 -0.1043 -0.0368 -0.1554
 1241W        W10934   6.381  10.221  15.402  0.1288 -0.1524 -0.1393
 1242W        W10935   4.296   3.991  14.063  0.1284 -0.0583  0.0715
 1243W        W10936   0.495   9.849   2.822  0.1232  0.0036  0.1021
 1244W        W10937   2.095   8.169   3.838 -0.1780 -0.0832 -0.4668
 1245W        W10938   6.982   4.965  12.192  0.1793 -0.2691  0.2283
 1246W        W10939   3.429   9.782   5.990 -0.0069 -0.0576  0.0569
 1247W        W10940  13.714   6.503   6.920  0.2285 -0.0328  0.0545
 1248W        W10941   4.259   4.047   4.948 -0.0252 -0.0163  0.2647
 1249W        W10942   1.318   9.655   2.286 -0.1286  0.1418  0.0910
 1250W        W10943  12.275  14.435  16.215  0.0341 -0.0357  0.0290
 1251W        W10944   1.765  10.592  12.925 -0.0326  0.0256 -0.1870
 1252W        W10945   4.626   1.678  15.450  0.0433  0.0290 -0.0707
 1253W        W10946  14.720   1.958   0.162  0.1373  0.1633 -0.1447
 1254W        W10947  16.118   4.451   0.246 -0.1147  0.2590 -0.2349
 1255W        W10948  14.871  16.122   5.180 -0.1334  0.0650  0.0133
 1256W        W10949  12.058   6.932   4.584  0.3294  0.1307 -0.1195
 1257W        W10950   0.641  15.881   5.226  0.2171  0.0150  0.0844
 1258W        W10951  12.329  13.453   6.481 -0.2190 -0.0577  0.1540
 1259W        W10952   8.800  12.372  16.954 -0.3718 -0.3128 -0.1305
 1260W        W10953  14.838  13.318   1.696  0.1654  0.4679  0.0040
 1261W        W10954   4.822  14.046   0.024  0.0326  0.1597 -0.2058
 1262W        W10955  16.910  13.699   5.344  0.0175  0.0243 -0.1534
 1263W        W10956  10.488  11.842  13.412 -0.0529  0.0246  0.2173
 1264W        W10957   9.914  12.337  12.738 -0.2363 -0.1012 -0.2033
 1265W        W10958   2.111   3.458   4.115  0.2930 -0.0270 -0.0962
 1266W        W10959   7.490   1.361   1.363  0.0594 -0.2888  0.2588
 1267W        W10960   7.362   1.784   5.940 -0.5481  0.1519  0.1462
 1268W        W10961   9.552   5.309  13.913  0.1702 -0.1517 -0.1348
 1269W        W10962   1.019   0.769   0.297  0.1796  0.0184  0.0285
 1270W        W10963   5.410   0.975  14.781 -0.1903  0.1314 -0.0104
 1271W        W10964   8.175  11.246   0.014  0.0590 -0.0263  0.0044
 1272W        W10965   3.474   6.147   5.071  0.3809  0.2199 -0.1791
 1273W        W10966  16.642   8.315  11.502 -0.2877 -0.2275 -0.1344
 1274W        W10967  15.431   5.000   0.537 -0.0835  0.0455 -0.0022
 1275W        W10968   3.307  10.390   2.574  0.0574  0.1455  0.1960
 1276W        W10969  16.974   2.170  16.572 -0.0025  0.1064  0.0074
 1277W        W10970   2.184   0.760   1.603 -0.1449  0.1322 -0.2641
 1278W        W10971   3.572   0.219  16.800  0.3267 -0.1104 -0.5841
 1279W        W10972  16.339   5.417   1.215  0.1221  0.1810 -0.3420
 1280W        W10973  14.500   3.760   2.483  0.0038  0.1706 -0.1801
 1281W        W10974   0.523  16.751   1.551  0.1912  0.1597 -0.2586
 1282W        W10975   8.659   7.479   2.077  0.0257 -0.0655  0.0363
 1283W        W10976  15.203   7.856   1.835  0.1923 -0.2421 -0.1798
 1284W        W10977   3.698   2.384   0.745  0.1626 -0.0824 -0.1843
 1285W        W10978  17.099  11.253  13.942 -0.1889 -0.4393  0.0308
 1286W        W10979  12.199  15.478  12.793  0.0340  0.4701  0.1221
 1287W        W10980   7.525  17.449  17.656  0.2190  0.0199  0.2126
 1288W        W10981   2.159   6.735  11.856  0.0185  0.0166  0.2001
 1289W        W10982   5.207  15.386   4.301 -0.2823  0.0920 -0.0329
 1290W        W10983   0.184   4.663  13.602 -0.0708  0.0244 -0.0586
 1291W        W10984  11.676   5.180  13.279  0.5898  0.0063 -0.0074
 1292W        W10985  12.731   7.750  15.208 -0.0287  0.2575  0.1882
 1293W        W10986   7.639   3.422   2.751 -0.0850 -0.1379 -0.2000
 1294W        W10987   0.979  17.433   1.434 -0.0262  0.0984 -0.0446
 1295W        W10988  15.201   3.579   2.133  0.2204 -0.2422  0.1847
 1296W        W10989   2.064   5.433   1.453 -0.0721 -0.1650  0.1430
 1297W        W10990   4.155   3.687   5.346 -0.0323  0.1387  0.2708
 1298W        W10991   6.623  11.256   1.610  0.0215 -0.4701  0.0346
 1299W        W10992   4.963  12.642  16.748 -0.0336  0.0595  0.1016
 1300W        W10993  11.053   6.343  16.476 -0.0155 -0.1369  0.3764
 1301W        W10994  14.130   0.551   3.121  0.1495 -0.3237  0.0338
 1302W        W10995   5.537  12.531   0.500 -0.0862 -0.1241  0.0067
 1303W        W10996  14.615  16.771  14.938  0.2066 -0.2234 -0.0024
 1304W        W10997   1.752  13.630  15.647 -0.0729 -0.2105  0.2456
 1305W        W10998  11.931   8.602   3.153  0.3076 -0.2948 -0.1669
 1306W        W10999   4.318   0.067  15.081 -0.2787  0.2102 -0.0345
 1307W        W11000   1.967  11.048   5.733 -0.2248  0.1702 -0.0463
 1308W        W11001  15.726  10.676  15.445  0.0419 -0.1452  0.0989
 1309W        W11002   7.403  13.577   5.010 -0.2498 -0.1469 -0.0689
 1310W        W11003   7.496   5.474  15.107 -0.0850 -0.1105  0.1824
 1311W        W11004   4.338   3.958   3.367  0.0955 -0.0239  0.0373
 1312W        W11005   0.233  13.168  15.597  0.0900 -0.1164 -0.1520
 1313W        W11006   8.300  13.940  15.769 -0.0013  0.1897  0.0422
 1314W        W11007   0.606   4.453  13.295 -0.1662  0.3993  0.3719
 1315W        W11008  15.904   8.544  14.193  0.0135  0.1603 -0.2526
 1316W        W11009  10.935   3.621  17.645 -0.0011 -0.0755  0.0818
 1317W        W11010   2.265  17.466  13.248  0.1145  0.1278 -0.1195
 1318W        W11011   9.215  10.250   5.943  0.0512 -0.0403 -0.0771
 1319W        W11012   6.973   2.140   3.092  0.1731  0.2368 -0.0061
 1320W        W11013  12.605   9.965   0.834  0.2678 -0.1553 -0.2611
 1321W        W11014   3.466   9.468  17.034 -0.0447  0.0314 -0.0321
 1322W        W11015   9.706   7.725   4.245 -0.2272  0.0363  0.2288
 1323W        W11016   2.697  14.497   4.523  0.0591  0.3729  0.0856
 1324W        W11017   2.182   0.956  13.344 -0.0699 -0.0433  0.2344
 1325W        W11018  17.657   2.972  10.839  0.2014 -0.1112  0.4956
 1326W        W11019  12.314  10.553   3.631  0.1350  0.1079  0.2576
 1327W        W11020  13.254   1.496   0.876 -0.1157  0.1564  0.1948
 1328W        W11021   0.987  11.796  16.434 -0.2805 -0.2873  0.1649
 1329W        W11022   1.358  13.984  17.288  0.0727 -0.0468  0.3868
 1330W        W11023   5.692   1.631   5.649 -0.0609 -0.1966 -0.0406
 1331W        W11024   3.614   6.360  15.852 -0.1149 -0.1551 -0.0014
 1332W        W11025  15.054  15.412  17.534 -0.0222  0.2080  0.0975
 1333W        W11026   7.457  14.380  14.018 -0.0934 -0.2698 -0.0299
 1334W        W11027   6.490  15.664   3.272 -0.4255 -0.1427  0.0384
 1335W        W11028   2.844  14.218   4.144 -0.2077 -0.3355  0.1835
 1336W        W11029   8.868  13.434  13.464 -0.0125  0.4411 -0.0059
 1337W        W11030   1.810   6.560   0.166  0.1008 -0.1370  0.3966
 1338W        W11031  11.155   0.631  16.994  0.1538 -0.0249  0.1309
 1339W        W11032   2.059  15.476   0.437  0.3521  0.2881  0.0235
 1340W        W11033  16.245  15.910   6.109  0.1986  0.1644 -0.0642
 1341W        W11034   0.723   2.156   1.320 -0.1179 -0.0517  0.0411
 1342W        W11035   9.296  14.444  12.239 -0.1646 -0.0298 -0.0904
 1343W        W11036   8.899   3.800  11.522 -0.0190  0.2123  0.1760
 1344W        W11037   6.114  16.975  15.100 -0.1585 -0.2451 -0.3517
 1345W        W11038   1.597   0.548  15.404 -0.1214  0.6538  0.0830
 1346W        W11039  11.411  15.693   3.182  0.3908 -0.2282  0.1436
 1347W        W11040   1.609   1.894   0.064 -0.1324 -0.2044 -0.0069
 1348W        W11041   4.928   8.585  17.249 -0.2006  0.0278  0.0006
 1349W        W11042   4.278   4.932   2.307  0.2680  0.1716 -0.3693
 1350W        W11043   8.587   3.597   5.444  0.0085  0.2223 -0.1066
 1351W        W11044  14.407  12.142  15.959  0.1705 -0.0130  0.0153
 1352W        W11045  16.363   3.607   2.910 -0.0754 -0.1921 -0.0910
 1353W        W11046   6.336   8.722   5.750 -0.0270 -0.0655 -0.2122
 1354W        W11047  13.430   9.094   5.267 -0.4189  0.1576  0.2748
 1355W        W11048   5.467   1.501  12.853 -0.0379 -0.1380  0.1884
 1356W        W11049   8.343  15.109   2.311 -0.0640  0.0128 -0.1516
 1357W        W11050  13.818  13.906  17.233  0.1949 -0.1744 -0.3418
 1358W        W11051   2.670   8.978  16.784 -0.2469  0.0965 -0.1891
 1359W        W11052  15.481  11.438   3.755 -0.1449  0.0060 -0.0074
 1360W        W11053  15.800  14.820   2.731  0.0245  0.0903  0.0966
 1361W        W11054  12.937   7.796   0.649  0.3811  0.1975 -0.1545
 1362W        W11055   7.795  13.903   2.239 -0.1458 -0.1576  0.1502
 1363W        W11056   4.856  12.667  14.674 -0.1275 -0.1927  0.1138
 1364W        W11057   4.742  11.624   3.194 -0.1210 -0.0020 -0.2400
 1365W        W11058  11.308   5.419   6.104  0.1725 -0.2224 -0.0355
 1366W        W11059   0.892   2.529   1.018  0.0843 -0.0644 -0.0764
 1367W        W11060  15.301   0.101   1.384  0.0287 -0.2890  0.4276
 1368W        W11061   7.776  15.765   6.869 -0.1768 -0.4741  0.2907
 1369W        W11062  15.656  14.090   0.585 -0.0187 -0.2508  0.1713
 1370W        W11063  15.355  14.417   0.913 -0.0977  0.0775  0.1835
 1371W        W11064   7.895  13.659  15.570  0.1329 -0.3249 -0.0709
 1372W        W11065   0.770   7.206  12.984 -0.1194 -0.0053  0.2309
 1373W        W11066  17.615   2.578   1.454 -0.1192  0.1256 -0.1513
 1374W        W11067   8.546   6.355  12.369 -0.0548 -0.2775  0.0717
 1375W        W11068  14.043   3.172  11.786  0.3867  0.0921  0.0555
 1376W        W11069  15.248  12.802   6.800  0.1561  0.1919 -0.0175
 1377W        W11070   6.113  11.743   0.944  0.0207 -0.1962  0.3336
 1378W        W11071  10.927   4.825   1.075 -0.2778  0.1410 -0.0453
 1379W        W11072   3.722  16.102   0.667 -0.0807 -0.5140 -0.0587
 1380W        W11073   6.023   5.458  12.941  0.1367 -0.5349 -0.0593
 1381W        W11074   5.790  11.753  14.089 -0.1282  0.2082 -0.2145
 1382W        W11075   8.547  17.451   0.551 -0.3138  0.0061  0.0184
 1383W        W11076   1.331   6.215  11.978  0.0344 -0.1389 -0.0237
 1384W        W11077  11.767   6.753   4.146 -0.1756 -0.0410  0.0483
 1385W        W11078  14.061  13.746   1.758  0.2658 -0.1202  0.1654
 1386W        W11079   4.901   2.858   5.486 -0.1255 -0.2472 -0.4384
 1387W        W11080  17.426  12.566   5.284 -0.0027  0.1266  0.1934
 1388W        W11081   3.979  16.471  15.830 -0.0598 -0.0268 -0.0470
 1389W        W11082   4.370  10.395   5.042 -0.2945  0.2456 -0.1375
 1390W        W11083   3.793   0.459   6.035  0.1682  0.2713 -0.3823
 1391W        W11084  15.716   9.856  16.573 -0.1515 -0.1563 -0.3158
 1392W        W11085  14.286   1.712   3.804 -0.2269  0.0871  0.0407
 1393W        W11086   3.539   4.361   0.347  0.1315  0.1247 -0.1488
 1394W        W11087  16.447  15.387   2.307 -0.2875 -0.1542  0.1207
 1395W        W11088   5.575  11.809  13.121  0.0673 -0.1381  0.0523
 1396W        W11089  11.264  17.489   2.229  0.3030  0.1841  0.0841
 1397W        W11090   3.789   0.685  16.474 -0.0324  0.2123 -0.3865
 1398W        W11091   3.117   0.722  15.212 -0.1329  0.1476 -0.2537
 1399W        W11092   5.652  16.548   1.925  0.2460  0.0987  0.0412
 1400W        W11093   9.682  17.546  15.936  0.2405  0.0407  0.0275
 1401W        W11094  14.374  13.530  15.212  0.0476  0.0387 -0.3485
 1402W        W11095  15.793   2.996  15.099  0.1231  0.1619  0.1971
 1403W        W11096  13.131   8.331   1.633 -0.2055  0.1699  0.1573
 1404W        W11097  10.332  16.533  15.814  0.0652 -0.3692  0.0460
 1405W        W11098  15.543  17.625  15.642 -0.0774  0.2974  0.1310
 1406W        W11099   3.384   2.544  17.382 -0.0919 -0.1485  0.0038
 1407W        W11100   4.546   5.415   3.809  0.1711  0.1080 -0.0756
 1408W        W11101   2.789   6.600  12.533  0.0303  0.0014  0.1121
 1409W        W11102   1.816  12.830  17.509 -0.0073  0.0345  0.2729
 1410W        W11103  12.366   2.165   1.410  0.1176  0.0029  0.4079
 1411W        W11104  10.804   9.534   6.628  0.1316 -0.2105  0.0756
 1412W        W11105   7.728   0.527   2.096  0.0691  0.0149  0.1055
 1413W        W11106   3.553  14.294   0.929  0.0290  0.0733 -0.1424
 1414W        W11107  13.745  12.301   4.079 -0.1073 -0.0558 -0.0389
 1415W        W11108  15.409  15.765  17.551 -0.1420 -0.0487 -0.1898
 1416W        W11109   8.815  16.910  16.528 -0.2650 -0.1867 -0.0399
 1417W        W11110   3.517   1.001   3.622 -0.0508  0.0272 -0.1017
 1418W        W11111   1.295  10.576   4.173  0.3578 -0.1148 -0.2798
 1419W        W11112   9.092   5.073  14.622 -0.0523 -0.1636  0.2462
 1420W        W11113  12.153  15.190   6.735  0.1072  0.2429  0.2607
 1421W        W11114   4.446  10.390   6.509 -0.0541  0.0017  0.0447
 1422W        W11115  12.464   3.651   3.796 -0.1888  0.0025  0.0130
 1423W        W11116   4.859   0.114  15.015  0.1915  0.3658 -0.1957
 1424W        W11117   5.531  15.579   1.155  0.1114 -0.2847 -0.2541
 1425W        W11118  16.041   1.579   5.790 -0.1327 -0.1605 -0.0183
 1426W        W11119   4.388   3.504  14.758  0.1418  0.0317 -0.0995
 1427W        W11120   2.825   7.525   1.451  0.1760 -0.0595  0.2784
 1428W        W11121  13.210   2.433   0.239  0.0453  0.1223 -0.0771
 1429W        W11122   4.017   8.444  16.569  0.1554  0.1308 -0.2127
 1430W        W11123   7.631  16.374   6.101  0.1577  0.2336 -0.3885
 1431W        W11124  12.663  13.167  12.965 -0.0198 -0.0563 -0.2066
 1432W        W11125  12.706  10.134   0.098 -0.0388 -0.0567  0.0002
 1433W        W11126  15.162   0.299  15.573  0.1272 -0.1991 -0.0425
 1434W        W11127   0.590   4.355   2.913  0.2569 -0.3042 -0.2663
 1435W        W11128   7.845  10.554   1.075 -0.2695  0.2662  0.2044
 1436W        W11129   3.713  10.642  17.487 -0.0304 -0.2275 -0.0036
 1437W        W11130   9.042  14.244   0.198  0.0119 -0.2664  0.0226
 1438W        W11131  17.045  14.067  17.372 -0.2053 -0.2274  0.1305
 1439W        W11132  14.957  10.202  12.895  0.1184 -0.0631 -0.1259
 1440W        W11133   0.189   8.850   1.460  0.1735 -0.1534  0.0093
 1441W        W11134   3.667   1.745  17.623 -0.3415  0.0037 -0.1547
 1442W        W11135   2.719   8.620  12.644  0.0639  0.3540 -0.0966
 1443W        W11136   7.061  11.110   4.202  0.0342 -0.2284  0.1293
 1444W        W11137   0.278  10.090  17.642  0.0778 -0.0127 -0.0567
 1445W        W11138   1.637  10.422   1.586 -0.1102 -0.3235 -0.1139
 1446W        W11139   7.774  16.939  14.672 -0.1219 -0.0200 -0.3425
 1447W        W11140  13.483  12.217   2.015  0.0604  0.0274 -0.0457
 1448W        W11141   6.245   5.909  15.287  0.1706  0.3067  0.0933
 1449W        W11142   6.924  14.905   0.747  0.0576  0.2146 -0.2367
 1450W        W11143   9.902   6.636  14.428  0.2700 -0.1299 -0.2546
 1451W        W11144   0.636  11.477  13.274 -0.0436  0.2170 -0.1746
 1452W        W11145   4.986  17.574  14.486 -0.1782  0.0359 -0.0429
 1453W        W11146  11.751   2.141   1.253 -0.0678 -0.0431 -0.0758
 1454W        W11147  12.505  15.542   5.983 -0.1145  0.0428 -0.0512
 1455W        W11148  13.274   0.066   4.703 -0.1528 -0.1365  0.0191
 1456W        W11149   6.092   1.982  16.615 -0.3476  0.3841  0.5544
 1457W        W11150   9.909   0.212  13.595  0.1160 -0.1769 -0.1154
 1458W        W11151   4.857  13.900  16.513 -0.1689 -0.1215  0.1591
 1459W        W11152   1.250  13.297   7.258 -0.0802 -0.0362  0.1374
 1460W        W11153   0.657   7.604   1.216 -0.1612 -0.1388  0.1518
 1461W        W11154  14.717   1.256  15.509 -0.3194 -0.2696 -0.1512
 1462W        W11155  13.877  14.576   5.462  0.2169  0.0289  0.2347
 1463W        W11156   7.389  10.730  16.093 -0.0631  0.0906 -0.1682
 1464W        W11157   5.297   1.087  15.807  0.1717 -0.0602 -0.0154
 1465W        W11158   5.978   4.447   0.029  0.0853 -0.1853  0.1192
 1466W        W11159   6.387  11.835  12.027 -0.2856  0.0468  0.3268
 1467W        W11160   9.647   4.005   2.644 -0.2104 -0.4248  0.0520
 1468W        W11161   4.714  14.271  16.102  0.2678  0.0345 -0.1726
 1469W        W11162  10.112   3.648  16.461  0.2088 -0.1729 -0.2824
 1470W        W11163  13.243   5.309   2.712 -0.2655  0.0859 -0.0174
 1471W        W11164   5.503  15.987  13.684  0.3486  0.1378  0.0395
 1472W        W11165  10.207  10.457   1.828 -0.1306  0.0159 -0.2377
 1473W        W11166   4.410   8.759   4.231 -0.3348  0.2549  0.0075
 1474W        W11167  12.255   8.290   3.928 -0.0681 -0.0714  0.1459
 1475W        W11168   7.562   8.970   0.820  0.0144  0.1723 -0.0683
 1476W        W11169  17.119  13.830  15.373 -0.1954 -0.2805  0.1177
 1477W        W11170  11.580  12.813   0.911  0.0969 -0.0953  0.1300
 1478W        W11171   4.680   9.642  13.780 -0.1288  0.0573 -0.1833
 1479W        W11172  16.372   5.763   3.240 -0.3167  0.2681  0.3022
 1480W        W11173   3.226  13.079  11.425 -0.1655  0.1602  0.0515
 1481W        W11174  11.106  14.974   6.007 -0.1602 -0.4378  0.1096
 1482W        W11175  10.906  15.495  14.223  0.0502 -0.1606  0.3132
 1483W        W11176   5.116   9.399   0.885 -0.2978 -0.1612 -0.3759
 1484W        W11177   8.263   1.657   0.473 -0.1740  0.0623  0.0204
 1485W        W11178   7.117   7.358  10.942  0.0091  0.2175 -0.1181
 1486W        W11179  12.943  14.966  13.570  0.2469 -0.0709  0.0178
 1487W        W11180  13.763   1.095  13.213  0.1606 -0.0860  0.0482
 1488W        W11181   9.422  10.309  13.822  0.1523 -0.4769 -0.2088
 1489W        W11182  16.177  16.121   4.492 -0.0032 -0.0445  0.2275
 1490W        W11183  12.851   9.320   4.590 -0.2927  0.3015 -0.0629
 1491W        W11184   8.397   8.572   4.678 -0.3076 -0.0857  0.0380
 1492W        W11185   0.399  13.192  16.976 -0.2778 -0.1263 -0.1340
 1493W        W11186   2.537   9.197  15.953  0.0106  0.0642  0.2944
 1494W        W11187  13.644   9.906   2.391  0.0622 -0.3564  0.0236
 1495W        W11188   2.263   5.650  16.599  0.2701  0.1324 -0.2510
 1496W        W11189   8.105  17.677   0.519  0.0757  0.0450  0.1067
 1497W        W11190   3.256   1.613   6.139  0.0813  0.2124  0.1177
 1498W        W11191   0.829   4.439  11.662 -0.1528 -0.1113  0.1245
 1499W        W11192  15.584   7.435   2.802 -0.1629  0.1379  0.1579
 1500W        W11193  17.305   4.578   1.860 -0.0056 -0.1391  0.0167
 1501W        W11194   8.285   0.820   4.057 -0.0018  0.1277  0.1203
 1502W        W11195  15.624   7.723  16.943 -0.0090  0.0315 -0.0210
 1503W        W11196   1.060   6.448   5.169 -0.1512 -0.2691 -0.1970
 1504W        W11197   6.621   8.964  16.078  0.0783  0.1737 -0.0684
 1505W        W11198   5.283  13.498  14.409  0.0096 -0.4732  0.0658
 1506W        W11199  13.757  10.569   0.759  0.0120  0.2505 -0.1766
 1507W        W11200  16.493  16.092   5.621 -0.1635  0.1678  0.0365
 1508W        W11201   8.878   8.720   4.284 -0.2728  0.2266  0.3106
 1509W        W11202  15.041   2.261  13.967  0.0941  0.3021  0.1530
 1510W        W11203   8.169   2.551  17.328 -0.1565 -0.2951 -0.2186
 1511W        W11204   5.265   7.960  12.265  0.0927  0.0194 -0.1669
 1512W        W11205  13.805   6.573  15.215  0.1621 -0.1319 -0.0357
 1513W        W11206  10.336   6.877  12.125  0.1642  0.2098 -0.1364
 1514W        W11207  15.921  12.193   1.130  0.1191  0.3361 -0.3129
 1515W        W11208   5.874   4.919  12.765  0.0049  0.2786 -0.2233
 1516W        W11209  12.022   5.579  12.370  0.2618  0.1372 -0.0440
 1517W        W11210   5.517  11.729   6.369 -0.3764 -0.2277 -0.3974
 1518W        W11211  14.479   5.580  15.688 -0.0220  0.1473  0.0775
 1519W        W11212   6.042   6.868  16.884  0.0131 -0.1411  0.1427
 1520W        W11213   6.274   6.395  15.243 -0.0782 -0.1054  0.2741
 1521W        W11214  16.244   2.075  17.066  0.0963  0.1506 -0.0829
 1522W        W11215   4.228  14.256   4.844  0.0704 -0.2657  0.1866
 1523W        W11216   6.006   9.514  11.863 -0.0870 -0.4102 -0.1659
 1524W        W11217   4.014  14.680   1.217  0.2546 -0.0727 -0.1521
 1525W        W11218  14.364  16.549  16.962  0.1012 -0.0188 -0.1047
 1526W        W11219   9.428  14.953   3.657 -0.0249  0.4431 -0.3245
 1527W        W11220  10.668  15.320   5.888 -0.0455 -0.2735 -0.1071
 1528W        W11221  13.596   4.237   5.447  0.2359 -0.1637  0.1750
 1529W        W11222   7.855   0.951  13.397  0.1364  0.2489  0.0807
 1530W        W11223  15.860   0.921  16.990 -0.0561 -0.2409 -0.1239
 1531W        W11224   4.807   2.988   1.849  0.1815  0.0896 -0.0824
 1532W        W11225   5.402   8.775   1.964 -0.0508  0.0150 -0.1386
 1533W        W11226  13.613   4.308   3.272  0.0597  0.1031  0.1909
 1534W        W11227  11.955   5.034  15.980  0.0707  0.0870 -0.0878
 1535W        W11228   5.351   3.545   4.038 -0.2171 -0.2026  0.1010
 1536W        W11229  16.824   6.326   6.194 -0.1792  0.2348 -0.4245
 1537W        W11230  12.756   0.412   4.415  0.2144  0.1870 -0.4422
 1538W        W11231   9.995   1.293   5.626  0.1232  0.2070 -0.1526
 1539W        W11232  14.537  12.302   1.834  0.0320  0.0625 -0.0305
 1540W        W11233   3.865  13.034   2.729 -0.3156 -0.0306 -0.1056
 1541W        W11234  16.991   4.285   2.149  0.2311  0.2852 -0.0017
 1542W        W11235   2.608  11.368   1.070  0.1366 -0.0582 -0.0100
 1543W        W11236   7.486   2.288  17.632  0.0030  0.0508 -0.0613
 1544W        W11237  16.852  13.314   1.586 -0.0563 -0.0066 -0.1661
 1545W        W11238   5.060   0.937   4.668 -0.2351  0.0685  0.2286
 1546W        W11239   4.745  15.463   2.347 -0.0817 -0.0163  0.0470
 1547W        W11240  13.275  13.956   3.609 -0.0073  0.0123  0.1853
 1548W        W11241   4.586   3.179   2.290  0.0527 -0.0168  0.0633
 1549W        W11242  14.517   8.962   4.710 -0.1225 -0.1585 -0.2838
 1550W        W11243   6.376   9.850   4.256  0.2867 -0.3415 -0.3058
 1551W        W11244  15.312  13.564   2.320 -0.0712 -0.2929  0.2179
 1552W        W11245  12.276  17.325  15.998 -0.0481 -0.0645  0.0202
 1553W        W11246  14.530  10.454   6.400 -0.3583 -0.0322 -0.3258
 1554W        W11247   1.469  15.870   2.529  0.0093  0.1490 -0.4851
 1555W        W11248   2.226   5.636  15.238  0.0980  0.2101  0.0282
 1556W        W11249   0.999   9.789  15.201 -0.2176 -0.1423  0.0289
 1557W        W11250   5.037  16.647   3.586 -0.0696 -0.0839  0.4062
 1558W        W11251  13.623  12.679   3.643  0.1588 -0.0063 -0.0200
 1559W        W11252   7.216  13.453   2.286  0.2399 -0.2821 -0.2924
 1560W        W11253  11.260  12.650  17.357  0.1960  0.1652  0.6252
 1561W        W11254  16.390   6.682  10.986  0.0521 -0.0722  0.0204
 1562W        W11255   7.645  11.927  13.299  0.1843  0.1494 -0.0004
 1563W        W11256  10.624  14.817   3.306 -0.2466 -0.0592 -0.0506
 1564W        W11257   9.031   2.898   5.815 -0.0947 -0.1286 -0.0519
 1565W        W11258  10.760   8.794   0.246 -0.3011  0.0899 -0.1551
 1566W        W11259  16.551  10.024   4.788 -0.2055  0.1437 -0.1856
 1567W        W11260   0.603  11.009   4.989 -0.0388 -0.1103 -0.2261
 1568W        W11261  16.009   8.668  13.357  0.2932 -0.1643 -0.0644
 1569W        W11262  13.686  17.086   0.463 -0.1746 -0.1661  0.0417
 1570W        W11263  12.440   0.987   4.763  0.0317  0.1132  0.0167
 1571W        W11264   0.901   0.279   5.254  0.1298 -0.1239  0.1188
 1572W        W11265   2.855   7.522  13.293  0.2691 -0.1434  0.3185
 1573W        W11266   4.651  16.918   3.322  0.0143  0.1199 -0.0118
 1574W        W11267  13.382   4.102  11.771 -0.3051 -0.2917 -0.1398
 1575W        W11268   0.427  11.634   5.930  0.2471 -0.1978 -0.1322
 1576W        W11269   7.261  11.331   2.529 -0.3273 -0.0180  0.1040
 1577W        W11270   6.622  15.992  14.090 -0.0161  0.0331  0.1097
 1578W        W11271   8.818  16.438   5.351 -0.4143  0.0428 -0.1116
 1579W        W11272   9.801   3.587   1.246  0.0528  0.1388  0.2329
 1580W        W11273   2.407   2.556   1.264  0.0836  0.2665 -0.0701
 1581W        W11274  10.542  17.568  16.003 -0.1292 -0.0507  0.2305
 1582W        W11275   3.463   6.170  15.446 -0.1217  0.1887  0.2786
 1583W        W11276  12.615  12.245  17.145  0.2362  0.1387 -0.0945
 1584W        W11277   7.368   5.354   2.235 -0.1149  0.0033  0.0444
 1585W        W11278   8.689  14.296  16.550 -0.0832 -0.0005  0.0479
 1586W        W11279   7.913   0.723   6.589 -0.0855  0.0873 -0.1821
 1587W        W11280   9.847  13.687   0.434  0.0128  0.1540 -0.3220
 1588W        W11281  12.158   8.677   4.325 -0.0275  0.2376 -0.0843
 1589W        W11282  16.705   2.138  15.470  0.1164 -0.1882 -0.1102
 1590W        W11283  15.774  16.780  15.484  0.0171  0.0023  0.0453
 1591W        W11284   8.583   1.311   6.704  0.2469  0.2462  0.5177
 1592W        W11285  16.393   9.114  12.592  0.2763 -0.1971 -0.2401
 1593W        W11286  16.444   9.141   0.581  0.3234  0.2181  0.1567
 1594W        W11287   5.796  17.215  15.820 -0.0175  0.3148  0.2220
 1595W        W11288   5.189   7.843  15.514 -0.1556 -0.2232  0.0075
 1596W        W11289   6.474  11.065   3.558  0.3124 -0.3284  0.0106
 1597W        W11290  14.836  14.357   0.332  0.2745 -0.0728  0.1933
 1598W        W11291   8.173   3.197   0.428  0.0512 -0.2244 -0.1273
 1599W        W11292  17.269  14.047  13.225  0.0796 -0.0360 -0.0068
 1600W        W11293   4.508   6.337   2.122 -0.2389 -0.0370  0.1345
 1601W        W11294  11.931   3.754   5.856  0.1875  0.3364 -0.0722
 1602W        W11295   2.880  10.770  14.728  0.0314  0.2792  0.2947
 1603W        W11296   5.596  15.366   5.446 -0.1512  0.1481 -0.2191
 1604W        W11297   2.428   8.367   4.128 -0.1319  0.3695 -0.1585
 1605W        W11298   9.817  16.432  12.914 -0.0861 -0.2446  0.0833
 1606W        W11299   0.961   4.768  13.150 -0.1313 -0.2814 -0.0655
 1607W        W11300  11.238  12.466   0.663  0.1077 -0.0906 -0.0371
 1608W        W11301   8.506   7.109   6.088  0.1261 -0.1968  0.0873
 1609W        W11302  13.768   8.584   2.064 -0.2492 -0.1825  0.0347
 1610W        W11303  14.118   2.000  13.150  0.0367  0.1122 -0.1898
 1611W        W11304  16.497  12.529   4.823  0.0830  0.2961 -0.0175
 1612W        W11305   2.268   0.975  15.729 -0.1685  0.1586  0.0859
 1613W        W11306  14.036   2.870  15.411 -0.2319 -0.2410 -0.2172
 1614W        W11307  11.217   9.479   6.205 -0.0794  0.1836 -0.0986
 1615W        W11308  14.540   7.937  15.380  0.0673 -0.1005 -0.0467
 1616W        W11309  11.053  16.755   5.660 -0.0669  0.0323 -0.0779
 1617W        W11310   5.396  13.322  11.052 -0.1899  0.0358 -0.0921
 1618W        W11311   4.921   5.900   5.744 -0.0000 -0.1690 -0.2411
 1619W        W11312   9.972   5.039  15.722  0.0962 -0.2305  0.1381
 1620W        W11313   8.964  13.064  12.133  0.3418  0.1946 -0.0087
 1621W        W11314   5.031   4.829   1.537 -0.1764  0.1603  0.2029
 1622W        W11315   1.988  10.296  15.559 -0.0656  0.0656  0.1082
 1623W        W11316   8.146  10.160   1.912 -0.1015  0.0671  0.0059
 1624W        W11317   6.085   5.337   2.237  0.1041 -0.0165 -0.0360
 1625W        W11318  13.280   6.988  17.091  0.0033  0.0550 -0.0315
 1626W        W11319   8.859  12.053   2.991 -0.0754 -0.3587  0.0373
 1627W        W11320  12.923   3.474   2.375 -0.1550  0.0028 -0.1214
 1628W        W11321   4.980   4.565   4.829 -0.0886 -0.0040 -0.3438
 1629W        W11322  17.174   0.222  14.072  0.2512  0.1179  0.2395
 1630W        W11323  14.501  11.416  14.367 -0.1299  0.0614  0.3598
 1631W        W11324   1.128   0.154  12.090 -0.2089 -0.1350  0.0112
 1632W        W11325   3.162   3.883  17.175 -0.1568  0.0328  0.2130
 1633W        W11326  14.480   5.619  17.488 -0.0395 -0.1723 -0.0695
 1634W        W11327   1.284   8.398   1.131 -0.0268  0.1988  0.3726
 1635W        W11328  10.249   3.284  16.168  0.1188 -0.0762 -0.0915
 1636W        W11329   1.135  15.457   4.217 -0.1847 -0.1921  0.2663
 1637W        W11330   7.069  13.400   2.814  0.3467  0.3610 -0.2248
 1638W        W11331  14.138   6.382  12.151  0.0747  0.1155 -0.2085
 1639W        W11332  13.595   4.697  11.789  0.1687  0.0213  0.0228
 1640W        W11333   1.584  15.951  13.929  0.0835  0.1624  0.0075
 1641W        W11334  13.173  13.880  17.429  0.1100  0.0133  0.1789
 1642W        W11335   9.205  10.542   3.849 -0.0793 -0.0037 -0.3489
 1643W        W11336   2.863   9.381  13.869  0.2308 -0.1605  0.0722
 1644W        W11337  13.087   4.777  17.307  0.0176 -0.2224  0.2332
 1645W        W11338  13.421  13.300   1.137 -0.1050 -0.0035 -0.0606
 1646W        W11339  12.595   9.386   0.682 -0.3382  0.0096 -0.1533
 1647W        W11340   8.557  16.610  15.716  0.2366 -0.0873  0.0490
 1648W        W11341  14.817  14.891   0.344 -0.0587 -0.2675 -0.1459
 1649W        W11342   9.397   2.939  17.424  0.4615  0.0363 -0.0536
 1650W        W11343  10.682   8.050  13.277 -0.1221  0.1374  0.2870
 1651W        W11344  11.875   7.925  16.342  0.0364 -0.1387  0.1113
 1652W        W11345  11.937  14.090   1.773 -0.1719  0.1464  0.0181
 1653W        W11346   2.562   4.756   5.629  0.0131 -0.3970 -0.0972
 1654W        W11347  13.793  17.343   4.117 -0.0615  0.0508 -0.4491
 1655W        W11348  15.866  16.078   2.329  0.3686  0.4498 -0.5223
 1656W        W11349  12.402   8.772   3.922 -0.4523  0.1063  0.0420
 1657W        W11350  15.530   3.408  12.332 -0.0536  0.2738  0.0564
 1658W        W11351   2.095   1.926   0.862 -0.0403  0.0059  0.2873
 1659W        W11352  16.314   8.837  15.572 -0.1205 -0.0305 -0.1352
 1660W        W11353  12.791  11.787   5.543 -0.0854  0.4857  0.1257
 1661W        W11354   1.469   7.717  16.448  0.1142  0.3010  0.2112
 1662W        W11355  15.859   3.916   0.544 -0.1535 -0.2797 -0.2953
 1663W        W11356  11.410   6.844  14.817  0.1569  0.1555 -0.1440
 1664W        W11357   9.403   0.680   1.092  0.0781 -0.0375 -0.1233
 1665W        W11358   1.891  10.129   1.917 -0.1080 -0.1061 -0.2077
 1666W        W11359  17.592  17.612   0.162  0.2725  0.1054 -0.0047
 1667W        W11360   7.174  17.617   3.798 -0.1786  0.4884  0.0666
 1668W        W11361  11.853   8.533   5.228 -0.0774  0.2018 -0.0341
 1669W        W11362   9.900   6.883   0.474 -0.2310  0.2053 -0.2838
 1670W        W11363   2.668   0.249   5.171  0.1948  0.1620 -0.1485
 1671W        W11364   8.103  11.896   6.503 -0.2832 -0.3069 -0.2022
 1672W        W11365   5.552  15.090  16.848 -0.2059  0.0321 -0.4031
 1673W        W11366   7.004   2.527  11.683  0.2144 -0.3759  0.3415
 1674W        W11367  10.316   8.624   4.115 -0.2075  0.0841  0.0069
 1675W        W11368   4.928  10.518   2.382  0.1587 -0.0344 -0.4295
 1676W        W11369   7.414  13.048   0.059  0.0177 -0.2762  0.0541
 1677W        W11370   3.192   0.228  17.117  0.0029  0.0224  0.0667
 1678W        W11371   8.536   6.383   1.429 -0.0026  0.1026 -0.0887
 1679W        W11372   3.641   8.082   5.486 -0.0093  0.1236  0.1148
 1680W        W11373   3.491   0.569  14.434  0.1532  0.0344  0.1140
 1681W        W11374  17.183   8.232   1.089 -0.2368 -0.1122 -0.0287
 1682W        W11375  13.348  14.479   0.703  0.0784  0.1229  0.0498
 1683W        W11376   9.573  13.601   3.713  0.1039 -0.0424 -0.1982
 1684W        W11377  10.518  16.522   6.625  0.1596 -0.1229  0.1591
 1685W        W11378  17.561  16.761   2.796 -0.0719  0.0609  0.0517
 1686W        W11379   5.366  13.203   0.953  0.0747 -0.0220 -0.2198
 1687W        W11380   1.542   2.842  11.616 -0.0090 -0.3549 -0.0610
 1688W        W11381  13.815  13.826  12.871 -0.4421  0.0698  0.0642
 1689W        W11382   5.592   8.465  11.635  0.0653 -0.1155  0.2527
 1690W        W11383   9.718   8.188  17.480 -0.0328  0.2637 -0.0621
 1691W        W11384  14.005   5.749  13.985 -0.2096  0.2616  0.0398
 1692W        W11385   9.607   3.978  15.790  0.1832  0.2592  0.0846
 1693W        W11386   0.885  13.182  17.075 -0.2359  0.2154 -0.2790
 1694W        W11387  13.434   3.221  16.013  0.3382 -0.0527 -0.0973
 1695W        W11388   7.737  14.293  12.206  0.2178  0.0963 -0.0665
 1696W        W11389  12.298  11.023   6.495 -0.1555 -0.3587 -0.2147
 1697W        W11390  10.929   9.247  13.162 -0.1022  0.1355  0.1354
 1698W        W11391   2.411   0.715  13.783 -0.3486 -0.1878 -0.0745
 1699W        W11392  11.444   7.834  12.874 -0.0945 -0.0506 -0.0316
 1700W        W11393   0.139  15.794  12.072 -0.4095  0.3525  0.0085
 1701W        W11394   9.328   8.799  16.365 -0.1072 -0.1019 -0.3513
 1702W        W11395   8.857   0.769  11.695 -0.1479 -0.0243 -0.2257
 1703W        W11396   5.548  17.668  14.726 -0.1913 -0.0372  0.0120
 1704W        W11397  14.873   7.617   4.639  0.0818  0.1754 -0.0902
 1705W        W11398   4.774  17.064   3.844  0.1662 -0.0443  0.1098
 1706W        W11399  12.312  13.797   3.210 -0.2940  0.1741 -0.1380
 1707W        W11400   2.196   1.824   6.116 -0.0575 -0.1838  0.0186
 1708W        W11401  12.874  16.915  17.036  0.0317  0.1328 -0.0770
 1709W        W11402   4.849   5.275   1.322 -0.0691  0.1973 -0.2648
 1710W        W11403   9.302   4.998  15.230 -0.0641  0.3972 -0.0957
 1711W        W11404  15.646  12.870   6.371  0.2251 -0.0523 -0.2598
 1712W        W11405  16.905   8.262   3.937  0.0527  0.1948  0.2166
 1713W        W11406  10.512   9.154  16.080 -0.3450 -0.2433 -0.1356
 1714W        W11407   4.049  14.329  14.503  0.0162 -0.0962  0.1510
 1715W        W11408   0.386   4.431   2.476 -0.1456  0.2293 -0.2262
 1716W        W11409   9.966  12.759  15.400  0.0322  0.0397  0.1428
 1717W        W11410   0.359   2.290   4.596 -0.0924  0.1643  0.0053
 1718W        W11411   1.723   5.446  14.525  0.1390  0.1558 -0.1460
 1719W        W11412   9.800   4.271  14.005 -0.3764  0.1593 -0.0186
 1720W        W11413  16.758   2.976   1.302  0.3747 -0.2147 -0.0783
 1721W        W11414  15.021  13.234   6.815  0.2302  0.2364  0.0004
 1722W        W11415   8.107   6.298   6.625  0.1692  0.0815  0.2453
 1723W        W11416   5.755  13.429  14.148 -0.1529  0.0147  0.1792
 1724W        W11417   1.865   2.997  17.227 -0.3156  0.0142  0.2878
 1725W        W11418   9.608   2.415   3.831 -0.2572  0.0171 -0.0683
 1726W        W11419  14.037  12.254   4.614 -0.0805 -0.1749  0.0541
 1727W        W11420  11.596  13.437   6.766  0.2086  0.1814 -0.1751
 1728W        W11421  16.077   5.123  16.731 -0.2384 -0.1973 -0.3043
 1729W        W11422   8.357   4.982   1.429 -0.0275 -0.1110  0.1958
 1730W        W11423  17.476  14.754  14.398  0.1898  0.1685 -0.0823
 1731W        W11424   9.187   8.813   4.738  0.0621  0.0415  0.0057
 1732W        W11425  17.645   5.199  17.308  0.0304 -0.2675  0.2320
 1733W        W11426  11.913   5.783   3.128 -0.1121 -0.1737 -0.0762
 1734W        W11427   9.986   2.596   4.342  0.0694 -0.0363 -0.3409
 1735W        W11428  10.197   7.368  15.937 -0.1871 -0.1151 -0.2492
 1736W        W11429  15.112  16.589   3.611  0.2006  0.1896 -0.1093
 1737W        W11430   8.951  14.989   5.390  0.0152  0.0730 -0.1738
 1738W        W11431   6.323  14.922   4.435  0.1300  0.2618 -0.1564
 1739W        W11432  16.782  12.705   0.526 -0.0329  0.0677  0.2225
 1740W        W11433   0.377   2.751   4.681  0.0062 -0.1486  0.2065
 1741W        W11434   9.687   7.120   2.814  0.1865 -0.2183 -0.4961
 1742W        W11435   4.028   4.828   3.253  0.1385  0.0692  0.0016
 1743W        W11436   2.687  17.035  14.753 -0.1528  0.2284  0.3288
 1744W        W11437  13.447   7.539  12.646 -0.1837  0.2189 -0.0400
 1745W        W11438   4.348  15.745   5.107 -0.0969 -0.0021  0.0359
 1746W        W11439   9.416  16.158   4.757  0.1041  0.0916 -0.0097
 1747W        W11440   7.693  17.504  11.631  0.0465  0.0623 -0.0389
 1748W        W11441   0.435   4.521  17.144 -0.0636  0.3680  0.2067
 1749W        W11442  16.200   2.429   1.972  0.0185  0.1663  0.0932
 1750W        W11443   1.965   3.578  13.259 -0.0835  0.1764 -0.0803
 1751W        W11444   5.099  14.971   3.516  0.1165 -0.3189  0.0117
 1752W        W11445  11.920  15.810   3.472 -0.1767  0.1794 -0.2200
 1753W        W11446   5.363  13.489  13.806 -0.2259 -0.1197  0.0391
 1754W        W11447   5.064  10.487  12.830 -0.1550  0.2594 -0.0834
 1755W        W11448   8.999   6.495   0.015  0.1168 -0.1428  0.3029
 1756W        W11449   7.690   2.305   0.900 -0.0536 -0.3028 -0.0234
 1757W        W11450  12.057   4.619   0.498  0.0972 -0.0444 -0.1637
 1758W        W11451   1.555  11.366  12.122 -0.1412 -0.1801 -0.1508
 1759W        W11452   4.106   6.791  13.233 -0.1638 -0.0447 -0.1660
 1760W        W11453   1.572  13.578  13.952 -0.0004  0.3066  0.1091
 1761W        W11454   0.513   5.914   2.023 -0.0799  0.1729 -0.1697
 1762W        W11455   3.838   1.411  11.922  0.0883  0.2502  0.3335
 1763W        W11456  16.366   8.023   6.291  0.0766 -0.1569  0.0228
 1764W        W11457   0.361   2.397  16.742 -0.3454 -0.0652  0.3794
 1765W        W11458   9.021   8.866  15.960  0.0978  0.1926  0.0841
 1766W        W11459   9.651   6.415  11.586 -0.1593  0.1726  0.0799
 1767W        W11460   2.948   3.569   4.173  0.1629  0.4405 -0.0506
 1768W        W11461   0.231   3.346   1.158 -0.2700 -0.1006  0.1868
 1769W        W11462   5.535   0.602  17.184  0.2997  0.0339 -0.4175
 1770W        W11463   8.306   5.081   1.899  0.2637  0.2388  0.0092
 1771W        W11464  10.555  14.205  14.270  0.1589  0.0859 -0.3128
 1772W        W11465   1.542  14.451  17.156 -0.0566 -0.0778 -0.2354
 1773W        W11466  10.581  14.656  14.327 -0.1006 -0.1553 -0.0618
 1774W        W11467  17.414  15.019  16.062 -0.2865  0.0255 -0.0512
 1775W        W11468  15.563   9.864  16.088  0.0269  0.1041  0.1031
 1776W        W11469   2.807  11.165  15.038 -0.1975  0.2658  0.2684
 1777W        W11470   2.520  11.321   1.601  0.0096  0.0926  0.1804
 1778W        W11471   0.597   1.401  15.512  0.1161 -0.1351  0.1288
 1779W        W11472   6.862   3.961   4.739  0.0143  0.1521  0.1461
 1780W        W11473   6.198  11.996  16.612  0.0550  0.2654 -0.3556
 1781W        W11474   6.054  14.668  17.205 -0.1174 -0.2855  0.2333
 1782W        W11475  16.568   2.418  12.007 -0.2707 -0.0000 -0.4373
 1783W        W11476  10.922   0.257   4.778 -0.0395 -0.0767  0.3018
 1784W        W11477   9.058   8.401   5.162 -0.1739  0.1880 -0.1442
 1785W        W11478  12.630  17.631   1.716 -0.4054 -0.1976 -0.0062
 1786W        W11479   1.504   4.479   2.169  0.1025 -0.0553 -0.1307
 1787W        W11480  11.832   2.336   5.930 -0.0853  0.2075 -0.0233
 1788W        W11481   3.539  11.370   2.767 -0.1355  0.4820 -0.1624
 1789W        W11482   5.269  12.318   2.707 -0.0370 -0.0920  0.0675
 1790W        W11483   0.070   3.039   5.516 -0.0977  0.1035  0.1992
 1791W        W11484   2.204   3.301  13.777  0.1192  0.2101  0.0334
 1792W        W11485   9.206  10.733  16.697 -0.2863 -0.1318  0.0834
 1793W        W11486   9.707  14.106   1.733  0.1176 -0.1639  0.1636
 1794W        W11487   7.717   6.709   5.088 -0.2079  0.0791  0.1473
 1795W        W11488   6.671  10.350  12.404  0.1141 -0.3129  0.1388
 1796W        W11489   2.244   2.633   4.364  0.1374  0.1601  0.2666
 1797W        W11490   2.439  12.146   1.675  0.0497  0.2551 -0.0786
 1798W        W11491  12.080   7.482   5.836  0.2248  0.1402 -0.4377
 1799W        W11492   8.255   8.964   0.870  0.0005 -0.0978 -0.2235
 1800W        W11493  11.273  15.831   6.442  0.0277 -0.0417  0.1074
 1801W        W11494   9.993  10.532   0.211 -0.0839  0.2109  0.0034
 1802W        W11495   0.160   3.128   0.341  0.0016  0.3202  0.0102
 1803W        W11496   5.153   7.426   3.184  0.1058  0.1839  0.3289
 1804W        W11497   0.629  13.230   1.148 -0.0715 -0.1488  0.0180
 1805W        W11498  12.906   3.618   5.142  0.1718  0.1294  0.1735
 1806W        W11499   0.556  14.365   1.862  0.0684  0.0813  0.0137
 1807W        W11500  13.861   2.072   3.200 -0.0850  0.2935 -0.0297
 1808W        W11501   8.333  13.900  14.272 -0.1841  0.0149 -0.2671
 1809W        W11502   3.036   9.823  17.173 -0.1270  0.2092  0.0922
 1810W        W11503   7.904  16.832   1.675  0.1272  0.0867 -0.1172
 1811W        W11504  17.363  16.602  12.762  0.0366  0.1441  0.0593
 1812W        W11505   6.156  10.171   5.152  0.1520  0.0561 -0.1833
 1813W        W11506   9.277   1.904   2.423 -0.1314 -0.1111  0.1980
 1814W        W11507   9.219  10.356   0.670  0.2985  0.0505 -0.2330
 1815W        W11508  14.483   4.222   6.031  0.0960 -0.2352 -0.0906
 1816W        W11509   1.573   8.004  12.059 -0.2199  0.0123  0.0246
 1817W        W11510   2.604   1.267   3.925 -0.0070  0.0209 -0.1386
 1818W        W11511  12.716   9.731  17.498 -0.1825 -0.0749 -0.3100
 1819W        W11512  10.813   5.133  16.268  0.5262  0.1549  0.1330
 1820W        W11513  16.568  14.914   1.726 -0.1364  0.2478  0.1760
 1821W        W11514   1.850  12.865   2.536 -0.0761 -0.2134  0.0743
 1822W        W11515  11.146   0.006   6.314 -0.2478  0.0193  0.0724
 1823W        W11516  17.117   9.344   2.419 -0.0260  0.0893  0.0160
 1824W        W11517  14.600  11.430   4.160 -0.0803 -0.0866  0.0677
 1825W        W11518  14.035   1.015   2.600  0.0447  0.1565 -0.0988
 1826W        W11519  14.843   8.595   2.625  0.4884  0.2469 -0.0017
 1827W        W11520  13.052  13.238   2.944 -0.3100  0.0441  0.0674
 1828W        W11521   6.371  16.837   3.783 -0.0169  0.0061  0.1393
 1829W        W11522   3.322   1.295  15.022 -0.0525  0.4962  0.4078
 1830W        W11523   0.550  14.037  12.462  0.0996  0.1711  0.0140
 1831W        W11524  12.226   2.729   5.609  0.0198 -0.1789 -0.0123
 1832W        W11525  14.071  16.691   0.586  0.1072 -0.0273  0.1636
 1833W        W11526   4.363  14.396  13.385 -0.1214  0.1408 -0.1719
 1834W        W11527   8.616   7.434  17.495  0.1962  0.0578  0.1910
 1835W        W11528  12.375  11.991   6.237 -0.1110  0.1643 -0.4411
 1836W        W11529   1.517  16.656  15.628 -0.1860 -0.0888  0.0837
 1837W        W11530  14.052   9.950   5.609 -0.0365  0.1671 -0.0374
 1838W        W11531  15.755   2.400  16.959 -0.1370 -0.0594 -0.5176
 1839W        W11532   8.680  12.265  14.758 -0.2506  0.0447 -0.2134
 1840W        W11533  13.037   8.231  12.008 -0.2934 -0.1277  0.3819
 1841W        W11534   8.387  12.906  16.459 -0.1632 -0.0987 -0.0086
 1842W        W11535   3.564   3.278  12.250  0.0863  0.1564  0.0614
 1843W        W11536   7.994  11.050   0.908  0.1142 -0.0736 -0.0960
 1844W        W11537   5.603   5.901  15.100  0.0779  0.0534  0.1726
 1845W        W11538   9.888   1.290  12.033 -0.1688 -0.1864 -0.1014
 1846W        W11539  16.024  12.173   0.641 -0.2823  0.0954  0.0416
 1847W        W11540  12.467  14.621   0.649 -0.0533  0.0474 -0.1812
 1848W        W11541   5.256  11.497   0.125 -0.0861  0.0188  0.3142
 1849W        W11542  15.216  11.914  14.032  0.0145 -0.1244  0.1602
 1850W        W11543   3.611   2.157  12.863 -0.0162  0.1476  0.1055
 1851W        W11544  10.965   0.731  14.301 -0.1090  0.1513  0.2188
 1852W        W11545  12.782   3.931  12.236  0.0218 -0.1668 -0.2019
 1853W        W11546   9.233   7.360  11.323  0.1524  0.1441 -0.1505
 1854W        W11547  17.427   0.041   2.717  0.1042  0.4318 -0.0884
 1855W        W11548   8.970   2.180  12.492 -0.0204  0.0772 -0.0137
 1856W        W11549  11.338   3.182  13.214  0.0644 -0.2366  0.0036
 1857W        W11550   4.417  10.538   4.070 -0.1777  0.0989  0.4527
 1858W        W11551   9.696   7.692  17.214 -0.1032  0.1932  0.4641
 1859W        W11552  17.496   6.661   4.292 -0.0020 -0.2407 -0.2879
 1860W        W11553  17.138   1.851  11.973  0.0516  0.0417 -0.0292
 1861W        W11554   6.799  12.205   2.992  0.3388  0.1406 -0.0147
 1862W        W11555  11.142   4.424  14.688  0.2807  0.2710 -0.1439
 1863W        W11556  13.984  15.233   4.296  0.0160 -0.1955 -0.1753
 1864W        W11557  12.826  14.907   1.921  0.0476  0.2877 -0.0136
 1865W        W11558   0.394  14.207  16.435  0.0560 -0.1769 -0.0509
 1866W        W11559  11.971   5.402   4.098 -0.3234  0.0902  0.0504
 1867W        W11560   4.134  16.874   4.449 -0.1294  0.0541  0.1399
 1868W        W11561  13.546   9.883   5.957  0.0757 -0.0221  0.0944
 1869W        W11562  14.371  10.481   1.868 -0.2726  0.1316  0.3261
 1870W        W11563   2.892   0.652  16.915 -0.2206 -0.1193 -0.2387
 1871W        W11564   1.006   9.591  12.058  0.0656  0.0348  0.1814
 1872W        W11565   3.747   8.070  14.716 -0.2116 -0.0294 -0.0427
 1873W        W11566   8.523   7.101  12.794 -0.0314  0.1888  0.1913
 1874W        W11567  10.268   2.813  15.390  0.1818  0.1884 -0.1077
 1875W        W11568  14.170   8.412   5.624 -0.2127  0.3510 -0.2537
 1876W        W11569  15.113  13.353  16.466  0.2607 -0.0303  0.4273
 1877W        W11570   9.696   8.240   5.643 -0.1361 -0.0115 -0.0510
 1878W        W11571   4.364  13.599  13.916 -0.1261 -0.2912 -0.1123
 1879W        W11572  11.325   5.313  14.765  0.1164  0.1169  0.1089
 1880W        W11573   2.656   9.769  17.438  0.0711 -0.0864  0.1285
 1881W        W11574   5.818   9.096  16.696  0.0358  0.1718 -0.2130
 1882W        W11575  14.409  12.743   5.741 -0.0800 -0.2705 -0.2418
 1883W        W11576   1.237   3.256   1.906  0.0967  0.3188  0.1896
 1884W        W11577   2.113   7.339   3.544 -0.2014  0.0842 -0.2510
 1885W        W11578   8.419  13.368  13.866 -0.1634  0.1495  0.0535
 1886W        W11579   1.740  10.471  14.739  0.1356 -0.2373  0.0146
 1887W        W11580   5.492   2.062   5.917 -0.2665 -0.1532 -0.1023
 1888W        W11581   5.228   6.246  15.056 -0.4964  0.2735  0.4991
 1889W        W11582  15.678  16.203   2.807  0.0242 -0.2032  0.3801
 1890W        W11583   0.966   5.183   0.828  0.1405 -0.2674 -0.1785
 1891W        W11584  15.125   3.981  12.211  0.0336 -0.1023 -0.1062
 1892W        W11585  17.552  12.470   2.161 -0.0039  0.2807  0.1288
 1893W        W11586   1.399   9.189  17.608  0.2667 -0.1405  0.3543
 1894W        W11587   2.812  16.571   4.058  0.1233 -0.0894 -0.2048
 1895W        W11588   9.077   1.642  17.681  0.2185 -0.3124  0.0991
 1896W        W11589  13.457  15.424   4.477  0.5515  0.1853  0.0603
 1897W        W11590  10.028   6.287   3.378 -0.3028  0.0819 -0.0980
 1898W        W11591  17.624  13.531   6.693 -0.4071 -0.0917 -0.0469
 1899W        W11592  16.732   8.799  13.915 -0.1949  0.2411 -0.1346
 1900W        W11593   4.458   3.815  15.747 -0.2772  0.0105 -0.1573
 1901W        W11594   4.908  14.248   3.773  0.0913 -0.3582 -0.1039
 1902W        W11595  12.129   2.575   1.655  0.1105  0.1723 -0.0589
 1903W        W11596  12.242   4.573   4.258  0.1468  0.1277  0.2154
 1904W        W11597   5.928  10.990   0.354 -0.2011  0.3968 -0.0078
 1905W        W11598   5.130   3.021   0.345 -0.1688 -0.2048 -0.2064
 1906W        W11599  13.930   6.483   4.993 -0.0759  0.2772  0.3445
 1907W        W11600  13.182  13.615   5.526 -0.1311 -0.1875 -0.2591
 1908W        W11601  15.751   1.744   2.086 -0.1007 -0.2905  0.1391
 1909W        W11602   0.877   9.042   4.687  0.0962  0.2216  0.0541
 1910W        W11603   6.080   3.222   5.013 -0.4077 -0.0468  0.0106
 1911W        W11604  11.278  13.933   3.063 -0.0501 -0.1343 -0.1446
 1912W        W11605   3.695   7.611  16.898 -0.1353 -0.2034 -0.2531
 1913W        W11606   8.894   7.882   2.460 -0.2320  0.1290 -0.3403
 1914W        W11607  13.371  15.308  13.551 -0.1401  0.7108  0.2716
 1915W        W11608  15.727  11.255  17.035 -0.3260 -0.3062 -0.1360
 1916W        W11609  14.155  10.609  13.267  0.1275  0.0964 -0.0444
 1917W        W11610  10.173   8.513   2.148 -0.0473  0.1674  0.0257
 1918W        W11611  16.071  11.826   1.997  0.3262 -0.0108  0.1320
 1919W        W11612   5.598  13.525  13.238 -0.0618  0.1204 -0.0317
 1920W        W11613  13.447  14.030  15.264 -0.3086 -0.0711  0.0537
 1921W        W11614   9.194   8.184  11.992 -0.1178 -0.0945 -0.1133
 1922W        W11615  10.752   3.193  16.875  0.1824 -0.0034  0.0783
 1923W        W11616   4.702   7.248  12.267  0.0440 -0.0985 -0.0015
 1924W        W11617   3.670  15.029   0.092  0.2200  0.0786  0.1710
 1925W        W11618   1.625  17.287   6.004 -0.2483 -0.0681 -0.3097
 1926W        W11619   7.760   3.279   6.689  0.0370 -0.1738 -0.0981
 1927W        W11620  16.687  11.075   2.413  0.0213 -0.3405 -0.2424
 1928W        W11621  16.612   0.095   2.619 -0.2064  0.0349  0.2092
 1929W        W11622  14.442  16.508   6.657 -0.0219 -0.2342  0.0468
 1930W        W11623   7.139   2.547  17.121 -0.1010 -0.0751 -0.2116
 1931W        W11624   4.849  13.712  13.591  0.0942  0.1018  0.2072
 1932W        W11625  12.675  16.052   5.150  0.2074 -0.3173  0.0800
 1933W        W11626   3.192  17.058  14.571  0.0354  0.2880 -0.5435
 1934W        W11627  12.305   9.378  13.616 -0.0199 -0.3907  0.3813
 1935W        W11628   8.240  14.908   6.184 -0.1388 -0.0308  0.4166
 1936W        W11629  15.788  16.586   3.216  0.0076  0.0649  0.2608
 1937W        W11630  10.504   3.860   0.036 -0.0270 -0.1399 -0.1155
 1938W        W11631   2.648  15.423  14.039 -0.2983  0.2652 -0.0240
 1939W        W11632   5.755   1.046  15.540 -0.3048 -0.0092  0.2774
 1940W        W11633   5.396  13.834   5.039 -0.0439  0.0202 -0.1273
 1941W        W11634  12.084   2.789  13.885 -0.0589 -0.1986  0.1280
 1942W        W11635  15.227   8.044  16.853 -0.1641 -0.0699 -0.0855
 1943W        W11636  10.608  10.253   1.538  0.0086 -0.1460  0.1229
 1944W        W11637  17.475   1.649  15.728 -0.0894 -0.0550 -0.0624
 1945W        W11638  10.181   0.272   2.468  0.3220  0.0717  0.1053
 1946W        W11639   2.608  13.750   1.941  0.0697 -0.2353  0.1987
 1947W        W11640  16.357  16.045  13.895 -0.5143 -0.1305 -0.2681
 1948W        W11641   0.977   5.706  17.022  0.0182  0.1759 -0.0457
 1949W        W11642  13.410  11.929  13.141  0.0594  0.2358 -0.0133
 1950W        W11643   5.324  11.196   3.662  0.0144 -0.1840 -0.0780
 1951W        W11644   8.592   8.778   2.638  0.1712 -0.2408  0.0777
 1952W        W11645   5.045   2.257   5.590 -0.0196  0.0020 -0.1110
 1953W        W11646   0.938   0.162   6.269  0.0025 -0.0148  0.0127
 1954W        W11647   7.377   4.208   0.833 -0.0441 -0.3414  0.2255
 1955W        W11648   7.506   6.224  12.151  0.0746  0.3053 -0.0296
 1956W        W11649  15.533   8.685   3.380 -0.2105  0.2623  0.0534
 1957W        W11650  15.925   5.644   5.115  0.1393 -0.1130  0.0432
 1958W        W11651  10.790   2.907   5.487 -0.1430  0.2426  0.0547
 1959W        W11652  10.654   1.768  16.938  0.3613 -0.0962  0.0229
 1960W        W11653   8.498   3.372  12.266  0.0889  0.2977  0.0318
 1961W        W11654   7.619  16.272   7.003  0.0935  0.0965  0.2494
 1962W        W11655  16.973   8.117  12.516  0.3248 -0.1549 -0.1260
 1963W        W11656   2.770  13.184   1.067  0.0749  0.1560  0.1013
 1964W        W11657   3.487  14.737   1.091  0.1541 -0.1213 -0.0230
 1965W        W11658  17.589  12.341  16.399  0.0765 -0.3648 -0.0448
 1966W        W11659   4.226   0.362  13.398 -0.3006 -0.3057 -0.1516
 1967W        W11660  16.238  10.818   2.864  0.2617  0.0270  0.1737
 1968W        W11661  11.154  11.450   4.682 -0.1359 -0.2684 -0.2618
 1969W        W11662  12.936  12.197   3.904  0.1838  0.2645 -0.2363
 1970W        W11663  11.485   8.936  14.115 -0.2172 -0.1278  0.1013
 1971W        W11664   9.408   4.521   2.338 -0.1635 -0.1024 -0.0945
 1972W        W11665  16.960  13.068  14.868  0.2140 -0.2153 -0.3545
 1973W        W11666   8.590  13.386  11.910 -0.1507  0.0453 -0.1089
 1974W        W11667   1.647   8.912   3.498 -0.2443 -0.0614 -0.0180
 1975W        W11668   2.198   2.445  15.721  0.2086  0.0336 -0.2156
 1976W        W11669  15.802   4.144   1.671 -0.0314  0.1385  0.3736
 1977W        W11670  13.217  10.296  13.900  0.0989  0.0853 -0.1330
 1978W        W11671   6.166  16.177  15.763  0.1227  0.2455 -0.0616
 1979W        W11672   7.688  16.075  13.380 -0.2897 -0.0851 -0.0343
 1980W        W11673   5.533  16.083   3.846 -0.0183 -0.1444 -0.1680
 1981W        W11674   5.592  10.624   0.467  0.0818 -0.0460 -0.2232
 1982W        W11675   1.041   9.014  14.540 -0.0946 -0.2187 -0.0951
 1983W        W11676   6.740  16.945   1.239 -0.0221 -0.2570  0.0595
 1984W        W11677  15.147  17.181   2.363  0.0539 -0.1478 -0.3863
 1985W        W11678  12.804  12.106  14.471 -0.0699  0.0294  0.0295
 1986W        W11679  10.639  15.397   3.199 -0.1317  0.1767 -0.0458
 1987W        W11680  17.272  14.757  16.693  0.1769 -0.0840 -0.0390
 1988W        W11681  13.172   3.990   3.314 -0.0338  0.0553  0.1474
 1989W        W11682   6.962   6.410  12.420 -0.1791  0.2908 -0.0657
 1990W        W11683   2.647  13.458   6.164  0.4638  0.1228 -0.0125
 1991W        W11684   2.100   4.063  12.311  0.0047  0.0865 -0.0783
 1992W        W11685  17.559   6.267  15.948  0.0164 -0.0917  0.1053
 1993W        W11686   9.233   1.947  16.771  0.0207  0.1376 -0.1611
 1994W        W11687   1.316   0.825   3.085  0.2110  0.1210  0.1383
 1995W        W11688   3.830   8.715  13.375 -0.1493 -0.1602 -0.1535
 1996W        W11689  14.040  11.532   6.300  0.0568 -0.0285 -0.1155
 1997W        W11690  13.158   1.027   0.146  0.1162  0.1879 -0.1479
 1998W        W11691   6.059   9.234   5.028  0.0499 -0.3129 -0.0409
 1999W        W11692   3.353   7.696   6.119  0.0175  0.1322 -0.0380
 2000W        W11693  10.290   2.198  13.798  0.0562  0.1530  0.1222
 2001W        W11694  10.937   0.682   2.700  0.3021  0.1082  0.0698
 2002W        W11695  15.270   2.623   6.306  0.1127 -0.1713 -0.2048
 2003W        W11696   8.650   4.041   2.016  0.2187  0.0653  0.3778
 2004W        W11697  12.182   6.663  14.486  0.0676 -0.1542  0.0659
 2005W        W11698  16.895   7.407   3.297  0.3230  0.4453 -0.0226
 2006W        W11699  14.191  15.663  13.064 -0.0670 -0.0995 -0.1295
 2007W        W11700  15.295  12.696  15.279 -0.0326  0.2144 -0.2037
 2008W        W11701   9.922   5.286  14.680 -0.1615 -0.2080  0.3170
 2009W        W11702  15.681  14.094  16.650 -0.2196 -0.2945 -0.1263
 2010W        W11703  13.320   0.483  13.548 -0.0970 -0.0144  0.1782
 2011W        W11704   2.787   4.133  14.412 -0.2141 -0.4477 -0.0673
 2012W        W11705  16.522  11.708  13.156  0.0133 -0.0473  0.3327
 2013W        W11706   0.803   9.209  12.253 -0.2322  0.0767  0.0742
 2014W        W11707   8.815   2.984  16.063 -0.1322 -0.3324  0.2146
 2015W        W11708  12.455   5.011   3.992  0.0487  0.0488 -0.0065
 2016W        W11709  17.299  10.550   5.504 -0.0675 -0.2046  0.2094
 2017W        W11710   6.132  11.800   0.340 -0.2480 -0.2785  0.0356
 2018W        W11711  11.378  13.058   5.409  0.0573  0.1008 -0.3974
 2019W        W11712   3.317   5.760   1.270  0.0440  0.1495 -0.1975
 2020W        W11713   4.026   7.377  16.605  0.2789 -0.0444 -0.2654
 2021W        W11714   6.144   4.289   5.483 -0.1207  0.0169 -0.1851
 2022W        W11715  13.126  12.409  16.247  0.0800  0.1924  0.0193
 2023W        W11716   2.558   2.866   7.162  0.0286  0.4650  0.0383
 2024W        W11717   2.810  17.162   5.266 -0.0219 -0.1828  0.0534
 2025W        W11718  16.468   2.654   4.354 -0.0247  0.1516  0.1205
 2026W        W11719  13.342  15.843  13.576  0.4802 -0.2092 -0.2188
 2027W        W11720  14.127   1.123   4.439 -0.1353  0.0285 -0.1609
 2028W        W11721   9.776  16.148   3.208  0.1980  0.0115  0.1291
 2029W        W11722  10.368   4.707   4.151 -0.0901 -0.3410  0.0700
 2030W        W11723  15.671   6.920  16.046 -0.2038  0.1948  0.0037
 2031W        W11724  15.920   0.900   4.496 -0.0952 -0.1535  0.1508
 2032W        W11725   2.638   6.868  14.115  0.3628 -0.1003 -0.1583
 2033W        W11726  15.338   5.100  16.687 -0.0041  0.0419 -0.0674
 2034W        W11727   4.368  13.871  12.301 -0.2762  0.0287 -0.0235
 2035W        W11728  11.532  11.718  15.925  0.0859 -0.1715 -0.4049
 2036W        W11729  17.249   1.885   2.433 -0.1283  0.0587  0.3482
 2037W        W11730   5.232  10.978  14.186  0.0644  0.3573 -0.2527
 2038W        W11731   5.593  15.687  12.159 -0.0020  0.0809 -0.0356
 2039W        W11732   3.908  13.836   6.629  0.2781 -0.0886 -0.0408
 2040W        W11733   1.959  10.034  12.020  0.0040  0.0828 -0.3957
 2041W        W11734   6.209   2.571  12.914  0.0231 -0.2813 -0.0553
 2042W        W11735   0.948  17.344  17.142  0.1141  0.1715 -0.0437
 2043W        W11736   5.165   5.152  15.419  0.1864  0.1204 -0.1188
 2044W        W11737  15.566  16.566  13.886 -0.0498 -0.0495 -0.0318
 2045W        W11738  11.244  16.810   4.210  0.2500 -0.1348 -0.3725
 2046W        W11739  16.593  12.448  14.354 -0.0993 -0.3029  0.0680
 2047W        W11740  13.536   1.611  14.254 -0.2347  0.1944 -0.2147
 2048W        W11741  10.314   4.409  12.572  0.0600  0.0200 -0.2238
 2049W        W11742   9.614  10.355   1.108 -0.0143  0.0688  0.3633
 2050W        W11743   2.649  16.242  12.778 -0.0365  0.0022 -0.3236
 2051W        W11744   2.899   0.878  13.951 -0.2953  0.3160  0.1422
 2052W        W11745   0.637   1.730  17.537 -0.2697 -0.4220 -0.3552
 2053W        W11746   1.485  13.665  11.968  0.2124  0.1440 -0.1853
 2054W        W11747  16.060   8.810   4.815  0.1585 -0.2798  0.1915
 2055W        W11748  16.992   7.921   0.683 -0.0717  0.3576  0.1718
 2056W        W11749   0.419  16.115   3.217 -0.1576 -0.0346  0.1972
 2057W        W11750  11.523  12.110   4.643 -0.3615  0.1648 -0.0613
 2058W        W11751   4.876  11.359   3.904 -0.0584  0.2558 -0.3340
 2059W        W11752  14.384   0.232  14.285  0.2150  0.3134 -0.0286
 2060W        W11753  15.492   1.384   5.966  0.3331 -0.0556 -0.0430
 2061W        W11754   6.122  13.323  12.641  0.0657  0.0457  0.0195
 2062W        W11755   7.326   2.022   0.648  0.1251 -0.0058 -0.3637
 2063W        W11756   3.752   9.632   2.012 -0.1709  0.0155  0.2768
 2064W        W11757   4.072   9.328   1.134  0.2518 -0.0857  0.2569
 2065W        W11758  10.096  13.413  15.806  0.3017  0.3044  0.2774
 2066W        W11759  17.231   7.793   5.039 -0.1998  0.2195  0.0457
 2067W        W11760  10.139   3.903   2.046 -0.1759  0.0582 -0.3732
 2068W        W11761  12.688  10.650  17.618  0.1107 -0.1249  0.1089
 2069W        W11762   3.709   5.072  15.942  0.2528  0.1889 -0.1911
 2070W        W11763  14.260   5.097   2.758 -0.1171  0.0407  0.2371
 2071W        W11764   8.515  16.434  12.735 -0.0577  0.0006 -0.0244
 2072W        W11765   8.078  12.028  12.760  0.1895  0.2409 -0.1175
 2073W        W11766   4.810  12.791   3.447  0.0608  0.0489  0.1049
 2074W        W11767  11.448  11.051   1.389  0.2447 -0.2138  0.1276
 2075W        W11768   0.438   3.391  14.748 -0.1812 -0.1078 -0.2185
 2076W        W11769   0.391   3.268   5.176  0.3751 -0.0592 -0.0537
 2077W        W11770   7.564   4.803  17.040  0.2323  0.1292 -0.1138
 2078W        W11771   9.295  13.540  13.713 -0.2886 -0.2033  0.1313
 2079W        W11772   8.575   2.385   1.334 -0.0508  0.0360  0.2802
 2080W        W11773   4.479   0.012  13.611  0.0442  0.0763  0.0071
 2081W        W11774  10.231  11.685   4.887 -0.2374 -0.1391 -0.1535
 2082W        W11775  17.193  17.538   4.112  0.0670  0.0687  0.1549
 2083W        W11776  13.315  16.024   0.669  0.2944  0.0841  0.0726
 2084W        W11777   2.430   2.830   1.751  0.0554 -0.0971  0.1604
 2085W        W11778   4.499   2.894   0.375  0.0174 -0.0715  0.0899
 2086W        W11779   4.601   9.098   5.737  0.0463  0.0799 -0.3108
 2087W        W11780   7.598  11.132   3.361  0.0368  0.1321  0.2187
 2088W        W11781  15.955  10.852   4.727 -0.0350  0.0653 -0.1324
 2089W        W11782   4.102  11.335   1.124  0.1860 -0.0335 -0.2116
 2090W        W11783   0.328  14.301  15.700  0.0565 -0.0331  0.1682
 2091W        W11784   9.217   4.763   1.963 -0.1673 -0.0394  0.1250
 2092W        W11785   5.304   2.593   3.624 -0.2921  0.1068 -0.0065
 2093W        W11786   8.011  11.684  14.601  0.2547  0.0415  0.2095
 2094W        W11787  17.583   1.485  17.683  0.3884 -0.0827 -0.3274
 2095W        W11788   9.842   6.196   0.688  0.2095  0.1172 -0.0110
 2096W        W11789   7.870  10.377   4.661 -0.1794 -0.0906  0.1129
 2097W        W11790  12.306   8.707  17.315  0.2686  0.1290  0.0420
 2098W        W11791  17.230   0.719  13.968 -0.3588  0.0667  0.2561
 2099W        W11792   2.144   0.215   3.505 -0.0791  0.2400  0.0079
 2100W        W11793   0.217  14.678   2.046  0.1490 -0.1285 -0.0278
 2101W        W11794  15.156   3.981  16.490 -0.0027  0.2590 -0.0445
 2102W        W11795   7.711  13.389   0.944 -0.1618  0.1822 -0.0952
 2103W        W11796   9.958   2.297  14.306  0.0964 -0.0263  0.2108
 2104W        W11797   8.726  13.006   5.182  0.0820  0.3532  0.1423
 2105W        W11798  11.221   2.882  15.683 -0.1529  0.0858  0.1352
 2106W        W11799  16.715   0.635   3.175 -0.3863  0.0407 -0.5190
 2107W        W11800   7.492  11.459   2.995 -0.0402 -0.0197 -0.1108
 2108W        W11801   9.373   9.559  17.619 -0.0490 -0.0727  0.0455
 2109W        W11802  12.265   5.676   1.629 -0.0523  0.1242 -0.4638
 2110W        W11803   2.613   0.547  16.406  0.0277  0.0465  0.1935
 2111W        W11804  14.542  10.847  14.777  0.0022  0.4584  0.2427
 2112W        W11805  14.286   8.182   1.231  0.1181 -0.1030  0.1329
 2113W        W11806   5.810  16.446  12.849  0.0178 -0.0725  0.2659
 2114W        W11807   9.765   3.286   5.763 -0.1432 -0.3561 -0.0784
 2115W        W11808  10.693   8.763   5.978  0.0615 -0.2548  0.1195
 2116W        W11809  14.828   5.684   4.524 -0.0444  0.0188 -0.0430
 2117W        W11810  16.783   8.708   3.679 -0.0563  0.1144 -0.1037
 2118W        W11811   2.354  14.915  15.866 -0.0081 -0.0069  0.0289
 2119W        W11812  10.672  10.088   3.175 -0.3295 -0.1369 -0.1810
 2120W        W11813  10.426  11.468  15.690  0.1486 -0.0142 -0.2806
 2121W        W11814   4.303  10.453  12.452 -0.1423 -0.2880  0.1341
 2122W        W11815   5.996   9.737  15.635 -0.0094  0.0465 -0.0119
 2123W        W11816  12.953  10.251  13.037  0.0662  0.3044 -0.2860
 2124W        W11817   9.968   3.223   2.752 -0.2544  0.3612  0.0737
 2125W        W11818   2.938   3.752  13.424  0.0479  0.0594 -0.1870
 2126W        W11819   3.262   5.394  16.147 -0.2202 -0.1459 -0.0418
 2127W        W11820  17.272   8.112   2.623  0.1689  0.2803 -0.2712
 2128W        W11821   8.193   1.430  13.060 -0.2043  0.1604 -0.1836
 2129W        W11822   7.742   9.508   0.877  0.1521 -0.0303  0.2092
 2130W        W11823   9.699   4.462  15.782  0.1052 -0.1327 -0.1926
 2131W        W11824   6.592  14.918  13.928  0.2811 -0.0255  0.0382
 2132W        W11825  14.583  14.201   3.791 -0.0304 -0.0634  0.2688
 2133W        W11826  15.030   8.089  15.176  0.0776 -0.3093  0.1622
 2134W        W11827  15.214  13.719  15.083  0.0406 -0.1078  0.0623
 2135W        W11828   8.612   6.276  11.880  0.1113 -0.3045 -0.0464
 2136W        W11829   2.989  10.786   4.885  0.2695  0.3978 -0.0822
 2137W        W11830   1.110  14.984   2.294 -0.0985 -0.2872 -0.0859
 2138W        W11831  16.535  13.043   1.277 -0.0431  0.3403 -0.4503
 2139W        W11832   1.512  16.336  17.258 -0.2265  0.0484  0.0254
 2140W        W11833   6.471   5.560   2.468 -0.0843  0.1494  0.0472
 2141W        W11834  13.418   0.195  16.157 -0.2640  0.0362 -0.0570
 2142W        W11835  11.868   9.851   0.950 -0.0592  0.0951 -0.1813
 2143W        W11836   3.899   1.873  14.454 -0.2172  0.2823  0.3472
 2144W        W11837   5.855   5.376  16.469 -0.2099 -0.1683 -0.3491
 2145W        W11838  14.027   3.689  15.666 -0.0035 -0.1558 -0.2325
 2146W        W11839   3.157  16.391   6.229 -0.0250  0.0106  0.0295
 2147W        W11840  14.318   4.404  11.991 -0.2119 -0.0462  0.0493
 2148W        W11841  17.303   6.244   5.142  0.0549  0.0115  0.2046
 2149W        W11842   5.543  14.373   2.030 -0.0506  0.2362  0.1993
 2150W        W11843   5.873   6.160   5.486  0.0510 -0.1248 -0.2113
 2151W        W11844  12.743  16.845  13.745 -0.4759  0.0027  0.1134
 2152W        W11845  12.319   3.132   5.308 -0.0285  0.0785 -0.1075
 2153W        W11846  12.643   1.178  14.009  0.2057 -0.0753  0.2581
 2154W        W11847  10.795   1.980  14.984  0.0977  0.0501  0.1461
 2155W        W11848   2.306  10.355   1.587 -0.1189  0.0700 -0.0549
 2156W        W11849  16.821   7.687  13.315 -0.0991 -0.1838 -0.1810
 2157W        W11850   5.577   6.194   2.906  0.0281  0.1640  0.0485
 2158W        W11851   7.429   6.646   0.746  0.1989 -0.1364  0.1930
 2159W        W11852   7.159  17.485  11.689 -0.0002  0.0385 -0.0356
 2160W        W11853  14.726   5.130  14.948 -0.2979  0.2388  0.1380
 2161W        W11854   8.475  13.826  16.298 -0.1470  0.0805 -0.1336
 2162W        W11855  14.081   8.171  15.317  0.2205 -0.4336 -0.0215
 2163W        W11856   0.605  11.566   1.717 -0.4059 -0.3113 -0.0780
 2164W        W11857  15.311  13.127   2.937  0.0194  0.1850 -0.3385
 2165W        W11858   0.102  12.191  13.533  0.1032  0.0420 -0.0193
 2166W        W11859   5.157   3.823  17.302 -0.1695  0.0831  0.1457
 2167W        W11860  12.571  12.571  13.858 -0.3253 -0.1520  0.0104
 2168W        W11861   9.306   0.572  12.872 -0.0169  0.4388 -0.0158
 2169W        W11862   0.414   8.614  17.173  0.1217  0.0598  0.2646
 2170W        W11863  17.444   9.906  16.770 -0.2191  0.0094 -0.0621
 2171W        W11864   2.643  16.460   4.580 -0.4023 -0.1112 -0.0395
 2172W        W11865   1.154   9.133   0.505  0.0371  0.1420  0.1792
 2173W        W11866  14.558  15.972   0.455 -0.4128  0.2638  0.0012
 2174W        W11867   5.091   3.005   3.447 -0.0265  0.0191  0.1598
 2175W        W11868   7.439  13.063   5.146  0.2137 -0.3353  0.1746
 2176W        W11869   8.755  16.128  17.447  0.0233  0.3768  0.3909
 2177W        W11870   7.061   0.228   4.213 -0.2000 -0.1080 -0.1453
 2178W        W11871  14.398  16.811  14.478 -0.1759  0.1118  0.0633
 2179W        W11872   4.121   1.294   0.569 -0.1588 -0.1550  0.0215
 2180W        W11873  15.766   5.018  17.394 -0.2438 -0.1955  0.2421
 2181W        W11874   8.824   4.280  16.365  0.1150  0.0796  0.1348
 2182W        W11875   8.476  15.338   4.548 -0.2745  0.1450 -0.4539
 2183W        W11876  15.790   0.308  15.411  0.1420 -0.3700  0.2013
 2184W        W11877   4.452   5.531   1.451  0.1925 -0.2628 -0.0568
 2185W        W11878   1.842  14.505  15.685 -0.2314  0.2704 -0.0061
 2186W        W11879  17.015  16.093  15.030 -0.1507 -0.0976 -0.0951
 2187W        W11880   5.608   6.429   3.377 -0.0170  0.0199  0.4429
 2188W        W11881   1.382   8.174   5.441  0.1809  0.1461 -0.3838
 2189W        W11882   3.451  16.905   6.310  0.2062 -0.2467  0.0705
 2190W        W11883   0.619  15.421   1.018  0.0953  0.1403  0.0716
 2191W        W11884  15.622   8.286   1.966 -0.1118 -0.0661  0.0677
 2192W        W11885  13.268  14.998  15.385 -0.1951  0.0689  0.0265
 2193W        W11886   9.156  14.106   5.081  0.2151 -0.0980 -0.2384
 2194W        W11887  13.802  15.896   4.610 -0.3049 -0.1353 -0.1461
 2195W        W11888   8.496  17.649  12.203 -0.0602  0.1272  0.0820
 2196W        W11889   7.421   4.019  12.109 -0.1854 -0.0839  0.2275
 2197W        W11890   8.350  14.388  14.418  0.2802  0.1753 -0.0692
 2198W        W11891  15.981   7.390  17.024 -0.0522 -0.2400 -0.1661
 2199W        W11892   4.183   7.676   2.298 -0.0690 -0.1026 -0.5297
 2200W        W11893   1.982   0.687   2.653 -0.3174  0.1745  0.2449
 2201W        W11894   9.460   3.243  15.157 -0.0437 -0.2060 -0.2542
 2202W        W11895  16.033   0.897  16.298  0.0795  0.1634  0.2442
 2203W        W11896  11.079   7.248   3.456 -0.3497  0.1094 -0.0724
 2204W        W11897  15.923   6.620  16.356  0.2232 -0.3098 -0.2752
 2205W        W11898  14.924   3.321   6.649 -0.0178 -0.0328 -0.1677
 2206W        W11899   2.685   3.596  12.971  0.1609 -0.1282 -0.1184
 2207W        W11900   0.680   7.444   2.568  0.0284 -0.3442  0.3735
 2208W        W11901  11.967  16.839   4.574  0.1662  0.1190 -0.0567
 2209W        W11902  17.263   7.072   4.525 -0.2176 -0.1149  0.0195
 2210W        W11903  11.558   7.911   1.228  0.2067 -0.1254  0.0183
 2211W        W11904   2.363   3.024   5.678  0.0859 -0.1416 -0.0763
 2212W        W11905   2.959  11.829   1.009 -0.1259 -0.0825  0.3396
 2213W        W11906   1.816  17.652  13.556  0.1847  0.0420  0.1478
 2214W        W11907   7.002   6.538  13.568 -0.3433 -0.0864  0.2182
 2215W        W11908  11.270   8.982   0.580 -0.1103  0.3595 -0.1555
 2216W        W11909   1.700   0.590  12.757  0.1790  0.2971 -0.1335
 2217W        W11910   1.839  16.582  12.510  0.0558  0.0165 -0.1296
 2218W        W11911  12.970   4.694   2.812 -0.0435 -0.2570  0.1213
 2219W        W11912  14.881   4.659   5.493 -0.2696  0.5490 -0.2908
 2220W        W11913   8.713   1.323   6.159  0.0024  0.2707 -0.0647
 2221W        W11914   4.047  12.707   2.016 -0.1961  0.2010 -0.1040
 2222W        W11915   2.245   8.669  16.019 -0.0474  0.2618  0.2106
 2223W        W11916   5.565  15.176  12.996 -0.1276  0.0599  0.0736
 2224W        W11917  12.693   7.005   1.993  0.1776  0.2662 -0.1644
 2225W        W11918  12.342   1.834   5.902 -0.1006 -0.0246  0.3420
 2226W        W11919   5.640   1.369  16.002 -0.2835 -0.3123 -0.1378
 2227W        W11920  10.443  12.453  14.784 -0.1244  0.0607  0.0185
 2228W        W11921  13.304   5.055   0.355 -0.3119 -0.2244 -0.0083
 2229W        W11922   1.482   8.444  15.630 -0.0256 -0.1306  0.3713
 2230W        W11923   8.324   7.103   1.036  0.0221 -0.0091  0.0284
 2231W        W11924  11.303   6.315   4.419 -0.0853  0.0277  0.0028
 2232W        W11925  12.824   1.738  15.549  0.2202 -0.1156 -0.0295
 2233W        W11926  16.445   5.009  14.103 -0.1161 -0.0833 -0.1706
 2234W        W11927   9.536   3.162   5.082 -0.0386 -0.1194 -0.0723
 2235W        W11928   0.561  13.823  13.019  0.1169 -0.0078 -0.0023
 2236W        W11929   1.900  17.073  12.794 -0.1351 -0.2386  0.1599
 2237W        W11930   2.359  13.144  12.004 -0.0653  0.1107  0.0553
 2238W        W11931  15.891  14.336  15.661 -0.0911  0.1931  0.4227
 2239W        W11932   2.497   0.831   2.888  0.2307 -0.2290 -0.1475
 2240W        W11933   7.674   5.140   0.639  0.1000 -0.0036 -0.1430
 2241W        W11934   8.985   0.120   4.303 -0.0611  0.1120  0.4258
 2242W        W11935  12.311  11.393   1.680  0.3650  0.1477  0.2515
 2243W        W11936   8.021  12.449  12.437 -0.0963 -0.1697 -0.0828
 2244W        W11937   2.345   3.236  16.068 -0.1209  0.2743  0.1404
 2245W        W11938  10.696  16.404   4.072 -0.2038 -0.4002 -0.2568
 2246W        W11939   2.085  10.009  14.603  0.2625  0.1897  0.1967
 2247W        W11940   6.218   4.338  12.186  0.1152  0.1658  0.0351
 2248W        W11941   8.225   5.145  13.837 -0.1747  0.1722 -0.0139
 2249W        W11942  13.044   2.993  12.419  0.0423  0.2766 -0.0686
 2250W        W11943  12.000  13.428   7.322  0.0424 -0.1779 -0.0335
 2251W        W11944  15.772   3.431  16.680  0.2020 -0.1339  0.0678
 2252W        W11945  14.060   7.222   4.076 -0.2667 -0.2814  0.1767
 2253W        W11946   2.966  10.113  14.827 -0.1572 -0.1858 -0.1370
 2254W        W11947   0.578   0.203   4.836 -0.1008 -0.0520  0.1321
 2255W        W11948  14.241  10.796  12.773  0.1684 -0.0299  0.1583
 2256W        W11949   5.006   8.164  15.867  0.0256 -0.0888 -0.1779
 2257W        W11950  14.908  11.705   2.879 -0.3854  0.0808  0.0879
 2258W        W11951  10.526   4.374   0.338  0.0515 -0.2920  0.1063
 2259W        W11952  15.516   0.533  13.294  0.1431  0.0929  0.1901
 2260W        W11953   8.699   7.681  15.947  0.3164 -0.0349 -0.1163
 2261W        W11954  16.943  16.703  15.025  0.0410 -0.0877  0.2076
 2262W        W11955   4.190   8.672   3.756  0.2620  0.0267  0.1410
 2263W        W11956  11.230   5.708  17.119 -0.4343  0.0514  0.0104
 2264W        W11957   1.785   5.283  13.465  0.0973  0.1449  0.0171
 2265W        W11958   9.602  16.862   3.521  0.2022 -0.0687  0.1668
 2266W        W11959  13.507   6.919   1.791  0.1744  0.0953  0.3219
 2267W        W11960   9.043  10.025  17.371  0.0374  0.1545 -0.0575
 2268W        W11961   5.594   9.028   0.048  0.0338  0.1415  0.2946
 2269W        W11962  16.197  10.588   0.374  0.0512  0.3593 -0.2646
 2270W        W11963   2.100   4.952   1.626 -0.3994  0.0764  0.0338
 2271W        W11964  13.572   9.455   2.174 -0.1556 -0.3189  0.2279
 2272W        W11965   2.080  10.068   4.395  0.0244 -0.5131 -0.0359
 2273W        W11966   7.318   6.278  16.489  0.3974 -0.2292  0.0830
 2274W        W11967  13.307   8.365  11.473 -0.3733  0.0561 -0.1187
 2275W        W11968  12.582   0.478   3.545  0.0725 -0.1231 -0.1370
 2276W        W11969  10.228   6.725  12.663 -0.2846 -0.0884  0.1227
 2277W        W11970   2.607  13.996   6.079  0.0163  0.0083  0.1101
 2278W        W11971   4.119   5.286  12.622 -0.2597  0.2776 -0.1315
 2279W        W11972   3.757  13.895   1.216 -0.0601 -0.0064 -0.0436
 2280W        W11973   8.965   0.568   0.863 -0.1016 -0.2243  0.2774
 2281W        W11974  13.295   7.107   3.163  0.1904  0.0190 -0.0788
 2282W        W11975   9.358  13.271   4.623  0.1565 -0.3241 -0.2799
 2283W        W11976   2.317  16.338   2.884  0.1361 -0.1933 -0.1132
 2284W        W11977   6.477   1.024   4.446  0.0297 -0.1290 -0.3156
 2285W        W11978   9.784  16.925  13.930 -0.3478  0.2684  0.0296
 2286W        W11979  15.202  10.657   2.294  0.1764  0.2402 -0.4571
 2287W        W11980   9.574   1.144  13.718  0.0666 -0.2914  0.3039
 2288W        W11981   6.081   0.905  12.751 -0.0878 -0.0567 -0.0829
 2289W        W11982   2.300   0.107  13.717  0.0082 -0.2878  0.3780
 2290W        W11983  16.073  17.622  15.539  0.0808  0.0835  0.1077
 2291W        W11984   3.232  15.083  14.778 -0.2074  0.0596 -0.1035
 2292W        W11985   1.675  10.494   4.532 -0.2323 -0.0723 -0.0163
 2293W        W11986   5.364   7.093  13.716 -0.0734 -0.0061  0.0322
 2294W        W11987  12.311   0.096   3.332  0.2415  0.3135  0.1567
 2295W        W11988   0.025  14.183   6.365 -0.1856  0.0518 -0.4734
 2296W        W11989  10.889  15.150  13.254 -0.0768 -0.0530  0.1234
 2297W        W11990  14.827   5.554   1.678  0.0905 -0.5209  0.1567
 2298W        W11991  17.338  15.655   0.641 -0.3439 -0.2160 -0.3019
 2299W        W11992  15.604  14.838   3.867 -0.1528 -0.1217  0.1443
 2300W        W11993  17.077   6.496   5.562  0.0483  0.1049  0.3023
 2301W        W11994   4.056   1.654  16.475  0.1565 -0.1050 -0.1085
 2302W        W11995  13.153  10.584  17.425 -0.1581  0.1496 -0.2012
 2303W        W11996   5.595   6.280   5.095 -0.2766 -0.2996 -0.0490
 2304W        W11997   1.131   6.866   4.862 -0.1320 -0.1664  0.0427
 2305W        W11998   6.224   6.867  12.070 -0.0291  0.0027  0.1304
 2306W        W11999   7.368   4.745   1.048  0.1800 -0.0654 -0.2492
 2307W        W12000   7.581   5.407   6.293  0.4605 -0.1908 -0.2548
 2308W        W12001   7.020  16.978  13.998 -0.4308 -0.1380 -0.3862
 2309W        W12002  14.075  14.707   0.978  0.2833  0.2241 -0.3061
 2310W        W12003   1.736   1.563   2.751 -0.1418  0.2182 -0.2735
 2311W        W12004   8.565  13.697   4.646 -0.0964  0.3047  0.2388
 2312W        W12005  12.926   5.697   1.029 -0.0621  0.3670  0.0470
 2313W        W12006  12.707   0.363   3.095  0.3388  0.0890  0.2370
 2314W        W12007  10.377   3.983  15.343 -0.0112 -0.1340 -0.2239
 2315W        W12008   9.413   4.635   1.415 -0.2450 -0.1263 -0.2555
 2316W        W12009   2.066  15.154   4.756 -0.3821 -0.0093 -0.0764
 2317W        W12010  12.019   0.723   2.691  0.0454 -0.4010  0.1224
 2318W        W12011   5.918  11.153   1.635  0.0790 -0.0001  0.0881
 2319W        W12012   8.398   2.565   3.723 -0.1431  0.3438  0.0469
 2320W        W12013  12.277   7.276   0.236 -0.2047  0.1425  0.0781
 2321W        W12014   0.197  15.226   5.586  0.3089 -0.0383  0.3312
 2322W        W12015  15.767  15.682   5.262  0.2158  0.1736  0.1728
 2323W        W12016  11.868   6.223   2.865  0.0077 -0.0034 -0.1070
 2324W        W12017   7.336   9.449   3.826  0.0546 -0.1662  0.0496
 2325W        W12018   6.813   9.237  17.050 -0.1436 -0.1375 -0.1693
 2326W        W12019   1.682  16.709   6.539 -0.2250 -0.0924 -0.0953
 2327W        W12020   1.242   5.538  13.483  0.2960  0.2289  0.1947
 2328W        W12021  11.105   3.825   2.457  0.0044  0.0480  0.0774
 2329W        W12022  15.162   1.235  15.186  0.1097  0.0632  0.0671
 2330W        W12023  16.499   6.315   2.775  0.0976 -0.1103  0.2365
 2331W        W12024  14.319  11.736  16.167  0.2173 -0.0607 -0.1970
 2332W        W12025  10.176   5.894  14.071 -0.2909  0.0615 -0.0886
 2333W        W12026  12.126  11.828  17.106  0.2465  0.0132 -0.3610
 2334W        W12027  17.598  10.519   4.487  0.0554 -0.1183 -0.0473
 2335W        W12028   0.410  15.162   0.664  0.1622  0.1247  0.0881
 2336W        W12029  15.131  10.018   2.895  0.0133  0.0699  0.0894
 2337W        W12030   8.616   7.835   3.565 -0.0225 -0.2053  0.1566
 2338W        W12031   0.687   7.229  16.802 -0.0701 -0.2950 -0.1702
 2339W        W12032  15.887   7.752   5.585 -0.1561 -0.2272 -0.1083
 2340W        W12033   5.142  16.989   4.934  0.3828  0.0177 -0.0581
 2341W        W12034   1.881   7.816  15.625 -0.0666  0.2122 -0.3433
 2342W        W12035   0.871   0.731   0.816  0.2880 -0.1466 -0.2186
 2343W        W12036   0.002   2.348   0.006 -0.1784 -0.1396 -0.1612
 2344W        W12037   6.572   5.485   5.939  0.0427  0.0938 -0.1427
 2345W        W12038  10.781  10.162  16.575 -0.3464  0.0758  0.2469
 2346W        W12039   2.943  10.774  13.359  0.1839  0.2643 -0.2822
 2347W        W12040   4.218   9.383  13.927  0.0380 -0.2234 -0.0003
 2348W        W12041   7.652  17.416   3.818 -0.0882  0.1102  0.0318
 2349W        W12042   6.508  17.104   4.657  0.2254  0.2127  0.1757
 2350W        W12043   9.488   1.319  15.084  0.1767 -0.0256 -0.1018
 2351W        W12044   3.142  14.554  12.944 -0.2503 -0.0630  0.0229
 2352W        W12045  13.796  11.640   3.318  0.0671  0.1132  0.3097
 2353W        W12046   4.423   4.468   6.145  0.1610  0.1330  0.0802
 2354W        W12047   4.708  14.477   5.643 -0.1818 -0.0626 -0.1454
 2355W        W12048   2.974   5.781   2.232  0.1676  0.1567 -0.0244
 2356W        W12049   4.014   1.258   1.402 -0.1535  0.0137 -0.3175
 2357W        W12050   3.590   5.781  15.670 -0.2747 -0.2918 -0.1866
 2358W        W12051   6.389   7.845  14.561 -0.4243  0.3023  0.1683
 2359W        W12052  11.253   6.535   5.421  0.0116  0.3273 -0.1585
 2360W        W12053   5.937   0.892   0.897 -0.0967 -0.0951 -0.2041
 2361W        W12054   1.476  13.316  13.479  0.1878 -0.2664  0.0760
 2362W        W12055  17.419  16.758   3.858  0.0693  0.0110  0.3286
 2363W        W12056   8.900   0.866   1.956 -0.4493  0.1776 -0.1448
 2364W        W12057  11.677   4.982   4.842 -0.1589 -0.2353 -0.1086
 2365W        W12058   4.570   3.174   5.245  0.0695  0.2666 -0.0254
 2366W        W12059   8.654   8.110   2.048  0.1901  0.0972  0.0547
 2367W        W12060   7.543   4.236   0.254 -0.0294  0.1269  0.0066
 2368W        W12061   7.581   2.521   0.408  0.2074 -0.1048 -0.1342
 2369W        W12062  15.927  11.173  14.638  0.1522 -0.2240  0.2443
 2370W        W12063   4.218   2.605  15.815 -0.1934 -0.0765  0.0169
 2371W        W12064   3.354   6.463  15.078  0.0645  0.1238 -0.3389
 2372W        W12065  16.121   7.984  12.755  0.2203  0.1335  0.2724
 2373W        W12066   0.647   1.887   4.529  0.2460 -0.1375  0.2006
 2374W        W12067  17.022   3.518   4.366 -0.0768 -0.0782  0.3211
 2375W        W12068   8.293   6.746   1.651  0.1015 -0.0837  0.1460
 2376W        W12069   7.864   6.466   3.824  0.1109  0.2053 -0.1343
 2377W        W12070  12.066  15.955  14.195 -0.1201  0.1691  0.0920
 2378W        W12071   2.512   5.065  15.529  0.0172 -0.0805 -0.0883
 2379W        W12072  15.576   6.436   4.239  0.2026  0.1101 -0.5707
 2380W        W12073   2.165   0.740   2.165  0.0567  0.3824 -0.2187
 2381W        W12074   9.670   4.756  13.861  0.0853 -0.1554 -0.1195
 2382W        W12075  14.636   6.825   2.808 -0.1413  0.1049 -0.1021
 2383W        W12076  15.847  14.429  15.178 -0.0325  0.0209 -0.0790
 2384W        W12077   4.933   6.582   0.537 -0.2763 -0.2182  0.1635
 2385W        W12078  15.410   2.615  14.087 -0.1083 -0.3262  0.0146
 2386W        W12079  15.767   9.604   3.601  0.1647  0.2015 -0.0257
 2387W        W12080  11.422   2.086  13.377  0.0407  0.2162  0.2187
 2388W        W12081  17.035   0.628   5.756 -0.1920  0.0174  0.1557
 2389W        W12082   0.680  13.013   7.068  0.1984  0.0736  0.0586
 2390W        W12083  12.190  16.051   2.512 -0.0727  0.0621  0.1737
 2391W        W12084   1.470   3.774  11.438 -0.2562 -0.2392  0.1825
 2392W        W12085  10.319   1.227  16.210 -0.2430  0.2573  0.1407
 2393W        W12086  13.713  13.008  16.811  0.1873 -0.0640  0.0448
 2394W        W12087   4.790   3.808  14.902 -0.0527 -0.2564 -0.2553
 2395W        W12088  10.079  12.161   4.783  0.0134  0.0882  0.3624
 2396W        W12089   5.759   8.284  14.730 -0.1757  0.2344 -0.1561
 2397W        W12090  10.464  16.043   6.477  0.2870  0.0700  0.1040
 2398W        W12091   1.547   6.667  14.119 -0.1519  0.3188 -0.0340
 2399W        W12092   1.655  16.943   5.322 -0.0542 -0.1452 -0.1541
 2400W        W12093   7.208  11.431  12.779 -0.2254  0.0343  0.2807
 2401W        W12094   3.657  14.337   0.375  0.0566 -0.0681 -0.1905
 2402W        W12095   1.765  17.358  14.899 -0.1438  0.1544 -0.1779
 2403W        W12096   2.496  15.218   3.739  0.3586  0.1149 -0.1464
 2404W        W12097  12.225   2.567   5.130 -0.0157  0.0160 -0.2573
 2405W        W12098   4.559   9.911   5.294 -0.1281 -0.1370  0.1020
 2406W        W12099   5.306   2.355  15.036 -0.1093  0.1695 -0.0796
 2407W        W12100  17.665   1.698  12.312  0.1557  0.1563 -0.0279
 2408W        W12101   5.625   0.131   0.455  0.1711 -0.3154  0.1515
 2409W        W12102   9.491   3.833  10.822  0.1873 -0.0530  0.4390
 2410W        W12103   3.778   4.508  12.428  0.1774  0.0243 -0.1818
 2411W        W12104  14.535   2.290   2.620  0.1495 -0.0975 -0.0156
 2412W        W12105   3.994  11.657   2.877 -0.2060 -0.1879 -0.1784
 2413W        W12106   9.479   2.586   4.289 -0.1029 -0.0350  0.2152
 2414W        W12107   8.563   7.785  13.205 -0.0223 -0.0351  0.1290
 2415W        W12108  11.091   7.379  11.939 -0.2087 -0.0200 -0.0918
 2416W        W12109  17.268  12.837   0.711 -0.2313  0.0790 -0.0008
 2417W        W12110   3.063   0.445  14.758  0.0741  0.2685 -0.0784
 2418W        W12111  14.482  12.279  12.898 -0.2077  0.1299  0.0319
 2419W        W12112  16.644  14.930   4.646  0.3244 -0.1027  0.2304
 2420W        W12113  11.638  17.533   1.916 -0.1492  0.1112  0.4660
 2421W        W12114   7.755   6.933   2.798  0.2074 -0.1704  0.1164
 2422W        W12115   4.786   0.805   6.444  0.2779  0.0886 -0.1591
 2423W        W12116  12.327  17.246   4.713 -0.0536  0.1188 -0.0836
 2424W        W12117  13.769  15.923   2.755 -0.0268  0.1407  0.0167
 2425W        W12118   4.810   7.610  15.864  0.2629  0.1580  0.0104
 2426W        W12119  14.301  14.674   1.868  0.1261 -0.2319  0.1972
 2427W        W12120   3.656  17.371   0.632  0.0997  0.0184 -0.1311
 2428W        W12121   0.451   8.395   6.351  0.0284 -0.2387 -0.0467
 2429W        W12122   0.514   5.626  16.293  0.1401 -0.4039 -0.0564
 2430W        W12123   5.817  14.965  15.286 -0.1046  0.0305 -0.2107
 2431W        W12124   7.692  10.459  16.647 -0.2443  0.2223 -0.1877
 2432W        W12125  16.729  14.842   2.623  0.2303  0.1388 -0.0762
 2433W        W12126  13.653   7.787  13.395  0.1202 -0.0930 -0.3236
 2434W        W12127  14.714  16.037  12.621 -0.3078 -0.1515  0.0235
 2435W        W12128  12.911   0.631  13.262  0.4058  0.0966 -0.0551
 2436W        W12129   6.214   4.329   1.086 -0.1183  0.1814 -0.1478
 2437W        W12130  10.217   6.622  10.950 -0.0660  0.0133 -0.3011
 2438W        W12131  13.849   8.987   0.900 -0.2123  0.0024 -0.0813
 2439W        W12132  10.624  15.221   3.714 -0.1130 -0.1152 -0.0288
 2440W        W12133   1.035  13.353  12.552 -0.1317  0.0914 -0.1773
 2441W        W12134  10.104   9.432   2.626 -0.2186 -0.2175 -0.4605
 2442W        W12135  15.491  16.087  13.569 -0.3005 -0.3694 -0.1148
 2443W        W12136   9.609   6.530  13.348 -0.0189  0.1484 -0.1280
 2444W        W12137  11.017  12.558  13.234 -0.4429 -0.1700 -0.0066
 2445W        W12138   2.619  11.506   5.868  0.2151 -0.1227 -0.0246
 2446W        W12139  16.598  13.056  13.649  0.0371 -0.2225 -0.0371
 2447W        W12140  12.103   4.084  13.503  0.2894 -0.0850 -0.0356
 2448W        W12141   8.935   1.518   0.928 -0.0031 -0.3517  0.3476
 2449W        W12142   1.382  14.304  11.492  0.0768  0.1892  0.1897
 2450W        W12143   6.479   9.120   3.683 -0.1571 -0.1259 -0.0605
 2451W        W12144  14.973   7.933  17.308  0.0151 -0.2351 -0.3095
 2452W        W12145   0.611  17.232   1.185  0.2265 -0.1086 -0.5360
 2453W        W12146  14.513  14.704   3.496 -0.2769  0.4745  0.4791
 2454W        W12147   5.050  15.536  15.228 -0.0009  0.0704  0.0555
 2455W        W12148   2.939  17.072   4.106  0.0461 -0.1944 -0.1480
 2456W        W12149   2.698   2.681  16.195  0.0090 -0.1522  0.0327
 2457W        W12150   6.243  12.878  13.447  0.0593  0.0605 -0.0445
 2458W        W12151  10.328  14.767   3.847  0.1132 -0.1094  0.0105
 2459W        W12152   8.302   4.358  15.017 -0.1486 -0.2575 -0.6461
 2460W        W12153  16.495  13.045   0.781 -0.0648  0.1583 -0.3387
 2461W        W12154  15.189   1.844  12.498 -0.0035  0.0355 -0.1014
 2462W        W12155  15.541   2.904   2.424  0.1446  0.1940  0.1040
 2463W        W12156   7.805   5.359   3.679 -0.0258  0.1395 -0.1952
 2464W        W12157   8.760   2.993  11.970 -0.1664  0.0128 -0.0432
 2465W        W12158  12.392  10.064   5.223 -0.1478 -0.3455 -0.0617
 2466W        W12159   7.245   7.522   4.689 -0.2311 -0.0574  0.0761
 2467W        W12160   8.300   9.645   4.317 -0.1989  0.0246  0.0835
 2468W        W12161  12.290  14.655   7.011 -0.2680  0.0905  0.2776
 2469W        W12162  12.909   7.320   6.093 -0.1014 -0.0140  0.0375
 2470W        W12163  15.238  12.125  13.135 -0.0170  0.1380 -0.2173
 2471W        W12164   1.163   0.511  14.646 -0.0124 -0.2544  0.1554
 2472W        W12165   6.991   7.163   4.208  0.0293  0.0727 -0.1653
 2473W        W12166  10.516  13.771   0.435  0.1741  0.0909  0.1052
 2474W        W12167  12.650  17.634  15.616  0.2148  0.0433  0.0334
 2475W        W12168   4.490  10.160   3.713  0.1181 -0.2173 -0.0869
 2476W        W12169   2.534   5.966  11.822 -0.1510  0.0433  0.0985
 2477W        W12170   9.938   4.456  12.145 -0.1242  0.0803  0.0934
 2478W        W12171   8.661  16.825   7.064  0.0196  0.0466  0.1130
 2479W        W12172  11.733  10.115   5.921 -0.1418  0.1362 -0.3907
 2480W        W12173   9.401   7.242  14.422 -0.0598  0.1619  0.0071
 2481W        W12174  13.151   7.946  12.366 -0.0020 -0.1810 -0.4161
 2482W        W12175   3.091   4.889   4.412  0.0943 -0.1971  0.2050
 2483W        W12176   0.842   2.316  14.360 -0.1327  0.2527  0.0814
 2484W        W12177  13.028  12.791  12.972  0.0787  0.0455 -0.0682
 2485W        W12178   8.530  14.543  13.952 -0.0359 -0.0437 -0.1394
 2486W        W12179   3.532   1.065   2.275 -0.0080  0.1782  0.0609
 2487W        W12180   6.540  15.235  15.430 -0.0615  0.0528  0.3795
 2488W        W12181  16.751  14.015  11.688  0.0014 -0.1315  0.3565
 2489W        W12182  11.559  15.274  17.424  0.0052 -0.0888  0.0271
 2490W        W12183   1.911   8.267   1.773  0.0740 -0.0405 -0.0283
 2491W        W12184  13.808   9.045  14.572  0.0716  0.0160 -0.2471
 2492W        W12185   6.580   5.393  13.126  0.3836 -0.1360  0.0942
 2493W        W12186   7.607  14.026   6.316  0.0547 -0.0952 -0.4427
 2494W        W12187  12.027  17.202  17.036 -0.3440  0.3499 -0.0721
 2495W        W12188  12.997   5.551  15.387 -0.0623 -0.0264 -0.0074
 2496W        W12189   7.512  15.705   2.065 -0.2438 -0.1956 -0.2687
 2497W        W12190  12.416  16.369   5.859  0.0954  0.1655 -0.1470
 2498W        W12191  17.247   5.257   2.555 -0.2673  0.2155 -0.1677
 2499W        W12192   0.745   5.441  12.516  0.2335  0.2615  0.0859
 2500W        W12193   1.302   0.568  17.507 -0.0885 -0.2762 -0.4683
 2501W        W12194   7.816   9.263  12.952  0.1724 -0.3654  0.1910
 2502W        W12195  14.571  15.126  15.810  0.0059  0.1064  0.1520
 2503W        W12196  15.013   2.255   0.436  0.0592 -0.0097  0.0524
 2504W        W12197  17.648   1.161   1.259  0.0965  0.0326 -0.0031
 2505W        W12198  16.891   3.580  15.551 -0.1343 -0.1676 -0.6024
 2506W        W12199   1.844   3.270   3.054  0.2681 -0.0499  0.0872
 2507W        W12200   0.562  16.826   2.563  0.0120  0.3791 -0.2825
 2508W        W12201  14.224   6.579  15.472 -0.0631 -0.0908 -0.0151
 2509W        W12202   8.896   6.222  13.316  0.1967 -0.4385 -0.1616
 2510W        W12203  13.318   5.109   5.920 -0.2705 -0.4445  0.0691
 2511W        W12204   2.466  14.127  15.255  0.2018 -0.0276  0.0935
 2512W        W12205  10.337   1.086  11.930  0.1390 -0.1440 -0.1009
 2513W        W12206  12.649   6.550  17.627  0.1877 -0.3647 -0.0403
 2514W        W12207  17.082   0.507   2.017 -0.0065  0.0254 -0.1925
 2515W        W12208  15.308  12.420   2.366  0.3102  0.0106 -0.0650
 2516W        W12209   9.782   9.539  15.669  0.1582 -0.2285  0.2189
 2517W        W12210   3.396   5.959   5.537 -0.4307  0.1509 -0.0978
 2518W        W12211  17.068  11.594   6.470  0.1352  0.0320  0.1145
 2519W        W12212  11.174  11.188  13.208 -0.2481 -0.2384  0.0751
 2520W        W12213   3.699  10.688   2.872  0.4634 -0.2609  0.1202
 2521W        W12214  10.631  12.144  15.157  0.0614  0.0126  0.2877
 2522W        W12215   4.885   9.996  16.217  0.0946 -0.0093 -0.0959
 2523W        W12216   5.784   4.419  14.354 -0.0143  0.1841 -0.1807
 2524W        W12217  13.808   7.932   1.089 -0.4666 -0.0873 -0.0900
 2525W        W12218  11.446   9.048  14.568  0.1632 -0.2226 -0.0926
 2526W        W12219   1.865   7.218   1.312  0.0382 -0.2546 -0.0100
 2527W        W12220   8.855  15.062  15.618  0.2089 -0.3333 -0.0064
 2528W        W12221  11.889   6.093  16.641 -0.0636 -0.1020  0.0237
 2529W        W12222  12.609   7.819  15.716 -0.0812  0.0518 -0.1359
 2530W        W12223   9.378  15.715  16.388  0.3949  0.3207 -0.1857
 2531W        W12224  10.452  15.425   4.472 -0.2813 -0.1433 -0.4019
 2532W        W12225  12.809   2.044   3.194 -0.1969  0.1511  0.0670
 2533W        W12226   0.338   1.811   4.922 -0.1453  0.0329 -0.0345
 2534W        W12227   3.327   7.045   2.960  0.0855  0.1844 -0.3114
 2535W        W12228   8.433  12.506  17.301 -0.0063 -0.0659  0.1441
 2536W        W12229  17.086   7.729  16.993 -0.0839  0.0581 -0.1409
 2537W        W12230   5.749   8.515  16.724 -0.1564  0.0081 -0.1607
 2538W        W12231  11.340   5.588   5.314 -0.3024 -0.0099  0.1121
 2539W        W12232   4.307  14.728   0.421 -0.1300  0.0104  0.1777
 2540W        W12233   6.625   1.030  14.646 -0.0784 -0.1084  0.5681
 2541W        W12234   4.534   0.220  14.503 -0.1273 -0.0046 -0.2341
 2542W        W12235  10.294  11.217   5.142  0.1435 -0.0825 -0.1037
 2543W        W12236  10.472  12.749  13.017  0.1457  0.1291  0.1711
 2544W        W12237  12.351   1.505   4.779 -0.0407  0.2864 -0.0346
 2545W        W12238  13.411  15.982   5.337 -0.0695  0.2109  0.1049
 2546W        W12239  15.970   3.147   3.690 -0.0250  0.3775  0.0417
 2547W        W12240  15.253  17.628  12.060  0.1358 -0.1668  0.0447
 2548W        W12241  13.703  15.391  16.339  0.2395  0.0721  0.0805
 2549W        W12242   3.052  17.181   5.782 -0.0785  0.1227 -0.0736
 2550W        W12243   4.769   4.059  15.342  0.0910 -0.1245  0.1055
 2551W        W12244   3.761  10.916  13.685  0.2138 -0.2541  0.2885
 2552W        W12245  11.694   9.500  17.379 -0.0844 -0.0678 -0.3685
 2553W        W12246  16.718   7.529  15.642 -0.2052  0.3409  0.0333
 2554W        W12247   8.252  17.045   4.946 -0.2947 -0.0440 -0.0024
 2555W        W12248   2.154  16.613   4.499  0.2049  0.0477 -0.1221
 2556W        W12249   4.292  11.586  17.566 -0.3961 -0.0744 -0.1104
 2557W        W12250  16.295  15.119  14.048  0.0366 -0.1159 -0.0155
 2558W        W12251  11.224  17.434  14.397  0.1687  0.0835 -0.0402
 2559W        W12252   2.089  12.111  13.158 -0.1154 -0.3780  0.2975
 2560W        W12253   5.721   5.332   4.495  0.1579  0.1772  0.1038
 2561W        W12254  12.433  14.721  12.840  0.0559 -0.4891  0.2262
 2562W        W12255  16.003   1.358  16.743  0.3116 -0.1307  0.2521
 2563W        W12256  16.373  11.179  11.422 -0.0143  0.0815  0.0038
 2564W        W12257   1.999   4.448  17.132  0.0666 -0.1063 -0.2411
 2565W        W12258  11.598   0.420  12.485 -0.1997 -0.1678 -0.0512
 2566W        W12259  10.984  16.624  15.103 -0.1183 -0.0095  0.2587
 2567W        W12260  15.311  15.540   0.812 -0.0109  0.0594 -0.0889
 2568W        W12261   5.965   3.411  16.943 -0.1320 -0.0549 -0.0160
 2569W        W12262  13.134   5.630  14.365 -0.1805  0.1184  0.0206
 2570W        W12263   8.472  15.137  14.796  0.0035 -0.0298  0.1203
 2571W        W12264   2.318   9.333  16.939 -0.1630  0.2680 -0.0764
 2572W        W12265   9.764   0.854  16.086 -0.0930 -0.1202 -0.3209
 2573W        W12266   6.788   9.595   4.320 -0.1880  0.3683  0.4142
 2574W        W12267   8.467   5.435   5.303 -0.3173 -0.1599  0.0204
 2575W        W12268   4.943  12.702   0.946 -0.3577 -0.2074 -0.1647
 2576W        W12269  16.456  17.164   1.999 -0.2684 -0.3525  0.2939
 2577W        W12270  13.362   6.149   5.905 -0.1415 -0.1070  0.2453
 2578W        W12271   8.716   9.101  15.444 -0.3172  0.0277  0.0423
 2579W        W12272   9.551   6.012   0.238  0.1734  0.0755  0.0194
 2580W        W12273   7.133   9.673  14.925  0.0275 -0.1508  0.1994
 2581W        W12274   8.588   4.417  17.518 -0.1024  0.0240 -0.2479
 2582W        W12275  16.920  13.848   2.554  0.1785 -0.1317  0.1250
 2583W        W12276   0.315   0.166  16.385 -0.0527  0.2256 -0.1469
 2584W        W12277  11.149   1.233  12.500  0.1355  0.0575  0.0895
 2585W        W12278   8.121   8.941  12.210  0.2789  0.0183 -0.1660
 2586W        W12279   2.117   7.958  13.481 -0.1736  0.2212  0.3215
 2587W        W12280   1.003  10.387  13.033  0.1680 -0.1120  0.3227
 2588W        W12281   4.331  15.038  11.587  0.1163 -0.1235 -0.0272
 2589W        W12282   8.711   7.616  14.326 -0.3479  0.0863  0.2398
 2590W        W12283   3.188   7.906   3.413  0.1363 -0.0047 -0.0538
 2591W        W12284  12.470  11.458   2.819 -0.0593  0.1495 -0.0706
 2592W        W12285   7.598  15.894   6.020 -0.1767  0.0691  0.0747
 2593W        W12286   3.359   0.970  13.635  0.0516 -0.0827  0.1192
 2594W        W12287   1.739   5.942   0.820 -0.2476  0.1150  0.0733
 2595W        W12288  10.384   5.940   2.269 -0.0419  0.0985  0.0358
 2596W        W12289   0.448   2.268  14.107 -0.4015  0.2963  0.1856
 2597W        W12290  11.597   3.487   4.903 -0.2247  0.0087 -0.3609
 2598W        W12291   3.095  11.849   2.373 -0.1567 -0.2557 -0.2250
 2599W        W12292  17.595   3.336  14.781  0.0885  0.2316  0.4462
 2600W        W12293   1.203   1.629   2.287  0.2526  0.0453  0.0837
 2601W        W12294   0.962  14.314  12.367 -0.1183 -0.4501  0.2706
 2602W        W12295   6.418   1.967  14.194  0.2754 -0.0841  0.0123
 2603W        W12296   1.636  16.178  15.458 -0.1386  0.1714  0.3023
 2604W        W12297  13.304   5.116   3.563 -0.0618 -0.5002 -0.1114
 2605W        W12298  13.693   1.705   5.050  0.2640  0.2342 -0.0465
 2606W        W12299  16.794   9.077   1.087  0.2417  0.1673  0.2559
 2607W        W12300   7.169   8.580   0.155 -0.0700 -0.0892  0.0145
 2608W        W12301  10.300   9.055   4.360  0.3254 -0.0624  0.1195
 2609W        W12302  17.262   2.940  15.717  0.0414 -0.2450 -0.0880
 2610W        W12303  15.189  13.976  17.525 -0.0761 -0.1659 -0.1215
 2611W        W12304  15.765   4.296  16.379  0.0100 -0.1472  0.1087
 2612W        W12305   0.479   9.743  15.041 -0.0752 -0.1590 -0.0887
 2613W        W12306  13.308  11.935  14.042 -0.1142  0.0867 -0.3274
 2614W        W12307  17.038  10.214  13.994  0.1362 -0.0551 -0.0341
 2615W        W12308  14.099  14.372   2.825 -0.0757  0.0458  0.0841
 2616W        W12309   7.083   7.577   0.892  0.0132 -0.0032  0.4309
 2617W        W12310   7.512   2.791   0.972 -0.1905 -0.1460 -0.1579
 2618W        W12311  16.358  10.498   3.321 -0.0506 -0.1815  0.0762
 2619W        W12312   3.947   6.906   0.755 -0.2798  0.2685 -0.1813
 2620W        W12313   5.129   4.872   2.169  0.2528 -0.0461  0.3640
 2621W        W12314  11.091  13.239  16.805  0.1817  0.0014  0.3604
 2622W        W12315   8.869   8.585  15.446 -0.2269  0.3204  0.0856
 2623W        W12316  15.495  13.940  13.589  0.2132  0.1378 -0.0104
 2624W        W12317  17.497   7.064   5.030 -0.1594  0.1554 -0.1094
 2625W        W12318  13.159   4.308  12.157  0.0958  0.0505 -0.1893
 2626W        W12319  14.914   1.705   2.169 -0.1161  0.3805  0.0246
 2627W        W12320  16.387   1.682   2.619  0.1251  0.0745 -0.0077
 2628W        W12321  10.045  13.488  15.289 -0.1160  0.2604 -0.1005
 2629W        W12322   7.824   0.699   4.627 -0.2880  0.0711 -0.1461
 2630W        W12323   1.857  11.906   6.322 -0.1026  0.1451 -0.2264
 2631W        W12324  14.082   9.790  14.021  0.0020  0.1756 -0.0443
 2632W        W12325   1.857  16.633  12.979  0.2305  0.1544 -0.3296
 2633W        W12326  16.226   7.518   7.010  0.0876  0.1708  0.0388
 2634W        W12327  12.714   9.343   2.193 -0.0201  0.0780  0.2599
 2635W        W12328   0.194   8.265   0.267  0.0198  0.3848 -0.2093
 2636W        W12329   6.788  10.862   3.207 -0.1648  0.0873 -0.2646
 2637W        W12330  14.290  16.102   4.914 -0.1478 -0.0837  0.0086
 2638W        W12331   5.203   1.021  17.351 -0.1129 -0.0984 -0.1063
 2639W        W12332  11.630  14.978  13.563 -0.4062 -0.0571 -0.0308
 2640W        W12333   5.328  12.497  11.925  0.0229  0.0400 -0.1215
 2641W        W12334  12.894   4.920   1.688  0.3047  0.2025 -0.1777
 2642W        W12335   5.652   4.962  13.779  0.2221  0.1052 -0.0103
 2643W        W12336  14.947   4.820  13.687 -0.0544 -0.0191 -0.0438
 2644W        W12337   9.119   4.583  14.587 -0.4846  0.1767  0.0413
 2645W        W12338   1.745   5.004   2.043  0.0466 -0.3063  0.2604
 2646W        W12339  12.888  14.339  12.827  0.2106 -0.1405  0.0498
 2647W        W12340   4.559   8.917   3.369  0.1943  0.2715  0.0479
 2648W        W12341  12.788   6.901   5.821  0.2236 -0.1886  0.1247
 2649W        W12342   2.974   2.816   4.621 -0.2308 -0.2205 -0.0955
 2650W        W12343  17.281  13.712  15.885  0.3595 -0.0815 -0.1396
 2651W        W12344   7.631   1.774   3.507 -0.1026  0.3110  0.3080
 2652W        W12345  14.241   1.267   1.678 -0.1902 -0.3018 -0.0177
 2653W        W12346   9.883  12.205  16.048  0.0351 -0.1368 -0.1000
 2654W        W12347   1.097   4.656   1.966  0.1583  0.1017  0.1830
 2655W        W12348  16.222   3.316  15.037  0.2330 -0.1116  0.1390
 2656W        W12349   8.975   5.039  17.013  0.0605 -0.2133  0.2814
 2657W        W12350   6.293   5.145   1.210  0.0569  0.2536  0.0299
 2658W        W12351   3.099   9.353  15.048  0.0275 -0.1309 -0.1914
 2659W        W12352   5.751  16.408  13.867 -0.0489 -0.0991  0.3001
 2660W        W12353  17.270   0.817  13.285  0.2497  0.2551  0.0219
 2661W        W12354   0.017   7.410  15.575 -0.0779  0.0865  0.0794
 2662W        W12355  13.936  16.837   5.535 -0.1578  0.0569 -0.2130
 2663W        W12356   5.445   7.570  11.059  0.0361 -0.2877 -0.3363
 2664W        W12357  16.214   6.172  16.964 -0.2052  0.1275  0.1310
 2665W        W12358  11.069  12.852   5.108 -0.2529  0.1099 -0.1547
 2666W        W12359   2.102   5.377  17.506  0.0237 -0.3818 -0.3515
 2667W        W12360  16.058   2.592   3.512 -0.0066 -0.0210  0.0225
 2668W        W12361   2.253  11.320  16.710 -0.2972 -0.2434  0.0775
 2669W        W12362  11.839   5.948  12.597  0.0068  0.2524  0.2105
 2670W        W12363   0.631  14.996  15.151  0.0675  0.1791  0.2679
 2671W        W12364  11.489   1.615   5.500 -0.0603  0.0437  0.1970
 2672W        W12365   6.922   0.219   1.675 -0.2035 -0.1222 -0.1835
 2673W        W12366  17.225  15.506   2.991  0.2318 -0.1485  0.1267
 2674W        W12367   6.251   0.595   4.684 -0.0266 -0.0752 -0.0019
 2675W        W12368  17.418   1.958  11.576 -0.0336 -0.0803  0.2039
 2676W        W12369   5.221  13.011  12.585  0.0295  0.0543  0.1409
 2677W        W12370   6.604  13.464   5.723 -0.0435  0.2496  0.2402
 2678W        W12371  11.361   8.021  16.183 -0.0597  0.3659 -0.1756
 2679W        W12372  12.442  14.814   6.254 -0.3618  0.0971  0.0777
 2680W        W12373  11.013  12.035   0.340  0.0456 -0.0410  0.2380
 2681W        W12374  12.501   0.646  12.417 -0.1296 -0.1484 -0.1790
 2682W        W12375  15.325  12.926   2.166  0.2068  0.2191  0.0704
 2683W        W12376   7.051  15.727  14.225  0.4662 -0.1526  0.1596
 2684W        W12377  10.426  13.655   4.137  0.1563 -0.1067 -0.3951
 2685W        W12378  12.773  16.219  12.452  0.1036 -0.1717  0.1725
 2686W        W12379  14.149   9.776  11.826  0.1853  0.3637  0.1510
 2687W        W12380   5.076   9.330   4.426  0.0896 -0.0149  0.0293
 2688W        W12381   5.844   5.374  15.923 -0.0085  0.3508  0.2681
 2689W        W12382  15.208  13.235  15.225 -0.1554  0.0462  0.2480
 2690W        W12383   7.906   3.955  16.510  0.3298  0.2537  0.4807
 2691W        W12384   5.792   5.720   5.695 -0.0265 -0.0806  0.2956
 2692W        W12385   6.410  10.666  17.127  0.0054 -0.3208  0.1367
 2693W        W12386   4.833   1.258  15.820 -0.3191  0.0224 -0.1967
 2694W        W12387   3.717  15.928  12.415  0.1489 -0.3634  0.0582
 2695W        W12388   1.471   3.212  15.872  0.2989 -0.3083 -0.0008
 2696W        W12389  17.407   6.961  15.369  0.2531  0.1240  0.1702
 2697W        W12390   9.093   6.181   4.847  0.1283 -0.1252 -0.2354
 2698W        W12391   1.286  10.585   6.589  0.2289 -0.0915 -0.1909
 2699W        W12392   0.506  11.634  15.715 -0.1515 -0.0301  0.2679
 2700W        W12393  13.090   5.947   5.498 -0.2576  0.0397 -0.2669
 2701W        W12394  14.490   1.937  12.496 -0.0073  0.0767 -0.3550
 2702W        W12395   6.255   9.263  16.318 -0.0373  0.1621 -0.0554
 2703W        W12396   2.652  17.490   5.680  0.1047  0.1204 -0.1261
 2704W        W12397  11.081   4.967   6.103  0.1942 -0.0420  0.2548
 2705W        W12398   6.799   8.986  11.545 -0.1585 -0.3562  0.2517
 2706W        W12399  14.605   5.103   1.879  0.3735  0.2056 -0.1209
 2707W        W12400  14.609  17.223   2.171 -0.0151  0.0097 -0.1165
 2708W        W12401  10.740  17.483  17.484  0.2703  0.1889  0.3547
 2709W        W12402   8.721  10.697  16.630  0.0888 -0.1374  0.0341
 2710W        W12403   2.509  10.499  13.377 -0.0519  0.2091  0.3491
 2711W        W12404   5.000  14.313   4.294 -0.2081 -0.0958  0.0728
 2712W        W12405  13.237   0.645  16.612 -0.0062 -0.0490 -0.0910
 2713W        W12406  15.663  15.952   6.486  0.1719 -0.0076 -0.3521
 2714W        W12407   2.024   8.178   4.331  0.1701 -0.1257  0.0716
 2715W        W12408   2.042  16.228   1.503 -0.2086 -0.0203 -0.1149
 2716W        W12409  13.679   9.836  17.191  0.2153 -0.1026  0.1112
 2717W        W12410  11.791  11.118   0.571  0.2079  0.0306 -0.2387
 2718W        W12411  12.003  15.619   5.658  0.1681  0.0621 -0.0618
 2719W        W12412   6.712   1.110   3.923 -0.2184  0.0831  0.2325
 2720W        W12413  14.740   8.201   2.137 -0.0901  0.2640 -0.1030
 2721W        W12414   6.117  15.606  13.243  0.0265  0.1741 -0.1634
 2722W        W12415  16.373   2.887  14.831  0.1085 -0.4242  0.1300
 2723W        W12416   0.461   6.802   6.668 -0.0581  0.2461  0.1097
 2724W        W12417  13.327   1.686   3.842  0.0226 -0.0673  0.0029
 2725W        W12418   8.031  12.361   3.959  0.2343  0.0864  0.2743
 2726W        W12419   8.889  12.214  12.547  0.1538 -0.0294  0.1715
 2727W        W12420   6.617   6.246  14.806  0.0835  0.3695  0.0154
 2728W        W12421  14.651   6.092  13.421  0.2841 -0.0858  0.3832
 2729W        W12422  14.134   0.433  16.394 -0.0432  0.2725  0.1521
 2730W        W12423   9.406  12.179  16.074  0.1032  0.1400  0.0354
 2731W        W12424  15.489   6.265  12.266  0.2640 -0.0728 -0.1002
 2732W        W12425   5.878   6.533   4.716  0.2785 -0.1073  0.3136
 2733W        W12426  14.864   4.921  16.412 -0.0537  0.1542  0.2949
 2734W        W12427   7.557   6.247  15.845 -0.1744 -0.0402  0.0103
 2735W        W12428  13.011   7.975   1.194 -0.1389 -0.0834 -0.0708
 2736W        W12429   0.570  17.414   2.870  0.1235 -0.0235  0.0788
 2737W        W12430   8.619   0.462  15.098 -0.1253  0.1967  0.1496
 2738W        W12431   2.980   4.251  16.929  0.2120  0.2897 -0.0188
 2739W        W12432  16.793   4.626   2.440 -0.4166  0.1522  0.0785
 2740W        W12433   7.533   4.485  13.279  0.0854  0.0652 -0.0218
 2741W        W12434   0.452   0.709  14.187 -0.3799 -0.0840 -0.2048
 2742W        W12435  12.048   4.357   5.153  0.2170  0.0797  0.2423
 2743W        W12436   9.835  14.802  17.561 -0.0782 -0.3041  0.1077
 2744W        W12437   7.658  14.718  17.145  0.0992 -0.0321 -0.1411
 2745W        W12438   3.557  11.182   0.344  0.1758 -0.2390  0.0823
 2746W        W12439  15.841   9.540   6.007 -0.3383  0.0888  0.0577
 2747W        W12440   1.938  10.326  17.012  0.0022  0.0204  0.1917
 2748W        W12441  14.583  10.384   4.803  0.0907 -0.1455 -0.3130
 2749W        W12442   9.976   5.917   4.259  0.0842 -0.1115 -0.2320
 2750W        W12443   7.658  11.188  12.116  0.0096  0.0634 -0.2431
 2751W        W12444   3.995  10.485  13.834  0.2480  0.0267  0.2639
 2752W        W12445   3.596  14.834  16.047 -0.3564  0.1422 -0.2861
 2753W        W12446  10.341   2.308   5.888  0.1160  0.1016 -0.1618
 2754W        W12447   1.010  10.641   1.428  0.0803 -0.2660 -0.0763
 2755W        W12448  16.495   6.871   4.157 -0.0716 -0.3771  0.0021
 2756W        W12449   9.994   7.638  14.957  0.0770  0.0698 -0.0280
 2757W        W12450  12.885  13.710   1.101 -0.2756  0.3620 -0.1800
 2758W        W12451  12.168   7.391   1.685  0.1578  0.1729  0.1231
 2759W        W12452   1.924   3.787   1.461  0.0335 -0.1622 -0.0887
 2760W        W12453  12.927   3.448  12.487 -0.0969 -0.0403 -0.1075
 2761W        W12454  11.709   2.432  16.034  0.1753  0.0802 -0.2125
 2762W        W12455   5.098   8.317   2.079 -0.2425 -0.1511  0.0705
 2763W        W12456  10.767  10.550  17.344  0.2436 -0.1994  0.0892
 2764W        W12457  14.660   2.066   3.056 -0.0418 -0.1508 -0.0148
 2765W        W12458  10.699   5.063  14.375 -0.1842 -0.1269  0.2356
 2766W        W12459   3.881   6.559  15.361  0.1470  0.0732 -0.3876
 2767W        W12460   7.157   2.849   2.654 -0.0018 -0.2636 -0.1998
 2768W        W12461   6.513   1.918   4.722 -0.3052 -0.0848 -0.2513
 2769W        W12462   7.314   7.976  16.926 -0.1112  0.2301 -0.0152
 2770W        W12463   4.319  10.532  13.413  0.1190 -0.3551  0.2156
 2771W        W12464  15.894  10.886   2.095 -0.0583 -0.1190  0.4313
 2772W        W12465  14.796  17.589   0.516  0.2350  0.2667  0.2074
 2773W        W12466   4.875   0.121  17.316  0.3471  0.0694  0.0796
 2774W        W12467   2.105   7.599   4.192 -0.0526 -0.2988 -0.0828
 2775W        W12468   7.230  16.315   0.539 -0.1705  0.0775  0.5548
 2776W        W12469   3.273   4.625   1.195 -0.2888 -0.3582  0.0151
 2777W        W12470  16.186  10.783   6.082 -0.0209  0.0636  0.1504
 2778W        W12471   8.198   8.659   1.365  0.1097  0.0660 -0.2549
 2779W        W12472  17.278  12.378   2.565 -0.0778 -0.1689  0.0068
 2780W        W12473  12.118  13.334  14.183  0.4080  0.0482  0.0269
 2781W        W12474  14.344  13.422   2.213  0.3544  0.2732  0.0641
 2782W        W12475   7.125   0.216  12.997  0.3513 -0.1564  0.0708
 2783W        W12476   6.633   7.449  16.362 -0.0040 -0.3658 -0.1583
 2784W        W12477   6.115   4.467  12.725  0.0163 -0.3102 -0.0053
 2785W        W12478   2.350   2.081  17.586 -0.1986  0.1037  0.0765
 2786W        W12479   4.344  11.130  14.828 -0.1695 -0.3075  0.0919
 2787W        W12480   4.938  10.560  14.211 -0.0093  0.1498  0.2860
 2788W        W12481   2.315   8.383   2.445  0.0760 -0.1161  0.2081
 2789W        W12482   6.264   9.266  15.850 -0.0978  0.0848  0.0461
 2790W        W12483   9.579  13.607  16.849  0.2971 -0.1571 -0.0796
 2791W        W12484   1.646   3.342   4.117  0.0698  0.0729 -0.1299
 2792W        W12485  11.884  12.523   2.490 -0.1454 -0.0026 -0.0522
 2793W        W12486   5.133   6.799   5.812 -0.1935  0.4239  0.1567
 2794W        W12487   6.853   0.091   2.876  0.3700 -0.0276 -0.0745
 2795W        W12488   5.776   9.762   3.387  0.1047 -0.1732 -0.0998
 2796W        W12489  16.836  11.087   6.450  0.4430  0.0141 -0.1221
 2797W        W12490   9.827   9.856   4.917  0.0243  0.1028  0.2337
 2798W        W12491  15.689   5.941   0.617  0.0383  0.0127  0.0810
 2799W        W12492   3.694   4.199  11.946  0.1727  0.4471  0.1027
 2800W        W12493  11.469  12.655  12.759  0.1609 -0.3804 -0.3189
 2801W        W12494  13.640   7.316  12.204  0.1113  0.0316 -0.1537
 2802W        W12495  11.986  11.244   5.945  0.2797 -0.0687 -0.0927
 2803W        W12496   9.674  16.578   2.359 -0.0247 -0.2362  0.3967
 2804W        W12497  14.020  12.495  16.888 -0.2169 -0.3471  0.1483
 2805W        W12498   8.936  17.643   3.325  0.0571 -0.1095  0.0113
 2806W        W12499   8.216   2.674   5.424 -0.2067  0.2628  0.0147
 2807W        W12500   5.845   2.562  13.283 -0.1432 -0.0162  0.2039
 2808W        W12501   8.714  16.169  13.394 -0.4745 -0.0272  0.0023
 2809W        W12502  11.716  13.834   1.324  0.0179 -0.2749  0.0998
 2810W        W12503  15.936  15.032   4.148 -0.1026  0.0286  0.0606
 2811W        W12504  16.237   5.593   3.860 -0.2272 -0.0784 -0.0288
 2812W        W12505   8.876   4.329   4.318  0.3022 -0.1413 -0.0856
 2813W        W12506  15.369  15.457  16.029 -0.0169 -0.2382 -0.0331
 2814W        W12507   5.607   8.780  17.141  0.2701  0.0230 -0.0198
 2815W        W12508  17.412  16.749  14.707  0.0863  0.1165  0.1672
 2816W        W12509   1.938  16.075   2.118  0.2492 -0.1585  0.0992
 2817W        W12510  16.912  14.544  13.902 -0.0506  0.0673 -0.2456
 2818W        W12511   6.485   9.145   3.128  0.0127 -0.2182 -0.1756
 2819W        W12512  15.203  12.405   3.929  0.3700 -0.1736  0.2853
 2820W        W12513  16.100  12.414  14.270 -0.0727  0.0697 -0.0267
 2821W        W12514  10.465  13.466  14.905 -0.0080 -0.4671 -0.0476
 2822W        W12515  17.105  12.085   3.553  0.1800 -0.0193  0.1236
 2823W        W12516   9.219  11.200  17.255  0.0131 -0.0885 -0.1175
 2824W        W12517   1.098   7.934  12.303 -0.1069 -0.0053 -0.1787
 2825W        W12518  12.509   9.918  12.791  0.3577 -0.0869  0.0373
 2826W        W12519  11.974   5.516   3.555 -0.0962  0.1735  0.1455
 2827W        W12520  11.176  15.170  12.730 -0.0110 -0.0515 -0.0382
 2828W        W12521  12.879  15.890  17.338 -0.3022  0.1759 -0.4225
 2829W        W12522   9.748  10.325   0.615  0.1359 -0.6413 -0.0555
 2830W        W12523   8.855  12.618   1.947  0.2436  0.0543  0.2899
 2831W        W12524   1.948   8.947  16.276  0.3078  0.0972  0.0644
 2832W        W12525   9.675   8.293  13.632 -0.4677 -0.4011  0.1873
 2833W        W12526   8.349   7.394   4.660 -0.4585 -0.0231 -0.0482
 2834W        W12527  13.311  12.806   4.764 -0.1328 -0.1278 -0.2972
 2835W        W12528   5.204  13.702  15.076 -0.0947  0.1166  0.2886
 2836W        W12529   7.197   6.659  12.008  0.2804  0.0147 -0.1265
 2837W        W12530   9.492   9.504  12.277  0.2586 -0.1969 -0.3327
 2838W        W12531  17.142  16.036   0.358 -0.0580  0.0439  0.0355
 2839W        W12532   0.766  16.456   0.093  0.1168  0.1431 -0.2456
 2840W        W12533   8.343  13.770  11.151 -0.0014 -0.1618 -0.0567
 2841W        W12534  11.434  13.359  13.520 -0.0352  0.0795 -0.0815
 2842W        W12535  13.711   2.401   1.931 -0.0173  0.0489  0.0035
 2843W        W12536   8.731   6.767  13.194 -0.1927  0.1469 -0.0332
 2844W        W12537  11.201  13.713   1.597  0.1474  0.1462  0.2823
 2845W        W12538   0.278   5.330  14.291  0.2094 -0.1991  0.0078
 2846W        W12539  10.076  14.007   7.104 -0.1292 -0.0436  0.5095
 2847W        W12540   6.163  10.442   2.137  0.1797  0.1370  0.3648
 2848W        W12541   8.580   3.117   5.535  0.4072 -0.0270  0.1049
 2849W        W12542  16.879   4.092   2.707  0.1837  0.1158  0.2595
 2850W        W12543  15.076  17.413   3.433 -0.2107 -0.0215 -0.1086
 2851W        W12544   5.906   5.109   0.536  0.2534 -0.2686  0.0226
 2852W        W12545   8.944  16.807   1.385 -0.0969 -0.0484  0.0121
 2853W        W12546  17.294  16.320   3.613  0.0161  0.0549 -0.0335
 2854W        W12547   4.125  11.395   1.747  0.2507  0.0974 -0.0487
 2855W        W12548   0.670   2.272  15.596  0.0795  0.2938 -0.1373
 2856W        W12549  17.517   0.889  11.878  0.1741  0.2477 -0.2206
 2857W        W12550  13.516  16.880   3.768 -0.0091 -0.4269  0.0809
 2858W        W12551   8.395   2.941  13.718 -0.0589  0.1034  0.2931
 2859W        W12552   9.516   1.363   5.717 -0.0085  0.0566  0.1872
 2860W        W12553  16.438  15.322  12.522  0.0919 -0.5028  0.0821
 2861W        W12554   0.606  16.577   3.453 -0.2681 -0.4187  0.3164
 2862W        W12555   4.629  11.344  16.854  0.3370  0.1338 -0.0722
 2863W        W12556   0.235   5.600   0.420  0.2038  0.1758 -0.1980
 2864W        W12557   6.298  16.412   6.865  0.0843 -0.1658 -0.1641
 2865W        W12558  11.485   3.494   1.685 -0.0684  0.1782 -0.0115
 2866W        W12559   6.562  15.427  14.138 -0.0038 -0.1593  0.2150
 2867W        W12560   1.141   9.596   0.785  0.1024 -0.2231 -0.1481
 2868W        W12561  13.590   0.621   1.742 -0.3839  0.0505  0.2734
 2869W        W12562   3.779   5.569  16.075 -0.1941 -0.1493  0.2873
 2870W        W12563  15.030  13.444   3.582 -0.2193 -0.2625 -0.2046
 2871W        W12564  11.216  16.464  16.155 -0.2245  0.3356 -0.0242
 2872W        W12565  10.043   2.066  12.854 -0.0923  0.2234 -0.1785
 2873W        W12566   5.173   6.966  12.555 -0.2590 -0.0612 -0.0086
 2874W        W12567  10.352   3.023  13.214 -0.3613  0.0558 -0.3513
 2875W        W12568   1.275   0.670   1.254 -0.0223 -0.1801 -0.2148
 2876W        W12569   9.939  14.755   6.138 -0.0336 -0.2573 -0.0955
 2877W        W12570  10.667  11.087   6.039 -0.1189 -0.1944 -0.2382
 2878W        W12571   0.755  13.810  14.514  0.0876 -0.0279  0.2895
 2879W        W12572  10.219  16.764  11.944 -0.0929  0.1060 -0.0754
 2880W        W12573   0.454   5.014   1.573 -0.1593  0.0316 -0.1314
 2881W        W12574  12.684   8.217   1.539 -0.1453 -0.1889 -0.2698
 2882W        W12575   7.409   3.994  10.797 -0.2504  0.1032 -0.4573
 2883W        W12576   4.171  17.220  14.310 -0.2567  0.1615  0.0896
 2884W        W12577   3.205  14.457   0.540 -0.1220 -0.2551 -0.1082
 2885W        W12578  10.317  10.937  13.802 -0.0410  0.1637 -0.1986
 2886W        W12579   2.819   4.020  11.074 -0.0541  0.1862 -0.1937
 2887W        W12580  15.539  10.892  13.720  0.1107 -0.0483  0.1116
 2888W        W12581   2.282  10.368   3.073 -0.1473  0.3114 -0.2822
 2889W        W12582   1.836   1.442  15.508  0.0936  0.0023  0.0272
 2890W        W12583  14.882   3.163  16.860 -0.1473 -0.0800  0.0821
 2891W        W12584   7.673  11.014   2.668  0.1552 -0.1427 -0.1149
 2892W        W12585   9.709  13.206   0.508  0.1393 -0.5504 -0.1248
 2893W        W12586  16.492   5.102   2.008 -0.1650  0.0881 -0.1745
 2894W        W12587   8.391  15.281   3.947  0.0195 -0.2026  0.0395
 2895W        W12588   9.800   2.387  13.632  0.0576  0.0792 -0.0166
 2896W        W12589   6.992   6.901   1.980 -0.2481  0.0668  0.2256
 2897W        W12590   2.691  14.748   0.762  0.0417 -0.1212 -0.1156
 2898W        W12591   1.063  11.805  12.624 -0.0045  0.1407  0.1929
 2899W        W12592  16.673   5.607   4.416  0.1030 -0.1408  0.1406
 2900W        W12593  14.000   0.016  12.606  0.1376  0.2044 -0.2343
 2901W        W12594  16.787  11.782  14.497 -0.1002  0.2681  0.1753
 2902W        W12595  16.743  16.107   3.839 -0.1768  0.2584 -0.3941
 2903W        W12596  14.341  10.150  16.678  0.1864  0.0201  0.2285
 2904W        W12597  12.231   9.566  14.073  0.3295 -0.1511  0.0413
 2905W        W12598  13.612   4.989  17.675 -0.2279  0.2923  0.2321
 2906W        W12599   3.629  14.056  17.145 -0.1646 -0.2022 -0.0420
 2907W        W12600   3.188  10.268   1.241  0.0701 -0.2741  0.2716
 2908W        W12601  13.936  12.701  15.392 -0.1523  0.0270  0.0784
 2909W        W12602   5.624  16.829  16.608 -0.0517 -0.0800 -0.1485
 2910W        W12603   7.737   8.183   1.471  0.2956  0.0430  0.0696
 2911W        W12604  16.697  11.036   1.222  0.2222  0.1963 -0.1681
 2912W        W12605   8.901   5.271  12.581 -0.1769  0.1182  0.0181
 2913W        W12606   7.838   7.851   0.403  0.0999 -0.0725  0.1714
 2914W        W12607  12.968   1.892   4.196 -0.0382 -0.0029  0.1797
 2915W        W12608  16.182  12.341   2.003 -0.0561  0.0571  0.1888
 2916W        W12609   7.463  13.104   1.704 -0.1443  0.0747  0.1940
 2917W        W12610  14.238  11.589  13.863  0.1997 -0.1972  0.0981
 2918W        W12611  11.146   5.880   3.132 -0.0462  0.1763 -0.0245
 2919W        W12612  13.168   4.363  17.043 -0.0632  0.0736  0.3566
 2920W        W12613   2.456   8.735  12.160  0.1367 -0.2615  0.1942
 2921W        W12614  14.078  15.296   2.137 -0.3564 -0.0865  0.1613
 2922W        W12615  12.443  14.159  17.583  0.0908  0.2079  0.0511
 2923W        W12616   7.128   0.550   3.818 -0.0683  0.0028 -0.1456
 2924W        W12617   4.571  14.399  14.339 -0.0025  0.0449 -0.0936
 2925W        W12618   1.571  13.751   5.875  0.0113  0.0516 -0.0563
 2926W        W12619   1.861  15.805  13.358 -0.3021  0.1152 -0.0454
 2927W        W12620  14.192   1.092  14.728 -0.0773  0.0785 -0.1774
 2928W        W12621   2.125  12.918   5.524 -0.0584  0.2033  0.2648
 2929W        W12622   4.621  14.840  17.349  0.0406  0.1735 -0.3763
 2930W        W12623  17.570   0.471  16.042  0.1601 -0.1577  0.3477
 2931W        W12624   5.883   9.752   0.437  0.0169 -0.2575  0.1300
 2932W        W12625   4.432   0.193   0.555  0.2845  0.0587 -0.0133
 2933W        W12626   5.861   0.072  17.381 -0.1438 -0.0410  0.0925
 2934W        W12627  12.073   6.250   2.355  0.0598  0.0492  0.1943
 2935W        W12628   5.233   3.747  14.535 -0.0025  0.0212 -0.0788
 2936W        W12629  12.445   6.441   4.410  0.2332  0.1517 -0.0154
 2937W        W12630   3.761   6.125   5.847  0.1368 -0.2188  0.0635
 2938W        W12631  16.987   3.427   1.348  0.2115  0.0386 -0.0733
 2939W        W12632  15.681  16.001   5.619  0.0388 -0.0891 -0.1456
 2940W        W12633   4.897  10.753  16.642  0.1098 -0.0398 -0.0924
 2941W        W12634   8.976   7.612  13.393  0.0137  0.1240 -0.3527
 2942W        W12635   4.179   8.155   0.257 -0.2146  0.0009  0.0600
 2943W        W12636   3.968   6.652   0.317  0.1267  0.1695  0.0581
 2944W        W12637   5.376   7.269  16.779  0.0513 -0.1031  0.0569
 2945W        W12638  17.044   4.367  15.479 -0.0319 -0.1823  0.2758
 2946W        W12639  13.235   2.161  11.939  0.1872  0.0220  0.1195
 2947W        W12640   2.345   9.251  16.385  0.3083  0.0082 -0.2564
 2948W        W12641   0.789   7.178   0.648 -0.1504  0.2350  0.1001
 2949W        W12642  15.723   9.339   2.392  0.1393 -0.3360  0.0735
 2950W        W12643  17.229  15.935   1.508  0.1249  0.0579 -0.1392
 2951W        W12644  15.353  12.614   6.004  0.4293 -0.3156 -0.2063
 2952W        W12645   2.672  11.975  13.046  0.1663 -0.1874  0.0282
 2953W        W12646   9.929  10.651  15.042 -0.2013 -0.1381  0.0485
 2954W        W12647  11.197  10.530   4.598  0.0334  0.0888 -0.1602
 2955W        W12648  15.379   8.813  14.766 -0.0160 -0.1960 -0.0043
 2956W        W12649   7.148  12.223  17.223 -0.0160 -0.0634  0.2852
 2957W        W12650   5.965   7.690   3.385  0.2953  0.3021  0.0640
 2958W        W12651  12.822   5.922  14.787 -0.0636  0.0874  0.2044
 2959W        W12652   0.056   7.315  13.301  0.2185 -0.2929 -0.1310
 2960W        W12653  12.436   9.449   6.263  0.1376 -0.0409  0.0888
 2961W        W12654   5.027   8.220   0.653 -0.3819  0.2387 -0.1253
 2962W        W12655   9.741   3.576   2.964  0.2177  0.1514 -0.0942
 2963W        W12656   5.886   5.645  11.896 -0.0466 -0.1207  0.2283
 2964W        W12657   3.475   0.711   1.824  0.0398  0.0565 -0.2966
 2965W        W12658   3.825  17.280  13.945  0.1043  0.0612  0.0327
 2966W        W12659   1.623  14.558  14.815  0.3739  0.0060 -0.1284
 2967W        W12660   2.005  13.141   2.067  0.0050  0.0686 -0.1141
 2968W        W12661   6.512   8.174  13.128  0.2171  0.2251  0.0713
 2969W        W12662   0.545   8.320  17.569  0.0672  0.1169 -0.0297
 2970W        W12663  11.564  10.041  14.890 -0.0381 -0.0847  0.0657
 2971W        W12664   0.719  11.851  15.268 -0.1460 -0.3939  0.0395
 2972W        W12665   3.445  12.169   1.954  0.0163  0.2559 -0.0845
 2973W        W12666  15.196   0.425   0.951  0.1120  0.0605 -0.0645
 2974W        W12667   3.120   6.665   4.530  0.1278  0.0797 -0.1606
 2975W        W12668   9.164  16.952  16.958 -0.2141 -0.1718  0.2111
 2976W        W12669   0.463   9.642   1.940 -0.1491 -0.0920 -0.3673
 2977W        W12670   0.832  12.678  16.282  0.1337  0.2364  0.0602
 2978W        W12671  11.983  14.570   1.874  0.0852  0.1989 -0.1159
 2979W        W12672  10.477  10.580   4.099 -0.1219 -0.1754  0.1125
 2980W        W12673  12.421   0.496   4.019  0.1536  0.0579 -0.3773
 2981W        W12674   0.226  16.028  14.712 -0.0883 -0.3806 -0.0723
 2982W        W12675  16.030   0.404   1.034 -0.0067  0.3715  0.0330
 2983W        W12676   7.435  10.683   3.540  0.0750  0.1531  0.0859
 2984W        W12677   1.779   6.663  14.583 -0.0143  0.4565  0.2117
 2985W        W12678  12.704  15.503  16.989  0.3213  0.3599  0.3300
 2986W        W12679   1.517   6.442   0.765 -0.1628  0.0004 -0.1522
 2987W        W12680   2.214  13.499   3.992 -0.3247 -0.2905 -0.1467
 2988W        W12681  14.227   8.264  15.782 -0.0043  0.1210 -0.3059
 2989W        W12682  13.107   0.761   1.884  0.1219  0.0629  0.0781
 2990W        W12683   7.838   6.384   1.613  0.2240 -0.0543  0.2859
 2991W        W12684  15.540  12.192  17.270  0.0633 -0.1463  0.0169
 2992W        W12685   3.474  17.540   4.778 -0.1540  0.0939 -0.2381
 2993W        W12686   1.314   2.187  15.862  0.0115 -0.0489 -0.2169
 2994W        W12687  17.664   3.678  17.582 -0.2996  0.0133  0.2102
 2995W        W12688   5.414   4.568   1.794  0.1104 -0.1044 -0.2056
 2996W        W12689  16.313  12.587   5.938 -0.0876 -0.1363  0.0007
 2997W        W12690   5.307   4.757   3.082 -0.1644  0.1283  0.0618
 2998W        W12691   9.720   8.265  12.160 -0.0976 -0.1058 -0.3348
 2999W        W12692  16.805  16.813  13.547 -0.1666 -0.1849  0.2204
 3000W        W12693  13.153  15.746   6.590 -0.0415 -0.1265  0.2834
 3001W        W12694  14.085   0.006  14.772 -0.4252  0.0983  0.1469
 3002W        W12695  12.850   3.460   4.187 -0.2267  0.0559 -0.1310
 3003W        W12696  13.083   1.595   2.911 -0.0719  0.0479  0.1668
 3004W        W12697   2.150   6.050  13.862 -0.1991 -0.1051 -0.0903
 3005W        W12698  14.881  13.224   2.172 -0.1988  0.0985  0.0438
 3006W        W12699   1.408  13.276   4.878  0.1209  0.1847 -0.3288
 3007W        W12700   3.107  12.383   5.223 -0.0010 -0.0258  0.2055
 3008W        W12701   1.329   9.010   4.417 -0.0034 -0.1817  0.1090
 3009W        W12702   1.961   0.451  13.669  0.1201 -0.1163 -0.3331
 3010W        W12703   2.852  16.262  13.923 -0.0845  0.1000  0.0941
 3011W        W12704   4.739   5.603   1.875 -0.1268 -0.1195 -0.0518
 3012W        W12705   3.839  16.925   0.436 -0.2308  0.0719 -0.0655
 3013W        W12706  10.636  10.130  17.116  0.2209  0.0692 -0.0293
 3014W        W12707  17.423   0.457  14.497  0.1824  0.0392  0.0488
 3015W        W12708  14.735   7.942  12.482  0.0842  0.2167 -0.1968
 3016W        W12709   9.021   5.953  15.792  0.0239 -0.0724  0.1238
 3017W        W12710  11.473   5.516   4.711 -0.2791  0.3207 -0.1708
 3018W        W12711  12.980   9.149   5.633 -0.2320  0.0049 -0.1227
 3019W        W12712  12.576  17.658   3.827  0.2074  0.1551 -0.2188
 3020W        W12713  15.025   1.923   1.683 -0.0366  0.1981 -0.1309
 3021W        W12714  12.428   3.527  13.620  0.0354  0.1919 -0.1294
 3022W        W12715  12.277  17.611  13.101 -0.1966 -0.0253  0.0407
 3023W        W12716  17.612   4.109   7.204 -0.1143 -0.0135  0.2680
 3024W        W12717  10.274   6.234   1.866 -0.1109  0.0983 -0.0278
 3025W        W12718   3.972   7.234  13.171 -0.4373 -0.4638  0.0848
 3026W        W12719   6.045  12.697  12.103  0.2038 -0.1479 -0.1192
 3027W        W12720   3.311  14.415  13.878  0.2017  0.0154 -0.0627
 3028W        W12721  16.672  15.937  12.553  0.0225 -0.1540 -0.0704
 3029W        W12722   3.818  14.104   2.836 -0.0358 -0.1097 -0.0299
 3030W        W12723  10.692   9.705   0.170 -0.0603 -0.0683  0.0231
 3031W        W12724   6.897   2.116   1.118 -0.1159  0.1169 -0.0487
 3032W        W12725   8.094   0.862  16.950  0.1521 -0.2251 -0.0459
 3033W        W12726  11.405  12.505   1.349 -0.0148 -0.1782 -0.0847
 3034W        W12727   1.357   2.983   3.908 -0.1479 -0.1089 -0.1176
 3035W        W12728   9.868  17.286   4.132  0.0816 -0.1970 -0.1903
 3036W        W12729   2.559  16.588   2.511 -0.2147 -0.0710  0.0560
 3037W        W12730   3.213  15.118  12.704  0.3276  0.1122 -0.4038
 3038W        W12731   1.335  11.673   5.268 -0.0213  0.0449 -0.2291
 3039W        W12732   1.411  10.049   0.743  0.4036 -0.0323 -0.1725
 3040W        W12733   9.177  10.085  13.348  0.1026  0.2305  0.0409
 3041W        W12734   6.188   7.237  14.753  0.2527 -0.2359 -0.0809
 3042W        W12735  10.134  12.469  13.802 -0.1139 -0.0504 -0.3124
 3043W        W12736  15.583  11.875  16.812 -0.0165  0.1111 -0.0044
 3044W        W12737  17.040   7.243   4.913 -0.2514 -0.4168  0.0618
 3045W        W12738  11.680   5.775  14.160 -0.1047 -0.1041  0.1268
 3046W        W12739  10.876  10.985   3.211 -0.0195 -0.1025 -0.2643
 3047W        W12740   7.579   3.166   3.813  0.0240 -0.1232  0.2934
 3048W        W12741  13.726   8.282   0.704  0.0934 -0.1213 -0.3459
 3049W        W12742  16.576  11.183  16.136  0.1961 -0.0595  0.0517
 3050W        W12743   9.513   5.904   6.485 -0.3228  0.0231 -0.2209
 3051W        W12744   9.689   9.891  13.478  0.0023  0.3070 -0.2015
 3052W        W12745   6.134  15.159  13.935 -0.2640  0.0615 -0.0278
 3053W        W12746   5.266   3.834   5.426 -0.1690 -0.1279 -0.0080
 3054W        W12747  15.463   8.452  15.212  0.3062  0.0161 -0.1637
 3055W        W12748  16.376   1.700  14.412  0.2615 -0.1337 -0.0869
 3056W        W12749  15.323  14.794   0.494  0.0109 -0.0070  0.1165
 3057W        W12750   2.428  10.054  15.679  0.2913  0.1175  0.0852
 3058W        W12751  11.820  12.066   3.109 -0.0514  0.0774  0.0254
 3059W        W12752  15.098   1.016   3.903  0.0656  0.1650  0.1583
 3060W        W12753  11.822   2.660  17.345  0.1845  0.0120  0.1656
 3061W        W12754  13.759  10.908  12.579  0.0979 -0.0621 -0.1900
 3062W        W12755  13.849  13.443  14.697 -0.0396  0.0473  0.1354
 3063W        W12756  12.394   6.759  14.944 -0.1217 -0.0780  0.1887
 3064W        W12757   2.987   9.801   0.156 -0.1588 -0.1135 -0.2268
 3065W        W12758   9.678  16.359  11.982  0.0272  0.0445 -0.1045
 3066W        W12759   3.995  12.527  11.786 -0.2069  0.2257 -0.1158
 3067W        W12760   5.446  17.500  16.084 -0.0066 -0.2569 -0.2284
 3068W        W12761  14.662  11.294  17.469 -0.5084 -0.1614  0.1993
 3069W        W12762  11.981   7.582   7.182 -0.0227  0.1766 -0.3478
 3070W        W12763   2.994  17.394  12.514 -0.0719 -0.1591 -0.0167
 3071W        W12764  12.787   0.625   0.610  0.0112  0.2699  0.1043
 3072W        W12765  13.668  13.902  13.872 -0.0240  0.1015 -0.0003
 3073W        W12766  15.298  13.534  13.241 -0.1193 -0.1283  0.1034
 3074W        W12767  16.575   4.794  12.819  0.0911  0.2304 -0.2466
 3075W        W12768   6.705  17.612  15.457  0.0492 -0.0705 -0.2554
 3076W        W12769  10.477   8.937   2.229  0.3565  0.1461 -0.1331
 3077W        W12770   2.100  10.591  15.112 -0.1318 -0.1059  0.1227
 3078W        W12771   7.674   2.938   2.717 -0.1022  0.0464  0.0735
 3079W        W12772   8.045   1.186   3.878 -0.0713  0.1206 -0.1259
 3080W        W12773  11.586  10.100   2.931  0.1923  0.4517 -0.0341
 3081W        W12774  13.382   0.804  12.557 -0.0752 -0.2808  0.2220
 3082W        W12775   2.835   4.437  12.464 -0.0376 -0.0156  0.2273
 3083W        W12776   1.485  16.609   1.524 -0.3376 -0.1782  0.1211
 3084W        W12777   2.932   8.134   4.301 -0.2822 -0.0250 -0.0577
 3085W        W12778   2.310  14.934   1.106  0.1354 -0.1621 -0.1054
 3086W        W12779  15.932  11.783  15.837  0.2776 -0.1865  0.1861
 3087W        W12780   1.647   7.946   2.928 -0.1617  0.4457  0.0717
 3088W        W12781   0.856  15.334   0.459 -0.0622  0.1621  0.0567
 3089W        W12782   4.598   6.785   5.851 -0.0824 -0.2549 -0.3562
 3090W        W12783   8.972  12.057   0.669  0.0554  0.1076 -0.2245
 3091W        W12784  14.812   4.610  17.314  0.1186  0.0422  0.2413
 3092W        W12785   1.736   9.353   2.398 -0.1405  0.0311  0.1166
 3093W        W12786  15.159  10.932   2.771  0.1271 -0.1530 -0.0453
 3094W        W12787  15.110  15.893  15.964  0.2536 -0.0567 -0.0731
 3095W        W12788  14.427   6.318  14.367 -0.4492  0.0207 -0.1651
 3096W        W12789   1.953  17.410   3.874 -0.1568 -0.3599 -0.0083
 3097W        W12790  17.308   7.853   3.992  0.2462  0.0682 -0.0023
 3098W        W12791   3.967  12.767  15.403 -0.0728  0.1953 -0.0478
 3099W        W12792   3.583  12.545   1.677 -0.1523  0.0307 -0.1855
 3100W        W12793  15.865   5.751   3.152  0.0415 -0.1551 -0.0857
 3101W        W12794  15.930   2.661  12.603  0.0246  0.3042  0.3861
 3102W        W12795   4.759   5.125   1.826  0.0714 -0.0185  0.0189
 3103W        W12796  15.640  12.407   3.468  0.2348  0.1394  0.0845
 3104W        W12797   0.964   6.473   6.252 -0.2199  0.0637 -0.0754
 3105W        W12798  16.290   9.985   0.397 -0.1206  0.1413  0.0665
 3106W        W12799  14.816   1.984  12.134  0.0618 -0.0345 -0.0518
 3107W        W12800   7.280   1.402  15.489 -0.2289  0.2760 -0.1707
 3108W        W12801   3.351   4.862   3.115  0.1242 -0.2729 -0.0707
 3109W        W12802   3.692  16.708   6.726 -0.0256 -0.0955  0.1010
 3110W        W12803   2.955  11.536  17.431  0.0942  0.1077  0.1136
 3111W        W12804   2.851  13.197   3.670 -0.2552  0.2866  0.0217
 3112W        W12805  12.124   2.069  14.464 -0.0753 -0.2885 -0.0218
 3113W        W12806   3.345  13.105   2.587  0.0829  0.0447  0.3780
 3114W        W12807   7.836  14.413   5.287 -0.0217 -0.1043 -0.2094
 3115W        W12808  12.067   7.037  12.786  0.3290  0.0264  0.1043
 3116W        W12809   8.312   9.125  12.801  0.1917  0.0631 -0.0639
 3117W        W12810   9.749   5.592   0.518  0.2252 -0.1637  0.2912
 3118W        W12811  13.864   0.848   2.146 -0.1068 -0.4123  0.0675
 3119W        W12812   6.914   1.683  15.768  0.2508 -0.0456 -0.1796
 3120W        W12813   2.063  11.982   1.336  0.2383  0.1037 -0.4565
 3121W        W12814  17.210  15.339  13.683  0.0204 -0.2293  0.0694
 3122W        W12815   2.370  12.254  15.727  0.0681 -0.1262 -0.1123
 3123W        W12816   8.184   6.957   3.098  0.0074 -0.3345  0.1876
 3124W        W12817  15.171  12.427  14.123 -0.1105 -0.1279 -0.0397
 3125W        W12818  13.602   5.133   5.316  0.0189  0.0293  0.0554
 3126W        W12819   3.179   7.252  16.791  0.1689  0.2351 -0.1042
 3127W        W12820   8.050  13.005   6.507  0.1370  0.2525 -0.1070
 3128W        W12821   4.625   7.660  11.401  0.0774  0.1155  0.0345
 3129W        W12822   8.153  11.275   5.114 -0.0448  0.0522  0.0972
 3130W        W12823   6.226   0.920   0.512 -0.1601 -0.1201  0.2324
 3131W        W12824  13.469   4.710  14.110 -0.1003 -0.0996 -0.1224
 3132W        W12825   4.697   9.568   2.337  0.1267  0.1560  0.0928
 3133W        W12826  14.396  10.063  14.594 -0.3416  0.4313 -0.0719
 3134W        W12827  10.971   9.327  14.662  0.2052 -0.3379  0.1095
 3135W        W12828   0.109  17.511   6.079 -0.4249  0.1229 -0.0909
 3136W        W12829  13.218  14.500   4.786 -0.0714 -0.2391 -0.0480
 3137W        W12830  12.648   0.999  14.458 -0.0024 -0.1560  0.2703
 3138W        W12831   3.498  14.001  15.617  0.1180 -0.3577 -0.0500
 3139W        W12832   5.675  12.604   4.570  0.0716 -0.0286  0.0935
 3140W        W12833   6.210   2.335  15.383  0.2177  0.4469  0.2183
 3141W        W12834  16.762   4.059  17.482  0.1331 -0.0415 -0.2045
 3142W        W12835   8.838  14.947  13.993 -0.1771 -0.0080 -0.1801
 3143W        W12836  13.416   0.041   2.492  0.2622 -0.2713 -0.1264
 3144W        W12837  17.011  17.146   3.158  0.0754 -0.0008 -0.2321
 3145W        W12838   2.296  14.435   5.166 -0.4886  0.1761 -0.1641
 3146W        W12839   6.250   0.531   6.267 -0.1310  0.3831 -0.4084
 3147W        W12840   9.559   0.631  13.717  0.0350  0.0648  0.0350
 3148W        W12841   3.753   7.736  15.194  0.2863  0.2766 -0.1788
 3149W        W12842   6.578   9.834  12.360  0.0871 -0.0854 -0.0530
 3150W        W12843   0.174  10.639  13.467 -0.0843  0.0038 -0.3203
 3151W        W12844  14.479   4.336   5.534 -0.1006 -0.2436 -0.0229
 3152W        W12845   8.952   5.767   0.798  0.0029 -0.0969  0.0224
 3153W        W12846  11.563  13.495  16.827 -0.0653 -0.0008 -0.1250
 3154W        W12847   0.389   7.813  14.452  0.3503 -0.1985 -0.2264
 3155W        W12848  12.267   0.160   2.628 -0.0652 -0.1258  0.0851
 3156W        W12849  12.479   0.577   2.655  0.3417  0.2303  0.0438
 3157W        W12850  17.494   2.736  16.383 -0.0447 -0.3096  0.1090
 3158W        W12851  12.290  15.493  14.122  0.2244  0.1302  0.2864
 3159W        W12852  10.700  13.758   1.407  0.3394  0.1814  0.3676
 3160W        W12853  16.582  16.613   4.532  0.0082 -0.1507  0.1920
 3161W        W12854   5.889   3.749  16.582  0.1218  0.0013 -0.3383
 3162W        W12855  11.304   1.138  14.146 -0.2084 -0.0760  0.0356
 3163W        W12856   2.290   6.255   0.147 -0.0819 -0.2138 -0.2889
 3164W        W12857  14.961  16.232  16.301 -0.2750  0.3434 -0.0223
 3165W        W12858   1.353  14.116   3.027  0.1556  0.0800 -0.0861
 3166W        W12859  14.244   2.988   4.401  0.0669  0.1873  0.0062
 3167W        W12860  13.190   9.764  14.737  0.0359 -0.1614  0.3261
 3168W        W12861   6.617  12.868   3.294  0.0180 -0.2746 -0.0543
 3169W        W12862   1.354  12.510  16.197 -0.3927  0.0730 -0.2478
 3170W        W12863   3.076   8.703   5.118  0.0402 -0.0933  0.2541
 3171W        W12864   9.898   6.262  14.815 -0.1468  0.1694  0.1859
 3172W        W12865   3.364   5.057   2.163  0.0265  0.0134 -0.2262
 3173W        W12866  11.309   1.442   4.282 -0.1374 -0.0473 -0.5104
 3174W        W12867  12.434  10.966  12.902 -0.2840 -0.0726  0.0502
 3175W        W12868  13.599   0.168  13.830 -0.0429  0.0133 -0.3725
 3176W        W12869  12.160  11.220   0.195  0.0251  0.1145 -0.0565
 3177W        W12870   7.816   2.927   4.549  0.2903 -0.2931 -0.1546
 3178W        W12871  16.557  11.264   4.108 -0.1171 -0.1480 -0.0101
 3179W        W12872   6.222  17.004  16.043 -0.2972  0.1658  0.0512
 3180W        W12873   8.629  17.435  13.774  0.0718  0.2462 -0.1565
 3181W        W12874   5.985  10.783   1.340 -0.0528 -0.1612 -0.0383
 3182W        W12875   3.186   4.796   6.499 -0.0923 -0.0717  0.1624
 3183W        W12876   2.181  13.232  17.635 -0.0590 -0.0916 -0.1812
 3184W        W12877   8.617  14.008  17.683 -0.2440 -0.0725  0.0424
 3185W        W12878  13.626  14.399   4.485 -0.0685 -0.0163 -0.3413
 3186W        W12879   4.061   4.914  12.094  0.0232 -0.1253 -0.1313
 3187W        W12880   4.905  13.699   5.942  0.2816 -0.0319  0.1237
 3188W        W12881  16.709  17.290   2.407  0.4083 -0.2953  0.3024
 3189W        W12882  13.529  10.198   3.795  0.3455 -0.1993  0.0358
 3190W        W12883  13.989   7.384   3.619  0.1100  0.0297  0.0943
 3191W        W12884   7.797  17.229   3.363 -0.1370 -0.1419  0.3479
 3192W        W12885   0.739   7.355  13.512 -0.0752  0.1733 -0.0738
 3193W        W12886   9.853  16.712  15.524  0.0959  0.0059 -0.2086
 3194W        W12887  10.434   8.176  15.743  0.0387 -0.2841  0.2356
 3195W        W12888   5.823  14.193  14.045 -0.1298  0.1515  0.0386
 3196W        W12889  15.164   6.829  16.049  0.0103 -0.2827  0.0106
 3197W        W12890   0.370  10.170   0.936  0.0815 -0.0223  0.0229
 3198W        W12891   3.512  11.804   3.036 -0.2504 -0.0698 -0.0296
 3199W        W12892   2.246   4.114   1.133  0.2497  0.2406 -0.5007
 3200W        W12893   5.087   6.611  14.748 -0.1651 -0.0903 -0.1472
 3201W        W12894   9.240   3.367   3.112  0.0743 -0.1338  0.1632
 3202W        W12895   0.564  16.122  12.948  0.0503  0.0247 -0.1769
 3203W        W12896   4.640   5.753  11.233  0.0638 -0.0600 -0.0602
 3204W        W12897   8.663  15.069   4.960  0.2109  0.3615  0.1790
 3205W        W12898   1.800  15.777   3.213 -0.2100 -0.1371  0.0136
 3206W        W12899  14.315  11.877   3.280 -0.2503  0.0176 -0.1929
 3207W        W12900   5.790   2.942   1.590 -0.4842  0.2693 -0.2483
 3208W        W12901  14.160   7.628  15.378  0.0734  0.1212 -0.0247
 3209W        W12902   2.561   1.324   2.901  0.1529 -0.4287 -0.1430
 3210W        W12903  14.929   6.838  14.905  0.1700  0.0110 -0.1489
 3211W        W12904   2.373   6.880   1.461 -0.2087  0.0083 -0.1328
 3212W        W12905   6.882  11.058  14.093  0.2153 -0.1224  0.0453
 3213W        W12906  16.361   2.302   2.668 -0.0075  0.0767 -0.1874
 3214W        W12907  14.130   6.763  12.401  0.2060 -0.2909 -0.0150
 3215W        W12908  12.118  15.393   2.704 -0.0568 -0.1277 -0.2877
 3216W        W12909  11.222   2.753   3.459 -0.1750  0.0928 -0.0219
 3217W        W12910  12.456  12.481  13.334 -0.0009  0.0252 -0.0634
 3218W        W12911   0.379   6.965   5.018  0.0490  0.1817  0.1365
 3219W        W12912  15.160   9.722   5.309  0.0382  0.1952 -0.2579
 3220W        W12913   5.239   6.186   0.166  0.1431  0.0691  0.1167
 3221W        W12914   3.790  14.051   5.761  0.1847  0.0420  0.0556
 3222W        W12915  15.456   1.888   2.522  0.2385  0.1890  0.2875
 3223W        W12916   8.158   7.755   5.560 -0.1651  0.0983 -0.1766
 3224W        W12917   8.776   6.623  16.192 -0.1118 -0.0732 -0.2140
 3225W        W12918   9.080  14.104  17.342 -0.0644  0.1310 -0.0216
 3226W        W12919  11.361  14.413   2.937  0.3862 -0.1997 -0.3933
 3227W        W12920  14.398   6.261   5.843 -0.1393  0.0150 -0.0096
 3228W        W12921  10.732   9.285   1.976 -0.3187  0.1607  0.1701
 3229W        W12922  16.406  16.740  15.054 -0.0315  0.1292  0.0027
 3230W        W12923   7.240   8.491   3.501 -0.1285 -0.0777 -0.0069
 3231W        W12924  15.632   9.059   6.156  0.0733 -0.0670 -0.1322
 3232W        W12925  14.887   5.916   3.168 -0.0328 -0.1900 -0.2833
 3233W        W12926   4.351  17.497  17.560  0.0370  0.2524  0.1685
 3234W        W12927   6.079  14.358   2.326  0.0820  0.2304  0.1635
 3235W        W12928   4.942   8.182   3.616  0.0015  0.1356  0.1831
 3236W        W12929   4.433   8.014   2.626  0.2455  0.0047  0.0776
 3237W        W12930   0.271   8.433  12.650 -0.0371 -0.3588  0.2262
 3238W        W12931   9.250   6.624   3.966 -0.0920  0.0788  0.3402
 3239W        W12932  13.519   6.610  12.283  0.0886 -0.1345 -0.3080
 3240W        W12933   6.355  15.301   2.151 -0.0383 -0.0081  0.0544
 3241W        W12934  12.058  14.211   1.138  0.1406  0.0164  0.0782
 3242W        W12935   8.775  15.888  14.969 -0.0643  0.0372  0.0153
 3243W        W12936   8.019   0.633   2.540 -0.2538 -0.1661  0.1081
 3244W        W12937   1.522   1.434   5.655 -0.1406 -0.1064 -0.3560
 3245W        W12938  16.508  14.248  14.617  0.2602  0.0341 -0.1096
 3246W        W12939  14.702  14.772   7.520 -0.0689  0.2269  0.0081
 3247W        W12940  17.674   2.584  15.912 -0.1152 -0.3332 -0.1424
 3248W        W12941  17.118   8.321   5.352 -0.0453  0.0511 -0.1457
 3249W        W12942   3.793  11.244   3.754  0.1114  0.0941 -0.0578
 3250W        W12943   0.971   6.097   5.640  0.1987 -0.2330  0.2777
 3251W        W12944   5.019   1.492  14.296 -0.0395 -0.2340  0.0202
 3252W        W12945   7.839   7.109   2.329  0.1238 -0.2069 -0.1268
 3253W        W12946   4.644   9.053  13.071  0.0686  0.0617  0.3549
 3254W        W12947  16.883   1.855  15.115  0.0334  0.4939  0.2612
 3255W        W12948   3.838  11.257  14.943  0.1017 -0.4856  0.0126
 3256W        W12949  10.026   8.116   0.255 -0.0251 -0.1061  0.0242
 3257W        W12950  11.374   2.491   7.304  0.2225  0.0202 -0.3000
 3258W        W12951  17.563   4.530  16.309  0.3089 -0.1757  0.2180
 3259W        W12952   2.196  10.987   0.609 -0.1036 -0.2877 -0.0461
 3260W        W12953   9.633   9.411  15.162 -0.2942 -0.0912  0.1685
 3261W        W12954  12.661   2.035  13.593 -0.0444 -0.1023  0.0075
 3262W        W12955   2.455   7.521  17.286 -0.1191 -0.1162 -0.0070
 3263W        W12956   1.780  10.568   2.433  0.0406  0.1822  0.1197
 3264W        W12957  15.907  10.846   1.546  0.0623  0.0944  0.1490
 3265W        W12958   1.191  15.016   0.314 -0.0801  0.4421 -0.2983
 3266W        W12959  11.282   6.067  12.523 -0.0316 -0.1602  0.2742
 3267W        W12960   4.972   4.809   0.513  0.1407 -0.2273  0.1488
 3268W        W12961  11.138   2.716  15.173  0.1568 -0.0523  0.3889
 3269W        W12962  10.383   1.326   4.660  0.0635 -0.2196 -0.4190
 3270W        W12963   3.387   9.043   0.628 -0.0314 -0.0708  0.0353
 3271W        W12964   0.465   3.751   5.001 -0.4337  0.2154  0.1920
 3272W        W12965   2.460  13.594   4.718 -0.0777  0.1211  0.0713
 3273W        W12966   2.147  13.749  16.930  0.2427 -0.0526  0.0856
 3274W        W12967   4.598   6.971  11.432  0.1547  0.3152 -0.1596
 3275W        W12968   8.316   7.275  13.641  0.0995 -0.2484 -0.1852
 3276W        W12969  13.710   0.983  12.217  0.1755  0.0405  0.2566
 3277W        W12970  17.074  13.573  14.690 -0.2059  0.1072 -0.0141
 3278W        W12971  15.844   3.750  14.860  0.3799  0.1354 -0.0748
 3279W        W12972   3.714  12.391  13.414  0.2076  0.1058  0.0403
 3280W        W12973   1.802   2.515   0.632 -0.1523 -0.0954 -0.1292
 3281W        W12974   3.279   1.400   6.937  0.0712 -0.1372  0.0987
 3282W        W12975   3.554  10.484   3.816  0.1175 -0.3224 -0.0442
 3283W        W12976  12.607  13.552   4.593  0.0429 -0.0151  0.2055
 3284W        W12977  10.682   3.416  14.863  0.2639  0.0699 -0.0672
 3285W        W12978   2.827   3.940  11.647 -0.0139  0.1170  0.1253
 3286W        W12979  14.221   3.001  13.288 -0.1390 -0.1257 -0.3594
 3287W        W12980   8.084  16.106   6.161  0.1231  0.1618 -0.0011
 3288W        W12981   0.541  14.938  13.582 -0.0501  0.2477  0.0700
 3289W        W12982  10.062  12.160   2.154 -0.1058 -0.2389 -0.3100
 3290W        W12983  17.398   7.596   2.508 -0.1884  0.2111  0.0615
 3291W        W12984   4.961  12.753  12.165 -0.1724 -0.0206 -0.2661
 3292W        W12985   9.041   8.125  13.411 -0.3281 -0.1200  0.0284
 3293W        W12986  13.855  15.980  17.494  0.1734 -0.0575  0.2471
 3294W        W12987  11.146   5.549  12.355  0.3343  0.2537  0.1098
 3295W        W12988   3.319  16.312   0.135  0.2070 -0.1732  0.2115
 3296W        W12989   9.957   3.180   0.380  0.1904 -0.2088 -0.0940
 3297W        W12990   1.404   6.038   5.162 -0.1356  0.1425 -0.0858
 3298W        W12991   8.108   3.633  12.551  0.1223  0.0122  0.2193
 3299W        W12992  11.261   5.629   3.583 -0.1192  0.1018  0.1130
 3300W        W12993   0.401   7.700  11.892  0.0975 -0.0694  0.1785
 3301W        W12994   4.606   6.715   4.853  0.3681 -0.0749  0.0993
 3302W        W12995  16.881   5.422  17.209 -0.0398  0.2943 -0.0560
 3303W        W12996   6.065  13.064   3.579 -0.0170 -0.1767 -0.0334
 3304W        W12997   3.811   3.481  16.899 -0.0906 -0.1400  0.0788
 3305W        W12998  14.198   2.738   0.426 -0.1158  0.1647  0.1245
 3306W        W12999  16.667   7.300   1.114 -0.0464  0.1379 -0.1620
 3307W        W13000   2.327  17.506   2.504  0.0203  0.2741 -0.1971
 3308W        W13001   5.884   4.149   3.296  0.2389  0.0988  0.0676
 3309W        W13002  16.127   9.317   3.282  0.1281 -0.4890  0.1653
 3310W        W13003   8.877  16.119   1.623 -0.0031 -0.0218  0.3027
 3311W        W13004   3.995  11.802   4.544  0.0556  0.1104 -0.0139
 3312W        W13005   6.546   6.076  16.256 -0.0361  0.2874  0.1261
 3313W        W13006  13.309  10.363  14.848  0.1032  0.1492 -0.4629
 3314W        W13007  16.865  16.746   1.073  0.0601 -0.0856  0.2804
 3315W        W13008   5.924   1.187  10.776 -0.0181 -0.0104 -0.0600
 3316W        W13009   7.978   0.325  12.846 -0.3770  0.0169  0.2573
 3317W        W13010  13.136   9.894   0.019 -0.0947 -0.3245  0.0377
 3318W        W13011   8.465  15.203   5.375 -0.0513  0.0620  0.2167
 3319W        W13012  11.666   0.645  12.919  0.3954 -0.1872 -0.0423
 3320W        W13013  10.780  11.778  14.289 -0.2340 -0.2738 -0.1041
 3321W        W13014   3.645   3.999   0.693  0.3229 -0.0697  0.0505
 3322W        W13015   0.008   3.254   1.854 -0.3776  0.0243  0.0711
 3323W        W13016   0.027   2.876   2.880  0.4254  0.1083  0.2805
 3324W        W13017   9.741   8.219   1.200 -0.1519  0.1835 -0.0391
 3325W        W13018  14.416   4.743  15.001 -0.0884  0.0360 -0.0326
 3326W        W13019   0.909   8.178  13.849  0.4095  0.5989 -0.1461
 3327W        W13020   0.736   8.330   1.794  0.3843 -0.3671  0.1363
 3328W        W13021   3.760  14.343  15.905  0.0413 -0.3951  0.0177
 3329W        W13022   0.300  14.834  15.534  0.2065  0.0961 -0.1267
 3330W        W13023   8.506   9.883   3.873  0.1355 -0.1459  0.0451
 3331W        W13024  11.482  14.952   3.553  0.1060  0.0876 -0.0044
 3332W        W13025   5.057   1.040   2.854 -0.0771  0.1510  0.1762
 3333W        W13026  10.705  16.739  15.524 -0.0142  0.0508 -0.4713
 3334W        W13027   5.044   4.401   2.100  0.1961 -0.0667  0.1433
 3335W        W13028  11.474  12.336  13.246  0.2353 -0.0599  0.0368
 3336W        W13029   7.944   9.584  13.568  0.1053 -0.4654 -0.1782
 3337W        W13030  16.914  12.527  13.902 -0.0643  0.3125 -0.1288
 3338W        W13031  17.059   0.187  12.635 -0.1463 -0.0982  0.0914
 3339W        W13032  11.629   2.442   1.694 -0.2078 -0.2786 -0.0280
 3340W        W13033   9.298   2.226   2.854 -0.1639 -0.2082 -0.3749
 3341W        W13034   3.364   2.802  13.603  0.0117  0.1155 -0.3598
 3342W        W13035   7.586   0.569  13.159 -0.1534 -0.2917 -0.1653
 3343W        W13036   2.645   9.179   1.679 -0.0289 -0.2733 -0.0386
 3344W        W13037   9.682   1.015  12.936  0.0883  0.1243 -0.0219
 3345W        W13038  13.621  14.830  12.789 -0.0458 -0.1659  0.1814
 3346W        W13039   5.083   1.899   2.382 -0.0531 -0.0136 -0.1094
 3347W        W13040  10.146  15.347   5.630  0.2565  0.0298 -0.1484
 3348W        W13041  17.445  15.569   4.374 -0.1072  0.4190 -0.0494
 3349W        W13042  11.616   4.728   3.491  0.4830 -0.0753  0.2110
 3350W        W13043   2.170   9.317   1.578  0.1961 -0.2307 -0.0953
 3351W        W13044  11.519   5.657  13.263  0.0430 -0.0420  0.0121
 3352W        W13045   9.478   0.575  16.542 -0.0617  0.0599 -0.0491
 3353W        W13046  11.373  12.253  14.847 -0.0262  0.2877  0.1062
 3354W        W13047   4.032  17.542  15.595 -0.1289  0.1192 -0.2136
 3355W        W13048  13.258   6.536  13.642 -0.0906  0.1059  0.0718
 3356W        W13049   6.276   5.952   5.869  0.0214  0.0794  0.2013
 3357W        W13050  16.275   9.083  13.441 -0.2094  0.2575  0.0264
 3358W        W13051   6.791   7.271   1.636  0.1859 -0.1886  0.3296
 3359W        W13052  14.680   3.760   1.107  0.3865  0.3057  0.0266
 3360W        W13053  10.452  16.959  16.300  0.0939 -0.1025  0.0114
 3361W        W13054   5.212   1.045   6.812 -0.0627  0.1620  0.0125
 3362W        W13055  16.987   5.111   5.410 -0.0024 -0.0375  0.2705
 3363W        W13056   5.943   3.977   1.983 -0.1463 -0.2239  0.1205
 3364W        W13057   1.620   5.319   1.601 -0.1694 -0.1555 -0.4103
 3365W        W13058   7.030  11.013  15.322  0.2152 -0.3085 -0.0305
 3366W        W13059   2.330  10.872   1.795  0.3467  0.1355  0.2067
 3367W        W13060   2.599   6.125  15.587 -0.0187  0.1449  0.2135
 3368W        W13061   5.828   2.031   1.891  0.0625 -0.1153 -0.0263
 3369W        W13062   5.649  14.275  15.945 -0.0869 -0.0643  0.2742
 3370W        W13063   6.863  12.747   3.896 -0.0689  0.0568 -0.0233
 3371W        W13064  12.692   6.522   3.605 -0.4110  0.0839  0.2174
 3372W        W13065   5.354  10.299   1.623 -0.0071 -0.1467  0.2604
 3373W        W13066   2.886   9.130   2.151 -0.0965 -0.0066  0.1730
 3374W        W13067  13.478   4.653   5.764 -0.0578  0.0120 -0.0843
 3375W        W13068  12.859  15.604  14.825 -0.0314 -0.0059  0.1495
 3376W        W13069  12.501  15.866   2.126  0.1244  0.3073  0.2649
 3377W        W13070   8.964   4.749   1.481  0.1403  0.1834  0.3011
 3378W        W13071   5.870   9.362  10.447 -0.5071  0.1434 -0.1071
 3379W        W13072  13.794   9.698   0.500 -0.1254 -0.3623  0.3236
 3380W        W13073   0.764  16.610  10.910 -0.2220  0.2105 -0.2150
 3381W        W13074  10.256   7.237   3.680  0.0902 -0.0176  0.3142
 3382W        W13075  15.630  14.620   6.626 -0.0604 -0.0187  0.1481
 3383W        W13076  11.717  12.203  15.799  0.0841  0.0481 -0.1646
 3384W        W13077  12.232   0.651  15.872 -0.0298  0.2527  0.2656
 3385W        W13078  11.989  11.208  14.686 -0.1097 -0.1383 -0.1261
 3386W        W13079   6.159   9.709   2.438  0.0881 -0.1348  0.1257
 3387W        W13080  12.421  14.102  13.259  0.1066  0.1243  0.2952
 3388W        W13081   0.299   4.428  14.990 -0.1778  0.0998 -0.0310
 3389W        W13082   4.679  11.826  17.086 -0.1528  0.2385  0.0310
 3390W        W13083  12.388   6.581   2.176 -0.1326 -0.3189 -0.2935
 3391W        W13084  11.823  13.211   0.533 -0.1185 -0.0499 -0.0561
 3392W        W13085   6.128  12.571   2.396 -0.1700  0.3282 -0.3180
 3393W        W13086   5.792   2.386  16.674  0.0182 -0.3555  0.1208
 3394W        W13087  16.509   0.842   4.659 -0.0579  0.1695 -0.1010
 3395W        W13088   2.816   8.845  15.249 -0.1130  0.1406 -0.1020
 3396W        W13089   8.398   5.068   6.386 -0.0643 -0.0621  0.4958
 3397W        W13090  11.817   7.998   2.530  0.0494  0.1907  0.3356
 3398W        W13091   8.947  17.476   2.214 -0.0686 -0.0796  0.0840
 3399W        W13092   0.335  12.687  15.667 -0.0161  0.1945  0.0708
 3400W        W13093   0.642  10.549   5.246 -0.0708 -0.0614 -0.4833
 3401W        W13094   7.344   8.278  16.186  0.1933 -0.0759 -0.1802
 3402W        W13095   3.402  16.737   2.775  0.0947  0.0552 -0.2230
 3403W        W13096  14.188   3.216  16.947  0.0523  0.0695  0.0708
 3404W        W13097   2.222  16.297  12.461  0.3375  0.1845  0.2641
 3405W        W13098  12.651  12.003   3.478 -0.3326  0.2968  0.0107
 3406W        W13099  12.583  14.153  15.933  0.1662  0.1775 -0.2704
 3407W        W13100   2.717   1.888  13.246  0.2200 -0.0416 -0.1749
 3408W        W13101   1.840   7.415   0.741 -0.3099  0.1380 -0.0871
 3409W        W13102   6.599  12.596   4.883 -0.2601 -0.0048  0.2077
 3410W        W13103   7.460   0.574  15.564  0.1104 -0.0659 -0.2629
 3411W        W13104   6.563   1.333  17.474  0.2122  0.0006 -0.0146
 3412W        W13105  15.317  14.069   3.573  0.0749  0.1558 -0.1098
 3413W        W13106   6.888   2.264  12.863  0.0726 -0.1589 -0.0813
 3414W        W13107   0.389   9.687   5.806 -0.0224 -0.2090 -0.0711
 3415W        W13108   3.093   1.991   3.346  0.0574  0.2043  0.0683
 3416W        W13109   3.745  11.583   1.411 -0.0384  0.1539  0.3338
 3417W        W13110   6.114  14.508  12.376  0.0309 -0.0561  0.1677
 3418W        W13111  16.127   9.480   1.136  0.2392  0.1210 -0.1049
 3419W        W13112   1.841   7.360  16.795 -0.2793  0.2091 -0.1008
 3420W        W13113   8.620   1.948   3.753 -0.2787  0.0642 -0.1395
 3421W        W13114  14.960  12.167   6.128  0.0713 -0.0403  0.0170
 3422W        W13115   1.472  17.257  17.354  0.0645 -0.0300 -0.2458
 3423W        W13116  12.219  12.326   4.146 -0.2238  0.0107  0.2845
 3424W        W13117   1.269   2.393  13.127 -0.3607 -0.1593 -0.2263
 3425W        W13118   6.802  14.861   1.274  0.0461  0.0309  0.0306
 3426W        W13119   0.908  11.196  17.070 -0.0152 -0.1417  0.0748
 3427W        W13120   4.001  17.618   4.606 -0.0286  0.1033  0.1071
 3428W        W13121  11.027  16.152  17.366 -0.0502  0.0628 -0.0687
 3429W        W13122   1.741   4.615  15.043  0.1570 -0.0700 -0.1138
 3430W        W13123  13.463   9.461   1.365  0.1402  0.1303 -0.4578
 3431W        W13124  10.429  12.407  12.648  0.0653 -0.2472 -0.0098
 3432W        W13125   7.759  11.510   1.370 -0.0651  0.0239  0.3002
 3433W        W13126   6.304  12.005   1.362 -0.0633  0.0952  0.0797
 3434W        W13127  13.478   8.372  14.171  0.1271  0.0531  0.0482
 3435W        W13128  11.659   3.993  13.225 -0.1267 -0.6483 -0.2691
 3436W        W13129  12.686  11.499   3.759 -0.1488  0.1369 -0.2412
 3437W        W13130   6.552   1.324   1.942 -0.0755 -0.0092  0.1883
 3438W        W13131  12.155   8.208   3.385 -0.0279  0.1163  0.0133
 3439W        W13132  10.232   5.335   5.023  0.0868  0.0545  0.1190
 3440W        W13133  14.124   0.634  16.874 -0.5381  0.0256  0.1556
 3441W        W13134  13.761   6.219   2.041  0.0639  0.1240 -0.1976
 3442W        W13135   6.411   6.698  14.829  0.3665 -0.0654  0.1033
 3443W        W13136  11.480   2.258   3.369 -0.1298  0.2595  0.1008
 3444W        W13137  17.369  12.032   6.608  0.2014 -0.0886  0.0212
 3445W        W13138   3.894  11.561   0.185  0.1519  0.1030 -0.1271
 3446W        W13139   7.719   9.004  16.996 -0.0928 -0.1015  0.1478
 3447W        W13140   3.771   0.608  11.577  0.0392 -0.2679 -0.1101
 3448W        W13141   8.095   2.903  13.194 -0.2230 -0.0561  0.2377
 3449W        W13142  13.017  15.349  15.720 -0.1262  0.1150  0.2022
 3450W        W13143  12.027  10.744   3.274 -0.0505 -0.1032  0.2995
 3451W        W13144  10.165  11.836  15.851 -0.0559 -0.0153 -0.0367
 3452W        W13145  11.069   6.643   3.439 -0.2053  0.0489 -0.1729
 3453W        W13146   8.215   6.764   6.436 -0.3478 -0.0443  0.2478
 3454W        W13147  16.773  13.845  15.938 -0.1253 -0.0958 -0.4607
 3455W        W13148  12.960   2.023   2.743 -0.1073 -0.1710  0.0974
 3456W        W13149   8.740   5.361  11.974 -0.4156 -0.5292 -0.2044
 3457W        W13150  15.744   0.391  11.988  0.3842 -0.1778  0.2324
 3458W        W13151   3.087  15.927   4.565  0.1515  0.2802 -0.0834
 3459W        W13152  12.556   4.611  12.840  0.3798 -0.3068  0.1432
 3460W        W13153  11.257  15.696   2.570 -0.1894 -0.1892 -0.2255
 3461W        W13154  10.800   2.440   5.616  0.1696 -0.0637 -0.0240
 3462W        W13155   8.790   2.048  17.637 -0.3203 -0.0740  0.6160
 3463W        W13156   4.228   4.928  14.139 -0.0277  0.0664  0.4831
 3464W        W13157   9.280   9.671   2.318  0.2425 -0.1592 -0.5678
 3465W        W13158   0.576  12.968  15.962  0.1888 -0.1614  0.1758
 3466W        W13159   9.429   6.108  13.618  0.5168  0.0158 -0.0850
 3467W        W13160   1.524  11.407   1.915 -0.1587 -0.3419  0.1106
 3468W        W13161   5.220   5.946  16.455 -0.1734  0.0188  0.1353
 3469W        W13162  13.255  14.832   2.666 -0.1009  0.1826  0.0133
 3470W        W13163  13.623   2.277   4.105  0.0820 -0.1246  0.1990
 3471W        W13164  14.820   0.437  14.467 -0.0935  0.0040  0.2417
 3472W        W13165   7.146  14.003  12.106 -0.2981  0.0433 -0.1356
 3473W        W13166  13.986  10.221  13.749  0.1478  0.2027 -0.2398
 3474W        W13167   5.393  15.571  14.792  0.2099 -0.1636 -0.0117
 3475W        W13168  15.252   4.253  14.017  0.0642  0.2536 -0.2284
 3476W        W13169  11.122  10.938   5.406 -0.2200  0.1236 -0.0040
 3477W        W13170  13.404   6.529   1.329 -0.0231 -0.0337 -0.0329
 3478W        W13171  11.618  16.692  16.423  0.1165 -0.2405 -0.0149
 3479W        W13172   3.639   8.421  16.274 -0.1727 -0.1891 -0.1057
 3480W        W13173  11.653   2.929   5.843 -0.2186  0.3400 -0.0681
 3481W        W13174  12.446   7.088  13.133 -0.4874 -0.4019  0.1862
 3482W        W13175   6.016   8.282  15.147 -0.0344 -0.1443 -0.0748
 3483W        W13176   6.738   8.564   0.849  0.0833  0.0150 -0.1215
 3484W        W13177   8.297   8.279  17.221  0.1994  0.3563  0.0574
 3485W        W13178   0.409   9.582  13.571  0.1551 -0.1534 -0.0289
 3486W        W13179   2.100  11.468  12.442  0.1035 -0.1437 -0.0662
 3487W        W13180   6.735   7.683  14.216  0.1552 -0.2558  0.0469
 3488W        W13181  13.400   5.613   5.269  0.0462  0.2509  0.1538
 3489W        W13182   5.641  10.613   2.300  0.3011  0.0200 -0.1959
 3490W        W13183  11.665   8.374   2.187  0.0144 -0.1828 -0.2200
 3491W        W13184   1.203  13.993  16.791  0.3969 -0.3332 -0.1725
 3492W        W13185   1.330   1.580   0.821  0.1901 -0.2182  0.1426
 3493W        W13186  14.246  12.183   2.227 -0.0134 -0.3830  0.3010
 3494W        W13187   5.966   8.356   6.086 -0.2163  0.4113 -0.4405
 3495W        W13188   5.350  12.970  16.376 -0.0381 -0.1108 -0.1138
 3496W        W13189   4.261  14.111  13.007  0.3747 -0.3539  0.0303
 3497W        W13190  13.000   0.452   2.438  0.1474 -0.1313  0.1555
 3498W        W13191  11.562   5.821  12.227  0.2751  0.1076 -0.2163
 3499W        W13192  16.651   9.125  15.324 -0.2800 -0.2120  0.0295
 3500W        W13193  11.917   7.865   3.079 -0.2095  0.3036 -0.1636
 3501W        W13194   6.524   4.696   5.248 -0.0235  0.0117 -0.0004
 3502W        W13195   7.937  11.834   5.634  0.0124  0.3493 -0.1533
 3503W        W13196  11.704   9.978   1.396 -0.2599  0.0327  0.1874
 3504W        W13197  13.849   2.433  13.941  0.2538 -0.3501  0.0029
 3505W        W13198   1.513   2.868   4.696  0.0555 -0.1753 -0.1101
 3506W        W13199  11.466  13.824  16.408 -0.0558 -0.0547 -0.0154
 3507W        W13200   6.201   2.536   0.403  0.0212  0.0322  0.0753
 3508W        W13201   6.219   5.936   1.736 -0.2022  0.0077 -0.3125
 3509W        W13202  12.944  15.475  13.488 -0.1641  0.1806  0.1560
 3510W        W13203  14.063   2.505   4.245  0.0918 -0.1349  0.0309
 3511W        W13204   7.757   8.872  14.590  0.2343 -0.0258 -0.2837
 3512W        W13205   4.940   9.680  14.212  0.3011  0.1390  0.0153
 3513W        W13206  14.122  12.060  14.400  0.1164  0.0279  0.2811
 3514W        W13207  16.158  10.826   3.827  0.1342 -0.2484  0.1478
 3515W        W13208  15.923   8.898  13.801  0.2048  0.0755  0.0641
 3516W        W13209  11.258   2.600  16.882 -0.0275 -0.1140 -0.0170
 3517W        W13210   2.376   0.367   2.465  0.1083  0.0442  0.0679
 3518W        W13211   9.812  10.186  11.350 -0.2054  0.0149 -0.0833
 3519W        W13212  17.535   5.056  16.484  0.2382  0.1718  0.0487
 3520W        W13213   7.111  15.887  16.724  0.1403 -0.3062 -0.2436
 3521W        W13214   2.684   7.204  16.043  0.3641 -0.1308 -0.3278
 3522W        W13215   1.125   8.443  15.955  0.0745  0.3314  0.1017
 3523W        W13216  12.985  14.651   5.168  0.0289  0.0448 -0.1843
 3524W        W13217   0.313  15.916  17.323 -0.0543  0.0027 -0.1697
 3525W        W13218   8.599  10.831   3.566  0.1491 -0.0227  0.4563
 3526W        W13219   2.646   7.379   4.961  0.2347 -0.0928 -0.0839
 3527W        W13220   5.828  12.091   0.640  0.1023 -0.0586  0.0935
 3528W        W13221  12.287   2.529   2.972  0.0096  0.1429  0.0030
 3529W        W13222   5.613   5.671   1.040 -0.1316  0.1219  0.1044
 3530W        W13223   4.808  14.974  11.685  0.3646 -0.0720 -0.3254
 3531W        W13224  12.310  11.271   5.212 -0.0914 -0.0200  0.3451
 3532W        W13225   8.664  10.226   4.998 -0.0963  0.2327  0.0220
 3533W        W13226   0.367  11.374  13.739 -0.1846 -0.0284  0.6154
 3534W        W13227  13.998  14.980   0.003  0.2957  0.1772  0.1573
 3535W        W13228  14.523   0.622  16.268  0.1276  0.0924 -0.0716
 3536W        W13229  11.354   1.218   6.800  0.3708  0.1708  0.0080
 3537W        W13230   8.616  12.221   1.071  0.4960  0.2629 -0.2028
 3538W        W13231   4.359   2.185  12.673 -0.2293  0.1103  0.0577
 3539W        W13232   2.211   1.002   5.810 -0.1868 -0.3428 -0.1969
 3540W        W13233   7.755   0.084   5.837  0.0779 -0.3699  0.1334
 3541W        W13234   0.197   7.228  12.821 -0.1626  0.0051 -0.0636
 3542W        W13235  10.736   3.349   1.129  0.0739  0.2219  0.3004
 3543W        W13236  15.898  13.003   5.947  0.0673 -0.0261 -0.1473
 3544W        W13237   6.803   3.467  17.130  0.4361 -0.2252  0.1989
 3545W        W13238  10.513  13.463  15.551  0.1417 -0.3110 -0.1034
 3546W        W13239   0.743   9.324  15.292  0.0234 -0.0521 -0.2026
 3547W        W13240  10.909   7.894  16.418  0.1593 -0.0483 -0.0522
 3548W        W13241   0.167  11.854   6.870  0.2558  0.0514 -0.1579
 3549W        W13242   4.059  17.236   1.613 -0.0401  0.1762  0.3710
 3550W        W13243  13.266  14.936  13.940 -0.1331  0.0544  0.0849
 3551W        W13244   0.038  16.926  15.058  0.0215  0.1219 -0.0615
 3552W        W13245  12.289   0.800   2.024  0.1584 -0.0598  0.2151
 3553W        W13246  10.697   1.474  15.314 -0.0068 -0.2068 -0.0801
 3554W        W13247  12.342   0.877  17.486  0.2693 -0.3679  0.0116
 3555W        W13248   4.325   5.502  14.903 -0.1074 -0.3479 -0.0825
 3556W        W13249  15.436  13.992   4.820  0.0422 -0.0104  0.0663
 3557W        W13250  12.109   4.389   3.797 -0.1719  0.0161 -0.0302
 3558W        W13251  11.461  14.663  13.997  0.2818  0.5571  0.0620
 3559W        W13252   5.907   1.245  13.871  0.0635  0.0100  0.0885
 3560W        W13253   4.225   0.319  12.910  0.3498  0.1239  0.0468
 3561W        W13254   6.964   3.906  12.029  0.0887 -0.1152  0.3007
 3562W        W13255  14.641  15.418  17.213  0.0656  0.0234 -0.1255
 3563W        W13256   7.288  17.105   2.891 -0.2197  0.2549 -0.1962
 3564W        W13257  17.417  13.343   4.703 -0.0335  0.1242 -0.1790
 3565W        W13258   6.448  10.902   2.458 -0.2012  0.2377  0.1302
 3566W        W13259   0.157   9.343   1.395  0.0454  0.1350 -0.0005
 3567W        W13260  10.518   2.111   5.357  0.2928 -0.2655 -0.0818
 3568W        W13261   2.243   8.398  11.422 -0.5004  0.2633 -0.1355
 3569W        W13262   9.363  17.044  13.109 -0.1073 -0.3225  0.1690
 3570W        W13263  13.545   3.599  12.967 -0.2367 -0.1228  0.1300
 3571W        W13264   7.145   1.132  11.965 -0.1133  0.1320  0.3063
 3572W        W13265   9.266   7.008   3.618  0.1257  0.1511  0.1101
 3573W        W13266   9.342   3.925  14.223 -0.0785  0.1512  0.0600
 3574W        W13267   1.628  14.186   3.477 -0.1719 -0.2122 -0.3536
 3575W        W13268   5.051   3.372   5.384 -0.1507 -0.0572  0.0273
 3576W        W13269  15.093   0.743   5.633  0.1323 -0.5193  0.3183
 3577W        W13270  11.458   9.475  13.606 -0.0282  0.1437  0.3064
 3578W        W13271   2.328   7.190  13.074 -0.1417 -0.2573 -0.1961
 3579W        W13272  12.287   2.959  15.587 -0.1645 -0.1835 -0.1988
 3580W        W13273   7.272   9.318   0.639  0.0959 -0.1556 -0.1234
 3581W        W13274  16.649   4.456   3.014 -0.1677  0.3700 -0.1237
 3582W        W13275  12.478   7.202  16.518 -0.0293 -0.2140 -0.0627
 3583W        W13276  12.343   2.027   2.905  0.4025  0.0309  0.2937
 3584W        W13277   4.281   9.027  11.246 -0.0418  0.4248 -0.2381
 3585W        W13278   0.200   5.217   4.247 -0.3986  0.1473 -0.1726
 3586W        W13279  15.861   3.149  14.161  0.1286 -0.0197 -0.0191
 3587W        W13280  16.709   7.377   2.011  0.0927 -0.0037  0.0646
 3588W        W13281   5.913  11.962   6.465 -0.0629 -0.4326 -0.0524
 3589W        W13282  16.383   7.885   1.344 -0.1955  0.1232  0.0023
 3590W        W13283   8.927   1.557   2.354 -0.2751 -0.0540  0.2395
 3591W        W13284  14.374   5.614   5.369  0.1098 -0.0651  0.0015
 3592W        W13285   0.540  13.785   5.291  0.1803 -0.0340 -0.1449
 3593W        W13286   9.694  16.148  17.175 -0.0902 -0.0400 -0.0945
 3594W        W13287   9.525  15.946   0.728  0.0420  0.2236 -0.2997
 3595W        W13288  12.133   9.499   3.396  0.0394  0.1973  0.1495
 3596W        W13289  17.631  14.751   4.868 -0.2903  0.1067  0.1175
 3597W        W13290  17.470  11.781   2.122 -0.0326 -0.0058 -0.0258
 3598W        W13291   9.471   6.286   3.495 -0.2726  0.3769 -0.1108
 3599W        W13292   3.131  15.041  11.608  0.1998  0.1101 -0.0804
 3600W        W13293  11.651   8.625   0.811  0.3337 -0.1423 -0.3233
 3601W        W13294   7.250  15.237   1.895  0.2260 -0.1310  0.6391
 3602W        W13295  10.813  16.420   6.182  0.0735  0.1997 -0.0854
 3603W        W13296  13.884  14.460  13.641 -0.0092 -0.3556 -0.1030
 3604W        W13297   1.155  15.267  14.297  0.0560 -0.2377  0.0959
 3605W        W13298   0.697  13.108  12.918 -0.4617  0.3447  0.1798
 3606W        W13299   2.501  12.280  16.643 -0.0683 -0.2000  0.2301
 3607W        W13300   9.018   0.423   3.075  0.0139 -0.0588  0.0777
 3608W        W13301   0.748  13.482   2.901 -0.3343  0.2805 -0.1368
 3609W        W13302   4.209   3.827  12.163 -0.3447 -0.0590 -0.0929
 3610W        W13303  13.964  11.055   0.866 -0.2362 -0.1467 -0.2731
 3611W        W13304   8.414   8.869  13.827  0.1087 -0.3959  0.0663
 3612W        W13305  12.140  15.766   1.213  0.3383 -0.1263  0.0299
 3613W        W13306   8.843  12.117   1.870 -0.1418 -0.0414 -0.1710
 3614W        W13307   3.270   8.139   3.943 -0.1369 -0.2285  0.0222
 3615W        W13308  12.325  16.302  15.014  0.1520 -0.2369  0.2529
 3616W        W13309   4.210   2.721  16.755 -0.3585  0.0594 -0.1876
 3617W        W13310  11.441   2.342  12.927  0.1437 -0.3430 -0.1184
 3618W        W13311   6.798   0.585  14.725  0.1607 -0.0147 -0.0032
 3619W        W13312   7.341   2.989  14.322 -0.0511 -0.3162 -0.2215
 3620W        W13313   8.345   9.851  14.473 -0.0394 -0.0843  0.1330
 3621W        W13314   1.746   2.950   0.872  0.0653  0.0657  0.0382
 3622W        W13315  12.786  15.996   5.969  0.1040 -0.0710 -0.0911
 3623W        W13316   9.883  17.503  12.526 -0.2101  0.0269 -0.1053
 3624W        W13317   8.937   2.821   2.519 -0.3136 -0.1544  0.0006
 3625W        W13318  14.562  11.350   2.524 -0.4355  0.1149 -0.2282
 3626W        W13319   1.556   6.608  13.192  0.0861  0.1343 -0.1362
 3627W        W13320   4.968   8.459   1.595  0.1495 -0.0961  0.5512
 3628W        W13321   7.683  16.581  16.018 -0.3082 -0.1414 -0.0568
 3629W        W13322  11.415   3.342  14.482 -0.0503 -0.2209 -0.0556
 3630W        W13323   3.303   8.994  15.373  0.1025 -0.0651 -0.2239
 3631W        W13324  15.855  12.191   5.277 -0.1584 -0.0901 -0.1470
 3632W        W13325  16.233   6.476   5.637 -0.0515 -0.0734 -0.0509
 3633W        W13326   1.568   7.438   0.264 -0.2655 -0.1318 -0.2778
 3634W        W13327  12.763  10.996   7.290 -0.0255 -0.1457  0.2030
 3635W        W13328  15.808  13.725   2.323  0.1613  0.1766  0.0683
 3636W        W13329  12.486   6.117   3.773  0.1251  0.5533  0.0662
 3637W        W13330   2.694  15.391   3.320  0.0113  0.1654 -0.0676
 3638W        W13331  15.176   5.107   1.746 -0.3597  0.1848 -0.0617
 3639W        W13332  13.921   4.313  11.729 -0.0261  0.1330  0.1871
 3640W        W13333   1.318   1.036   2.010  0.2188  0.1998  0.0192
 3641W        W13334   0.084  12.740   3.917  0.0302 -0.1564 -0.0019
 3642W        W13335  13.453   5.715  15.222 -0.1643  0.1156  0.1279
 3643W        W13336   6.896   7.894  10.917 -0.1461 -0.1183  0.1570
 3644W        W13337  11.699  16.106   3.156  0.0019  0.1494 -0.1048
 3645W        W13338   8.510   1.329  14.736 -0.0832 -0.1043  0.0122
 3646W        W13339  10.612   0.525   2.189 -0.4161  0.1944 -0.0237
 3647W        W13340   4.067   0.479  16.799 -0.1234 -0.0300 -0.1907
 3648W        W13341  15.400   5.978   1.003  0.1606 -0.0934  0.1596
 3649W        W13342   4.971   5.809  13.208  0.2028 -0.0753 -0.0076
 3650W        W13343  11.257   2.143   1.587  0.1527  0.0514 -0.3347
 3651W        W13344   8.374   3.965  13.057 -0.0355 -0.1437  0.0559
 3652W        W13345   7.863   0.072   4.623  0.1698  0.2018 -0.0600
 3653W        W13346  12.912   4.673  12.472  0.0392 -0.2682 -0.0866
 3654W        W13347   0.314  17.176  17.548 -0.1093  0.2962  0.0492
 3655W        W13348   3.527   5.952  14.908  0.2627 -0.1286  0.5269
 3656W        W13349   2.266   9.192  13.147  0.0865 -0.1969  0.2025
 3657W        W13350   3.710   4.553  16.658 -0.1239  0.2527  0.0326
 3658W        W13351   5.465  11.975   0.375 -0.0103 -0.0521 -0.0962
 3659W        W13352   5.366   1.992  14.676 -0.1136  0.3610 -0.1901
 3660W        W13353   9.233  16.286  16.191  0.0619  0.1891  0.3554
 3661W        W13354   1.720   7.357   6.189  0.3355  0.0359 -0.0260
 3662W        W13355  14.526  14.968   5.111  0.1423  0.0180 -0.0523
 3663W        W13356  13.074  13.989   2.207  0.1644  0.1408 -0.3186
 3664W        W13357  12.940  13.774  12.869 -0.0472 -0.1159 -0.1216
 3665W        W13358   0.248   1.881  15.456  0.4136  0.1847 -0.0999
 3666W        W13359   6.266   4.737   1.796 -0.1423 -0.0917  0.0334
 3667W        W13360   6.835   6.931  12.861 -0.0350 -0.2931  0.0685
 3668W        W13361  16.269   9.202  16.605  0.0747  0.2980  0.0015
 3669W        W13362   4.721   2.258  16.086 -0.1554  0.0056 -0.2222
 3670W        W13363  16.775   1.286   6.718 -0.1750  0.0567  0.0806
 3671W        W13364  10.889   2.253  12.660 -0.0547  0.0338 -0.0836
 3672W        W13365   3.962  15.470   3.778 -0.2976  0.0817 -0.0589
 3673W        W13366   4.781   4.520  14.182 -0.0722  0.1355  0.2178
 3674W        W13367  17.474  16.052   5.404 -0.0678 -0.0015 -0.0208
 3675W        W13368  10.083   5.217   2.141  0.0127 -0.0420 -0.1803
 3676W        W13369   7.949   0.134   1.257 -0.1113 -0.0092  0.0678
 3677W        W13370   6.915   2.075  12.005 -0.1681  0.1507 -0.1774
 3678W        W13371   1.463   0.056   2.050 -0.1778 -0.2547 -0.2055
 3679W        W13372   8.303  16.311   4.073  0.0053 -0.0494  0.0736
 3680W        W13373   0.969  16.497   6.083 -0.0912 -0.2785  0.4871
 3681W        W13374  13.482  13.716   5.102 -0.2639  0.1316  0.1683
 3682W        W13375   7.555  12.246  12.595  0.2612 -0.1133  0.0234
 3683W        W13376   6.109  10.871   3.874 -0.2552  0.2448 -0.0423
 3684W        W13377   9.352  13.752  11.972 -0.0860  0.2107  0.0815
 3685W        W13378   0.408  14.369   6.868  0.1870 -0.2272  0.0839
 3686W        W13379   3.452   6.148   3.352 -0.1526  0.0811  0.0173
 3687W        W13380   4.400  15.963  14.920 -0.1310  0.2133  0.1293
 3688W        W13381   2.896  16.406  11.385 -0.1020  0.1603 -0.0998
 3689W        W13382   9.081   7.940  16.174 -0.1006  0.0582  0.1024
 3690W        W13383   3.959  12.984  12.803  0.1086 -0.0433  0.0106
 3691W        W13384   5.032  12.563  16.160  0.0273  0.1369 -0.4273
 3692W        W13385   6.698   7.401  12.566  0.2564  0.0012  0.0190
 3693W        W13386   4.328  16.776  14.199 -0.4268 -0.0304  0.2809
 3694W        W13387   9.941  13.306  12.571 -0.0627 -0.4673 -0.1495
 3695W        W13388   0.781   4.956  11.829  0.1124  0.0767 -0.0549
 3696W        W13389   6.926  17.011  14.938 -0.4749  0.0187  0.2490
 3697W        W13390  11.198   2.367   2.067 -0.4215  0.1806  0.1074
 3698W        W13391   8.077  14.489  17.121 -0.1563  0.0865  0.0543
 3699W        W13392   5.489   6.646  13.953  0.0111  0.0635 -0.1612
 3700W        W13393   3.651   2.300  12.087 -0.3475 -0.0409 -0.0289
 3701W        W13394   6.428   5.543   3.929 -0.1419  0.0485  0.0082
 3702W        W13395   9.190   4.937  13.831  0.2248 -0.0614 -0.0785
 3703W        W13396   2.278  11.485   3.956 -0.5002  0.2009  0.5745
 3704W        W13397   2.526   7.733   0.020 -0.3915 -0.3985 -0.0181
 3705W        W13398  15.215  15.038  12.758 -0.1969  0.0882 -0.0109
 3706W        W13399   5.794  16.571   4.740 -0.1061 -0.1624 -0.1257
 3707W        W13400   0.353  17.191  11.808 -0.0916  0.0900  0.2601
 3708W        W13401  15.086   0.022  13.762  0.0512 -0.0346 -0.1544
 3709W        W13402   1.841   1.216  13.695  0.1655  0.1356 -0.1800
 3710W        W13403  11.736  12.580   2.931 -0.0245 -0.2205 -0.0164
 3711W        W13404  12.225  11.752   2.092 -0.1799 -0.0880 -0.2499
 3712W        W13405  14.439  10.160  13.055  0.2736  0.0210 -0.1902
 3713W        W13406   0.994   2.804  17.279  0.1834 -0.2851 -0.1071
 3714W        W13407  14.143   9.824   0.955 -0.1029 -0.1351  0.0309
 3715W        W13408  17.572   7.590  13.712  0.4521  0.2968  0.1963
 3716W        W13409  10.772  11.185  15.929 -0.0256  0.1694 -0.2107
 3717W        W13410  14.931  12.379  15.618  0.1989  0.1850 -0.1644
 3718W        W13411   3.309   7.202  12.988  0.0456 -0.1430  0.2397
 3719W        W13412  15.137   6.680  12.411  0.0505 -0.2087 -0.0423
 3720W        W13413  16.011   4.985   2.133  0.2118  0.0719 -0.2423
 3721W        W13414   5.107   7.725   3.705 -0.2869 -0.0944 -0.3787
 3722W        W13415  11.566  13.495   4.718  0.0483  0.0325 -0.0952
 3723W        W13416   0.332   4.323  14.460 -0.1996  0.1195 -0.0067
 3724W        W13417  13.192  11.319   0.375  0.1428  0.0713 -0.0575
 3725W        W13418  11.585   6.918  15.260 -0.0189  0.0210 -0.0803
 3726W        W13419   1.330   8.236   2.575 -0.1052  0.3081  0.2573
 3727W        W13420   1.449   3.301   3.525 -0.0545 -0.0726 -0.2311
 3728W        W13421   9.019  17.019   3.994  0.3013 -0.4008  0.1364
 3729W        W13422   1.836   4.377   6.540 -0.1136  0.2079 -0.3189
 3730W        W13423  11.915   5.715   6.017 -0.1924 -0.1371 -0.1359
 3731W        W13424  10.029   4.086  14.949  0.0571  0.0431 -0.0438
 3732W        W13425  16.728  12.555   0.048  0.0614 -0.1890 -0.3302
 3733W        W13426  10.492   9.447  12.617  0.1124  0.1412  0.0082
 3734W        W13427  10.272  15.633   3.636  0.0638  0.1734 -0.2740
 3735W        W13428   9.879  15.909   3.797  0.0688  0.0572 -0.1236
 3736W        W13429  12.531  15.501  13.183  0.0965  0.1046  0.3174
 3737W        W13430   9.123   0.400  17.515  0.0580 -0.0395  0.0510
 3738W        W13431  13.836  16.385  15.240  0.1395 -0.0788 -0.2572
 3739W        W13432  14.345  10.104  16.059 -0.2915 -0.1192  0.2666
 3740W        W13433   6.276  10.133  17.067  0.1910  0.0304  0.0307
 3741W        W13434   5.629   8.213  12.470 -0.0152  0.2129  0.0100
 3742W        W13435   9.303  14.620   1.036 -0.1381 -0.3278 -0.1195
 3743W        W13436  15.678  13.216  14.456 -0.1051  0.1577 -0.2340
 3744W        W13437  13.963   1.403   6.295  0.1121  0.0703  0.0617
 3745W        W13438   0.183   2.471  13.432 -0.0704 -0.4170 -0.2105
 3746W        W13439   7.249  10.431  17.041  0.1244 -0.0356 -0.0163
 3747W        W13440   2.787   9.258   5.845 -0.0515  0.2610  0.0203
 3748W        W13441   1.257   3.591   5.980 -0.2657 -0.1747 -0.1376
 3749W        W13442  14.251   6.842  17.436  0.1027 -0.1192  0.1758
 3750W        W13443   4.410   3.075   3.641  0.1826  0.0839  0.2646
 3751W        W13444  12.712   8.208   0.807  0.4944 -0.2502  0.1727
 3752W        W13445   2.063  12.973  16.193 -0.0654 -0.0496 -0.4250
 3753W        W13446   3.306   8.144   0.754  0.2035  0.2566  0.0821
 3754W        W13447   1.463   1.320   1.422  0.1762 -0.3721  0.0193
 3755W        W13448  12.965   2.883  13.905  0.1379  0.1963  0.0690
 3756W        W13449  12.013   1.751   2.104  0.0169 -0.2404  0.0509
 3757W        W13450   8.436  12.053  14.356 -0.0077  0.0523  0.0531
 3758W        W13451   4.212   0.232   0.110 -0.1619  0.0267  0.2407
 3759W        W13452   2.484  11.358  12.047 -0.1318  0.1460  0.2142
 3760W        W13453  11.242   4.920  14.488  0.0157 -0.1794 -0.1155
 3761W        W13454   6.589  14.454   4.891  0.0740 -0.1127 -0.3889
 3762W        W13455  16.065  16.761  12.658  0.4511  0.0132  0.0085
 3763W        W13456  10.808  15.717  15.400  0.0120  0.0157 -0.1189
 3764W        W13457  16.340   1.855   3.510  0.0727 -0.0706 -0.2005
 3765W        W13458  15.219   3.961  17.104  0.0594 -0.0481 -0.0592
 3766W        W13459   5.310  11.527  13.501 -0.1734 -0.2682 -0.5038
 3767W        W13460   3.699   0.046  14.402 -0.0777  0.1559  0.2813
 3768W        W13461   3.301   5.640  15.190  0.1332  0.0974 -0.1007
 3769W        W13462   6.439   3.529  10.525  0.2353  0.0034 -0.0456
 3770W        W13463  17.444   6.920  13.447  0.2470  0.0224 -0.0491
 3771W        W13464  13.499  10.732   1.690 -0.3620  0.1892  0.0798
 3772W        W13465  12.644   9.165  12.082 -0.0402  0.1130 -0.3040
 3773W        W13466   9.675  15.020  17.165 -0.0411  0.0265  0.0029
 3774W        W13467  11.795  12.535   4.260  0.1562  0.0409  0.1886
 3775W        W13468  14.006  15.694  14.117  0.2102  0.1590 -0.0969
 3776W        W13469   5.511   3.707   5.857  0.0153  0.0065  0.4514
 3777W        W13470  15.852   8.885  14.599 -0.0404 -0.0789  0.0837
 3778W        W13471   1.480   7.453   4.228 -0.2042 -0.0510 -0.2422
 3779W        W13472   9.529   1.430  12.520 -0.2034 -0.1966 -0.2250
 3780W        W13473  10.350   2.225  12.022 -0.2787  0.0074  0.0600
 3781W        W13474   3.182  17.058  17.460  0.0926 -0.2951  0.3152
 3782W        W13475  10.607  13.119   2.265  0.1395 -0.0851  0.0813
 3783W        W13476  16.876   2.695  15.909 -0.1136  0.0987  0.2836
 3784W        W13477   1.027  11.458   4.118 -0.1678 -0.3870  0.1584
 3785W        W13478   3.285  13.048  15.992  0.1003  0.2091  0.0644
 3786W        W13479   0.446  11.291  12.387 -0.5603  0.0468 -0.0690
 3787W        W13480   2.080   5.416  13.046  0.1577 -0.2886 -0.0539
 3788W        W13481  13.846  15.164   5.760  0.1446  0.0969 -0.0777
 3789W        W13482  11.444  13.724  12.621  0.1256 -0.1219 -0.4126
 3790W        W13483  11.087   2.960  13.704  0.1405  0.0074 -0.0141
 3791W        W13484  10.414  11.184  12.548 -0.3160  0.4370  0.2159
 3792W        W13485   7.379  11.415  17.083 -0.2620  0.3491  0.0433
 3793W        W13486  12.584  11.751   5.044 -0.0016  0.0085 -0.2971
 3794W        W13487  11.844   8.242  12.774 -0.1196  0.1118  0.1582
 3795W        W13488  11.623   3.156  17.287 -0.0678  0.0466 -0.0826
 3796W        W13489   3.978  14.145  15.509  0.3054  0.1029  0.0382
 3797W        W13490  11.071   9.157  17.448  0.1470 -0.3202 -0.1380
 3798W        W13491   2.778  16.470   1.127 -0.2476 -0.0607 -0.0474
 3799W        W13492   3.349   4.251   3.210  0.1761  0.0743  0.1730
 3800W        W13493  14.226   3.766   4.528 -0.1835 -0.0964 -0.1464
 3801W        W13494   7.826  17.057   2.872 -0.0702  0.1793 -0.0076
 3802W        W13495  14.851  15.852   5.750  0.0497  0.0887 -0.3007
 3803W        W13496  11.652  12.559   4.818  0.1920 -0.0988 -0.0227
 3804W        W13497  17.255  10.017   0.261 -0.1672  0.0190  0.0412
 3805W        W13498  10.267   0.970  12.815  0.0839  0.2848  0.3625
 3806W        W13499  11.876  15.580  14.547  0.0110 -0.0754  0.0559
 3807W        W13500   3.690   9.277  14.119  0.0010  0.2576 -0.0444
 3808W        W13501  10.996   2.293  13.146  0.2636 -0.1103 -0.1745
 3809W        W13502  14.778  17.078   4.763 -0.0173 -0.0889  0.1678
 3810W        W13503   0.608   5.972   2.984  0.2537 -0.0433 -0.0954
 3811W        W13504   6.345  16.534  16.151  0.3432  0.2761 -0.2909
 3812W        W13505   3.651   7.510   4.019 -0.0230  0.2669 -0.0986
 3813W        W13506  11.237   0.285  12.204  0.3089  0.0457  0.0986
 3814W        W13507   3.097   3.122   2.495 -0.3119 -0.2633 -0.1976
 3815W        W13508  12.417  17.544   2.183 -0.3240 -0.3262  0.4496
 3816W        W13509   0.345  17.015  15.927 -0.0995  0.2038 -0.1019
 3817W        W13510  12.625   6.474  13.124  0.1221  0.1410 -0.1676
 3818W        W13511  10.023  15.362  14.884 -0.0678  0.1394  0.2406
 3819W        W13512   5.754   0.742   1.757  0.3884 -0.1867 -0.0002
 3820W        W13513  11.452   7.647  16.626  0.0348 -0.1689  0.1111
 3821W        W13514   9.628   4.889   2.868 -0.1099 -0.0118  0.1043
 3822W        W13515   7.150  10.146   0.321  0.0806 -0.1814 -0.1323
 3823W        W13516   7.522   0.082  12.076 -0.0235 -0.0180 -0.4236
 3824W        W13517   2.298  16.022  13.116  0.1760 -0.4642  0.2965
 3825W        W13518  16.373   1.179  14.445  0.2199  0.0070 -0.1112
 3826W        W13519  10.083  11.222   3.312  0.2012 -0.1879  0.2470
 3827W        W13520  12.560   0.394  11.955  0.0066 -0.0008 -0.2328
 3828W        W13521  13.165   0.390  10.960  0.0090 -0.3435 -0.0781
 3829W        W13522  10.122   4.390  15.336 -0.0293  0.0652  0.2822
 3830W        W13523  13.018  16.017  15.119  0.0646  0.1040 -0.2188
 3831W        W13524   1.435  16.320   6.814  0.0065  0.0096 -0.0006
 3832W        W13525   3.151  14.208   6.744  0.1298 -0.1013  0.2271
 3833W        W13526  17.052   8.517  13.613  0.2161  0.1286 -0.2273
 3834W        W13527   9.561   6.448   2.381  0.1196 -0.0919  0.4207
 3835W        W13528   7.944  10.352   0.169 -0.2308  0.0333 -0.3083
 3836W        W13529  10.258  15.711  16.861 -0.0114 -0.0072 -0.3081
 3837W        W13530  17.094   0.288   1.571 -0.0832  0.1887 -0.2181
 3838W        W13531   3.279  17.258  15.866 -0.4062 -0.0366 -0.3203
 3839W        W13532   2.237   3.112   6.292 -0.1279 -0.1090  0.1325
 3840W        W13533  13.091   6.264   3.664  0.0715  0.2441  0.0580
 3841W        W13534   7.861  11.556  17.032  0.0525  0.2575 -0.2117
 3842W        W13535  16.734   1.241   1.701  0.0493  0.0527  0.0768
 3843W        W13536  10.318  17.596   4.126  0.0590 -0.0735  0.0493
 3844W        W13537   5.573  11.709   4.969  0.3744 -0.2618 -0.2616
 3845W        W13538   7.097   6.941   0.128  0.5000  0.2504 -0.0342
 3846W        W13539   6.737   9.458   3.427 -0.1160  0.0103 -0.0643
 3847W        W13540  13.352   9.273   4.725 -0.1213  0.0010 -0.0154
 3848W        W13541   0.212   9.503  17.061 -0.4020  0.2882  0.2154
 3849W        W13542   3.250   4.758  17.401 -0.0028 -0.1225  0.1121
 3850W        W13543  11.042  13.024  13.443 -0.0311  0.0494  0.1941
 3851W        W13544  16.754   6.059  13.117  0.0756  0.2044 -0.1536
 3852W        W13545   4.065   3.109  16.110  0.0521 -0.2524  0.0966
 3853W        W13546   9.542   3.191  11.625  0.4150  0.1316 -0.0996
 3854W        W13547   3.999   7.169  14.177  0.1386  0.0213  0.0178
 3855W        W13548  14.070   7.130  15.387  0.3106  0.1452  0.1451
 3856W        W13549   8.816  11.108  13.432  0.2494  0.0173 -0.0407
 3857W        W13550   1.387   1.035  13.840 -0.0984 -0.2381  0.1013
 3858W        W13551   2.932  10.893  15.455  0.4263 -0.0745 -0.1754
 3859W        W13552   1.572  10.536  17.261 -0.0582 -0.2062  0.1295
 3860W        W13553  11.241   4.598   6.600 -0.1636  0.0054  0.0256
 3861W        W13554   6.245   0.162  15.560  0.3781 -0.0392 -0.0659
 3862W        W13555   2.286   8.819  11.715 -0.0237  0.0173 -0.1684
 3863W        W13556  10.342  15.034   4.834 -0.1411 -0.2076  0.2709
 3864W        W13557  11.219   3.779  12.183  0.0808  0.1337 -0.0189
 3865W        W13558  11.298   0.435  15.665 -0.0100 -0.0738  0.1113
 3866W        W13559   6.196   3.752   4.654 -0.0191 -0.3321  0.1815
 3867W        W13560   3.654  17.243  14.505  0.0571 -0.0286  0.1244
 3868W        W13561  13.753  16.405   1.569  0.1167 -0.0561 -0.0038
 3869W        W13562  17.122   6.770  12.573  0.1662  0.1294  0.1723
 3870W        W13563   3.896  16.684  14.989  0.0153  0.2537 -0.2184
 3871W        W13564   8.108  16.647  13.535 -0.0119 -0.1612 -0.2466
 3872W        W13565   8.955  10.720   0.431  0.1101 -0.1383 -0.0518
 3873W        W13566   8.406  14.657   4.626  0.2501  0.0074 -0.0168
 3874W        W13567  17.381  15.852   2.105 -0.1135  0.0241 -0.1349
 3875W        W13568   2.154   7.996  16.031 -0.2034  0.0578  0.1608
 3876W        W13569  11.640  17.014   0.226  0.2339  0.0250  0.0335
 3877W        W13570   1.469   4.374  12.354 -0.0637  0.0605  0.1092
 3878W        W13571   6.438   3.139  16.894  0.2528  0.0989  0.0177
 3879W        W13572   4.623  10.786   5.232  0.0682 -0.2160 -0.0515
 3880W        W13573  17.046  16.858   0.606  0.2273  0.0784 -0.2694
 3881W        W13574   3.701   5.186  12.966 -0.2754 -0.0972 -0.0131
 3882W        W13575  13.300   9.530   4.292 -0.0128  0.1819  0.1774
 3883W        W13576  12.663  10.776  16.490  0.0137 -0.1169  0.0572
 3884W        W13577  10.448   2.274   1.477 -0.2667 -0.1442 -0.4028
 3885W        W13578  10.686   9.161   4.821  0.1237  0.2359  0.4348
 3886W        W13579   0.784  17.561   4.450 -0.0404 -0.4080  0.1031
 3887W        W13580   8.544  15.918   4.575 -0.0537  0.4300 -0.1900
 3888W        W13581   0.344  12.363  17.495  0.2598 -0.3833  0.1339
 3889W        W13582  16.778   2.150  16.034  0.0059 -0.2291 -0.2707
 3890W        W13583  14.279   7.624  14.074  0.1178  0.2027  0.2527
 3891W        W13584  17.415   3.516   1.166  0.0514  0.2069  0.0479
 3892W        W13585   4.467  15.160   3.903  0.1325  0.1210  0.0278
 3893W        W13586  16.938   5.603  13.109 -0.0132  0.2434 -0.0863
 3894W        W13587   3.837   3.193   1.339 -0.0884  0.0544 -0.0339
 3895W        W13588   1.947   9.875  11.536  0.1013  0.0436 -0.4218
 3896W        W13589   6.225   0.045   5.031  0.1213 -0.1818  0.2180
 3897W        W13590   8.426  13.460  15.684 -0.0886 -0.0010 -0.0547
 3898W        W13591   9.395  16.199   0.310 -0.1181 -0.1044 -0.1509
 3899W        W13592   9.940   0.641  15.486  0.1051 -0.0796  0.0045
 3900W        W13593  13.348   2.495  12.289 -0.0917 -0.2915 -0.3125
 3901W        W13594  14.016  15.556   1.187  0.0559  0.2380  0.0673
 3902W        W13595  14.721   6.691  13.604 -0.1279  0.0568 -0.0136
 3903W        W13596   6.379   0.269   4.170 -0.3638 -0.0101 -0.2168
 3904W        W13597   0.123  16.007  13.108  0.0770 -0.0382 -0.2894
 3905W        W13598   3.420  14.201  17.648 -0.2714  0.4572 -0.1416
 3906W        W13599  12.135  14.387   4.329 -0.1523 -0.1035  0.0159
 3907W        W13600   4.620   7.233   5.700  0.0482 -0.0339 -0.0628
 3908W        W13601  10.471   8.531  13.166 -0.2050  0.0849  0.0308
 3909W        W13602   2.544  12.232  12.555  0.0968  0.1314  0.0071
 3910W        W13603  11.681  16.088  14.486 -0.2046  0.0801 -0.1481
 3911W        W13604   5.020  14.811  14.787 -0.3243  0.1324 -0.0062
 3912W        W13605  13.460  11.761  16.045 -0.1148  0.2633 -0.0541
 3913W        W13606   9.319  15.323  13.812 -0.1435 -0.2988 -0.0164
 3914W        W13607   3.517   7.094   2.472  0.0115 -0.1582  0.3043
 3915W        W13608   8.096  15.692   4.629 -0.4015 -0.1631  0.3271
 3916W        W13609  12.514   3.847   4.930 -0.1080  0.0145 -0.0929
 3917W        W13610   7.380   3.977  15.415  0.1726  0.2907 -0.3887
 3918W        W13611   8.832   5.174   1.714  0.0897 -0.2931  0.0596
 3919W        W13612   0.354   7.715   3.441  0.0397  0.3066  0.2019
 3920W        W13613   7.983  15.660   5.303  0.0261 -0.3435 -0.1621
 3921W        W13614  16.689  15.623   3.737 -0.4149  0.0221  0.1332
 3922W        W13615  15.582   2.465  15.251 -0.1074 -0.2079 -0.3669
 3923W        W13616  10.584  16.043   1.576  0.1138  0.1238  0.0072
 3924W        W13617  10.112   7.779  14.109 -0.1210  0.0275  0.3620
 3925W        W13618  16.219  11.541   3.203 -0.0194  0.1802 -0.1008
 3926W        W13619   7.757  17.316  12.936 -0.2832  0.1890 -0.0293
 3927W        W13620   6.833   8.838  13.021 -0.0761 -0.0720  0.2953
 3928W        W13621   1.303  11.566  17.328  0.0219  0.1855 -0.1682
 3929W        W13622  10.809  16.257   2.947  0.2608  0.3728 -0.1154
 3930W        W13623  10.886  12.414   1.107 -0.2090  0.1497 -0.1960
 3931W        W13624   4.781  10.231  12.482  0.2409  0.0079  0.1844
 3932W        W13625  14.118   2.267   1.681  0.0014 -0.1694  0.1858
 3933W        W13626   3.930   0.499   1.752 -0.1355 -0.1255  0.0861
 3934W        W13627   0.871  15.110   4.456  0.1699  0.0611  0.0962
 3935W        W13628   3.214  14.765  16.535 -0.2023  0.0164  0.0344
 3936W        W13629   7.979   4.704   4.677  0.0781 -0.0570  0.4093
 3937W        W13630   0.852  13.022  14.525  0.0668  0.1588  0.0398
 3938W        W13631  13.744  12.757   0.716  0.1621 -0.0231 -0.0417
 3939W        W13632   6.787   6.588   4.752 -0.0440  0.0716 -0.1423
 3940W        W13633   5.720  14.176   0.993  0.0474 -0.2587 -0.2708
 3941W        W13634   4.883   1.841  14.621 -0.0415  0.3149  0.1206
 3942W        W13635   8.892  14.768  12.557  0.2247 -0.0783  0.3384
 3943W        W13636   0.582   3.496  13.534  0.0229 -0.1178 -0.0375
 3944W        W13637   9.009   9.248   3.971 -0.1704  0.3838  0.0253
 3945W        W13638   5.465  10.065   5.221 -0.1865 -0.0665 -0.1602
 3946W        W13639  11.631   4.545  13.301  0.1792  0.1936  0.3169
 3947W        W13640   1.133  17.153  12.123 -0.1250  0.1472 -0.0514
 3948W        W13641   3.693   5.060   5.200  0.0726 -0.1373 -0.1937
 3949W        W13642   7.686  15.221  17.278  0.0759  0.1588  0.0178
 3950W        W13643  16.773  14.357  13.364  0.1404  0.2618 -0.0814
 3951W        W13644   4.607   4.296   0.102 -0.4514 -0.1594  0.3731
 3952W        W13645  13.310   6.829   4.334  0.0563 -0.1608 -0.3102
 3953W        W13646   2.978   9.769   4.978 -0.1666  0.1039 -0.0737
 3954W        W13647  14.970  12.768  14.898  0.0013  0.0069  0.1482
 3955W        W13648  12.008   5.030   3.207  0.0432 -0.1111  0.0697
 3956W        W13649   0.020  14.199   4.585 -0.1270 -0.0547 -0.0602
 3957W        W13650   0.941   6.089   4.280  0.0632 -0.0289 -0.1916
 3958W        W13651   9.563  12.134  13.015 -0.0832  0.1738 -0.3577
 3959W        W13652  11.529  15.673  14.990  0.3472  0.1796 -0.0924
 3960W        W13653  14.310   9.544   1.443 -0.1455 -0.0558  0.1005
 3961W        W13654   7.727  10.043   5.019 -0.1427 -0.1375  0.0031
 3962W        W13655   2.482  15.054   1.602  0.0727 -0.0717 -0.1910
 3963W        W13656  15.295   3.742   5.674  0.0436 -0.1353 -0.2665
 3964W        W13657   5.553   3.307  16.628  0.0654  0.0410  0.1323
 3965W        W13658  12.475  12.435   3.778 -0.0798  0.0197  0.0387
 3966W        W13659  16.521   6.491  13.231  0.0635  0.1099  0.1797
 3967W        W13660   6.467  11.692  17.006 -0.2043  0.1977 -0.0576
 3968W        W13661  10.614   2.590   4.995 -0.1616 -0.1379  0.2680
 3969W        W13662   3.800  13.889  14.503  0.1077  0.0130 -0.3048
 3970W        W13663   1.716   7.579   3.726 -0.0800  0.0274 -0.0707
 3971W        W13664   3.839  12.200   3.354 -0.0663  0.1793 -0.2145
 3972W        W13665   5.444   4.058  11.736  0.1950 -0.1945 -0.1550
 3973W        W13666   8.223  17.075  15.797  0.0199 -0.0521  0.2907
 3974W        W13667   5.950   6.995   1.396 -0.0186 -0.3231  0.0647
 3975W        W13668  11.460   9.001  13.647 -0.3778  0.0659  0.2314
 3976W        W13669  16.157  11.746   5.348 -0.2212  0.0356  0.0063
 3977W        W13670  10.725   1.515  15.883  0.1316 -0.1955 -0.0856
 3978W        W13671  12.486   4.015  17.425  0.1656  0.3054 -0.0254
 3979W        W13672   8.539  15.344   6.221 -0.1411 -0.2640 -0.2971
 3980W        W13673   3.921   8.959  11.666  0.0068  0.1906  0.3734
 3981W        W13674   9.144   0.888  13.806  0.0169 -0.0378  0.0829
 3982W        W13675   1.413   8.715   0.213  0.2156 -0.2166  0.0893
 3983W        W13676  14.595  13.409  16.208  0.0156  0.0602 -0.4975
 3984W        W13677  13.482   4.412  13.678 -0.0728  0.0797  0.1657
 3985W        W13678   6.800  13.786  14.855 -0.0176 -0.2618  0.1289
 3986W        W13679   5.454   4.702   1.248 -0.0634  0.4664 -0.1528
 3987W        W13680  15.003   4.699  16.854 -0.1871 -0.0898  0.0264
 3988W        W13681   1.134  12.070  11.512 -0.0551 -0.0476  0.0287
 3989W        W13682  13.747  16.389   2.937 -0.1988  0.2138 -0.0017
 3990W        W13683   8.082   2.809  14.104  0.0533  0.2652  0.1115
 3991W        W13684  17.209   8.746  16.053  0.0100  0.1080 -0.0452
 3992W        W13685   9.621  10.054   1.608  0.0592  0.1125 -0.3512
 3993W        W13686   9.505   1.385   0.196 -0.2786  0.2047  0.2202
 3994W        W13687   9.786   5.100  12.258 -0.0772 -0.0396 -0.0031
 3995W        W13688   4.563   9.197   1.059  0.3682 -0.1943  0.1000
 3996W        W13689  13.754  16.844   2.357 -0.0147  0.5285 -0.0720
 3997W        W13690  17.491   9.604  15.155  0.1128 -0.1236 -0.2104
 3998W        W13691  10.662  17.119  17.149  0.0760 -0.0948  0.0181
 3999W        W13692   5.328   9.516  11.735 -0.1828 -0.0923  0.1933
 4000W        W13693   6.208   0.998   4.984  0.2735 -0.1164 -0.3066
 4001W        W13694  15.385  17.658  12.542 -0.1239  0.0456  0.2971
 4002W        W13695   2.865  14.152   2.788 -0.0368 -0.3288 -0.0410
 4003W        W13696  13.404  14.828   6.738 -0.1709 -0.0189  0.3830
 4004W        W13697  15.440  12.293  15.586 -0.2081  0.3466 -0.1633
 4005W        W13698  17.089   1.832   1.227  0.0976  0.1405 -0.1312
 4006W        W13699  16.689  13.014  15.453  0.0215 -0.1510  0.2100
 4007W        W13700  12.574   3.389   5.879  0.1787  0.0703 -0.2932
 4008W        W13701  17.030  11.413   5.694  0.1772 -0.1218 -0.0479
 4009W        W13702  10.785   9.038   3.518 -0.1231  0.1024 -0.0940
 4010W        W13703  12.022  11.032   4.517  0.0029  0.0711 -0.0995
 4011W        W13704   7.268  16.185  13.057 -0.3395 -0.1648 -0.1394
 4012W        W13705  10.066  11.091  16.822  0.1581 -0.1632  0.0701
 4013W        W13706  13.130   0.455   3.393  0.0418  0.4161 -0.4108
 4014W        W13707   8.083  10.980   3.244  0.1953 -0.1003 -0.3271
 4015W        W13708  17.164  15.783  13.521  0.2817 -0.0907  0.0752
 4016W        W13709   0.713  12.863   5.614  0.1981  0.1919 -0.0382
 4017W        W13710   8.019  16.581   4.862 -0.0150 -0.2561 -0.3088
 4018W        W13711  12.859   0.060   2.723 -0.0271 -0.1743 -0.0427
 4019W        W13712  14.467   6.028  15.531 -0.2567 -0.2022  0.1274
 4020W        W13713  13.843   1.428  16.567 -0.0317 -0.1224 -0.2981
 4021W        W13714   4.831   6.555  17.660 -0.0896  0.1988 -0.1726
 4022W        W13715   8.134  13.502  12.060 -0.2565 -0.0114  0.0703
 4023W        W13716  11.404  11.670  16.599 -0.1395 -0.0806  0.0546
 4024W        W13717   9.410   4.424   2.872  0.1791  0.1957 -0.1072
 4025W        W13718  12.548  16.787  16.146  0.1126  0.0305 -0.2580
 4026W        W13719   1.745  16.010  14.556 -0.0109 -0.0406 -0.0328
 4027W        W13720   6.940  16.797   2.725  0.0006  0.0268 -0.0102
 4028W        W13721  14.963  14.598   3.710 -0.0346  0.0242  0.2375
 4029W        W13722   0.506  12.795   0.552  0.0751  0.0723  0.0671
 4030W        W13723  13.609  14.989   2.971  0.2985  0.2867 -0.0927
 4031W        W13724   7.524   4.123  16.233 -0.2879  0.0947  0.0388
 4032W        W13725   7.060  10.039  12.294 -0.0834  0.3693 -0.0854
 4033W        W13726   5.437   4.080   3.995  0.1484 -0.1839 -0.0052
 4034W        W13727   5.853  13.657  17.371  0.0200 -0.2775  0.2422
 4035W        W13728   9.326   4.465  11.511  0.0838  0.3524 -0.2403
 4036W        W13729   2.324   6.764   0.207 -0.0181  0.2410 -0.0219
 4037W        W13730   2.660   2.029  16.279  0.0984 -0.1292  0.3628
 4038W        W13731   1.823   5.063   1.214  0.0867 -0.0124  0.2151
 4039W        W13732  14.189  11.005  16.038  0.0182 -0.1004  0.3351
 4040W        W13733   7.190  11.817   3.332 -0.0431 -0.0794 -0.1377
 4041W        W13734   6.845  10.878  16.990  0.4894 -0.1414  0.0251
 4042W        W13735  12.248  16.694   4.927 -0.2039  0.2135 -0.0083
 4043W        W13736   0.219   7.280   3.032 -0.0127 -0.0674  0.2251
 4044W        W13737   8.393  16.562   2.283 -0.0450 -0.0847  0.1223
 4045W        W13738   3.663  10.289  14.847  0.0609  0.2092 -0.1933
 4046W        W13739  16.006   8.597   1.635 -0.1169 -0.1225 -0.2218
 4047W        W13740   3.945  13.965  16.701 -0.1598  0.0408  0.2800
 4048W        W13741   0.541  14.409   5.498  0.0673  0.3218  0.0803
 4049W        W13742   5.561   8.031  17.639 -0.0493 -0.0268  0.5997
 4050W        W13743   8.943  15.553   4.746 -0.0547  0.1011 -0.1373
 4051W        W13744   2.199  14.064  11.310  0.2172 -0.1867  0.1280
 4052W        W13745   7.263   5.007   1.472 -0.2479  0.1172  0.2753
 4053W        W13746  16.675  15.916   2.667  0.0776  0.1995  0.3510
 4054W        W13747  14.422   8.071  14.205 -0.0308  0.0727 -0.1044
 4055W        W13748   3.925   3.880   3.952  0.1733 -0.0202  0.2900
 4056W        W13749   5.204   3.517  11.973 -0.0731 -0.1075  0.2032
 4057W        W13750  12.003  13.811  12.812  0.1036  0.0818 -0.0750
 4058W        W13751   1.745  17.353   3.413  0.0364  0.0093  0.2320
 4059W        W13752  12.663   9.297  13.093 -0.1449 -0.0821  0.0544
 4060W        W13753   1.747   6.942  17.095 -0.3831  0.5047  0.1167
 4061W        W13754   2.476   9.961   0.528  0.1218 -0.0963  0.1654
 4062W        W13755  12.004   9.955   5.543  0.3143  0.0753 -0.1645
 4063W        W13756  14.167  12.670   4.299 -0.0132  0.1158 -0.1983
 4064W        W13757  17.009   2.885   3.120  0.0049  0.2200  0.0865
 4065W        W13758  13.872   8.569  17.600  0.1820 -0.0136  0.0280
 4066W        W13759   7.068  16.079  12.610 -0.1511 -0.0075  0.0760
 4067W        W13760   1.032  12.991  15.716 -0.4030 -0.1337 -0.0984
 4068W        W13761  15.462   5.008   3.437  0.3671  0.1586 -0.1571
 4069W        W13762   9.440  14.933   3.098  0.2484 -0.2092  0.3503
 4070W        W13763   8.288  13.303   0.826 -0.1974 -0.1202  0.3185
 4071W        W13764   9.102   6.686   5.682  0.0539 -0.1255 -0.1630
 4072W        W13765  11.075   8.716   4.496  0.2472  0.0722 -0.1103
 4073W        W13766   0.392   3.762  13.156  0.0160  0.3850 -0.0828
 4074W        W13767  12.011   8.166   1.918 -0.2265  0.0566  0.2167
 4075W        W13768   8.385   0.280  14.564  0.0293  0.0187 -0.0616
 4076W        W13769   1.602  15.402  12.621  0.0545  0.0586 -0.1759
 4077W        W13770   9.030   0.950  16.757 -0.0091 -0.1209  0.1661
 4078W        W13771   4.945  13.612  10.743 -0.3655  0.1565  0.0446
 4079W        W13772  11.980   6.181   6.245  0.0038 -0.0687  0.2368
 4080W        W13773   9.242   0.855  17.227  0.1432 -0.2508 -0.0509
 4081W        W13774   2.670   0.428  11.524 -0.2584  0.3401  0.1578
 4082W        W13775  10.585  11.609   5.924  0.0655 -0.2119  0.0889
 4083W        W13776  17.509   2.821   2.384  0.0183 -0.0480  0.0479
 4084W        W13777  14.829  15.410   3.769  0.0314 -0.4213  0.0504
 4085W        W13778   6.126  10.585   4.265  0.0588  0.2716  0.0035
 4086W        W13779   1.864   7.915   0.650  0.1187 -0.0242  0.3107
 4087W        W13780   5.528  16.051  12.540 -0.0812  0.0954  0.0781
 4088W        W13781   0.848  13.012   2.165 -0.2064  0.2554 -0.2420
 4089W        W13782  11.290  10.210  13.941  0.1009  0.0465 -0.2117
 4090W        W13783   6.928   8.088   1.075  0.0447 -0.2445 -0.1580
 4091W        W13784   9.573  12.035   3.592  0.0511 -0.0918  0.2040
 4092W        W13785  14.153  11.659   0.220  0.2448  0.0368  0.2709
 4093W        W13786  13.658  16.589   6.406  0.0763 -0.0257  0.1648
 4094W        W13787  15.809  16.198  15.832  0.1375  0.0203  0.1353
 4095W        W13788  12.629   5.611  12.846 -0.1947  0.0617 -0.0001
 4096W        W13789   2.444   5.100   3.011  0.0478  0.0617 -0.0111
 4097W        W13790  11.049  10.759  15.824 -0.0224 -0.0128 -0.2861
 4098W        W13791   1.924   4.728   0.715  0.1089 -0.1731 -0.0814
 4099W        W13792   6.835   5.111  13.409  0.1350 -0.1782 -0.2464
 4100W        W13793  16.151  13.103   4.237  0.1402 -0.2923  0.2286
 4101W        W13794   4.191  17.401   1.118 -0.0855 -0.2437  0.2489
 4102W        W13795   2.781   6.949  16.937  0.0379  0.0116 -0.4001
 4103W        W13796   2.824  10.434  12.982  0.0836 -0.1480  0.0342
 4104W        W13797  14.191   9.493   0.227  0.0851  0.0519  0.1596
 4105W        W13798  17.661   7.706  16.217  0.0470 -0.0268 -0.1471
 4106W        W13799  15.881   0.111  15.970 -0.0630 -0.1151 -0.0017
 4107W        W13800   2.736  17.347  13.006  0.1982  0.1271 -0.1342
 4108W        W13801  11.987   0.084   0.039 -0.0473  0.3442 -0.2332
 4109W        W13802   8.571  14.466  13.239 -0.0724 -0.3002 -0.1046
 4110W        W13803   0.970  10.020  15.730 -0.0857 -0.1062 -0.2911
 4111W        W13804   7.457   9.319   1.829 -0.1245  0.0309  0.2294
 4112W        W13805   6.459   2.022   5.580 -0.1492  0.0663  0.0632
 4113W        W13806   8.968  12.520   1.412 -0.2902  0.3256 -0.1655
 4114W        W13807  16.471   7.005  17.073  0.2623 -0.1347  0.0624
 4115W        W13808  13.951  14.412   0.139 -0.3402  0.0134  0.3012
 4116W        W13809   3.753   7.928   3.150 -0.1581 -0.0612  0.1443
 4117W        W13810  15.965  11.684  14.664  0.1134 -0.1868  0.0110
 4118W        W13811  12.826  13.865  14.097  0.1003 -0.6138  0.0941
 4119W        W13812   7.700  16.538  12.046 -0.0583  0.2633 -0.1315
 4120W        W13813   6.064   3.411   2.562 -0.0416  0.1054 -0.0340
 4121W        W13814   7.642  10.278   2.744 -0.3824 -0.1550 -0.0582
 4122W        W13815  10.841  13.377   1.859 -0.0412 -0.0911 -0.4233
 4123W        W13816   5.168  15.625   2.602  0.0987  0.2605 -0.1143
 4124W        W13817  15.066   6.817   5.640 -0.1694  0.3693 -0.0593
 4125W        W13818   3.774   5.019  14.240 -0.0060  0.1298  0.0341
 4126W        W13819  12.620  15.979   2.845 -0.1064 -0.3585 -0.1448
 4127W        W13820  15.820   2.678  17.454 -0.1297 -0.0803  0.3188
 4128W        W13821  10.644   6.888  15.748 -0.1143 -0.1415 -0.2113
 4129W        W13822   6.376   2.337  16.848  0.1107 -0.3563  0.2582
 4130W        W13823  17.096   4.887  12.778  0.0871 -0.1844  0.2493
 4131W        W13824  14.049   1.631   1.289  0.1672 -0.1657 -0.6032
 4132W        W13825   9.522   9.879   0.684  0.1006  0.1783  0.2914
 4133W        W13826   7.678   1.897  13.129 -0.1243  0.2661 -0.0861
 4134W        W13827  12.549  17.246   4.241  0.2981 -0.1105 -0.0583
 4135W        W13828   3.172   5.609  13.531  0.2193  0.0374  0.2640
 4136W        W13829   3.662  11.715   2.402 -0.2551  0.0454 -0.0840
 4137W        W13830   7.452   7.068  15.898 -0.0347  0.1042 -0.0867
 4138W        W13831  13.864   6.846   1.245 -0.0547 -0.0536  0.2525
 4139W        W13832   7.224  16.056   5.762 -0.0057 -0.0769 -0.0262
 4140W        W13833   3.835   7.329  12.107  0.0625  0.1883 -0.0077
 4141W        W13834   5.688   5.131   3.100  0.0262 -0.0691  0.1402
 4142W        W13835   2.045  14.964  13.774  0.1370  0.2469  0.1200
 4143W        W13836   3.757  13.278   5.901 -0.2347 -0.0953 -0.0901
 4144W        W13837   4.682   0.678  12.258 -0.1070 -0.1461 -0.2817
 4145W        W13838  16.886  11.730  15.183  0.0487 -0.1837 -0.3069
 4146W        W13839  10.803  15.891   2.552 -0.1602  0.1741 -0.0795
 4147W        W13840   7.646   7.910   3.048  0.0176  0.1770  0.1303
 4148W        W13841   4.044   3.491   6.879  0.0122  0.0383 -0.0696
 4149W        W13842  11.227   4.402  13.448 -0.3658  0.0012 -0.0373
 4150W        W13843  16.087  14.130  17.164  0.1358  0.0395  0.2180
 4151W        W13844  10.143  15.898   5.488 -0.1833  0.3674 -0.0726
 4152W        W13845  12.355  11.814   5.784  0.1815 -0.1124 -0.1509
 4153W        W13846   3.958   4.317   6.001  0.2374 -0.0043 -0.2279
 4154W        W13847   9.528   9.282   6.681 -0.1605 -0.0061  0.0456
 4155W        W13848  10.335  16.248  14.258 -0.1238 -0.1896  0.3045
 4156W        W13849   6.341   2.399  13.399 -0.3684 -0.2779 -0.1605
 4157W        W13850  12.311   8.504   0.625  0.1770  0.2283 -0.1804
 4158W        W13851  13.859   3.312  12.712  0.1383 -0.1254 -0.1432
 4159W        W13852  16.368   4.228  16.718 -0.0142  0.1959 -0.3216
 4160W        W13853  15.747   6.718  14.935 -0.1163 -0.2044  0.3243
 4161W        W13854   3.300   0.244   6.226  0.3541 -0.3996  0.0388
 4162W        W13855  14.624   6.669   3.564 -0.5963 -0.1909  0.0769
 4163W        W13856   2.638  12.655   1.003  0.1349  0.1081  0.4174
 4164W        W13857  13.232   6.689   0.853 -0.1751  0.0304  0.0784
 4165W        W13858  10.296  15.422  16.345  0.2136 -0.4238  0.1941
 4166W        W13859  15.295  13.827  14.576  0.1243 -0.0764 -0.1463
 4167W        W13860   9.798   2.687  17.326  0.2812 -0.3049 -0.3606
 4168W        W13861   0.028   0.573  14.941 -0.1169  0.2319  0.1108
 4169W        W13862  16.580  11.726  15.886 -0.1573 -0.4259  0.2080
 4170W        W13863   8.143   4.688   6.441  0.3502  0.2111 -0.2753
 4171W        W13864   1.371  12.881  17.150  0.1767  0.2072  0.2415
 4172W        W13865  16.810  12.119   3.990 -0.1695 -0.2031 -0.1955
 4173W        W13866  16.665   4.712   3.933  0.2029  0.0827 -0.0610
 4174W        W13867   1.108   3.670  13.416 -0.1223  0.0187  0.0998
 4175W        W13868  15.084  12.441  12.523 -0.0388  0.0425  0.1632
 4176W        W13869  10.332   8.905   5.664 -0.2462  0.1864  0.0122
 4177W        W13870  14.894  11.562  13.013  0.1618  0.1543  0.0406
 4178W        W13871  16.666  17.174   3.490 -0.1435 -0.2538  0.0317
 4179W        W13872   9.224  14.542   6.267 -0.2333 -0.1231  0.0173
 4180W        W13873  11.982   0.439   3.082  0.0184 -0.1952 -0.0567
 4181W        W13874  14.825  12.943  15.426 -0.0086  0.1418  0.1945
 4182W        W13875  12.762   4.073   2.232 -0.0034 -0.1258 -0.0022
 4183W        W13876   9.466   4.240   1.725  0.2941 -0.0849  0.0542
 4184W        W13877   5.378  15.502  15.720  0.1317  0.0313 -0.3033
 4185W        W13878   8.321  11.430  17.211  0.1532  0.0009 -0.1156
 4186W        W13879   5.421   6.704   6.263 -0.0860 -0.0193 -0.0550
 4187W        W13880  17.453   7.486  15.133 -0.0806  0.1048 -0.1941
 4188W        W13881   2.410   7.068   5.287 -0.3148  0.3496  0.1161
 4189W        W13882   4.937   6.285   1.824 -0.3245  0.1475  0.0850
 4190W        W13883  16.567   7.092  16.565 -0.0307 -0.1458 -0.3576
 4191W        W13884   6.457   9.735  14.089 -0.2277  0.0103  0.3894
 4192W        W13885   8.060   0.351  17.481  0.1993 -0.0720  0.0464
 4193W        W13886   4.084   9.148   5.512 -0.2575 -0.0037 -0.1508
 4194W        W13887  15.436   7.075  12.676 -0.0984 -0.2986  0.4696
 4195W        W13888   8.263  13.598   6.324  0.2974 -0.0825 -0.1939
 4196W        W13889  12.074  16.400  16.230  0.2417  0.4582 -0.4534
 4197W        W13890  13.947  10.035   4.533 -0.0418 -0.2198 -0.2490
 4198W        W13891  14.299   2.652  14.598  0.0180  0.1116  0.1178
 4199W        W13892   3.319   2.340   1.138  0.0395  0.0994 -0.2895
 4200W        W13893   9.013   1.553   4.862  0.0548 -0.1549  0.1229
 4201W        W13894  12.587  10.516   6.394  0.3479 -0.2649 -0.0772
 4202W        W13895   9.969   3.814   3.794 -0.1378  0.1998 -0.2512
 4203W        W13896   3.377  12.409   5.684  0.3133 -0.1519 -0.0335
 4204W        W13897  10.546   0.827  13.569 -0.1215 -0.2471 -0.0008
 4205W        W13898  15.690  15.697   2.801  0.0283 -0.1064  0.1042
 4206W        W13899   6.252  14.071  17.313 -0.2349  0.0722  0.0618
 4207W        W13900  11.770   6.194   0.088  0.3046 -0.2775 -0.0314
 4208W        W13901  15.188   2.412   5.401 -0.2286 -0.1252 -0.0093
 4209W        W13902   3.496   9.568  12.815  0.1141  0.3075  0.0474
 4210W        W13903  13.510   6.488  15.786  0.1844  0.0949  0.1801
 4211W        W13904   2.950   3.448  15.167 -0.1900 -0.1376  0.0747
 4212W        W13905   3.318  15.644  15.630  0.1027 -0.0826  0.0570
 4213W        W13906  14.701  11.397   1.072 -0.2719  0.0138 -0.3023
 4214W        W13907  14.817  16.616   1.536 -0.0969 -0.1019  0.0517
 4215W        W13908   5.258   2.265  16.650 -0.1047  0.1637 -0.2355
 4216W        W13909   5.134   4.744   5.491  0.0076  0.3886 -0.3953
 4217W        W13910  15.650  16.284   1.389  0.1654 -0.2045  0.0213
 4218W        W13911   8.585   5.962  13.605  0.0533 -0.0191 -0.0692
 4219W        W13912   9.694  13.163   5.049  0.0172 -0.2765 -0.3899
 4220W        W13913  13.161   6.642   3.255 -0.0946  0.1653  0.3148
 4221W        W13914  10.051   2.377   2.857 -0.0717 -0.3192  0.3139
 4222W        W13915   9.638  14.767  16.666  0.0932 -0.0538 -0.1135
 4223W        W13916   3.016   2.054   5.090 -0.2796  0.0031  0.0713
 4224W        W13917   5.881  17.078  13.575  0.0298  0.0338  0.0668
 4225W        W13918   2.596  16.254   1.587  0.1099 -0.2270  0.3074
 4226W        W13919  13.545  10.010   2.943 -0.1523  0.3578  0.2855
 4227W        W13920  12.721  16.997   5.648  0.0377  0.1684 -0.3464
 4228W        W13921   9.851   7.830  13.658  0.0155  0.1379  0.2794
 4229W        W13922   4.306   2.522  13.915 -0.1523 -0.1049  0.0949
 4230W        W13923   8.595  13.197   0.433  0.1456  0.1569 -0.1361
 4231W        W13924  14.071  17.666  16.159  0.3542  0.0374  0.2036
 4232W        W13925  17.110  11.209  15.252  0.1556  0.3702 -0.1853
 4233W        W13926  15.718   2.967  12.124  0.1052  0.2794  0.3660
 4234W        W13927  13.278  11.239  14.488  0.1541  0.0482  0.1259
 4235W        W13928   1.653  12.749   1.755 -0.4794 -0.4378  0.1319
 4236W        W13929  10.523  11.498   3.893  0.1561 -0.1062 -0.2194
 4237W        W13930   6.492   4.828  11.970 -0.0633 -0.2254 -0.0384
 4238W        W13931   2.136  13.666  14.220 -0.0041 -0.0645  0.1236
 4239W        W13932   5.056   9.871  12.056  0.1754 -0.1611 -0.0399
 4240W        W13933   4.911   1.440  17.402  0.0781 -0.1446  0.1688
 4241W        W13934  12.534  16.459   2.693  0.1502  0.1274  0.1154
 4242W        W13935   2.716  12.380  14.435 -0.1451  0.3741  0.1739
 4243W        W13936   8.139   8.688  13.055  0.1450  0.1189  0.3558
 4244W        W13937  17.556   3.206  12.737  0.0515  0.0535 -0.1797
 4245W        W13938  12.682   7.923   2.344  0.1235 -0.1596 -0.0793
 4246W        W13939   8.390   1.010   3.545  0.0058 -0.4257  0.0480
 4247W        W13940   4.266  12.523   6.641 -0.1676  0.1551  0.0745
 4248W        W13941   5.945  15.347   3.813 -0.1530 -0.0873  0.2221
 4249W        W13942   0.075  14.198   2.204  0.1136 -0.0095  0.0143
 4250W        W13943   0.203   7.784   4.412  0.1867  0.1214  0.1723
 4251W        W13944   0.207  13.145  12.727  0.3510  0.2825 -0.3674
 4252W        W13945  13.248  17.426   2.879 -0.2347 -0.0520 -0.1600
 4253W        W13946  11.627   0.087  13.665 -0.5122 -0.1929 -0.1571
 4254W        W13947   3.883  15.057  12.784  0.0029 -0.1986 -0.2085
 4255W        W13948  14.082   4.253   4.677  0.0231 -0.0267 -0.0088
 4256W        W13949  11.730  14.458   1.445  0.0188 -0.2836  0.1447
 4257W        W13950  16.590   7.812   3.219 -0.2056  0.0218 -0.1285
 4258W        W13951  16.521   9.934   4.011 -0.2481  0.0910  0.0917
 4259W        W13952   8.976   9.863   2.655 -0.1013  0.2702 -0.2862
 4260W        W13953   8.241  12.852  12.683  0.3953  0.1054  0.1842
 4261W        W13954   7.992  14.810  10.999 -0.1257 -0.0978 -0.2434
 4262W        W13955  11.701  13.473  12.925  0.0689 -0.2389  0.2882
 4263W        W13956   1.743   8.699  13.973  0.2353 -0.2098  0.1693
 4264W        W13957   9.203   7.068   1.530  0.0454 -0.0752 -0.1041
 4265W        W13958   5.633   9.855  15.101 -0.1479 -0.3505 -0.2923
 4266W        W13959  17.115  15.582  15.870 -0.1691  0.0364 -0.0201
 4267W        W13960   9.975  16.095  15.685  0.1988 -0.0996 -0.0374
 4268W        W13961  11.294  13.841   2.067 -0.1755 -0.4435 -0.4693
 4269W        W13962   9.841   6.800  17.666 -0.1980  0.0003 -0.1504
 4270W        W13963   0.949   5.619   2.282  0.3556  0.2940 -0.0007
 4271W        W13964  12.109   5.525  12.892 -0.2627  0.0052  0.2156
 4272W        W13965  15.350  12.431  14.624  0.1833  0.1931  0.0583
 4273W        W13966   2.286   1.967  11.423  0.0305  0.1449  0.0573
 4274W        W13967  16.026  10.216  15.788  0.0444  0.2405  0.0266
 4275W        W13968   1.221  15.791   3.671  0.0114  0.1225  0.0869
 4276W        W13969   5.646  15.427  11.713  0.1408  0.1116  0.0297
 4277W        W13970   6.555   8.399   5.366  0.3068 -0.2404  0.1009
 4278W        W13971   6.000  11.103   5.304 -0.0309  0.2739  0.1143
 4279W        W13972   0.363  14.623   6.277 -0.0133  0.2316  0.2438
 4280W        W13973   2.471   3.306   2.001 -0.3079 -0.0243 -0.0389
 4281W        W13974   5.504  11.167  16.739 -0.1111 -0.1905  0.1177
 4282W        W13975   3.818   5.986   4.766 -0.1594  0.0077 -0.1288
 4283W        W13976  12.914   5.985  13.138 -0.0609  0.0017  0.3514
 4284W        W13977   3.070   2.010  14.553  0.2410  0.0496  0.0749
 4285W        W13978  15.157   3.538   6.123 -0.2464  0.0063  0.0289
 4286W        W13979   6.830  11.897  15.479  0.2658 -0.4840 -0.2658
 4287W        W13980   5.644  15.818   2.565 -0.1544  0.0725  0.1171
 4288W        W13981   5.805   7.064   6.432 -0.1220 -0.0129  0.2275
 4289W        W13982   9.425  12.687   0.654  0.0274  0.0869  0.1199
 4290W        W13983   1.548   9.631  16.655 -0.0718  0.2540  0.4074
 4291W        W13984   6.000   5.136  11.441 -0.0059  0.2024  0.1335
 4292W        W13985   2.055   6.082  15.328 -0.1044 -0.2263 -0.0379
 4293W        W13986   0.101  17.561   3.157 -0.0103  0.2773 -0.2322
 4294W        W13987  16.478   5.647   5.515  0.3584  0.0741  0.2354
 4295W        W13988  12.538   7.696  14.730 -0.1828  0.3370 -0.3595
 4296W        W13989  15.871   9.169   1.512 -0.1233  0.2383 -0.0515
 4297W        W13990   2.802  16.982  15.819  0.1164  0.3488  0.4585
 4298W        W13991  14.832   3.319   1.869 -0.1386 -0.0793 -0.3362
 4299W        W13992  10.943  13.195   3.175 -0.3767 -0.0882 -0.1025
 4300W        W13993  11.337  11.971   3.543  0.2737 -0.1951  0.1140
 4301W        W13994  12.729  15.137   4.952 -0.0822  0.4675  0.3075
 4302W        W13995   0.842   5.768  13.633 -0.0156  0.2602 -0.0886
 4303W        W13996  11.061  12.949   7.278 -0.0862 -0.1291 -0.0165
 4304W        W13997   7.445  15.882  15.211 -0.2383 -0.0017 -0.1516
 4305W        W13998   4.698  16.320   0.543 -0.1793  0.1059  0.0416
 4306W        W13999   7.534   0.126  15.775  0.2257  0.3224  0.2159
 4307W        W14000   9.121  17.533   6.765 -0.0216  0.1547  0.1121
 4308W        W14001   1.149   2.662   4.997  0.3618  0.0710  0.0963
 4309W        W14002   7.010   7.606  11.344 -0.1014 -0.1388 -0.1424
 4310W        W14003   6.919   9.564  12.094 -0.3991  0.1985  0.2138
 4311W        W14004  11.181  11.405   6.941  0.1745 -0.0486  0.0806
 4312W        W14005  11.045   1.358   3.637 -0.4122 -0.2806 -0.0434
 4313W        W14006   1.826  10.997   0.945  0.0900 -0.2830 -0.0456
 4314W        W14007   8.894   2.258   5.176 -0.2241 -0.2834  0.0900
 4315W        W14008   4.444   5.749  15.301 -0.2743  0.1524  0.0693
 4316W        W14009   4.093   4.812  13.476  0.1657  0.1087  0.0595
 4317W        W14010   0.395  13.016  14.806  0.1048  0.2661  0.1548
 4318W        W14011   7.691  12.004   0.107 -0.3470 -0.1788 -0.1185
 4319W        W14012   8.495  15.855   6.070 -0.0314  0.2235 -0.0660
 4320W        W14013   4.250  11.538  15.915  0.0088  0.1379 -0.1556
 4321W        W14014   7.371   7.469   2.410  0.0293  0.0243  0.0297
 4322W        W14015   3.032   7.784  13.686 -0.1152  0.1005 -0.1967
 4323W        W14016   5.565   7.635   5.967 -0.0456 -0.0705  0.0157
 4324W        W14017  11.106  17.594   0.936  0.2782  0.2568  0.0162
 4325W        W14018  10.203   5.788  12.484  0.0943  0.0397 -0.0011
 4326W        W14019   3.496   1.601  16.908  0.3920 -0.0251 -0.0842
 4327W        W14020   9.421   9.271   3.050 -0.0056  0.1028 -0.0426
 4328W        W14021  12.402   7.812   3.590 -0.1372  0.1777  0.1573
 4329W        W14022   9.850  14.521   0.373 -0.2254  0.3474 -0.0293
 4330W        W14023  13.811  10.294  16.746  0.1290 -0.1399 -0.2604
 4331W        W14024   5.240  12.330  15.765  0.0210  0.2700  0.0205
 4332W        W14025  17.155   6.781  11.476  0.1802 -0.0859 -0.0617
 4333W        W14026   9.085   7.736   0.596  0.0129  0.0407  0.2873
 4334W        W14027   9.285   9.332  16.902 -0.1239  0.1592 -0.1888
 4335W        W14028   2.851   9.694  12.141 -0.0413  0.1430 -0.3322
 4336W        W14029  17.213  12.031  16.366 -0.0843 -0.0610  0.0674
 4337W        W14030  16.758  11.610   0.121  0.3098 -0.0604  0.0751
 4338W        W14031   3.687   6.609  16.778 -0.1311 -0.0858 -0.1350
 4339W        W14032  11.704   0.774  14.316  0.4232  0.1279  0.0541
 4340W        W14033   2.304  15.428   1.125  0.2282  0.0435 -0.2931
 4341W        W14034   1.954  16.333  13.403 -0.2483 -0.1796  0.1646
 4342W        W14035   8.615   3.157  16.982  0.0229  0.0109 -0.1454
 4343W        W14036   8.181  16.534   5.938 -0.2533 -0.0054  0.1046
 4344W        W14037   4.522   9.789   0.408 -0.1374 -0.2017  0.2793
 4345W        W14038   7.389   2.415  16.163 -0.0674  0.0248 -0.0038
 4346W        W14039  13.710   1.902   1.546 -0.0494  0.0129 -0.0588
 4347W        W14040  13.468  10.352   2.558 -0.0311  0.2683  0.0634
 4348W        W14041   0.008   7.257  16.592 -0.1176 -0.2355  0.3289
 4349W        W14042   2.337   8.263  12.674 -0.0527 -0.0447 -0.2238
 4350W        W14043   3.471  15.777  17.291 -0.1296  0.0461 -0.2506
 4351W        W14044  10.549  12.678  15.291 -0.1131 -0.0170 -0.1228
 4352W        W14045  11.940   6.981  14.869  0.2030  0.4129 -0.1225
 4353W        W14046  17.369  15.525   5.490 -0.0985 -0.2927 -0.2928
 4354W        W14047   5.854  16.351   2.405 -0.1282 -0.0428  0.1030
 4355W        W14048  13.810  17.122  15.462 -0.1191  0.0363  0.0108
 4356W        W14049   0.528   7.495  17.285  0.1427  0.2546  0.0111
 4357W        W14050   3.512  13.094   4.894  0.0483 -0.3308  0.2478
 4358W        W14051   0.345   5.184   3.219  0.3505 -0.1710 -0.1562
 4359W        W14052   7.815  14.908   0.793  0.3223  0.0198 -0.1464
 4360W        W14053  12.671  13.297  17.606  0.1722  0.1788 -0.1788
 4361W        W14054   8.833   0.025  17.265 -0.1538  0.0041  0.1999
 4362W        W14055  15.407  13.136   6.036 -0.3686 -0.0346  0.1137
 4363W        W14056  14.260   1.820  17.648 -0.0554 -0.4254  0.1853
 4364W        W14057   6.720   6.359   5.682 -0.0349 -0.1048  0.1189
 4365W        W14058  10.734  11.507   5.091  0.1966 -0.0322  0.1948
 4366W        W14059   5.840  13.849  13.606  0.0534 -0.2554  0.2357
 4367W        W14060   5.200   8.365   5.719 -0.1043 -0.0930 -0.1776
 4368W        W14061   1.428  16.990   6.919 -0.0702 -0.1931 -0.0894
 4369W        W14062   4.336  12.521  14.689  0.0492  0.0164  0.0166
 4370W        W14063   5.992  16.738  15.687  0.1205 -0.2524 -0.1874
 4371W        W14064   8.305  15.812   0.052  0.0713  0.0666 -0.0994
 4372W        W14065  17.138   5.909   4.377  0.1457 -0.0212 -0.0157
 4373W        W14066  10.423   1.582  17.688 -0.0218  0.2141  0.0502
 4374W        W14067   4.909  13.401   0.675  0.1572  0.0375 -0.0521
 4375W        W14068  11.395  15.292   4.389  0.1494 -0.1010 -0.0338
 4376W        W14069   2.109   4.784  16.757 -0.1970  0.0090  0.0925
 4377W        W14070   9.674   9.633  12.971  0.0968 -0.3297 -0.2623
 4378W        W14071   1.973   8.683  12.362 -0.0836 -0.1598 -0.3751
 4379W        W14072   0.934  14.202  14.845  0.0839 -0.3599 -0.1227
 4380W        W14073   9.211   4.161  12.571 -0.1335  0.1692  0.1517
 4381W        W14074   5.748  11.033  14.434 -0.3312  0.3770  0.0409
 4382W        W14075   7.430  15.358   2.426  0.2555 -0.2591 -0.2207
 4383W        W14076   2.889  10.262  13.588  0.0297 -0.0119 -0.1281
 4384W        W14077  10.335   9.446   3.641 -0.2671 -0.2228 -0.2481
 4385W        W14078   3.253   5.194   1.133  0.1479 -0.1709  0.4594
 4386W        W14079   6.446   7.207   4.229  0.4104 -0.1324  0.1578
 4387W        W14080  10.205   7.949   3.117 -0.1822 -0.0919 -0.1175
 4388W        W14081  10.328  14.319  17.002  0.1477 -0.3614 -0.1079
 4389W        W14082  17.498   4.891  15.957  0.1020  0.1839 -0.2515
 4390W        W14083  14.407  17.588  17.487 -0.2221  0.1800 -0.1768
 4391W        W14084  13.941  16.262   2.425 -0.0127  0.1312 -0.0514
 4392W        W14085   9.135   3.799  12.926  0.0601  0.1208 -0.0896
 4393W        W14086  10.946   3.613   6.218 -0.0629 -0.1432  0.1176
 4394W        W14087   3.199   7.939  11.553  0.2150  0.1759 -0.0676
 4395W        W14088  17.615  15.960   1.199 -0.1284 -0.1384 -0.1066
 4396W        W14089   6.602   1.859   4.120  0.0924  0.4327 -0.2472
 4397W        W14090   9.792  12.157   3.130 -0.0822  0.0631 -0.1767
 4398W        W14091   2.471  11.383   0.560 -0.2536 -0.0777 -0.1989
 4399W        W14092   3.211  10.379  11.727 -0.0248  0.0485  0.0569
 4400W        W14093   3.956  10.716  11.694 -0.1326 -0.0681 -0.1231
 4401W        W14094  10.100   2.590   1.199 -0.1147 -0.3062 -0.0932
 4402W        W14095   3.912   1.322   3.261  0.0650 -0.1221  0.1189
 4403W        W14096   0.441  15.823  12.494  0.0491  0.3177 -0.2164
 4404W        W14097   6.870   2.340   4.779 -0.3792  0.0504 -0.2791
 4405W        W14098   5.314  12.289   2.205  0.0711 -0.0621  0.2745
 4406W        W14099   3.773   7.097  16.943 -0.3628  0.2042 -0.1490
 4407W        W14100  15.918   6.295  15.265 -0.0063 -0.1643  0.0223
 4408W        W14101   3.281   6.402  12.349 -0.0771  0.4183 -0.2915
 4409W        W14102   6.964   1.805  15.011 -0.0400  0.0265 -0.0491
 4410W        W14103  11.048   3.394   2.946  0.1837 -0.0388 -0.0119
 4411W        W14104  16.587  15.730   4.614 -0.3324 -0.1515 -0.0383
 4412W        W14105   0.715   8.899   5.660 -0.1945 -0.1443  0.0240
 4413W        W14106   8.964   6.154   3.999 -0.0119  0.0631  0.2196
 4414W        W14107   4.163  16.357   3.957  0.0353  0.0400  0.2330
 4415W        W14108   8.258  15.517   6.637  0.2303 -0.2680 -0.3310
 4416W        W14109   9.118  17.084  12.409 -0.0259 -0.1864 -0.1168
 4417W        W14110  10.890   1.052  13.882  0.0799  0.1809 -0.1109
 4418W        W14111   1.861  17.039   7.162 -0.1645 -0.2559  0.0182
 4419W        W14112  13.741  16.525   0.160 -0.0026 -0.0449  0.1139
 4420W        W14113   5.416   6.120  15.484  0.1120  0.0699  0.0461
 4421W        W14114   5.692   0.498  12.438 -0.0152 -0.0621 -0.1033
 4422W        W14115  15.498  15.512   1.647  0.1218 -0.1638 -0.2358
 4423W        W14116  15.951  13.801   4.050 -0.0214 -0.2360 -0.1278
 4424W        W14117  12.088  13.201   6.853  0.0420 -0.1363 -0.0264
 4425W        W14118   9.829  15.869  12.669  0.2896 -0.0100  0.0198
 4426W        W14119   5.454   3.621  14.150 -0.2585 -0.0237 -0.0115
 4427W        W14120   0.883   5.721   0.542 -0.2459  0.0719  0.0603
 4428W        W14121   2.017   7.128  13.569  0.0165 -0.1228 -0.1855
 4429W        W14122  15.655   6.972   1.059 -0.1544  0.2851  0.0732
 4430W        W14123   7.393   7.310   5.986  0.2563  0.0556  0.1592
 4431W        W14124  16.459   6.415   6.611 -0.0525 -0.2082 -0.3528
 4432W        W14125  17.078   0.786   5.225  0.0999  0.2010  0.0974
 4433W        W14126  13.786   9.026   4.885  0.1529  0.0418  0.0149
 4434W        W14127  15.945   8.725   3.100 -0.3323  0.1811 -0.0104
 4435W        W14128   6.958   8.216  15.648  0.0035  0.0604 -0.2019
 4436W        W14129  11.115   0.754   4.868  0.1264 -0.0978  0.0115
 4437W        W14130   5.876  15.648  14.824 -0.3683  0.1234  0.1423
 4438W        W14131   4.058  12.730   0.835  0.1327 -0.1188 -0.0827
 4439W        W14132   9.163   8.856  11.326  0.2745 -0.2304  0.0028
 4440W        W14133   1.023  17.510   0.890 -0.3149  0.3054  0.1059
 4441W        W14134  17.438   2.765  14.704  0.2245  0.0617  0.0504
 4442W        W14135   5.805   6.133   1.978  0.2422  0.0256 -0.0017
 4443W        W14136  10.442  17.553   1.694  0.2703  0.1455  0.2046
 4444W        W14137   8.229   4.296   4.468  0.1266 -0.1959  0.1120
 4445W        W14138  12.275  11.275  16.077 -0.1200 -0.1863 -0.1684
 4446W        W14139  12.845   7.764  12.860  0.1037  0.0275 -0.0477
 4447W        W14140   0.737  11.257   5.977  0.0860  0.1636 -0.0670
 4448W        W14141   0.413   7.121   1.257 -0.1683  0.1327  0.0449
 4449W        W14142  16.061   1.653  16.181  0.1859 -0.0760  0.0926
 4450W        W14143   8.868   2.431  12.047 -0.1034  0.1788  0.0009
 4451W        W14144  13.503   5.660   5.759 -0.0701 -0.0853 -0.2217
 4452W        W14145  15.399  12.736  17.199  0.1709  0.1491  0.2759
 4453W        W14146   1.707   1.735  12.868  0.0317 -0.2634  0.0165
 4454W        W14147   9.725   6.974  14.138  0.1838  0.2179  0.2728
 4455W        W14148   3.095   7.679  16.430 -0.0351 -0.0729  0.1137
 4456W        W14149  10.538  10.018   4.323  0.4189  0.0373  0.0225
 4457W        W14150  10.076  12.152   3.608  0.2099 -0.2032  0.1269
 4458W        W14151   5.207   3.260   5.905  0.1871 -0.0621  0.1513
 4459W        W14152   2.617   2.938  13.877 -0.1123 -0.0143 -0.0451
 4460W        W14153   6.459   5.112   2.598  0.2149 -0.2227  0.1596
 4461W        W14154  14.994  14.099   6.822 -0.2150  0.0954 -0.1485
 4462W        W14155   8.434  17.181  11.986 -0.2888 -0.0109 -0.2002
 4463W        W14156   7.693   1.162   4.738  0.1096  0.0313  0.0168
 4464W        W14157   1.609  16.087   1.719  0.1463 -0.1431 -0.1757
 4465W        W14158   6.698  17.299  12.177 -0.1678 -0.1536  0.3411
 4466W        W14159   5.612   3.693   2.330 -0.2880 -0.2682  0.2964
 4467W        W14160   0.282  15.708   5.548  0.1957  0.1784  0.2231
 4468W        W14161  11.374  12.449   5.267  0.1069  0.3837  0.0568
 4469W        W14162  13.616   0.682  16.221  0.0565 -0.2304 -0.0287
 4470W        W14163  14.618   5.320  12.386 -0.2161  0.1274 -0.2769
 4471W        W14164   7.274  16.609  11.828 -0.0482 -0.1554 -0.2261
 4472W        W14165   8.174   6.751   2.259 -0.2593 -0.1936  0.2141
 4473W        W14166  16.589   7.365   2.833  0.3364  0.0576  0.1893
 4474W        W14167   3.809   5.868   5.255 -0.2567  0.1833  0.0343
 4475W        W14168   8.076  14.080  14.689 -0.0776  0.1379 -0.2595
 4476W        W14169   9.700   9.285  14.693  0.3145  0.0870  0.0618
 4477W        W14170  12.219  11.433   0.647 -0.2427  0.0418 -0.2746
 4478W        W14171   2.856   9.382  14.591 -0.3197 -0.2819  0.0689
 4479W        W14172  11.369  13.648   3.644  0.0247 -0.2233 -0.0420
 4480W        W14173   6.627   5.568  13.756 -0.0375 -0.0374 -0.1447
 4481W        W14174  16.594  16.242   4.891  0.1934  0.1224 -0.0827
 4482W        W14175   3.363   9.545   0.433 -0.1768  0.1677 -0.0132
 4483W        W14176  17.052  13.846  16.531 -0.1396 -0.2735  0.0828
 4484W        W14177   9.797   0.590   4.749 -0.1908 -0.0290  0.2802
 4485W        W14178   0.834   1.610  12.556 -0.0480  0.0681 -0.0256
 4486W        W14179  17.530   8.142  16.475 -0.3911  0.0346  0.0724
 4487W        W14180  12.457   1.306   3.327  0.0641  0.6104 -0.0755
 4488W        W14181   6.911   9.536   2.962  0.3075 -0.2507  0.0011
 4489W        W14182   8.661   8.286  13.158  0.0660  0.1193 -0.1720
 4490W        W14183  17.670   9.607  11.256 -0.0097 -0.0731 -0.0581
 4491W        W14184   4.618   8.397  16.374 -0.0253 -0.1351 -0.2131
 4492W        W14185  14.464   9.171  16.703 -0.2007  0.2916  0.1711
 4493W        W14186  13.117   8.556  12.524 -0.2066 -0.0568 -0.0182
 4494W        W14187   8.131  15.482   7.207  0.0586 -0.2554 -0.0369
 4495W        W14188   7.419  11.111  15.743 -0.3978  0.0309  0.0404
 4496W        W14189   5.003   9.970   3.068 -0.1065 -0.4227  0.0803
 4497W        W14190  15.581   0.779   5.550  0.0065  0.2721  0.0200
 4498W        W14191   0.790  10.706   1.863 -0.1655  0.2771 -0.0158
 4499W        W14192   6.815   3.511   1.066 -0.0944 -0.1535  0.0552
 4500W        W14193   9.367  17.444  12.687 -0.2594  0.0200  0.0881
 4501W        W14194   8.736   9.810  13.540 -0.0916 -0.0920 -0.0859
 4502W        W14195   7.230   0.636  16.513  0.0489  0.0404 -0.3693
 4503W        W14196   4.604   4.699   5.159 -0.1240 -0.2196 -0.1090
 4504W        W14197  13.604  15.317   1.921 -0.1650  0.4198  0.0260
 4505W        W14198  15.411   6.372   6.832 -0.0314  0.1891  0.0885
 4506W        W14199  16.222  17.509   3.461 -0.0495  0.1769  0.0218
 4507W        W14200   1.889   5.654   2.775 -0.2379 -0.1811  0.1654
 4508W        W14201   5.862   9.491  17.657  0.2711  0.2061 -0.2707
 4509W        W14202  12.673  15.460  11.427  0.1802 -0.1039 -0.0517
 4510W        W14203   6.210   6.213  13.919  0.2044 -0.0797  0.1115
 4511W        W14204   4.825  12.380   2.483 -0.1613 -0.1302  0.3210
 4512W        W14205   7.630   5.910  16.450  0.0682 -0.0129 -0.0781
 4513W        W14206  12.397  11.916   4.470 -0.1098  0.2000  0.0580
 4514W        W14207  12.322  17.455   0.236  0.0163  0.0121 -0.2987
 4515W        W14208   6.341  15.538   4.492 -0.0764  0.0364 -0.0687
 4516W        W14209  11.875  15.158  16.325  0.0252 -0.3091  0.3815
 4517W        W14210  16.722  10.655   1.920  0.3213 -0.0094  0.2046
 4518W        W14211   0.378   7.995  16.353 -0.2645 -0.0268 -0.0039
 4519W        W14212  14.507  13.525  12.568 -0.0325 -0.0248  0.0327
 4520W        W14213  16.452   7.278   6.557  0.0555 -0.0006 -0.0967
 4521W        W14214   2.921   7.580  12.780 -0.1103 -0.3296  0.0404
 4522W        W14215  10.689   5.706   0.761  0.2876  0.2229 -0.2194
 4523W        W14216  16.470  13.044   3.850 -0.1739  0.0373 -0.0606
 4524W        W14217  11.985  12.358   3.690 -0.0111  0.0535  0.0536
 4525W        W14218  17.437  14.130  15.624 -0.3787  0.2772 -0.1692
 4526W        W14219   0.302  14.784  14.476 -0.0814 -0.2644  0.1207
 4527W        W14220   7.957  16.608  15.085  0.0658  0.2911 -0.0695
 4528W        W14221   0.274   9.840  16.705  0.1146 -0.0890  0.0447
 4529W        W14222  10.455   4.548  17.103  0.0900 -0.0364 -0.0445
 4530W        W14223  15.579  15.284  12.095 -0.0083  0.0425  0.0796
 4531W        W14224  14.494   8.358  15.066 -0.1232  0.1800  0.1703
 4532W        W14225  15.131   9.141   5.304 -0.2044 -0.1380 -0.1918
 4533W        W14226  13.923   4.547  14.800  0.3918 -0.0479 -0.0427
 4534W        W14227   3.685  14.445  16.440 -0.0023  0.0492 -0.2338
 4535W        W14228   2.452  13.955  12.936  0.0978  0.0116 -0.2982
 4536W        W14229   6.199  11.684  12.771  0.0475  0.3038 -0.0459
 4537W        W14230  10.236  10.181  14.296 -0.2278 -0.2595 -0.1888
 4538W        W14231   8.105   9.345   4.801 -0.2911 -0.0910  0.0785
 4539W        W14232   8.343   2.534  11.974 -0.0255  0.2727 -0.0975
 4540W        W14233  12.408   2.496  15.297 -0.3757  0.0374 -0.1517
 4541W        W14234   4.956   7.226  11.087 -0.1722  0.2577  0.0852
 4542W        W14235  14.916   7.229   5.870 -0.0302 -0.0111 -0.1292
 4543W        W14236   1.500   0.063   3.673  0.1187  0.2330 -0.1752
 4544W        W14237   3.137   7.549   6.670  0.0672 -0.1622 -0.0491
 4545W        W14238  14.526  15.115   1.771 -0.2962  0.0783 -0.0010
 4546W        W14239   0.059  12.215   4.774 -0.1013  0.0047 -0.2579
 4547W        W14240   7.771   9.646  17.097  0.0107 -0.2297  0.0210
 4548W        W14241  16.737  12.158  14.752  0.1441  0.1234  0.1712
 4549W        W14242  11.579   7.243   3.960  0.3720 -0.2952 -0.1468
 4550W        W14243   1.716   1.405   3.729  0.2773  0.2546  0.2996
 4551W        W14244   5.596   1.532   0.840 -0.2618  0.0578 -0.3980
 4552W        W14245   3.381   6.653   3.356  0.0149  0.2699 -0.0651
 4553W        W14246   2.049   4.978   4.803  0.1965  0.1021 -0.1541
 4554W        W14247   6.327  12.705  16.209 -0.0760 -0.2485  0.0551
 4555W        W14248  16.647   7.804  16.507 -0.0111 -0.0859 -0.0452
 4556W        W14249  14.686  15.031  16.352 -0.1175 -0.2215 -0.3314
 4557W        W14250   3.861  13.682   3.671 -0.0491 -0.4056 -0.1172
 4558W        W14251  16.890   2.146   0.928  0.2822 -0.0645 -0.1071
 4559W        W14252   5.370   8.492   0.929  0.0823  0.3077 -0.2529
 4560W        W14253   9.422   0.879   3.918  0.0917 -0.2117 -0.0535
 4561W        W14254   1.617   1.510   6.189  0.0900 -0.3240  0.2077
 4562W        W14255   8.808  10.704   4.087  0.0538 -0.1934  0.2888
 4563W        W14256  16.421  10.315   2.713  0.1387  0.0694  0.1927
 4564W        W14257  10.437   6.207   0.016  0.1156  0.2162  0.0964
 4565W        W14258  10.504  10.403   3.569  0.2674  0.2544 -0.2437
 4566W        W14259   9.044  10.466  14.895  0.1307  0.2316  0.0174
 4567W        W14260   2.711   7.541   0.791  0.4146  0.0718  0.1092
 4568W        W14261   6.548  15.454   5.740 -0.1460 -0.1574 -0.3664
 4569W        W14262  15.734   3.627  17.613 -0.1918 -0.0266 -0.0583
 4570W        W14263  11.093   6.448  13.443 -0.1060 -0.0122  0.1305
 4571W        W14264  16.777   3.184  15.794  0.1067  0.0207 -0.3546
 4572W        W14265   1.092   2.451  12.661  0.0590  0.1338 -0.0889
 4573W        W14266   7.542   2.641   2.363 -0.3186  0.3518 -0.2163
 4574W        W14267   4.682   8.015  14.704  0.1771 -0.1301  0.1488
 4575W        W14268   5.119  12.078  11.287  0.0102 -0.1403  0.1593
 4576W        W14269  12.519  15.833   0.244 -0.0013 -0.1716  0.1036
 4577W        W14270   4.290  16.491   0.932  0.1434  0.2976 -0.3778
 4578W        W14271   9.607  15.139   1.914  0.4128 -0.1424  0.2081
 4579W        W14272   9.232   8.272  14.354  0.0987 -0.0422  0.1621
 4580W        W14273  16.770   5.789  17.545  0.0835 -0.0472 -0.1593
 4581W        W14274   0.285   4.069  15.394 -0.1753  0.2198  0.1847
 4582W        W14275   8.172   2.472   1.770  0.2711  0.2104 -0.0923
 4583W        W14276  16.271   2.392  11.184 -0.0057  0.0081 -0.2080
 4584W        W14277   4.328  12.153   4.647  0.3160  0.5351 -0.1473
 4585W        W14278   2.875   6.272  11.609  0.1250 -0.3264  0.2707
 4586W        W14279  11.431  11.296   1.929 -0.1361 -0.1280  0.2852
 4587W        W14280   7.981  15.410   0.002 -0.2397  0.1134 -0.0312
 4588W        W14281  16.556   2.842   6.782  0.0532  0.3283 -0.1182
 4589W        W14282   8.100  12.239   0.326  0.1383 -0.1509  0.0184
 4590W        W14283   7.949  17.470  15.742 -0.0806  0.0579 -0.0701
 4591W        W14284   9.630   8.233   0.623 -0.1712 -0.0454 -0.1852
 4592W        W14285   7.868  13.402   5.376  0.0148 -0.1129  0.4497
 4593W        W14286  10.783  10.264  15.992  0.2049  0.1234 -0.0294
 4594W        W14287   9.579   8.002  16.029  0.3489  0.0140  0.1282
 4595W        W14288   8.529   1.880   4.955  0.1817 -0.3013  0.3260
 4596W        W14289  13.526   1.102   4.583 -0.2801  0.2386  0.2459
 4597W        W14290   8.255   5.659   3.768  0.0568  0.0484 -0.0511
 4598W        W14291  16.778   1.106  17.287 -0.1216 -0.1454  0.0887
 4599W        W14292   2.848  12.258   0.720  0.2891  0.2029 -0.2678
 4600W        W14293  16.349   3.051  11.851  0.2427 -0.0494 -0.1353
 4601W        W14294  14.554   1.493   0.269  0.0996 -0.2157  0.4252
 4602W        W14295   3.534   6.508  17.289  0.1248 -0.0262 -0.0711
 4603W        W14296   5.203  12.020  16.394  0.2734  0.1555 -0.1256
 4604W        W14297  13.524  13.706   0.327 -0.2514 -0.0099  0.0377
 4605W        W14298   2.969  11.316   3.303  0.2656 -0.0798 -0.1526
 4606W        W14299   9.315  13.964  15.957 -0.0495  0.1354 -0.1800
 4607W        W14300   6.015   2.242  17.211  0.2627 -0.0282  0.0747
 4608W        W14301   3.990  16.257  14.677 -0.4093  0.0404  0.0132
 4609W        W14302  13.532  16.259   4.929  0.0959  0.1556  0.0680
 4610W        W14303  12.211  12.304   0.483  0.1345  0.1028 -0.0991
 4611W        W14304  17.559  13.007   6.579  0.0598 -0.0311  0.0751
 4612W        W14305   6.270  14.760  15.325 -0.0017  0.1416  0.1823
 4613W        W14306   7.046   4.966  16.301 -0.0085  0.1982  0.0849
 4614W        W14307   3.422   1.543   4.349 -0.3916 -0.0791  0.2727
 4615W        W14308  16.237   7.011  13.105  0.1104  0.0721  0.1187
 4616W        W14309   8.693  16.352  14.769 -0.2483 -0.1104 -0.1258
 4617W        W14310   0.615   7.598   3.893 -0.4606  0.2606 -0.1762
 4618W        W14311   8.008   3.280  17.661 -0.2593 -0.1425  0.0751
 4619W        W14312   3.308   0.315   4.077 -0.0003  0.0042 -0.2289
 4620W        W14313   5.659  15.766   3.535  0.0069 -0.1414 -0.2662
 4621W        W14314   4.814   8.644  15.157  0.1524 -0.1008  0.1635
 4622W        W14315   3.147   2.458  14.810 -0.0663  0.0911 -0.2835
 4623W        W14316   1.450   7.288   6.633 -0.0297  0.1613 -0.0175
 4624W        W14317  11.424   9.470  16.713 -0.1099 -0.0593  0.1834
 4625W        W14318  12.137  13.557   5.629  0.1515 -0.2133  0.0594
 4626W        W14319   6.493   1.479  16.443  0.1896 -0.0144 -0.6940
 4627W        W14320   5.046   1.917  14.043  0.2293 -0.0546  0.2249
 4628W        W14321   4.549  13.586  14.437 -0.0424 -0.2419  0.1973
 4629W        W14322   8.745   5.071   5.475 -0.1419 -0.3145 -0.1758
 4630W        W14323  12.778   4.042  16.157  0.0105  0.3372 -0.0437
 4631W        W14324   7.906  14.121  14.138  0.0847 -0.2085 -0.2162
 4632W        W14325   0.132   3.183   4.723  0.0679 -0.4108 -0.1211
 4633W        W14326   0.891  11.317  13.718 -0.0381  0.1377 -0.4950
 4634W        W14327   0.129  15.643  16.921 -0.0828  0.3742 -0.3047
 4635W        W14328  14.840   2.772   5.839  0.3366 -0.0578  0.1293
 4636W        W14329   0.074   6.771   3.717 -0.2247  0.0540  0.4272
 4637W        W14330   6.551  17.454   0.558 -0.0128  0.0713 -0.5636
 4638W        W14331   0.701   9.841   3.293  0.0728 -0.1209  0.1538
 4639W        W14332   8.189   3.304  16.694 -0.1268 -0.1430  0.2846
 4640W        W14333   5.140   2.753  12.522 -0.1334 -0.2030  0.0000
 4641W        W14334   8.341   1.851  16.429  0.1426  0.2142 -0.2317
 4642W        W14335   8.726  17.152   3.592  0.0147 -0.1535 -0.1337
 4643W        W14336  11.169  17.093  12.433  0.1959  0.0342 -0.0903
 4644W        W14337   7.333  13.010   3.761 -0.1640 -0.1105  0.0141
 4645W        W14338  12.901   9.921   4.167  0.0676  0.2153  0.0932
 4646W        W14339  14.026  17.274   0.032  0.3327 -0.1484  0.1158
 4647W        W14340   8.168  16.711   2.941  0.3817  0.0044 -0.1601
 4648W        W14341   2.869  14.119  13.866  0.0996 -0.0648  0.4058
 4649W        W14342   0.357  15.164  12.005 -0.2154 -0.1070  0.1558
 4650W        W14343  13.913   5.099   1.509  0.1809  0.0856 -0.1729
 4651W        W14344   9.546   9.979  17.388  0.0708  0.1565 -0.1196
 4652W        W14345   5.499  11.953   5.514 -0.3628 -0.0478  0.0165
 4653W        W14346   3.666   8.305  11.171 -0.1939  0.0802  0.1320
 4654W        W14347  17.535   3.874   6.716  0.1618 -0.0304  0.1474
 4655W        W14348   9.056   1.705  12.700  0.0144  0.0401 -0.3380
 4656W        W14349   1.698   0.359   0.059  0.3654 -0.1240 -0.1088
 4657W        W14350  14.039   8.292  14.063  0.4178 -0.0185  0.1997
 4658W        W14351  16.232  10.080   4.385 -0.0253  0.0685  0.0045
 4659W        W14352  17.202  11.245   6.127 -0.1305 -0.2938  0.0386
 4660W        W14353  11.628   2.076   5.522 -0.3184 -0.0443 -0.0509
 4661W        W14354  13.274  13.151  15.238  0.2011  0.0631  0.2112
 4662W        W14355  11.380  13.310   2.026  0.7146  0.0356 -0.1660
 4663W        W14356  12.845  16.133  15.743  0.1367 -0.1690 -0.0959
 4664W        W14357   2.250   7.227  11.057  0.3360 -0.2299 -0.0789
 4665W        W14358   6.851  13.669   3.908  0.0785 -0.0716 -0.2680
 4666W        W14359   1.653   5.015  16.977  0.0392 -0.0315  0.0607
 4667W        W14360   2.469   6.346  15.138  0.0531 -0.0615 -0.2138
 4668W        W14361  15.020   0.346  15.005  0.1974 -0.1222  0.3581
 4669W        W14362   9.657  10.495   6.088  0.1845 -0.0739  0.1744
 4670W        W14363  10.380   8.509   1.674 -0.0434  0.1248 -0.0684
 4671W        W14364   8.100  13.443  14.393  0.0731 -0.1689 -0.1312
 4672W        W14365   4.388  10.712   5.682  0.0975 -0.0471  0.0956
 4673W        W14366  17.095   4.927   1.577 -0.3684  0.2555  0.5193
 4674W        W14367  15.880  15.987   6.948  0.3661 -0.0841  0.2178
 4675W        W14368  11.393  15.604   4.799 -0.3509  0.3695 -0.5095
 4676W        W14369   3.979   4.437   2.499  0.1685 -0.1663  0.0602
 4677W        W14370  17.613  13.293   5.771 -0.2530 -0.0538  0.1316
 4678W        W14371   5.002  16.146   2.610  0.2028  0.2032 -0.1270
 4679W        W14372   3.083  10.479  14.353  0.4067  0.1158  0.1564
 4680W        W14373  13.730  14.278   6.562  0.0054  0.0587  0.0095
 4681W        W14374   0.021   6.704  13.067 -0.0422 -0.1313  0.2349
 4682W        W14375  10.450   4.119  13.124 -0.4866 -0.0307 -0.2100
 4683W        W14376   5.694   7.938  16.335 -0.1560  0.0137 -0.2861
 4684W        W14377   4.989  15.248   0.481 -0.0721 -0.2347  0.0100
 4685W        W14378   5.710  14.199   4.821  0.2623  0.0644  0.0779
 4686W        W14379  12.818   9.603  16.004  0.3489 -0.0837 -0.1138
 4687W        W14380   5.889   1.938   4.854  0.0057 -0.1077  0.0387
 4688W        W14381   6.986  14.091  15.219  0.1414 -0.1255 -0.0378
 4689W        W14382  13.166   3.684   3.805  0.0982 -0.0696  0.0042
 4690W        W14383  11.826  13.705  15.811  0.0371 -0.0242 -0.2362
 4691W        W14384   1.946  14.295   4.352  0.1640  0.2195  0.2657
 4692W        W14385  12.855   8.882  13.374 -0.3227  0.0406  0.0725
 4693W        W14386   0.179  13.752  15.800 -0.0197 -0.4204  0.0922
 4694W        W14387  17.306   2.147   5.694  0.1542  0.0562  0.4270
 4695W        W14388  10.647   8.769  16.460 -0.0482 -0.1451 -0.2278
 4696W        W14389  12.929   6.788  12.383  0.2239  0.0765  0.1063
 4697W        W14390   1.434  15.923   6.519  0.1390  0.0572 -0.1976
 4698W        W14391   6.312  17.344   0.007 -0.0222  0.2587  0.3066
 4699W        W14392   4.651   7.718  14.221  0.0163 -0.1383  0.1389
 4700W        W14393  14.676  10.169   3.842 -0.0354 -0.3176 -0.4619
 4701W        W14394   2.444  14.121   3.753 -0.0958 -0.1449 -0.0243
 4702W        W14395   9.266   4.070   1.274 -0.0302 -0.1456 -0.3366
 4703W        W14396   9.921   6.191   6.425  0.0063  0.0883  0.0928
 4704W        W14397  11.735   2.699   4.233 -0.1455 -0.0789 -0.0390
 4705W        W14398  14.167   3.324   4.794  0.1825 -0.0263 -0.0991
 4706W        W14399  10.613   3.202   6.008  0.1700 -0.2131 -0.0404
 4707W        W14400  17.188  14.738  11.950  0.0904 -0.0923  0.1310
 4708W        W14401   0.704  15.596  17.200 -0.0757 -0.2250 -0.2969
 4709W        W14402  11.402   3.683  14.120 -0.2076 -0.1023  0.1635
 4710W        W14403  12.159   5.496   5.526 -0.1122  0.3470 -0.1266
 4711W        W14404   6.858   5.408  10.473 -0.0431 -0.1583 -0.2085
 4712W        W14405   9.937  14.858  13.622  0.4652  0.0643  0.0877
 4713W        W14406   4.335   0.755   0.334 -0.0638 -0.1023 -0.1787
 4714W        W14407   2.444   2.908  15.699 -0.0159  0.1697  0.1190
 4715W        W14408   6.204   3.381  14.831  0.0948  0.2041  0.0767
 4716W        W14409  10.544  16.156  16.972  0.2951 -0.0862 -0.2046
 4717W        W14410   5.561   3.507   0.895 -0.2089 -0.0442 -0.2762
 4718W        W14411   7.844   2.118  16.449 -0.0745 -0.2331 -0.0201
 4719W        W14412  12.075  17.105   5.142  0.1422  0.0205 -0.2241
 4720W        W14413   3.708   5.504  12.409 -0.0612  0.1541 -0.1156
 4721W        W14414   3.342   0.992  12.108  0.0436  0.0978  0.0616
 4722W        W14415  14.920  13.508   5.524  0.0190 -0.1532 -0.0428
 4723W        W14416   7.764   1.342  17.091  0.1690 -0.0051 -0.1445
 4724W        W14417  16.525   5.493   0.738 -0.1224 -0.1381  0.0451
 4725W        W14418   7.514  13.461  13.679 -0.0844 -0.0378  0.1256
 4726W        W14419  15.571   1.989  14.923 -0.0653 -0.1383  0.0059
 4727W        W14420   6.697   3.986  14.576  0.1619  0.2724  0.1277
 4728W        W14421   6.307   1.446   4.698  0.1197  0.4030  0.1537
 4729W        W14422  11.780   4.253  16.357 -0.0209  0.2504 -0.0814
 4730W        W14423   9.393   7.275   5.831 -0.2184 -0.1354  0.3550
 4731W        W14424   5.721  10.272  14.252  0.0173  0.1778  0.2165
 4732W        W14425   6.543   8.478  13.977  0.0822  0.2442 -0.2276
 4733W        W14426  12.957   7.454   1.043  0.1181 -0.1074  0.1979
 4734W        W14427   4.888   5.564  15.660 -0.0926 -0.1668  0.2144
 4735W        W14428  10.630   0.609  12.844  0.0808 -0.2375 -0.1973
 4736W        W14429   6.745   5.137   3.571  0.0441 -0.5951  0.1214
 4737W        W14430   6.682   7.301  14.693  0.0457  0.0469 -0.0643
 4738W        W14431   2.222  14.112  13.430  0.1782 -0.1962 -0.0713
 4739W        W14432   1.836  14.792   1.217  0.0969  0.2166 -0.1214
 4740W        W14433  11.415   8.608  15.536  0.2602  0.0172 -0.2280
 4741W        W14434   4.856  10.397  15.323 -0.0654  0.2675  0.1878
 4742W        W14435  13.374   9.003   3.910  0.6262 -0.0490  0.1839
 4743W        W14436  13.132   6.461  14.468 -0.1270  0.0840  0.2684
 4744W        W14437  11.680  10.540  14.083 -0.0103 -0.0667 -0.0756
 4745W        W14438   9.968   7.551  15.485 -0.0700 -0.1518  0.1492
 4746W        W14439   2.914   8.137  16.676  0.1437  0.0996 -0.0134
 4747W        W14440   2.833   8.453  12.213 -0.3282  0.0689  0.1359
 4748W        W14441  11.266  13.727   1.020 -0.0257 -0.0939 -0.3160
 4749W        W14442   6.481  10.644  15.721 -0.3341 -0.3189  0.2361
 4750W        W14443  15.782   4.227   1.049 -0.1728  0.0974 -0.1138
 4751W        W14444  14.938   6.934   3.250 -0.0350 -0.2306  0.1152
 4752W        W14445   2.482   9.598   0.199 -0.3212  0.0166  0.0793
 4753W        W14446   1.923  11.843   4.015 -0.3550 -0.2835 -0.0493
 4754W        W14447   7.139   1.149   5.206  0.2028  0.0313 -0.1695
 4755W        W14448  10.649  10.087   2.586 -0.2034  0.0998 -0.0966
 4756W        W14449   7.699   5.797  13.851  0.2584  0.3084 -0.1338
 4757W        W14450  12.877  11.713   4.232 -0.4193  0.2374 -0.1027
 4758W        W14451   7.185   6.949  12.468  0.1880  0.0950  0.0395
 4759W        W14452   4.064   1.396   4.284 -0.2968 -0.4769  0.2236
 4760W        W14453   5.423  15.371   3.900  0.2171  0.2555  0.1297
 4761W        W14454   0.482   8.224  11.145  0.1482 -0.2429  0.1566
 4762W        W14455  16.716  14.557   5.528 -0.0379 -0.4009 -0.3434
 4763W        W14456   0.080  11.336  15.616  0.0299 -0.1471 -0.1117
 4764W        W14457  16.106  17.121  11.802  0.1230 -0.0474  0.3250
 4765W        W14458   5.818  13.727   5.792  0.2491 -0.0011  0.0109
 4766W        W14459   0.237   0.503   1.441  0.1020  0.0677 -0.2701
 4767W        W14460   1.960   2.820  10.841 -0.0684  0.0500 -0.2434
 4768W        W14461   9.825   7.417   6.095  0.0198 -0.1007 -0.0993
 4769W        W14462  10.689  10.796   1.745  0.2441  0.3417  0.1723
 4770W        W14463  11.283  16.145   2.775  0.3521 -0.1668  0.0473
 4771W        W14464  16.129   6.142   0.667 -0.2188  0.0862  0.1235
 4772W        W14465   4.614  16.865  14.593  0.0458 -0.1494  0.2536
 4773W        W14466  17.233  12.766  17.367  0.1446 -0.0579  0.0302
 4774W        W14467   7.812   4.955   5.648 -0.0038 -0.1843 -0.1217
 4775W        W14468  14.283  13.135  14.786  0.1605 -0.2918  0.2054
 4776W        W14469   7.304   9.161  12.887  0.0093 -0.1098  0.0915
 4777W        W14470   7.383  15.066   5.595 -0.0492  0.2250 -0.1012
 4778W        W14471  16.323   1.264   0.709 -0.2256  0.0443 -0.1856
 4779W        W14472   1.615   6.979   2.176 -0.0857 -0.2097 -0.1599
 4780W        W14473   3.492   4.954  14.660  0.0588 -0.1079 -0.1863
 4781W        W14474   2.870   5.009   0.412 -0.0518 -0.0222 -0.0681
 4782W        W14475   6.180   8.032   0.635 -0.2956 -0.2538  0.2345
 4783W        W14476  11.578   6.460   5.855 -0.1176  0.0536  0.2026
 4784W        W14477  15.725  14.217   3.762 -0.1148  0.5041 -0.2126
 4785W        W14478  14.081  16.694  12.657  0.0154 -0.1287  0.2266
 4786W        W14479   1.636  13.269  16.253  0.2601 -0.2213 -0.0584
 4787W        W14480  13.492  16.687   5.122 -0.3134  0.1012  0.0004
 4788W        W14481  11.403  14.605   5.834  0.2234  0.2746 -0.0638
 4789W        W14482   1.955   7.775   0.142 -0.4209  0.2048 -0.1233
 4790W        W14483  10.597   4.609  12.931 -0.0984 -0.0744  0.1146
 4791W        W14484   2.351  11.644  13.283  0.0277  0.3137 -0.1562
 4792W        W14485   6.507  12.965   5.429 -0.0267  0.3279 -0.0013
 4793W        W14486   7.126  16.491   4.810  0.0788  0.1498  0.1934
 4794W        W14487  12.289   3.889  13.964  0.1538 -0.1000 -0.4013
 4795W        W14488   3.472  15.764   6.824  0.3184 -0.1221  0.1131
 4796W        W14489   2.926   4.483   5.767  0.2185 -0.1445 -0.0669
 4797W        W14490  13.563   2.934  12.557 -0.1094 -0.0406 -0.0066
 4798W        W14491   0.340   1.103   2.297 -0.0718  0.1356  0.1206
 4799W        W14492   7.084   3.559  13.516  0.0755  0.2329 -0.3711
 4800W        W14493   7.510   5.529   4.027  0.0303  0.0163 -0.1184
 4801W        W14494   7.545   3.017   3.293 -0.3401 -0.0381  0.0371
 4802W        W14495  10.871   5.499  12.766  0.0592  0.2217  0.2203
 4803W        W14496  13.724   9.546  15.669  0.2880  0.1716  0.1154
 4804W        W14497   7.745   3.224   1.544  0.0515 -0.1054  0.0617
 4805W        W14498  17.629   3.968  12.716 -0.1590  0.2535 -0.0641
 4806W        W14499  10.433  12.547   4.852 -0.0240 -0.0164  0.1219
 4807W        W14500  16.752  14.677  14.895  0.0936 -0.2358 -0.2357
 4808W        W14501  13.908   9.409   1.194 -0.2249 -0.0815  0.1166
 4809W        W14502  16.522   0.432   0.945  0.0996 -0.0912 -0.2263
 4810W        W14503   0.694  14.749   2.301 -0.1368  0.1108  0.2447
 4811W        W14504   4.980   6.085   2.771  0.2343  0.0072  0.0169
 4812W        W14505  13.738  11.242   4.080  0.1018 -0.0788 -0.1032
 4813W        W14506   4.002  15.850   1.779 -0.2409  0.1808  0.0351
 4814W        W14507   7.240   9.002   6.134  0.3514  0.0478 -0.0885
 4815W        W14508  13.240   5.133  12.444  0.2336  0.2740 -0.0712
 4816W        W14509   2.233   8.672   1.109 -0.3452  0.0693 -0.3382
 4817W        W14510   9.827   9.465   0.736  0.0130 -0.0198 -0.1023
 4818W        W14511  10.056  16.707  16.605  0.1619 -0.1443  0.0726
 4819W        W14512   0.382   8.702  14.337  0.1988  0.2061  0.0140
 4820W        W14513   7.030   2.553   0.909 -0.1866  0.2156  0.1145
 4821W        W14514   1.624   3.667  14.491  0.1910 -0.0245 -0.0290
 4822W        W14515  12.942   0.785  13.780 -0.1088 -0.0828  0.0027
 4823W        W14516   7.681   5.499  11.635  0.2449  0.0142  0.1015
 4824W        W14517   8.483   0.253   3.183 -0.1209  0.0760 -0.0923
 4825W        W14518   4.297   6.901   0.077 -0.1738  0.2191  0.0920
 4826W        W14519   7.060   7.577  17.146 -0.3352  0.0601 -0.1186
 4827W        W14520  10.747   0.171  12.078 -0.2129  0.0285  0.2320
 4828W        W14521   0.531  13.867  16.090 -0.0297 -0.0482 -0.2860
 4829W        W14522   2.408  10.824  13.784 -0.4707  0.0351 -0.0783
 4830W        W14523   3.651   4.916   6.344  0.3903 -0.3108 -0.0335
 4831W        W14524  17.336  10.601   3.978 -0.4017  0.4422 -0.2069
 4832W        W14525   3.214  11.984  17.680 -0.0875  0.1193  0.0087
 4833W        W14526   3.763  16.023  15.649  0.1557 -0.0752  0.0243
 4834W        W14527   2.600  14.053  12.351 -0.0835 -0.3266 -0.1416
 4835W        W14528   4.960   3.302   4.204  0.0473  0.3226  0.1690
 4836W        W14529   4.125  16.142   4.899 -0.2179  0.1731 -0.0241
 4837W        W14530  10.202  16.608   0.068  0.1404 -0.0063  0.0483
 4838W        W14531   5.236   6.135   5.424  0.1633 -0.0989  0.0230
 4839W        W14532  15.020   6.497  16.695  0.2004  0.2962  0.0213
 4840W        W14533  11.134   1.316  15.559  0.4684  0.1451  0.1183
 4841W        W14534  15.806  13.769   3.566  0.0886  0.3632 -0.1821
 4842W        W14535   5.145   0.930   6.074 -0.2188 -0.1590 -0.1097
 4843W        W14536   5.371   5.722  11.888  0.0182  0.3634  0.0837
 4844W        W14537  16.323   9.728  14.578  0.0697 -0.1582  0.1009
 4845W        W14538  15.816   5.691   1.880  0.1178 -0.1893  0.1467
 4846W        W14539  13.980   8.689  16.052 -0.1216 -0.0265 -0.1078
 4847W        W14540  12.170   2.707  12.853  0.0888  0.0507 -0.1353
 4848W        W14541  16.287  13.854  14.478 -0.1350  0.1212 -0.2323
 4849W        W14542  16.934   0.670  14.514 -0.4138  0.0900 -0.1535
 4850W        W14543   0.379   1.495   0.631  0.0834  0.0340  0.2489
 4851W        W14544  13.332   2.707   3.416  0.3449  0.2524  0.0960
 4852W        W14545   3.264  10.137  13.939  0.0775  0.0607 -0.0702
 4853W        W14546  10.264  15.540   5.121 -0.3774 -0.0607  0.0889
 4854W        W14547   8.509   9.747  12.141 -0.1898 -0.3105 -0.3261
 4855W        W14548  13.901   5.643   5.410  0.1341  0.0014  0.2970
 4856W        W14549   0.148  16.545  12.931 -0.2343  0.1513  0.0522
 4857W        W14550   5.153   5.062   5.910  0.0892  0.3031  0.3542
 4858W        W14551   0.392  14.300   4.066 -0.0215  0.0690 -0.0532
 4859W        W14552   3.606  15.241  12.418 -0.3421  0.0026 -0.3249
 4860W        W14553  10.249   5.692   3.915  0.1607  0.1351  0.0123
 4861W        W14554  10.224   7.559   2.733  0.0583 -0.1759 -0.0749
 4862W        W14555  16.526   1.549   0.351 -0.0261  0.1238 -0.1138
 4863W        W14556  12.339   4.957   0.137 -0.1387 -0.0106  0.0509
 4864W        W14557   2.256  13.225   4.456  0.2257  0.1560  0.3314
 4865W        W14558  12.268   9.069  12.948 -0.0498  0.1918  0.0689
 4866W        W14559   9.617  10.049   4.094  0.1775 -0.0432  0.0973
 4867W        W14560  14.078   6.334   0.716 -0.4299 -0.5786 -0.1609
 4868W        W14561   1.312   4.991   3.211  0.2938  0.0476 -0.3064
 4869W        W14562   3.322  10.091  16.860 -0.3148  0.1925  0.1369
 4870W        W14563   3.087  16.007  16.132  0.1409  0.0468 -0.0595
 4871W        W14564   7.937   1.078  14.274 -0.0460 -0.1574  0.2334
 4872W        W14565   9.903   3.324   4.311 -0.1280 -0.4078  0.0626
 4873W        W14566  14.335   0.279  17.149 -0.0564 -0.1971 -0.2218
 4874W        W14567   7.276  10.825  16.703  0.0059  0.0351 -0.1150
 4875W        W14568  12.874   1.320  16.066  0.2432  0.2286 -0.1180
 4876W        W14569   3.643   3.511   1.726  0.2192  0.0362 -0.0039
 4877W        W14570   6.416  13.427   0.759 -0.0337 -0.2528  0.0470
 4878W        W14571   4.428   3.668   2.967  0.0982  0.1410 -0.3755
 4879W        W14572  17.515  10.552  15.024  0.1203 -0.0936  0.3195
 4880W        W14573   8.770   6.944  17.425 -0.2288 -0.0308 -0.2049
 4881W        W14574  14.195   5.761   2.158  0.2725  0.1119  0.0050
 4882W        W14575   2.674   9.531  13.432  0.0060  0.3868  0.0412
 4883W        W14576   0.080  14.621  13.546 -0.0973  0.1650  0.0198
 4884W        W14577  15.111  15.452   6.363 -0.0670  0.0637 -0.4389
 4885W        W14578   8.576  16.816  14.913  0.0690  0.2273 -0.0755
 4886W        W14579  12.676   7.594   2.838 -0.1352  0.0769  0.1980
 4887W        W14580  14.317   1.601  16.169  0.0621 -0.1810 -0.0704
 4888W        W14581  11.697  11.949  13.074  0.3726 -0.1049  0.1757
 4889W        W14582  12.405   5.150  15.998 -0.1919 -0.2244  0.1271
 4890W        W14583   6.485  13.304   2.285 -0.1652  0.0573 -0.1984
 4891W        W14584  14.506  15.237  14.204  0.1368 -0.2309  0.0393
 4892W        W14585  17.088   5.260   3.640  0.2103  0.0042  0.1563
 4893W        W14586   1.028   9.573   2.911  0.0435  0.2157  0.1184
 4894W        W14587   1.941   2.164   0.325  0.0836  0.1577 -0.0104
 4895W        W14588   0.081   5.937   3.181  0.1222 -0.0360  0.2440
 4896W        W14589   4.363  13.096   4.324  0.0872  0.0118  0.0314
 4897W        W14590  10.422  10.060  13.323 -0.0902 -0.2639 -0.0646
 4898W        W14591  13.152  12.739  14.725 -0.0618 -0.0681  0.0251
 4899W        W14592   3.807  16.819   5.920 -0.0758  0.0730 -0.0372
 4900W        W14593  17.008  14.105  14.823  0.0062  0.0283  0.3817
 4901W        W14594   1.285   4.025  14.439  0.1985  0.2788 -0.1673
 4902W        W14595  15.593   9.872  13.669  0.1490  0.0855  0.0079
 4903W        W14596   0.356   7.200  12.215 -0.2720  0.2747  0.1923
 4904W        W14597   1.790   8.550   1.341  0.1551 -0.2914  0.1796
 4905W        W14598  14.413  17.504  17.010 -0.2517  0.0354  0.0555
 4906W        W14599   8.830   1.708  14.592  0.0677  0.2288 -0.1146
 4907W        W14600  15.363  11.524   5.756  0.0328  0.2222  0.0565
 4908W        W14601   3.993   0.326  15.385  0.0968  0.3006  0.0526
 4909W        W14602  15.419   0.717   1.663  0.2947  0.0739 -0.1295
 4910W        W14603   8.080   2.544  13.655 -0.3036 -0.0509 -0.0134
 4911W        W14604   5.362  11.507  15.469 -0.0948  0.2558  0.1144
 4912W        W14605  12.856  14.654   0.994 -0.0816 -0.0293  0.0363
 4913W        W14606  11.306  12.667   2.664  0.3665  0.1460  0.3813
 4914W        W14607   0.183   1.862  16.746 -0.2531 -0.2978  0.0527
 4915W        W14608  12.397  16.363   1.710  0.1864  0.0817 -0.0026
 4916W        W14609  13.677   5.091   4.817 -0.1194 -0.2319 -0.2222
 4917W        W14610  13.013   7.650  17.640  0.3766 -0.1455  0.0014
 4918W        W14611   6.671  17.279  14.213 -0.2436  0.2752  0.1498
 4919W        W14612   9.644  13.421  16.064 -0.2250 -0.1943 -0.0951
 4920W        W14613  16.772  14.815  16.935  0.2740 -0.1734 -0.0417
 4921W        W14614   8.408  12.950  12.117  0.2924 -0.0689  0.1107
 4922W        W14615  12.068  10.946  15.135  0.1851  0.1839  0.4383
 4923W        W14616   4.403  15.807   2.167  0.3253 -0.3224  0.2917
 4924W        W14617  12.300  12.809  12.724  0.0252 -0.1497 -0.2297
 4925W        W14618  14.560   6.254  16.894  0.4973  0.2113  0.0004
 4926W        W14619  10.560   0.207   5.719  0.2271 -0.0027 -0.2290
 4927W        W14620   1.264   9.822   5.289 -0.1558 -0.4337  0.0847
 4928W        W14621   0.083  10.037   2.036 -0.1923 -0.0513  0.2094
 4929W        W14622   6.611   6.636   4.292  0.0557 -0.3113  0.2551
 4930W        W14623   3.844   7.458   5.294  0.1650  0.2360 -0.2541
 4931W        W14624  14.991   1.543  17.631  0.1771 -0.0598  0.0424
 4932W        W14625   6.983  16.415  16.715 -0.1690 -0.1395 -0.0627
 4933W        W14626  17.608  13.347  14.643 -0.0316 -0.2507  0.0936
 4934W        W14627  14.029   3.189  14.706  0.0101  0.1039 -0.0306
 4935W        W14628  14.319  11.740  17.339  0.2222  0.2742  0.0210
 4936W        W14629   3.064  12.799  12.619  0.0003  0.2498 -0.2862
 4937W        W14630  12.935   6.839  13.062  0.0735 -0.0756  0.2466
 4938W        W14631  10.620   6.643   0.906  0.0572 -0.2214  0.1764
 4939W        W14632  12.484  14.596  15.203 -0.3482 -0.0249  0.1640
 4940W        W14633  16.907   0.225   5.415 -0.1118 -0.2786 -0.1413
 4941W        W14634   8.250   5.303  17.340  0.1603  0.1675 -0.4930
 4942W        W14635   7.307   5.439   4.952  0.2487 -0.0725  0.1307
 4943W        W14636   5.198  10.107  11.661 -0.1224  0.1543 -0.0295
 4944W        W14637   9.715  11.794   2.291  0.3966  0.2464  0.1269
 4945W        W14638   2.560  17.386   0.662 -0.0098  0.2016  0.0348
 4946W        W14639   6.319   1.082   6.218 -0.1658 -0.0663 -0.0247
 4947W        W14640  14.495  13.015   2.470  0.3821  0.1381 -0.1398
 4948W        W14641  16.456   9.199  13.882  0.2029 -0.0990 -0.0004
 4949W        W14642   1.626   0.920  17.322 -0.0662 -0.2810 -0.0593
 4950W        W14643   4.316   2.869   5.647  0.0568  0.2589  0.1574
 4951W        W14644   6.333  17.343  12.514 -0.1796  0.2063 -0.3273
 4952W        W14645  12.746   4.169   6.543  0.0914 -0.0097 -0.0659
 4953W        W14646  14.470   9.735  12.169 -0.0895 -0.1031  0.0754
 4954W        W14647   1.617  15.889  16.928 -0.1928  0.0407  0.0310
 4955W        W14648   6.616  14.918   6.930  0.0156 -0.2652 -0.2676
 4956W        W14649  14.784   2.766   4.446 -0.1541  0.0730  0.1793
 4957W        W14650   7.986  16.467   2.554  0.2406 -0.4025 -0.1094
 4958W        W14651   6.414   8.084   2.029 -0.2192 -0.0883  0.1805
 4959W        W14652   1.485  13.362   5.351  0.2592  0.1488  0.0412
 4960W        W14653  14.072  15.090   3.171 -0.0088  0.0886 -0.0512
 4961W        W14654   5.402   5.213  16.875  0.3316 -0.0646  0.0433
 4962W        W14655  16.606   0.380   5.804 -0.1674 -0.1536 -0.1392
 4963W        W14656   9.682   2.910   4.672 -0.2339  0.0305 -0.0484
 4964W        W14657   1.802   9.890   3.696 -0.0664  0.1415  0.0834
 4965W        W14658  17.200   0.779  17.250 -0.1630 -0.2049  0.0412
 4966W        W14659  17.301   4.353  12.180  0.1358 -0.0215  0.3074
 4967W        W14660   5.906  15.028   4.696 -0.1950  0.0407  0.2752
 4968W        W14661   6.438  13.226  14.792 -0.0258  0.2164  0.1567
 4969W        W14662  15.348  10.150   5.662 -0.1266  0.0678 -0.0937
 4970W        W14663  13.134  10.644  15.951  0.0160  0.4885 -0.0019
 4971W        W14664   4.523  16.136  14.498  0.0780 -0.1487 -0.4393
 4972W        W14665  10.516  16.915   3.427  0.1481 -0.1178  0.1267
 4973W        W14666   4.184   3.473  11.382  0.1245 -0.0449 -0.0070
 4974W        W14667  12.986   2.094   2.266 -0.1867  0.1105 -0.0523
 4975W        W14668   4.616   6.357  13.937  0.0220  0.0819  0.3144
 4976W        W14669  15.922   9.075   6.739 -0.3144  0.0383 -0.1960
 4977W        W14670   9.186  10.746  15.764 -0.2927 -0.0585 -0.0949
 4978W        W14671  11.706   3.951   5.067  0.0997 -0.1223  0.1922
 4979W        W14672   2.422   0.084  16.283  0.0123  0.3591  0.4861
 4980W        W14673  10.884  12.174   2.430 -0.1670 -0.0297 -0.2501
 4981W        W14674   3.699  15.335  14.692 -0.1598 -0.2702  0.1398
 4982W        W14675   4.959  16.628  12.572 -0.3048 -0.1734  0.2612
 4983W        W14676   1.293   8.048  17.307 -0.2991  0.2427  0.1950
 4984W        W14677   1.083   9.845  12.974  0.0893  0.1879  0.2255
 4985W        W14678  13.703   3.909  14.021  0.1383 -0.0219  0.1277
 4986W        W14679   7.792   3.133  15.066  0.0174  0.1506 -0.2779
 4987W        W14680  11.879  10.617  15.509  0.0522  0.2957  0.0255
 4988W        W14681   4.775   5.418  15.125 -0.1804  0.0064 -0.0925
 4989W        W14682   4.089   3.585  16.285 -0.0361 -0.2462  0.1568
 4990W        W14683   8.725  14.243   5.477 -0.1186 -0.0082  0.0633
 4991W        W14684   7.040  17.237   2.319 -0.2613  0.1617  0.0825
 4992W        W14685   8.009   9.430  15.397  0.1035 -0.2400 -0.2921
 4993W        W14686  13.970  12.103   0.164 -0.0569  0.3799 -0.2994
 4994W        W14687  13.262   8.154   0.713  0.0017 -0.1030 -0.0957
 4995W        W14688   8.293  16.928   6.702  0.1434  0.2067  0.4850
 4996W        W14689  13.433   0.551  17.666  0.0989 -0.2997  0.2567
 4997W        W14690  10.175   2.185  17.600  0.2412 -0.1386  0.1570
 4998W        W14691   5.893   6.621   1.895 -0.0647  0.0701  0.1610
 4999W        W14692   4.088   5.828   1.616 -0.0128 -0.0826 -0.2306
 5000W        W14693   3.524   3.078  15.979 -0.0208  0.1196  0.1043
 5001W        W14694   8.513   9.978   5.411  0.0272 -0.0478  0.3614
 5002W        W14695   1.420   0.644  16.860 -0.0836  0.2240 -0.3659
 5003W        W14696  12.555   2.635   1.957 -0.0292  0.4645 -0.0931
 5004W        W14697  10.135  10.616   5.704 -0.0907  0.3394  0.1578
 5005W        W14698  16.677   1.201  16.751 -0.3796  0.1058 -0.1133
 5006W        W14699  16.282  11.620   2.708 -0.0259 -0.0120  0.2711
 5007W        W14700  14.773   3.280   4.048  0.2238  0.0476  0.1130
 5008W        W14701  11.826   9.734  14.269  0.1735 -0.0401  0.0265
 5009W        W14702   2.726  11.218  14.523  0.0250 -0.2375  0.1413
 5010W        W14703   1.334  10.818   0.715 -0.2455  0.1826 -0.5964
 5011W        W14704  14.960   0.626   3.080 -0.2969 -0.2057 -0.1286
 5012W        W14705   3.792  16.260  12.034  0.0759 -0.0018  0.1635
 5013W        W14706  15.736   6.337   5.607 -0.1650  0.0646 -0.0082
 5014W        W14707  15.886  17.633   5.323  0.0562  0.1229 -0.0514
 5015W        W14708  11.222   0.234   0.562  0.7487  0.3523 -0.1126
 5016W        W14709   1.700  14.370  12.835  0.0050  0.1596 -0.2027
 5017W        W14710   6.310  11.314   6.757 -0.0336  0.1256  0.4196
 5018W        W14711   7.299   4.535  12.007  0.0564 -0.3017  0.1743
 5019W        W14712   3.794  13.128   1.060  0.0373  0.0891  0.0703
 5020W        W14713  17.503   2.799  13.514 -0.1355 -0.0071  0.0410
 5021W        W14714   6.917  13.589  13.169 -0.0530 -0.1188 -0.1801
 5022W        W14715   0.536  14.070   1.390 -0.0328 -0.0167  0.3655
 5023W        W14716  13.585  13.308   5.517 -0.1242  0.0480  0.0391
 5024W        W14717   3.015  15.323   3.786  0.1050  0.0014 -0.3100
 5025W        W14718  10.560   3.500  14.164  0.0611 -0.2997  0.1494
 5026W        W14719   6.227   5.209   4.256  0.3562  0.0678 -0.1085
 5027W        W14720   7.206  13.086   0.957  0.0673  0.0013  0.1225
 5028W        W14721   6.319  13.832   1.598 -0.1843 -0.2993  0.1959
 5029W        W14722  15.657   7.113   2.008 -0.3446 -0.1170  0.1117
 5030W        W14723   0.970   5.030   6.164 -0.2864 -0.0311  0.1054
 5031W        W14724   5.064  11.453   5.968 -0.2076 -0.2367 -0.2706
 5032W        W14725   1.038  12.324  13.538  0.1111  0.0623  0.0461
 5033W        W14726   5.632  12.816  15.048  0.0132 -0.1782 -0.0349
 5034W        W14727   4.972   0.387   3.794 -0.0546  0.1525 -0.0291
 5035W        W14728   8.624   3.155   2.390  0.1348  0.2121  0.4320
 5036W        W14729   1.798   5.726  11.763  0.1120  0.0329  0.2781
 5037W        W14730  16.252   6.433   1.038 -0.4297  0.0494  0.1816
 5038W        W14731   0.479  14.008   0.629  0.1753 -0.0029 -0.3176
 5039W        W14732   4.420  14.430   1.348  0.1383  0.1626 -0.1088
 5040W        W14733  14.573   2.281  16.862 -0.0587 -0.0622  0.1787
 5041W        W14734   3.349   6.549  13.702 -0.0784 -0.3633  0.1753
 5042W        W14735  14.453  17.612   2.424 -0.2266  0.1306  0.2297
 5043W        W14736   5.597   0.443   2.195 -0.2174 -0.1571 -0.5015
 5044W        W14737  12.205  10.528  14.158  0.0895 -0.1693 -0.1248
 5045W        W14738  17.308   7.552  13.278 -0.0118 -0.1455 -0.2091
 5046W        W14739  14.918  12.013  12.726  0.2621  0.3319 -0.2418
 5047W        W14740   0.210   2.745   2.033  0.1003 -0.5409 -0.0775
 5048W        W14741   3.074   2.907  17.148 -0.1483 -0.0835 -0.0698
 5049W        W14742  12.662   8.436  13.729  0.2331  0.0871  0.2201
 5050W        W14743   3.278   3.702   3.370  0.0419 -0.2531 -0.0135
 5051W        W14744  15.084   9.621   4.678 -0.0857 -0.0794 -0.0413
 5052W        W14745  17.440  16.418   2.055  0.0774  0.0742 -0.0225
 5053W        W14746  13.301   4.178   3.942 -0.0790  0.0529 -0.2691
 5054W        W14747  17.005   4.110  14.240 -0.0197  0.0623  0.0560
 5055W        W14748  14.024   4.849  14.003 -0.1380  0.2663 -0.1954
 5056W        W14749   8.765  11.534  12.095 -0.1587  0.1452  0.0600
 5057W        W14750   4.487  11.424   4.269 -0.0154 -0.0976  0.0995
 5058W        W14751   5.829  12.326  17.393  0.3135  0.2857  0.0380
 5059W        W14752   9.613   1.886   5.520  0.2157  0.1316 -0.1501
 5060W        W14753   9.340  12.018  12.610 -0.1641  0.3674  0.2224
 5061W        W14754  16.293   2.476  13.817 -0.1318 -0.0229 -0.2418
 5062W        W14755  16.871   5.893   3.192  0.0650 -0.2373  0.2035
 5063W        W14756   3.101   4.184  12.796  0.1574  0.1629  0.2576
 5064W        W14757  17.187  17.041  13.806 -0.1385 -0.0973  0.0004
 5065W        W14758   9.151   2.733   1.578 -0.2948 -0.1213 -0.0611
 5066W        W14759  11.500  15.793  13.563 -0.0596 -0.0729  0.2697
 5067W        W14760  12.020   5.755  17.621  0.1039 -0.1700 -0.0425
 5068W        W14761  15.309  10.195   4.171 -0.1833 -0.2500 -0.3275
 5069W        W14762   0.178  14.421  16.828  0.0242 -0.1106 -0.2409
 5070W        W14763   9.457  15.783   3.390  0.1661  0.2160  0.0681
 5071W        W14764   2.478  16.017  12.161 -0.0800 -0.0930  0.1987
 5072W        W14765   6.648  10.369   1.690 -0.1776  0.0948 -0.0895
 5073W        W14766   3.730   9.673   0.011  0.1594 -0.0459 -0.2496
 5074W        W14767   0.195   5.384  14.805 -0.1876 -0.0910 -0.0189
 5075W        W14768  14.103  14.931   2.690 -0.2828 -0.2604  0.0478
 5076W        W14769   5.287   8.408  14.347 -0.0180 -0.0285  0.0485
 5077W        W14770  17.515   0.425   1.795  0.0216  0.1496 -0.0226
 5078W        W14771  16.054  13.192  16.870  0.2280 -0.3462 -0.2878
 5079W        W14772  11.648   3.705   2.243 -0.0797 -0.1132 -0.3581
 5080W        W14773   5.108   3.999   1.722  0.1501 -0.2895 -0.0553
 5081W        W14774  10.138   8.282  16.168 -0.1706 -0.0951  0.1998
 5082W        W14775   8.042   5.864  16.170  0.0542  0.0422  0.2153
 5083W        W14776   8.023   2.937   2.357  0.0359 -0.0943 -0.0520
 5084W        W14777  12.419   5.458   1.116  0.0900  0.3019 -0.1744
 5085W        W14778  14.980  12.321  17.087 -0.2186 -0.1226  0.0656
 5086W        W14779  11.923   4.465  17.212 -0.0095  0.1695 -0.1784
 5087W        W14780  15.142  13.969   0.344 -0.0836  0.3274 -0.1240
 5088W        W14781   4.362   0.949  16.889  0.0153  0.0450 -0.1303
 5089W        W14782   8.367   7.990  14.444 -0.1224  0.2748  0.0370
 5090W        W14783   2.303   3.588   5.442 -0.4074 -0.2128 -0.1856
 5091W        W14784   0.759   7.371  16.035  0.2164 -0.2034  0.1701
 5092W        W14785   2.844   2.220   2.892 -0.4139  0.1301  0.0081
 5093W        W14786   8.976  13.961   3.342 -0.0969 -0.1519 -0.1459
 5094W        W14787  14.992  11.922   5.690  0.0575 -0.0818 -0.0793
 5095W        W14788   2.324   7.133  16.917 -0.1025 -0.1736  0.0852
 5096W        W14789   0.842   5.725   6.729 -0.0099  0.4578  0.0305
 5097W        W14790  16.260   3.572   3.977 -0.0362 -0.2311 -0.0128
 5098W        W14791   1.384   6.027  16.806  0.0315 -0.1430  0.3053
 5099W        W14792   1.688   5.503  13.989  0.0260  0.3215  0.3139
 5100W        W14793   4.500  16.825  16.729 -0.0561 -0.0976 -0.0562
 5101W        W14794   6.079   1.574  15.156 -0.1394 -0.0007 -0.0785
 5102W        W14795  10.469  10.752   2.251 -0.5080 -0.0316 -0.2299
 5103W        W14796  10.695   1.854  13.811 -0.1161  0.0258 -0.1940
 5104W        W14797   4.971   0.157   1.248  0.3431  0.0335 -0.0345
 5105W        W14798   5.369   2.998   5.422  0.2895 -0.0189 -0.1594
 5106W        W14799  17.398   5.892  16.670  0.3345  0.0608  0.1337
 5107W        W14800  12.329  11.984  13.136  0.2567 -0.1001  0.0402
 5108W        W14801  15.290  13.055  14.097 -0.0606 -0.0355 -0.2647
 5109W        W14802   5.693   7.657  12.373  0.0706 -0.2424  0.2965
 5110W        W14803   5.356   0.786   0.115 -0.1785 -0.1410 -0.1315
 5111W        W14804  11.330  15.677   4.014  0.2434  0.4836  0.0972
 5112W        W14805   4.746  11.847  11.658 -0.1533 -0.0134 -0.0819
 5113W        W14806   5.763   1.238  15.030 -0.0239  0.1160 -0.1708
 5114W        W14807  11.257   1.156   0.012 -0.1394  0.0599  0.0205
 5115W        W14808   9.162   0.435  13.991 -0.0790  0.0719 -0.3694
 5116W        W14809  15.544  15.649  14.624  0.4289 -0.0764  0.2803
 5117W        W14810  13.472  15.658   3.576  0.0539  0.2651 -0.1211
 5118W        W14811  14.136   0.304  17.630 -0.1835 -0.1962  0.4185
 5119W        W14812   7.128  17.382   1.273  0.1199 -0.3496 -0.0001
 5120W        W14813  11.023   5.455   4.957 -0.0880  0.0485 -0.2040
 5121W        W14814   7.934  17.312  11.188 -0.0209 -0.1749  0.0483
 5122W        W14815   1.864   9.442   0.082 -0.2559  0.1223  0.1891
 5123W        W14816  14.524  12.198   6.409  0.3454  0.0186 -0.1925
 5124W        W14817   5.009   5.999  17.451 -0.0906  0.0278  0.1512
 5125W        W14818  11.478   3.537   3.250  0.1701  0.2196 -0.0560
 5126W        W14819   5.075  10.429  12.008  0.2036  0.0886 -0.0373
 5127W        W14820  12.502  13.486  15.566 -0.0167  0.1022  0.0436
 5128W        W14821  11.887   1.755  14.111  0.2290 -0.3299 -0.1715
 5129W        W14822  17.291   6.868   6.381 -0.1625 -0.1456  0.2220
 5130W        W14823  10.137  13.685  12.193 -0.0709 -0.1410 -0.0544
 5131W        W14824  14.223  16.609  14.020  0.4493  0.0006  0.2006
 5132W        W14825  14.562   4.058  16.534 -0.3004 -0.0981  0.1517
 5133W        W14826  12.822   2.543   2.815 -0.0172 -0.0930  0.1929
 5134W        W14827  14.568   3.198   5.855  0.1682 -0.1659 -0.2417
 5135W        W14828  16.095  16.280   6.340  0.1599  0.1131  0.2585
 5136W        W14829   5.039   8.800   5.496  0.0787 -0.0325 -0.2387
 5137W        W14830   2.521   3.731  17.576  0.1309  0.1434 -0.2317
 5138W        W14831   3.449  17.254   3.431 -0.0243 -0.0563 -0.1175
 5139W        W14832  10.112   6.918   0.982  0.2237 -0.3206 -0.1247
 5140W        W14833  12.194  10.224   2.237  0.0432  0.0625 -0.0605
 5141W        W14834   5.952  15.564  14.266  0.0288  0.0621 -0.2174
 5142W        W14835   2.838   5.590   6.050 -0.2700  0.0863  0.1989
 5143W        W14836  14.976   4.264   1.682 -0.0995 -0.0085  0.0619
 5144W        W14837  11.585   1.706   2.461 -0.1829  0.0509  0.2016
 5145W        W14838   5.378   3.487  16.118  0.1984 -0.0509 -0.3359
 5146W        W14839   3.832  13.197  13.311  0.0133 -0.1205 -0.1967
 5147W        W14840   9.110   8.128  12.957 -0.2118  0.0838  0.2680
 5148W        W14841  16.208  16.836   5.897 -0.3342  0.0414 -0.0386
 5149W        W14842   7.602   4.327  11.612 -0.3537 -0.1343 -0.0500
 5150W        W14843  17.396  12.632   6.944 -0.1570  0.0417  0.2413
 5151W        W14844   7.772   9.018   5.392 -0.1111 -0.1770  0.2945
 5152W        W14845   1.499   5.187  11.522 -0.3682  0.0121  0.0338
 5153W        W14846   9.456   7.441  13.597 -0.1049  0.1583  0.2666
 5154W        W14847  16.461   9.651   0.779 -0.1799  0.1276  0.0051
 5155W        W14848   8.426  11.525  12.534 -0.0724  0.0737 -0.0639
 5156W        W14849  12.421   0.035   4.475 -0.1390 -0.2254 -0.1653
 5157W        W14850  16.435   2.337   1.035  0.1222 -0.2524 -0.0967
 5158W        W14851  12.364  12.354  14.275  0.0469  0.1376 -0.0212
 5159W        W14852   2.047  10.724   3.285  0.2903 -0.2860  0.2760
 5160W        W14853   2.327   4.664   2.015  0.0779 -0.4148  0.3232
 5161W        W14854   2.732  17.014   1.021  0.1946  0.1107 -0.0589
 5162W        W14855   5.977  13.698   0.594 -0.2168  0.1612  0.2146
 5163W        W14856  10.054  10.682   3.555  0.0782 -0.3352  0.1560
 5164W        W14857   4.341  13.934  17.615  0.3615 -0.3313  0.1564
 5165W        W14858   7.502   1.038  12.964  0.1123 -0.0617 -0.0380
 5166W        W14859   5.830  15.256  15.750 -0.0394 -0.1511 -0.0845
 5167W        W14860   2.090  13.350  13.828 -0.1738 -0.0727  0.2519
 5168W        W14861   9.270   8.321   4.695  0.1845 -0.1202  0.2070
 5169W        W14862   5.509   8.229  15.867 -0.1042 -0.1754 -0.0596
 5170W        W14863   9.650   3.627   3.431 -0.1597 -0.1505  0.1310
 5171W        W14864   6.299   8.075  11.874  0.0406  0.0833 -0.0444
 5172W        W14865   7.851   0.957  11.348  0.4100 -0.0713 -0.1257
 5173W        W14866  16.407   8.281   3.758  0.1594 -0.1197 -0.0424
 5174W        W14867   2.378   4.581   6.531 -0.2003 -0.0092 -0.0268
 5175W        W14868  13.637   0.226  11.187 -0.1590  0.2898 -0.0245
 5176W        W14869   1.412   3.417   5.322  0.0282 -0.0038  0.0140
 5177W        W14870   3.048   5.042   5.439 -0.2333  0.0588  0.3243
 5178W        W14871   8.721   5.691   3.947  0.2080 -0.1732  0.2773
 5179W        W14872   9.264   3.453  14.480  0.0565  0.1230  0.1398
 5180W        W14873   4.808   6.820   5.360  0.0726 -0.0843 -0.0253
 5181W        W14874   8.122   5.489   1.554  0.0587  0.2770  0.1350
 5182W        W14875   1.359   8.342   3.041  0.1828 -0.2754  0.0728
 5183W        W14876  13.452  17.034  14.177  0.1339  0.0557 -0.1132
 5184W        W14877   2.595   2.920  12.950  0.1917  0.2173  0.4297
 5185W        W14878   8.264   2.166   4.080 -0.1994 -0.0649 -0.2562
 5186W        W14879   9.294   9.420   0.953  0.2434 -0.0931  0.1624
 5187W        W14880  13.013  16.900   5.267 -0.0033 -0.1270  0.1881
 5188W        W14881  16.224  14.336  16.704 -0.0640  0.1710 -0.1187
 5189W        W14882  12.974  10.418   5.478  0.0273  0.0478  0.2158
 5190W        W14883  14.129   6.667  16.464  0.0565  0.1153  0.1441
 5191W        W14884   8.014   9.388  14.610 -0.2742  0.1146  0.2947
 5192W        W14885   3.662   3.600   3.624 -0.0748 -0.2245  0.3683
 5193W        W14886  10.123   8.823   3.270  0.1397  0.0005 -0.0994
 5194W        W14887   3.384   1.485   3.389  0.2366  0.2478  0.1438
 5195W        W14888   8.149   6.367  11.946 -0.3079 -0.0108 -0.2682
 5196W        W14889  12.495   3.694   0.727 -0.1161  0.0352  0.2459
 5197W        W14890   9.094   0.418   4.810  0.2083  0.1383 -0.1767
 5198W        W14891   0.592   6.435   5.283  0.4240 -0.0914  0.0816
 5199W        W14892  11.903   9.038   5.241  0.1826 -0.0830  0.1256
 5200W        W14893  15.655   4.726   1.446  0.3870 -0.0288  0.0770
 5201W        W14894   4.389  14.854  12.005  0.0545 -0.2013  0.3564
 5202W        W14895   9.491  12.595   1.191 -0.1729  0.0726  0.0075
 5203W        W14896   7.677   4.952  15.045  0.3436  0.0339  0.2523
 5204W        W14897  11.482  15.511   3.616  0.2189  0.1781 -0.1133
 5205W        W14898   0.864   3.664  14.591 -0.0340  0.0579  0.2206
 5206W        W14899  16.326   7.532  15.907  0.0368 -0.1936 -0.1823
 5207W        W14900  13.016   1.366  14.375  0.1707  0.1381 -0.0350
 5208W        W14901   6.021  17.123   1.026  0.0957 -0.2121 -0.2570
 5209W        W14902   1.264   4.204   1.786  0.3531  0.2444  0.1994
 5210W        W14903  11.285   8.759  13.246  0.2736  0.1098 -0.0912
 5211W        W14904  11.530  11.631  17.144  0.0234 -0.1494 -0.2875
 5212W        W14905   1.341   6.957   0.469  0.1832  0.2075 -0.1176
 5213W        W14906  12.647  16.563  13.317 -0.0280  0.1092  0.1175
 5214W        W14907   3.334   2.064   4.274 -0.0988 -0.2790  0.0215
 5215W        W14908  13.063  15.137   5.397 -0.2317 -0.0034  0.2848
 5216W        W14909   4.558   8.267   4.476  0.0950  0.1154 -0.1468
 5217W        W14910  17.328  17.249   5.812 -0.3689  0.3756  0.1274
 5218W        W14911  10.987   8.455   2.911  0.2446 -0.2054 -0.2149
 5219W        W14912   4.649  10.726   0.125  0.2809 -0.1372  0.3269
 5220W        W14913   7.872   2.783  15.464  0.3246  0.1259  0.1116
 5221W        W14914  12.141  14.260   2.253  0.1239 -0.3475  0.1872
 5222W        W14915  17.065   6.863  12.014 -0.1753  0.0522  0.1394
 5223W        W14916  16.978   6.432  14.197 -0.0056  0.3106  0.1524
 5224W        W14917   2.996  12.733  13.119  0.0681  0.1575 -0.0975
 5225W        W14918   0.116  16.353  15.539 -0.1680 -0.0534 -0.1013
 5226W        W14919   7.387  11.445   3.662  0.0236  0.3436  0.3957
 5227W        W14920  10.005   6.274   5.108 -0.0254  0.1443  0.0021
 5228W        W14921   6.094  13.921   0.091  0.0762 -0.2583  0.1242
 5229W        W14922   5.333   6.043   2.394  0.4702 -0.1281 -0.1073
 5230W        W14923   5.323   1.692   4.717  0.0565  0.0095 -0.1850
 5231W        W14924  14.953   7.678  15.573 -0.0470 -0.1053  0.2438
 5232W        W14925   7.474  15.757   3.975  0.0378  0.1452 -0.1219
 5233W        W14926   8.060  16.664   0.354  0.1704  0.1812 -0.0564
 5234W        W14927  10.774   2.729  13.357 -0.2432 -0.1959 -0.0953
 5235W        W14928  10.132  13.167  16.187  0.0895 -0.0209 -0.0038
 5236W        W14929   3.145  13.987  17.282 -0.0746 -0.2176  0.3024
 5237W        W14930   5.550   9.924  13.946  0.0579  0.1116 -0.3352
 5238W        W14931   6.019  13.412   4.219  0.0828 -0.2273  0.0062
 5239W        W14932  10.239  12.949   0.770 -0.0242 -0.0453 -0.3175
 5240W        W14933  11.381   4.679   4.400 -0.3365 -0.0214 -0.2317
 5241W        W14934   8.367  13.143  13.443  0.1837  0.0843 -0.2862
 5242W        W14935   9.090  11.020  14.388  0.0410 -0.1556  0.3532
 5243W        W14936   1.307  11.453  15.747  0.3000  0.0696  0.0199
 5244W        W14937   9.059   3.288  15.476  0.2351  0.2328  0.0449
 5245W        W14938   4.521   1.450   1.089  0.0733 -0.1066  0.0106
 5246W        W14939   1.409   6.545   1.276  0.0205  0.0108 -0.1058
 5247W        W14940   4.390   9.959   2.433  0.4612 -0.0413 -0.0600
 5248W        W14941   2.430   5.305   6.072 -0.5343 -0.2961 -0.2422
 5249W        W14942   0.854   6.244   6.764  0.1938 -0.3800  0.0689
 5250W        W14943  17.282   2.902   5.273 -0.0846 -0.1096 -0.1669
 5251W        W14944   8.326   6.913  17.201 -0.0570 -0.0105  0.1078
 5252W        W14945  14.580  14.197   6.576 -0.2053 -0.0341 -0.1692
 5253W        W14946  13.975  13.623   5.235  0.0692 -0.0922 -0.3431
 5254W        W14947  15.782   6.274  14.670 -0.0495 -0.1078 -0.3409
 5255W        W14948   6.637  11.340   0.976  0.0903 -0.1320 -0.2768
 5256W        W14949  17.091   9.027  17.650 -0.1872  0.0411  0.0520
 5257W        W14950   1.812  10.560  15.945 -0.0395  0.2979 -0.0685
 5258W        W14951   3.250   8.510   1.640 -0.2886  0.0725  0.2822
 5259W        W14952  14.866  17.145  15.941 -0.0995  0.0564  0.1061
 5260W        W14953  12.426  11.451   4.207 -0.0971 -0.1713 -0.0396
 5261W        W14954  10.905  12.787  16.602 -0.2914 -0.2008 -0.1266
 5262W        W14955  11.217  11.536   0.375 -0.1092 -0.1533  0.0258
 5263W        W14956   2.227   0.271  16.796 -0.0542  0.0559  0.2432
 5264W        W14957   9.173  12.128   1.139 -0.0009 -0.0316 -0.0308
 5265W        W14958   3.871   4.407  15.665 -0.1200 -0.1131  0.4216
 5266W        W14959  10.542   2.143  14.594  0.1676 -0.0056  0.2137
 5267W        W14960   6.991   8.003   0.060  0.0190  0.1009  0.1375
 5268W        W14961  16.871  10.517   2.354  0.2236  0.2851  0.2831
 5269W        W14962  15.673   4.526   0.586 -0.0530 -0.4008 -0.3230
 5270W        W14963  14.051   5.986  15.951  0.0011 -0.0731 -0.0150
 5271W        W14964  13.361   0.184  14.506  0.2734  0.1048  0.2703
 5272W        W14965   3.510   3.701  15.052  0.1605  0.0884 -0.2614
 5273W        W14966   3.424  12.201  15.624 -0.3563 -0.0998 -0.0210
 5274W        W14967   9.830   1.826  15.827 -0.0660  0.0079  0.0406
 5275W        W14968   4.199  15.590   3.300 -0.0419 -0.0658  0.2469
 5276W        W14969   3.774   7.432   1.616 -0.0894 -0.0716  0.0179
 5277W        W14970   2.669   0.747  14.817 -0.2757  0.0367 -0.2177
 5278W        W14971  15.736   2.740  16.146 -0.0543 -0.1024 -0.0558
 5279W        W14972  12.597  15.426  17.549  0.0797  0.1010  0.1263
 5280W        W14973  13.819  11.766  12.898 -0.0830  0.1984  0.1372
 5281W        W14974  14.100  14.075   3.595  0.0519  0.0198 -0.1569
 5282W        W14975   4.922  10.023   2.405  0.1295  0.2359  0.1792
 5283W        W14976  16.530  15.582  16.957  0.3800 -0.1264  0.0643
 5284W        W14977   6.287  11.955  14.400 -0.3237 -0.1685 -0.1099
 5285W        W14978   4.546  16.564  17.156  0.1607 -0.0701 -0.0658
 5286W        W14979  10.093  17.289   0.808 -0.2650 -0.1341  0.1698
 5287W        W14980   8.053  14.029   6.103  0.2775 -0.0907 -0.3228
 5288W        W14981   5.525   2.012  11.979  0.2197 -0.1634 -0.0932
 5289W        W14982  15.756   3.207  12.759  0.1241  0.1201 -0.2337
 5290W        W14983  14.084   5.085  15.796  0.1406 -0.0356 -0.1682
 5291W        W14984  13.416   5.155  16.701 -0.0513 -0.0428  0.0201
 5292W        W14985   0.790  17.161   1.804  0.0918  0.1069  0.2522
 5293W        W14986   8.485  11.691   5.439  0.2693 -0.1350  0.1380
 5294W        W14987  15.164  14.416  14.009 -0.0510  0.2126  0.1903
 5295W        W14988   2.087  11.500   1.448  0.1540  0.1925 -0.2390
 5296W        W14989   8.360   6.445   3.230  0.0968  0.1003  0.2234
 5297W        W14990   5.520  15.261  16.178 -0.3849  0.3219  0.0340
 5298W        W14991  14.722   7.638   0.123 -0.0050  0.0827 -0.2097
 5299W        W14992   3.888   6.853   2.747  0.0348 -0.2118  0.0030
 5300W        W14993   0.253   8.527   5.006  0.1342 -0.1229  0.3374
 5301W        W14994   5.916   5.149   6.320  0.1864 -0.0372  0.0164
 5302W        W14995   4.296   6.503  11.464  0.0346 -0.1138  0.0309
 5303W        W14996   5.214   7.186   1.192  0.2273 -0.0028  0.0863
 5304W        W14997   1.473   3.769   6.428 -0.1077  0.1185 -0.3612
 5305W        W14998   6.757   2.504  14.166  0.0656  0.1737  0.0330
 5306W        W14999   1.547  16.432  14.433 -0.0527  0.0677  0.0432
 5307W        W15000   0.842  15.525  16.719  0.3966 -0.0997 -0.1441
 5308W        W15001   4.102   3.518   6.284  0.2236  0.0029 -0.0009
 5309W        W15002  12.370  14.763   2.215  0.0475 -0.0463  0.0732
 5310W        W15003  13.769  11.324  15.608  0.3112  0.0929 -0.1411
 5311W        W15004   9.355  14.962  17.557 -0.1902  0.1220  0.0979
 5312W        W15005   1.707   1.305  14.223 -0.0136 -0.3128 -0.0855
 5313W        W15006  12.174   3.952  15.645  0.0562  0.0509 -0.0928
 5314W        W15007   6.755   2.920   4.941 -0.0136 -0.0547 -0.0035
 5315W        W15008  17.599  17.042  12.086  0.3139  0.1564  0.0179
 5316W        W15009   3.165   1.874  13.509  0.1904  0.0243 -0.0914
 5317W        W15010   0.833  13.412  16.208  0.0424  0.0946 -0.4108
 5318W        W15011  13.948   8.575  16.638  0.1101 -0.1012  0.0959
 5319W        W15012  13.354   1.424  15.816  0.0401 -0.3544 -0.2796
 5320W        W15013  12.221   3.566   6.229  0.0117  0.1473  0.3008
 5321W        W15014   8.686   4.147   3.029 -0.1454 -0.0276  0.4290
 5322W        W15015  11.117   5.388  13.499  0.1654 -0.2504  0.2874
 5323W        W15016  14.935   4.583   4.607 -0.4001 -0.0268  0.3857
 5324W        W15017   1.514   4.350   5.613  0.2187 -0.3271 -0.3490
 5325W        W15018  13.369   6.577   6.569  0.1062 -0.0954  0.0696
 5326W        W15019   1.095   8.988  13.467 -0.3910  0.2791  0.0974
 5327W        W15020  14.962  16.806  14.549  0.0706  0.2141  0.1785
 5328W        W15021   6.799   8.175  11.862  0.0401  0.1576  0.0466
 5329W        W15022  16.561   3.141  12.302 -0.0975 -0.2518  0.0057
 5330W        W15023   9.372   2.604   0.243  0.5403  0.1899 -0.1014
 5331W        W15024  16.430   4.059   0.196  0.3933 -0.1863  0.2669
 5332W        W15025   6.036   2.291   0.004  0.3020 -0.2279 -0.0930
 5333W        W15026  13.927   8.151   2.929  0.0231 -0.1215  0.3227
 5334W        W15027   5.211   0.506   1.577  0.0621  0.1167 -0.1442
 5335W        W15028  12.195  14.875  16.497 -0.1982  0.2451  0.1019
 5336W        W15029  13.055  15.818   0.138 -0.0790 -0.0497  0.0343
 5337W        W15030  12.663   3.608  12.903  0.1584 -0.0588  0.1784
 5338W        W15031  17.633  11.132  14.934 -0.1858 -0.2765 -0.2333
 5339W        W15032  12.811   9.593   5.895 -0.3085 -0.0377  0.0046
 5340W        W15033   9.445   8.395   3.661 -0.0192 -0.0951  0.0123
 5341W        W15034   9.337   5.034   0.145  0.3189  0.2298 -0.2277
 5342W        W15035  12.433  10.172  12.277 -0.0501  0.2062 -0.2987
 5343W        W15036  12.763   3.436  16.883  0.1224 -0.1241 -0.1617
 5344W        W15037  12.045  17.632  14.045  0.1743 -0.2669  0.1774
 5345W        W15038  13.531   0.507  15.327  0.0617 -0.0567  0.1280
 5346W        W15039   9.713  14.325   6.246 -0.1666  0.1802 -0.0301
 5347W        W15040   9.134   7.429  16.138 -0.1660 -0.0409  0.0681
 5348W        W15041   9.612  16.897  12.607  0.1475 -0.0223  0.0776
 5349W        W15042   8.291   5.513  14.179 -0.0033 -0.2612  0.0139
 5350W        W15043   5.197   0.689  12.391  0.0596  0.0293  0.1181
 5351W        W15044   0.684   2.138  12.547  0.0000 -0.1706 -0.1005
 5352W        W15045  11.953   2.062   2.524  0.0907  0.0783  0.1491
 5353W        W15046  15.237  16.009  15.042 -0.0638 -0.2571  0.0670
 5354W        W15047   7.761   7.434   5.456  0.0347  0.1402  0.1739
 5355W        W15048  16.502   1.412   4.648 -0.0702 -0.3691  0.0922
 5356W        W15049   0.072   6.366   3.966 -0.0254 -0.2012 -0.1059
 5357W        W15050   6.130  11.881   3.146  0.0311  0.3624 -0.0338
 5358W        W15051   4.232   9.441   0.590 -0.1075 -0.2674  0.1338
 5359W        W15052  13.758   0.648   4.598 -0.0127 -0.0995  0.2451
 5360W        W15053   3.493   1.623  14.689  0.3534  0.1240  0.2005
 5361W        W15054  15.587   2.427   3.559  0.1359 -0.0774  0.0790
 5362W        W15055  12.378   9.083  15.773 -0.0693 -0.1778  0.0969
 5363W        W15056  13.874   5.100  17.028  0.1573  0.0710  0.3106
 5364W        W15057  12.287   7.324   2.642 -0.0450  0.1422  0.1169
 5365W        W15058   1.696   1.962   4.751 -0.2025  0.1983  0.3232
 5366W        W15059   6.917  17.426   6.757  0.1672 -0.3107  0.1220
 5367W        W15060  13.647   8.106  17.508 -0.1078 -0.0621  0.0193
 5368W        W15061  16.905   3.052   4.347 -0.2654 -0.0387  0.3499
 5369W        W15062   2.301  11.327   4.421  0.0166  0.1378 -0.3188
 5370W        W15063  16.984  16.387  12.285 -0.0722 -0.1681  0.1886
 5371W        W15064  12.148   3.901   2.013 -0.3381  0.1303 -0.3699
 5372W        W15065   6.620  14.066   4.640  0.2263 -0.0510  0.3650
 5373W        W15066  10.151   3.398  14.445 -0.2034  0.0432  0.0427
 5374W        W15067  15.592   4.103   5.820 -0.0757 -0.4140 -0.0373
 5375W        W15068   5.053   9.047  15.040 -0.1144  0.1118  0.1262
 5376W        W15069   0.652  10.508  13.372 -0.2279  0.0148  0.3202
 5377W        W15070   5.934  12.186   5.685  0.0904  0.1336  0.1302
 5378W        W15071   0.623  17.446   6.253 -0.0516  0.0991  0.0839
 5379W        W15072  16.809   0.412   0.424  0.2566 -0.0144 -0.0475
 5380W        W15073  10.633   0.626  17.603 -0.0573 -0.1130  0.0051
 5381W        W15074  13.935   0.728  17.436 -0.3248 -0.0922  0.0928
 5382W        W15075   6.717   9.977  15.063 -0.2451 -0.1986 -0.1075
 5383W        W15076  12.734   1.929  13.070  0.0456  0.0721  0.0523
 5384W        W15077   3.170   3.446  11.676 -0.0681  0.2141 -0.1228
 5385W        W15078   4.576   5.841  12.828 -0.0079  0.1173 -0.3658
 5386W        W15079  10.155  16.355  15.270 -0.1388 -0.1389  0.0813
 5387W        W15080   3.629   4.878   4.565  0.0155  0.3160 -0.0648
 5388W        W15081   5.469  14.585   3.329 -0.0269 -0.1429 -0.2413
 5389W        W15082   5.214   4.376  15.227 -0.0685 -0.3556  0.1560
 5390W        W15083   5.420  14.757   1.717 -0.0118 -0.3332 -0.2716
 5391W        W15084   4.646  17.668   3.914 -0.0221 -0.0481 -0.0229
 5392W        W15085   9.996   2.186  16.264  0.2479 -0.1924 -0.2880
 5393W        W15086  10.167   3.579  14.905 -0.1758 -0.0133 -0.1767
 5394W        W15087   7.598   1.594  12.741 -0.3077 -0.1427  0.1689
 5395W        W15088   9.556   7.804  15.260 -0.1932  0.2073 -0.0509
 5396W        W15089   3.913   9.175   2.158  0.2279 -0.2372 -0.0250
 5397W        W15090   3.261   4.764  13.601  0.0490  0.2250  0.2011
 5398W        W15091   2.232  14.617   4.686  0.0258  0.0422  0.2191
 5399W        W15092   1.774   6.076  12.242 -0.1118  0.2709 -0.0609
 5400W        W15093  14.000   3.915   1.345  0.0982 -0.1926  0.2036
 5401W        W15094  17.352   8.274  15.976  0.1493 -0.0322 -0.3424
 5402W        W15095   6.254   8.780   5.137 -0.2764 -0.0234  0.1836
 5403W        W15096   3.752  15.433  16.577  0.1170 -0.2773  0.3173
 5404W        W15097  16.955  11.559  16.148  0.3346 -0.0120 -0.1121
 5405W        W15098   8.848   4.664   5.642 -0.2436  0.0348 -0.0116
 5406W        W15099  10.713   2.632   2.840  0.0522 -0.0435  0.0665
 5407W        W15100  14.208   9.549  15.506  0.1792  0.1935  0.1902
 5408W        W15101   1.733   3.348   4.806  0.0520  0.1760  0.0066
 5409W        W15102  10.379   0.927   0.335  0.1154  0.3950  0.2719
 5410W        W15103   6.131  17.312  14.338 -0.0887 -0.4792  0.0239
 5411W        W15104  10.257   2.295  15.240  0.0968 -0.2041  0.2326
 5412W        W15105  17.643   0.876  15.800  0.2470  0.1401 -0.1367
 5413W        W15106   4.684   6.847  12.684  0.0756  0.0635 -0.0362
 5414W        W15107  10.138  16.343   1.703 -0.0225 -0.0674 -0.1124
 5415W        W15108   8.700   7.162  16.058  0.1181  0.0903 -0.0421
 5416W        W15109  10.355  11.319   0.525 -0.0844  0.1328 -0.2607
 5417W        W15110  10.187  16.841   6.401  0.1476 -0.0279  0.0429
 5418W        W15111  11.372  10.458   5.106 -0.0310  0.0825 -0.0390
 5419W        W15112   6.324   3.195  14.209 -0.2669  0.2200  0.1159
 5420W        W15113   3.758   0.278  13.085 -0.0961  0.3119  0.1768
 5421W        W15114   9.040  16.688   6.184  0.0630  0.0690 -0.0071
 5422W        W15115   8.269   6.092   5.019 -0.0055  0.0726 -0.1826
 5423W        W15116   5.210  15.289   5.166 -0.1399  0.0396 -0.0940
 5424W        W15117   2.329   3.230   5.086  0.3044  0.1534  0.3873
 5425W        W15118  10.985  14.046   4.019  0.2297 -0.0042  0.2319
 5426W        W15119  12.383  13.140   2.536 -0.1276 -0.1093  0.0542
 5427W        W15120   7.227   1.338   5.720  0.2490 -0.1471 -0.2905
 5428W        W15121  10.926   2.263   5.150  0.1411 -0.2098  0.1377
 5429W        W15122   0.303  11.753  17.066  0.2445 -0.0560 -0.1007
 5430W        W15123  13.526  14.099  16.464 -0.0778 -0.0569 -0.2389
 5431W        W15124   9.220  13.082  17.328 -0.1057  0.0463 -0.2439
 5432W        W15125  15.537  13.565   0.546  0.0841 -0.0670  0.0640
 5433W        W15126  16.230   5.172  14.601 -0.0458  0.0005  0.2347
 5434W        W15127  16.776   2.233  13.721 -0.0757  0.2857  0.0737
 5435W        W15128   6.202  10.996  14.702 -0.1214 -0.3007  0.2196
 5436W        W15129   9.245   9.290  13.874 -0.0500 -0.0714 -0.0359
 5437W        W15130   8.831   5.532  16.733  0.2818  0.0198 -0.1415
 5438W        W15131   2.269   4.647   3.011 -0.0198 -0.0328 -0.0166
 5439W        W15132   5.599  10.529  15.982 -0.0606  0.0655 -0.3451
 5440W        W15133  12.611   8.588  16.123  0.0655 -0.0190 -0.1016
 5441W        W15134  17.667   2.881   1.042 -0.1501 -0.0101 -0.1370
 5442W        W15135  10.807   2.216   4.687  0.1711 -0.2291 -0.0415
 5443W        W15136   2.525  13.648  16.575 -0.1686 -0.1259 -0.3281
 5444W        W15137   9.602  10.208   6.851 -0.0899 -0.1250  0.1950
 5445W        W15138   1.649   0.337   5.480  0.1442  0.1922  0.1346
 5446W        W15139  14.723   9.759   3.450  0.4441 -0.0077  0.0027
 5447W        W15140   9.761   9.932  12.376 -0.1476  0.1613  0.1237
 5448W        W15141  10.456  14.143   4.055 -0.2966  0.1033  0.1449
 5449W        W15142  13.826   2.514  12.429  0.1296  0.1380 -0.3941
 5450W        W15143  16.256   4.908  17.551  0.2456 -0.1484  0.1250
 5451W        W15144  11.248  12.934   0.514 -0.1085 -0.0440  0.2433
 5452W        W15145  14.263  15.810   2.779 -0.1879  0.0567 -0.1053
 5453W        W15146  15.123  11.857  15.337 -0.0108 -0.0833  0.0934
 5454W        W15147  16.839   3.308  11.880  0.0190 -0.0755 -0.1539
 5455W        W15148  15.810   0.646   3.442  0.3062 -0.1260 -0.0517
 5456W        W15149   5.240   4.184  17.005 -0.0298  0.0196 -0.3415
 5457W        W15150  10.697   3.700   3.239 -0.3874 -0.1078 -0.2429
 5458W        W15151  12.709  10.670  13.316  0.0501  0.2402 -0.0185
 5459W        W15152   8.333   9.206  15.081  0.0476  0.0702 -0.0885
 5460W        W15153   5.564  15.566  13.309 -0.1802 -0.0706  0.0645
 5461W        W15154  10.509   6.194   6.097 -0.1012  0.1159  0.0157
 5462W        W15155   7.793   7.205   1.463 -0.0993 -0.2315 -0.1851
 5463W        W15156  10.308   5.968   0.465 -0.1889 -0.0464 -0.0874
 5464W        W15157   1.140  11.266   2.340  0.0842 -0.0611 -0.0424
 5465W        W15158   8.981   9.621  13.135 -0.2620 -0.0577 -0.1805
 5466W        W15159   7.472  13.181   5.620  0.0375 -0.1025 -0.1380
 5467W        W15160   9.334   4.570   4.287 -0.1559  0.0388 -0.2804
 5468W        W15161   9.612   4.585   5.161  0.1050  0.1505 -0.0459
 5469W        W15162   1.006   5.111  15.105 -0.4678 -0.0367 -0.1085
 5470W        W15163  10.369  10.106  16.273 -0.3534 -0.1070  0.3815
 5471W        W15164   3.923   7.943   2.651  0.2192  0.2752 -0.2325
 5472W        W15165   6.577   4.009   2.668 -0.1315 -0.0218  0.0135
 5473W        W15166  17.110   3.792   4.968 -0.1148  0.2448 -0.0881
 5474W        W15167  15.459   0.693  15.369  0.2719 -0.4871 -0.0213
 5475W        W15168  17.254   5.603   6.111  0.1628  0.1547  0.1770
 5476W        W15169   0.031   0.430  14.056  0.1128 -0.0263  0.1838
 5477W        W15170  13.424   5.287   4.079  0.3677  0.0448 -0.3902
 5478W        W15171  10.253   6.323  15.553 -0.3224 -0.0483 -0.0597
 5479W        W15172  10.426   9.712   2.889  0.2717 -0.0965 -0.1661
 5480W        W15173   5.256  12.910   1.390  0.1038 -0.2461  0.0996
 5481W        W15174  12.622   3.198  12.227  0.1349 -0.0977 -0.1388
 5482W        W15175  16.078  13.558  13.935 -0.1922  0.0062  0.0287
 5483W        W15176   2.912  13.328  15.689  0.2285  0.2098 -0.1937
 5484W        W15177   7.924  14.667  16.071  0.3102  0.1066 -0.0554
 5485W        W15178   4.374  16.222   1.899  0.1224 -0.4152  0.1194
 5486W        W15179   0.593  10.543   3.143  0.2577  0.2784 -0.2954
 5487W        W15180   2.318  17.120   1.343 -0.3938  0.1068 -0.0202
 5488W        W15181   9.991   6.692  13.779 -0.2413  0.2732  0.1093
 5489W        W15182  11.002   4.589  14.252  0.1907 -0.0737  0.2717
 5490W        W15183   7.145  13.508   1.800  0.2485  0.2433 -0.0648
 5491W        W15184   2.053  12.312  16.872  0.1583 -0.3086 -0.0369
 5492W        W15185  13.268   9.079  12.656  0.3398 -0.0142  0.1996
 5493W        W15186   5.522   7.553   2.171  0.0130 -0.0945 -0.0824
 5494W        W15187  16.805  13.410   1.036  0.2197  0.0402 -0.2789
 5495W        W15188  11.322  12.106  17.178  0.1657 -0.0134  0.3464
 5496W        W15189  17.358  13.827  13.786  0.0818  0.0672 -0.0051
 5497W        W15190   8.880  11.067   2.222  0.0653 -0.1498 -0.1089
 5498W        W15191   7.504  12.314   1.383  0.1269 -0.1012 -0.1097
 5499W        W15192   4.913  13.701  15.529  0.1040 -0.1197  0.0279
 5500W        W15193  14.678   7.262  16.842  0.2492 -0.1672  0.0555
 5501W        W15194   1.514   3.977   0.520  0.2079  0.0527  0.0665
 5502W        W15195  14.230  14.206  17.049  0.1237  0.0321  0.1934
 5503W        W15196  11.167  16.876  13.524 -0.0565  0.0694  0.0345
 5504W        W15197   5.129  14.971   0.842  0.2400 -0.1241 -0.1945
 5505W        W15198   2.693   7.824   4.850  0.1127  0.4080  0.2867
 5506W        W15199   5.313   0.366  15.093  0.1367 -0.0061 -0.1016
 5507W        W15200   0.269   0.132   2.608  0.0164  0.1113 -0.1007
 5508W        W15201   8.242   9.439   6.651  0.2185  0.2115 -0.0886
 5509W        W15202  14.279  12.685   1.621 -0.0001  0.0920  0.0769
 5510W        W15203   1.971   3.678  11.256  0.0305  0.2281 -0.1619
 5511W        W15204  12.217  16.274   3.040 -0.0575  0.1014 -0.4195
 5512W        W15205  10.202  12.695   2.046  0.1608  0.4675  0.2391
 5513W        W15206   4.091   0.362   4.185  0.3867  0.0735 -0.0682
 5514W        W15207   8.087  12.012   3.669 -0.0822  0.1410 -0.1715
 5515W        W15208   8.104   6.245   1.148  0.0059  0.2511  0.0033
 5516W        W15209   7.585   0.131   3.411 -0.2080  0.1342 -0.0488
 5517W        W15210  12.948   4.507  14.344  0.0879  0.0548  0.1453
 5518W        W15211   6.249  12.067  16.152 -0.0267 -0.0675  0.3135
 5519W        W15212  10.074  17.304   3.668  0.0806  0.2301 -0.0548
 5520W        W15213   2.710   4.118  13.174 -0.2051  0.0099 -0.0459
 5521W        W15214   3.099  16.596  17.313  0.3430  0.0592  0.3691
 5522W        W15215   4.299   7.203   1.508  0.1615  0.1705 -0.0764
 5523W        W15216  17.398   7.787   5.651  0.0950 -0.3104 -0.2079
 5524W        W15217  15.110   2.631  14.458  0.0261  0.1193  0.1619
 5525W        W15218   2.801   4.526  11.824  0.0962 -0.5435  0.0496
 5526W        W15219   2.291  16.762  12.659  0.0437  0.1105  0.1261
 5527W        W15220   6.932  12.085  16.166 -0.0451 -0.1786  0.0759
 5528W        W15221   2.375   8.413   0.411 -0.0433  0.2620 -0.0432
 5529W        W15222  11.892  15.431   0.545  0.0373  0.0563  0.0822
 5530W        W15223   1.034  11.067  15.713 -0.2334  0.4106  0.4557
 5531W        W15224   9.835  12.799   3.033  0.2882  0.1185  0.0276
 5532W        W15225   4.461   6.994  16.020 -0.0763 -0.0750 -0.1352
 5533W        W15226   6.213   7.685   6.579  0.0736  0.2938  0.1684
 5534W        W15227   7.547   4.034   5.543 -0.3846 -0.3249 -0.2078
 5535W        W15228  11.248   3.970  14.523 -0.0369  0.0451 -0.0209
 5536W        W15229   7.580  16.858   1.287  0.1071 -0.0875  0.1718
 5537W        W15230   3.817  17.633   3.363  0.0791 -0.2525  0.0223
 5538W        W15231  11.634   1.636  13.652  0.1389 -0.1443 -0.1707
 5539W        W15232   9.037   8.234   0.546  0.1144  0.0314 -0.0363
 5540W        W15233  16.787   3.203  14.213  0.1142 -0.0214  0.1645
 5541W        W15234   8.650  17.271  12.499 -0.1910 -0.1562 -0.0562
 5542W        W15235   0.965  11.637   0.571  0.1361  0.1270 -0.0968
 5543W        W15236  17.092  15.079  12.720 -0.0872  0.3662 -0.1060
 5544W        W15237   3.810   2.708   5.525  0.1521 -0.0669  0.0493
 5545W        W15238   3.946   9.925  16.182 -0.0973  0.2833  0.3638
 5546W        W15239   8.820  12.210   6.627 -0.1354  0.0478  0.1774
 5547W        W15240  16.410  11.495   2.206  0.0294  0.0789  0.0489
 5548W        W15241  13.987  16.543   2.032 -0.0672  0.2511 -0.2363
 5549W        W15242  12.589  11.302  16.489 -0.1173  0.3378 -0.1776
 5550W        W15243  15.830  12.837   5.117 -0.1426  0.0864  0.1897
 5551W        W15244   9.722  13.762  13.435  0.0531  0.0421  0.0055
 5552W        W15245   8.096  13.359   0.388 -0.2018 -0.2297 -0.0472
 5553W        W15246   7.061  10.464  16.525  0.2856  0.3537  0.2029
 5554W        W15247   5.926   0.945  12.255  0.0080  0.0248  0.1366
 5555W        W15248  16.256   7.521  17.432 -0.2121  0.0620 -0.0662
 5556W        W15249  10.442  17.108  11.538 -0.1352  0.2358  0.1844
 5557W        W15250  11.759   0.193   2.618 -0.0510 -0.0174  0.1353
 5558W        W15251   4.589  10.802   2.634  0.2934  0.0541 -0.0503
 5559W        W15252   2.384   4.155   3.100 -0.0179 -0.0907 -0.2067
 5560W        W15253   6.597   4.750   3.252  0.0253 -0.2195 -0.1970
 5561W        W15254   2.180  16.644   3.226  0.0490 -0.2030  0.1534
 5562W        W15255  13.744   4.295  12.209  0.1343 -0.1286  0.0725
 5563W        W15256  12.731  17.212  12.412  0.1707  0.3282 -0.1357
 5564W        W15257   5.287   4.139   5.929  0.0742 -0.0372 -0.1614
 5565W        W15258  15.487   7.153  14.791 -0.0391  0.1671  0.3165
 5566W        W15259  16.799   3.159   0.845  0.3287 -0.2647  0.1803
 5567W        W15260  12.362  11.384  15.043  0.0123  0.0431  0.4152
 5568W        W15261   8.076   9.546   5.742 -0.1730  0.0649 -0.0660
 5569W        W15262   6.215   6.317  12.922 -0.0347 -0.0435 -0.2172
 5570W        W15263   9.121   8.959   5.222  0.2536 -0.1240 -0.0747
 5571W        W15264  10.599   2.691   4.182 -0.2502  0.0073 -0.2073
 5572W        W15265  15.867  15.898  16.543 -0.0766 -0.2401  0.3457
 5573W        W15266  13.249  11.095  14.998 -0.0701  0.2939  0.4538
 5574W        W15267   9.447   5.217   3.244 -0.1851 -0.1850  0.1169
 5575W        W15268   7.785  10.838  15.231 -0.3084  0.4039  0.1877
 5576W        W15269  16.512   4.485   0.964 -0.0545 -0.0201  0.2641
 5577W        W15270   4.134  10.483  16.257 -0.1991  0.0205  0.0990
 5578W        W15271   2.647  13.510   0.203  0.2404  0.0990  0.0225
 5579W        W15272   8.055   5.624  14.746 -0.1083  0.1656 -0.0526
 5580W        W15273   5.205   4.481  12.731 -0.2499 -0.0685 -0.1051
 5581W        W15274  16.260  13.137  14.048 -0.0402 -0.3390  0.0141
 5582W        W15275  14.806  16.994  15.426  0.0469  0.3588 -0.2888
 5583W        W15276   9.962   5.169  13.746 -0.1507 -0.1134  0.0005
 5584W        W15277   0.340  13.919   3.759 -0.3680  0.0263 -0.0366
 5585W        W15278  14.716   5.523   0.624  0.2443  0.3698 -0.1003
 5586W        W15279   7.127  10.246  16.063 -0.0447 -0.3024  0.1171
 5587W        W15280   3.517  12.360  17.665 -0.1706  0.0144 -0.0274
 5588W        W15281   6.769   9.331  15.714  0.0188  0.0396  0.1837
 5589W        W15282  16.948  12.445   5.165  0.1708 -0.3168 -0.0530
 5590W        W15283  17.603   7.645  12.837 -0.2357  0.0244 -0.1314
 5591W        W15284  10.374  15.773   0.146  0.3387 -0.1802 -0.0042
 5592W        W15285  10.144  13.676   6.706  0.2915 -0.0506 -0.0941
 5593W        W15286  15.182  10.304   1.857 -0.0406 -0.3059 -0.0490
 5594W        W15287   1.543  10.159   5.055 -0.1718 -0.1837 -0.0939
 5595W        W15288   8.836   3.206  14.640 -0.0642  0.1813 -0.1495
 5596W        W15289  11.107  15.442  15.064  0.0421  0.2023 -0.0106
 5597W        W15290  14.073  12.023   6.051 -0.0329 -0.0674 -0.3870
 5598W        W15291  13.122  15.063  11.564  0.1088  0.0107  0.0310
 5599W        W15292  13.359   3.117   1.463  0.0095  0.0107  0.0545
 5600W        W15293  12.779   0.680  16.881 -0.1539  0.3152  0.0992
 5601W        W15294   9.361   8.590  13.411 -0.0424 -0.0821 -0.1243
 5602W        W15295   4.104  11.276   0.638  0.2757  0.2075 -0.2949
 5603W        W15296   2.658   1.786   3.010 -0.2887 -0.2263  0.1522
 5604W        W15297   6.689  12.020  17.424  0.0764 -0.0460  0.4190
 5605W        W15298   0.043  12.665   0.461  0.2598 -0.0461 -0.0122
 5606W        W15299   2.435   4.764   3.980  0.0113 -0.0274 -0.0000
 5607W        W15300   3.271   7.321   1.661  0.0551  0.2275 -0.1917
 5608W        W15301   2.419   2.646   6.605  0.1741  0.3429 -0.3174
 5609W        W15302  13.916  16.172  16.996 -0.2058 -0.1705  0.2116
 5610W        W15303   5.306  10.547   1.078 -0.1954  0.1381 -0.1326
 5611W        W15304   7.738   7.068   0.896 -0.0330  0.0376 -0.1615
 5612W        W15305   0.454  13.450   5.778  0.3852  0.0054 -0.0963
 5613W        W15306  15.768  14.844   0.173 -0.0914 -0.1365  0.1081
 5614W        W15307   2.939  10.669  13.872  0.0900 -0.1062  0.0538
 5615W        W15308  12.683   8.004   4.123  0.2180 -0.1666  0.0591
 5616W        W15309  15.880  15.925  15.067  0.0074 -0.0548 -0.0786
 5617W        W15310   1.323  13.219  16.754 -0.0499  0.3476  0.1362
 5618W        W15311   2.326  17.176   0.256 -0.1647 -0.1237  0.0363
 5619W        W15312   0.063   2.924  15.059  0.0476 -0.0288 -0.0414
 5620W        W15313   1.933   2.348   4.083 -0.4466  0.2559  0.0711
 5621W        W15314  11.422  15.348   0.775  0.2420  0.2702 -0.1355
 5622W        W15315   8.093  16.421   3.643 -0.2025 -0.1576 -0.1336
 5623W        W15316  16.438   1.952  14.896 -0.3229 -0.0390  0.1828
 5624W        W15317  13.101   7.657   4.008 -0.0068 -0.1222  0.1204
 5625W        W15318  14.694   5.214  13.525 -0.3633  0.0632 -0.1172
 5626W        W15319   0.792  16.999  16.810  0.0111  0.0015 -0.0149
 5627W        W15320   7.913   9.082  13.812 -0.0649 -0.0039 -0.0572
 5628W        W15321   2.815  17.186   0.201  0.0603  0.0372  0.0989
 5629W        W15322  15.299   1.119  17.615  0.2264  0.2273 -0.1515
 5630W        W15323  17.350  15.530   1.193  0.3462  0.1345 -0.0350
 5631W        W15324   9.691   0.556   1.515  0.2751  0.0561  0.0462
 5632W        W15325   9.847   7.686   3.676  0.0779  0.2489  0.0425
 5633W        W15326  14.649   6.429  15.187  0.0051  0.1441  0.0825
 5634W        W15327   3.044   6.624  10.880 -0.1136  0.0601  0.4969
 5635W        W15328  17.524  15.142   4.618 -0.2146  0.1439  0.1402
 5636W        W15329   1.917   3.520  14.085 -0.0394 -0.0560  0.1392
 5637W        W15330  13.733  14.623   2.593  0.2021 -0.1377  0.0834
 5638W        W15331   5.991   4.724  11.743  0.1725  0.0951  0.2441
 5639W        W15332  10.409   2.890  15.890  0.2144 -0.1409 -0.1736
 5640W        W15333  12.701  12.869   2.852  0.2117  0.1253  0.0977
 5641W        W15334  16.187  11.899  16.701 -0.0679  0.1548  0.0862
 5642W        W15335   7.439  11.869  16.853 -0.1510 -0.3235  0.0082
 5643W        W15336  15.529   3.997   4.266  0.1815  0.3597 -0.0103
 5644W        W15337   6.501  15.323   0.055 -0.1357 -0.1990 -0.0501
 5645W        W15338   3.522  14.191  12.741 -0.1731  0.2419 -0.2566
 5646W        W15339   4.347   0.625  17.554  0.5337 -0.1844 -0.2018
 5647W        W15340  12.652  14.095  13.698 -0.0827 -0.2638 -0.1163
 5648W        W15341   9.908   8.582  12.492 -0.0135  0.0260 -0.2424
 5649W        W15342  16.910  15.585   1.583  0.1640 -0.0407  0.0114
 5650W        W15343  14.126  14.426   1.453  0.1799 -0.0554  0.0626
 5651W        W15344   5.112  15.512  12.321  0.1351 -0.1797  0.1907
 5652W        W15345   5.017  12.112  16.880  0.1664  0.1649  0.2099
 5653W        W15346   6.488   3.226   4.721 -0.2470  0.2604 -0.3092
 5654W        W15347  15.468  13.573  14.133 -0.0115  0.2287 -0.0394
 5655W        W15348   6.423   2.337  12.451 -0.1931 -0.0013 -0.0031
 5656W        W15349  17.500  10.690  17.144 -0.0902  0.4567  0.0525
 5657W        W15350   4.354  13.975   6.753  0.0082  0.0597  0.0955
 5658W        W15351   2.241  15.065   3.317 -0.1069  0.1838 -0.1528
 5659W        W15352   3.167   5.744  14.528 -0.0510  0.1095  0.0109
 5660W        W15353   4.151   8.902  15.694 -0.3183 -0.2356 -0.0507
 5661W        W15354  15.545  15.504  16.600  0.2072  0.2369 -0.0520
 5662W        W15355   9.824  16.395  12.456 -0.2387  0.0870 -0.0272
 5663W        W15356   8.438  14.560  12.716 -0.1643  0.3543  0.1748
 5664W        W15357   1.330   1.465  12.608  0.2120  0.0002 -0.2036
 5665W        W15358   0.004  11.896  16.263  0.1253  0.1931 -0.0323
 5666W        W15359   9.756   9.707  16.126 -0.0987 -0.0335  0.0512
 5667W        W15360  11.400   1.191  15.131  0.1333 -0.1118 -0.2274
 5668W        W15361   1.428  14.603   3.791 -0.0237  0.2642 -0.0105
 5669W        W15362   8.060   3.153   5.546 -0.2432  0.1524  0.4392
 5670W        W15363  14.768  13.490   5.068 -0.0092  0.1424 -0.1965
 5671W        W15364  15.015   7.134  16.411  0.2263  0.2475  0.2120
 5672W        W15365   7.236  13.645  15.036  0.0330 -0.4941 -0.1391
 5673W        W15366   3.194   4.272  16.444 -0.0713 -0.3250 -0.1177
 5674W        W15367  15.017  12.195   4.567  0.1050 -0.2759  0.1535
 5675W        W15368   4.975   2.894   5.007 -0.0348  0.2578  0.0427
 5676W        W15369   1.365  16.112   0.770 -0.0514 -0.0043 -0.0097
 5677W        W15370   0.678   9.423   4.981  0.0597  0.0127 -0.1155
 5678W        W15371   3.979   0.351   6.506 -0.3282 -0.1277 -0.1268
 5679W        W15372  15.818   1.620   3.153  0.0135 -0.0626 -0.1439
 5680W        W15373  13.867   9.050   3.645 -0.0391 -0.1561 -0.1512
 5681W        W15374   8.479   3.303   3.012 -0.1567  0.0540  0.0854
 5682W        W15375   2.284  10.538  17.321 -0.0089 -0.1655  0.2231
 5683W        W15376   1.700   2.550  17.056  0.0576  0.2162 -0.0165
 5684W        W15377  13.272   1.000  16.095 -0.1060 -0.1844  0.0964
 5685W        W15378   6.965  16.812  15.707  0.1346  0.0415  0.2130
 5686W        W15379   8.335   9.966  13.991 -0.0585 -0.0959 -0.4780
 5687W        W15380   1.153   9.193   2.221 -0.0195 -0.3000 -0.0408
 5688W        W15381   0.004   0.672   0.949 -0.2392 -0.1318  0.1816
 5689W        W15382  16.671  12.034  16.604 -0.0212 -0.3376  0.0409
 5690W        W15383   9.471   6.178   6.064  0.4368  0.2539 -0.2433
 5691W        W15384   1.496   8.795   5.191  0.3223  0.2886  0.1043
 5692W        W15385   8.000  13.243   5.999 -0.4594 -0.0307 -0.0916
 5693W        W15386  10.130   9.045  15.841 -0.1108  0.0617  0.2041
 5694W        W15387  16.830   8.904  16.353 -0.0356 -0.2230  0.0003
 5695W        W15388   3.404   0.438  13.449  0.3715 -0.1415  0.1730
 5696W        W15389   7.879   7.509  11.706 -0.0133  0.1358  0.0748
 5697W        W15390   2.191  11.271  17.455 -0.0086 -0.2271  0.2262
 5698W        W15391  13.101  14.145   0.227 -0.2773 -0.0285 -0.1077
 5699W        W15392  14.127  12.092  16.600  0.0247 -0.0789  0.0454
 5700W        W15393   3.952  16.976  16.818 -0.2173  0.0545  0.4809
 5701W        W15394  11.083   1.087  14.781  0.0409 -0.0278  0.0921
 5702W        W15395   1.072  13.212  14.922 -0.0128  0.0110 -0.1763
 5703W        W15396   3.439   8.766   4.305  0.2460 -0.3332 -0.0411
 5704W        W15397   2.879   4.423   4.619  0.3260 -0.2607  0.1770
 5705W        W15398  10.698   1.633  16.339  0.0409  0.4851  0.1830
 5706W        W15399   4.486  15.412   4.709 -0.1576 -0.0202 -0.1220
 5707W        W15400   5.925  11.959  15.818  0.2632  0.2854  0.3467
 5708W        W15401   0.319   4.009  16.907  0.3314  0.1125 -0.1019
 5709W        W15402   8.828   5.764  13.094 -0.0144 -0.0298 -0.1504
 5710W        W15403   9.593  14.997   4.114 -0.1122 -0.3892 -0.1548
 5711W        W15404  16.665  17.337  16.387 -0.0843 -0.1029  0.1082
 5712W        W15405   8.375  12.408   2.058 -0.1107 -0.2418 -0.1054
 5713W        W15406   0.778   2.617  16.592 -0.1866 -0.0692  0.1680
 5714W        W15407  13.569   8.940  15.861  0.3291 -0.3539 -0.2908
 5715W        W15408   7.091   1.364  16.707 -0.1432  0.2537  0.0261
 5716W        W15409   3.143   3.441   2.894  0.1913  0.2344 -0.1224
 5717W        W15410   1.274   6.759   5.915  0.1463  0.0957  0.0121
 5718W        W15411   4.162  16.831  11.347  0.1260 -0.0171 -0.2872
 5719W        W15412  11.129  10.027   1.410  0.1108  0.0553 -0.0491
 5720W        W15413   7.275  11.912  14.284 -0.1104 -0.3278  0.0597
 5721W        W15414  10.886  12.778   2.916  0.0964  0.0026 -0.1152
 5722W        W15415   0.100  13.138   1.687 -0.0614  0.1463  0.2160
 5723W        W15416  11.595   6.366  12.193 -0.2321 -0.0015  0.1706
 5724W        W15417  16.549  13.709  13.978  0.3568 -0.2373  0.1646
 5725W        W15418   7.953   2.090  14.585 -0.2231 -0.2596  0.1202
 5726W        W15419   5.767   8.483  16.201  0.0431 -0.0344 -0.1791
 5727W        W15420   6.593  10.591  14.493 -0.1265 -0.1510 -0.1091
 5728W        W15421   5.467   1.770  12.449 -0.2781  0.1440 -0.0210
 5729W        W15422  11.719   0.903   3.078 -0.0754  0.2894 -0.2679
 5730W        W15423   3.026  10.203  17.547 -0.3855 -0.1213 -0.1049
 5731W        W15424   0.817   5.770  13.040 -0.0662  0.1314 -0.0329
 5732W        W15425   9.547  13.884   5.256 -0.2155 -0.1267  0.0116
 5733W        W15426  17.650   8.800   6.313 -0.2849  0.0300 -0.1664
 5734W        W15427  10.672   6.520  16.109  0.1988 -0.0347  0.1266
 5735W        W15428   2.839  11.045   2.805 -0.0037  0.2600 -0.1803
 5736W        W15429  14.087   5.513   4.959  0.0018  0.1209  0.2815
 5737W        W15430  13.057  14.753  16.377  0.1860  0.1833 -0.2204
 5738W        W15431   2.465   1.446  17.463 -0.1481 -0.0593  0.2222
 5739W        W15432   0.261   0.587   4.799  0.1116 -0.0483  0.0845
 5740W        W15433  12.350   8.662   2.587 -0.1909  0.0211  0.1016
 5741W        W15434   8.361  13.242   3.032  0.2145  0.0801  0.1772
 5742W        W15435  11.997  13.249   5.172 -0.2840  0.0204  0.1404
 5743W        W15436  13.451   7.648  14.755  0.1162 -0.0204 -0.1009
 5744W        W15437   8.788   1.733   4.438  0.3034  0.0908  0.1364
 5745W        W15438   3.027   6.914   0.067 -0.0289 -0.0609  0.3955
 5746W        W15439  12.197  15.540  17.192  0.2035  0.1037 -0.0857
 5747W        W15440   2.718   1.867   1.335  0.2035 -0.1987 -0.0093
 5748W        W15441   4.705   8.840  14.349 -0.0709 -0.1416  0.2161
 5749W        W15442  14.436  17.384   1.722  0.0239  0.0721  0.1212
 5750W        W15443  15.994   7.018  17.371 -0.2103  0.2780  0.4331
 5751W        W15444  10.918   0.294  17.321  0.1977 -0.1052 -0.0669
 5752W        W15445  15.061   6.107  16.997  0.1985 -0.1136 -0.2250
 5753W        W15446   2.393   6.082  16.978 -0.0206 -0.0886 -0.0342
 5754W        W15447   6.731  17.289   2.822 -0.1272 -0.0021  0.1838
 5755W        W15448  14.442  10.137   2.674 -0.1358 -0.1505  0.1351
 5756W        W15449  14.517   3.285  15.390  0.0852 -0.1512 -0.1902
 5757W        W15450  14.602   5.808  12.467 -0.2560  0.1456  0.0183
 5758W        W15451   3.881   7.851   1.884  0.2799  0.0983 -0.1776
 5759W        W15452  17.105   6.500  16.113 -0.1113 -0.1962  0.2989
 5760W        W15453  10.338  11.704   6.969  0.2058 -0.1291 -0.1960
 5761W        W15454  12.953   4.763   1.147  0.3584 -0.1753  0.1505
 5762W        W15455   3.617  13.718   1.847  0.3100  0.2080  0.1498
 5763W        W15456  12.159  17.276  12.690 -0.0532  0.1383 -0.0689
 5764W        W15457   4.659  13.416   4.007  0.0338  0.0492 -0.2586
 5765W        W15458   0.568   5.373  15.359 -0.3356 -0.3518 -0.1924
 5766W        W15459   0.353  14.485   2.990 -0.1198 -0.1525  0.0415
 5767W        W15460  14.714   0.901  14.614  0.2046  0.2672  0.1211
 5768W        W15461  11.704   1.018   1.790  0.0679 -0.0472  0.0091
 5769W        W15462  11.334   6.130   6.655 -0.1471  0.0114 -0.1575
 5770W        W15463   5.275   7.098  12.075 -0.1935  0.2431  0.2542
 5771W        W15464  16.833   2.635  13.282  0.0937 -0.0281  0.2214
 5772W        W15465   9.146  16.447   4.408 -0.3081 -0.0154 -0.2233
 5773W        W15466  12.227  11.333   3.767  0.1920 -0.6152  0.2900
 5774W        W15467   1.281   5.433  16.745  0.0404  0.4842  0.2963
 5775W        W15468  15.044  10.635  12.529 -0.1966 -0.0791  0.3129
 5776W        W15469   1.097   6.760   0.839  0.2409 -0.0003 -0.1014
 5777W        W15470   9.002  11.923  14.531 -0.2673 -0.2990 -0.0846
 5778W        W15471  12.796   1.351   4.999 -0.1690  0.0789  0.0423
 5779W        W15472  15.795  13.285   0.852 -0.0953 -0.0181  0.0997
 5780W        W15473   1.464   9.276   0.905 -0.3261 -0.0459 -0.0748
 5781W        W15474  17.637   6.205  17.029 -0.4616 -0.4554 -0.0107
 5782W        W15475   9.082   1.857   1.957  0.1256 -0.2647 -0.2315
 5783W        W15476   1.965  14.009   3.956 -0.0267 -0.0763 -0.0467
 5784W        W15477   1.504  12.769   6.037 -0.2310 -0.1109  0.1576
 5785W        W15478   4.686  12.682  10.795  0.0247  0.0180  0.2854
 5786W        W15479   7.098   2.674   3.157 -0.0488  0.0623 -0.1111
 5787W        W15480   7.678   2.795  14.669  0.0486 -0.0899  0.1505
 5788W        W15481   2.725   3.328   5.938 -0.0714  0.2814 -0.1509
 5789W        W15482  14.173   2.792  16.603 -0.0064  0.1490 -0.0177
 5790W        W15483  17.664  16.045   0.610 -0.0656 -0.2813 -0.0064
 5791W        W15484   7.745   5.119   4.215 -0.2453 -0.0702  0.0248
 5792W        W15485   2.577   7.116   3.500 -0.3115  0.2442 -0.0168
 5793W        W15486  16.140  10.387   1.433  0.0977 -0.0576  0.0885
 5794W        W15487  14.526  15.988  14.430  0.1271 -0.0994 -0.0140
 5795W        W15488  15.419   7.942   2.715  0.0483  0.1012  0.2954
 5796W        W15489  17.228   5.903  12.928  0.1170 -0.0862  0.1652
 5797W        W15490  15.039   8.839  13.785  0.1352 -0.1026 -0.1386
 5798W        W15491  12.379   3.201  12.635 -0.2135 -0.0501 -0.0280
 5799W        W15492   7.314  13.643   5.536  0.0904  0.0215 -0.0519
 5800W        W15493  13.904   8.640   0.423  0.2301 -0.0101  0.1142
 5801W        W15494  10.401   3.348   4.691  0.2679 -0.2983  0.0032
 5802W        W15495  11.827   4.259   2.072 -0.1966  0.0426 -0.1071
 5803W        W15496   1.883   5.720  16.037 -0.2141  0.0988  0.1073
 5804W        W15497  16.217   4.082   5.500 -0.0441  0.1596  0.2887
 5805W        W15498  16.257  14.141   3.698 -0.0943  0.0630 -0.0574
 5806W        W15499   5.217  14.263  16.229 -0.0472  0.0501 -0.0096
 5807W        W15500  11.153  15.808   2.112 -0.2675 -0.2577  0.0487
 5808W        W15501   4.466  16.592  15.819 -0.0879  0.1193 -0.0357
 5809W        W15502   4.807   8.675  16.758 -0.1060 -0.1599 -0.0433
 5810W        W15503  13.523  16.064   0.207  0.1111 -0.2292  0.0269
 5811W        W15504   5.977   4.768   1.331 -0.2915 -0.0495 -0.1492
 5812W        W15505  17.213   0.747   0.069 -0.0460 -0.3299  0.0204
 5813W        W15506   3.483   1.902  14.215  0.2830  0.0316  0.0751
 5814W        W15507  10.563   9.642   4.870 -0.1278  0.0862  0.0637
 5815W        W15508  12.768   1.327   2.531 -0.1260 -0.0660 -0.1643
 5816W        W15509  11.079   4.242   3.594  0.1747 -0.1081  0.1689
 5817W        W15510  11.646   2.976  13.560 -0.2037  0.1377 -0.1752
 5818W        W15511  12.083  17.457  12.148 -0.1383  0.2266  0.1198
 5819W        W15512   6.259  17.295   2.582  0.0855 -0.0850 -0.3565
 5820W        W15513   0.788   1.203   0.605  0.0020  0.0499 -0.1648
 5821W        W15514  11.923   9.266  13.290  0.0023 -0.0097 -0.2904
 5822W        W15515  16.613  13.042   0.191 -0.1177  0.0788  0.0684
 5823W        W15516  15.590  15.888   4.317  0.1186  0.1569 -0.3282
 5824W        W15517   3.281   1.147  16.980 -0.4238 -0.0250 -0.0052
 5825W        W15518   9.615  11.923  14.434  0.0525 -0.4250 -0.0723
 5826W        W15519   5.067   7.221   2.182  0.1236 -0.0120 -0.0341
 5827W        W15520   1.274   5.598  11.717  0.0279 -0.3419 -0.2370
 5828W        W15521   7.258  15.414  16.015  0.0745 -0.0079 -0.0534
 5829W        W15522  11.419   5.985   6.098 -0.3844  0.2050 -0.1697
 5830W        W15523  12.501   6.426  13.955  0.0533  0.0917 -0.2323
 5831W        W15524  15.161  14.262   5.503 -0.0225  0.0428 -0.4237
 5832W        W15525   8.023  13.613  16.039 -0.1614 -0.1312 -0.1137
 5833W        W15526   4.493  10.110  15.529 -0.1267  0.0576  0.2825
 5834W        W15527   5.286   6.231  16.820  0.0074 -0.0418  0.2044
 5835W        W15528   0.100  16.557   0.606 -0.2528  0.0811  0.1392
 5836W        W15529   3.842   0.790   3.207 -0.6033 -0.3347  0.1541
 5837W        W15530   5.600   2.527  12.011  0.1130 -0.0441 -0.0575
 5838W        W15531   2.735  16.715  13.645  0.1583 -0.5642  0.0025
 5839W        W15532   2.009  10.622   1.325 -0.0916  0.5259 -0.1236
 5840W        W15533  10.335   6.661   0.108 -0.0266  0.0576  0.1649
 5841W        W15534   2.045  17.111   3.071 -0.0499  0.3337 -0.1279
 5842W        W15535   3.601  10.109  13.612 -0.1633  0.3141  0.2184
 5843W        W15536   1.737   8.497  16.089  0.0897 -0.0446  0.0220
 5844W        W15537  10.681   7.704   2.367 -0.1247  0.1700 -0.1311
 5845W        W15538   0.963   3.227  14.258 -0.0872 -0.1763  0.0462
 5846W        W15539  14.069   0.789   6.210 -0.0803 -0.2852  0.1284
 5847W        W15540  13.962   5.866   0.904  0.0151 -0.2952  0.0717
 5848W        W15541  11.932   2.287  12.987  0.4323  0.0224  0.1470
 5849W        W15542   1.232   9.020   6.627 -0.2315  0.2095 -0.0386
 5850W        W15543  14.053   0.795  16.053  0.1750  0.1632  0.0494
 5851W        W15544  17.675  11.818  15.749  0.0738 -0.1117 -0.1583
 5852W        W15545   2.701   8.209   0.030  0.0187  0.1584  0.1184
 5853W        W15546   4.641   3.723  13.046  0.3089 -0.1356  0.1077
 5854W        W15547  16.562  13.733   4.639  0.0206  0.1014 -0.0909
 5855W        W15548   9.504  10.535   5.594 -0.0019  0.0954  0.0251
 5856W        W15549   0.730   6.132  11.008  0.1059 -0.0983  0.1838
 5857W        W15550   5.566  11.122   0.703 -0.2991 -0.1674 -0.0673
 5858W        W15551   7.537   0.794   5.961 -0.2562 -0.2577  0.0152
 5859W        W15552  15.647   3.316   2.937 -0.0984  0.1728  0.0286
 5860W        W15553  12.878  14.663   3.493 -0.1069 -0.1482  0.1866
 5861W        W15554   8.579  10.252  15.563 -0.1117  0.0136  0.1008
 5862W        W15555  11.107  11.691  17.426 -0.0279  0.1458  0.2144
 5863W        W15556  11.472  10.511   2.680  0.0343  0.3778 -0.1539
 5864W        W15557  13.856   4.386  14.313 -0.1607  0.1008 -0.2341
 5865W        W15558   0.924   9.439   0.101 -0.1283  0.2466  0.0664
 5866W        W15559   7.339  10.131   2.360 -0.2159  0.1594  0.2302
 5867W        W15560   0.687   0.055  16.806 -0.0696  0.0448  0.1275
 5868W        W15561   4.771   1.767  15.948  0.0425 -0.1090  0.1683
 5869W        W15562  15.338  14.683  12.333  0.1569  0.4311 -0.1118
 5870W        W15563  12.419  16.909  16.836 -0.1320 -0.1172 -0.0056
 5871W        W15564  10.989   0.003  13.104 -0.0357 -0.0483  0.0377
 5872W        W15565   7.580   1.409  14.467 -0.0361 -0.3616  0.0608
 5873W        W15566  13.990   8.152   1.807 -0.1358  0.1367  0.2032
 5874W        W15567  16.832   2.618  15.315 -0.0160 -0.0833 -0.0926
 5875W        W15568  16.434  15.369   0.168 -0.0077  0.1305  0.0442
 5876W        W15569  16.422  14.907   4.152  0.1752  0.0384 -0.2281
 5877W        W15570  12.504   2.398  15.801 -0.0856  0.1826  0.1957
 5878W        W15571   9.143  16.731   0.317 -0.0111 -0.1604 -0.0972
 5879W        W15572   9.285  11.704   0.678  0.1960 -0.1438 -0.2269
 5880W        W15573   9.079  14.951  14.637  0.2081  0.0803  0.1402
 5881W        W15574  11.922  11.538  16.696  0.3303 -0.1700 -0.1843
 5882W        W15575  14.598  16.652  12.775 -0.2831  0.1377  0.0542
 5883W        W15576  15.429   1.732  15.979  0.1152 -0.0399  0.1779
 5884W        W15577  14.802   9.772   2.501 -0.1723 -0.3544 -0.0341
 5885W        W15578   7.874  10.700   4.159 -0.2250  0.1632 -0.0854
 5886W        W15579  10.582   6.420   3.467 -0.0818 -0.0893  0.3851
 5887W        W15580   4.358  16.720  13.211  0.0595  0.0954 -0.0671
 5888W        W15581   8.579   6.907  14.790  0.0755 -0.1788 -0.0946
 5889W        W15582   4.579  11.174   1.158  0.2151 -0.0344 -0.0950
 5890W        W15583   7.275   7.634  11.825  0.1118 -0.0112 -0.0654
 5891W        W15584  11.293  15.150  14.208 -0.1335 -0.2408 -0.0689
 5892W        W15585   6.165   4.689  13.544 -0.0230  0.1005 -0.4192
 5893W        W15586   3.948   0.149  16.427 -0.0602 -0.0943  0.1167
 5894W        W15587  15.357   6.207  14.177 -0.2578  0.1874  0.0224
 5895W        W15588  16.492  13.965   1.744 -0.0535  0.1835 -0.0890
 5896W        W15589   0.556   2.766  14.253 -0.0037  0.0540 -0.2153
 5897W        W15590  14.212   9.118   3.278 -0.0336  0.1475 -0.0977
 5898W        W15591   7.284  15.249  16.502  0.2787  0.0692  0.0952
 5899W        W15592   5.616   2.838  15.749 -0.1291  0.0807  0.0656
 5900W        W15593  11.295  14.563  14.887 -0.0629 -0.1367 -0.2304
 5901W        W15594  10.145   3.130  13.962 -0.2188  0.2416  0.2262
 5902W        W15595   5.117   0.843  13.802  0.1525 -0.0973  0.1089
 5903W        W15596   4.572  11.311  11.691  0.2944 -0.3437  0.0198
 5904W        W15597  13.540   7.371  16.325  0.2779  0.1865 -0.0303
 5905W        W15598   5.650   8.079   5.727 -0.1118  0.0040 -0.1135
 5906W        W15599  13.410   1.398   3.286 -0.1720  0.1562 -0.1060
 5907W        W15600  14.067  13.167  17.605 -0.0098  0.3600 -0.0804
 5908W        W15601   9.494   4.312   5.750 -0.1241  0.2886 -0.0432
 5909W        W15602   6.048   6.975   6.019 -0.4788 -0.0772 -0.0654
 5910W        W15603  17.531  10.284  14.088 -0.0998 -0.1465  0.2192
 5911W        W15604  10.939  15.139  14.593 -0.1043 -0.0657  0.2527
 5912W        W15605  11.274   9.009  16.592  0.2522  0.1155  0.2243
 5913W        W15606   5.000  14.645  15.942  0.2464 -0.1429 -0.0603
 5914W        W15607   4.052  15.714  13.452  0.3027 -0.1668  0.0482
 5915W        W15608   4.817   3.302   2.756  0.0118  0.2536  0.0054
 5916W        W15609   5.198  15.488   0.046 -0.0621 -0.0591  0.0859
 5917W        W15610  11.308  11.540   3.827 -0.0699  0.1027 -0.1625
 5918W        W15611  17.258  16.042   6.701 -0.0944 -0.5490 -0.1628
 5919W        W15612  16.200  16.643   2.310  0.2803  0.1846 -0.0105
 5920W        W15613   9.990  16.847  14.989  0.0181 -0.2660 -0.2529
 5921W        W15614   2.979   1.531  14.754  0.1409 -0.4492 -0.0263
 5922W        W15615  15.988   6.068   3.929  0.1210 -0.1314  0.0426
 5923W        W15616  11.999   9.921  17.293 -0.0083 -0.1093  0.1058
 5924W        W15617   3.284   7.512  14.064 -0.5420 -0.1579 -0.0961
 5925W        W15618   8.597  12.786   2.627  0.1073  0.2337  0.1603
 5926W        W15619  16.665   3.661   2.473 -0.0844  0.1902 -0.3986
 5927W        W15620  12.563  15.634  12.396  0.0070 -0.1391  0.2014
 5928W        W15621  15.865   8.833   0.106 -0.1097 -0.0598 -0.1486
 5929W        W15622   6.994   7.407  17.623  0.0015  0.3035 -0.0608
 5930W        W15623   8.345  10.405  13.693 -0.1208  0.2380 -0.0716
 5931W        W15624   1.380  15.321  13.067 -0.2319  0.0220  0.1925
 5932W        W15625  10.193   1.241  14.256 -0.0700  0.2290 -0.1920
 5933W        W15626   6.072  14.254  16.897  0.0978 -0.2124 -0.1372
 5934W        W15627   0.992   1.109  12.496  0.1921  0.2339 -0.0542
 5935W        W15628   0.183   4.071   2.920  0.3178 -0.1969 -0.1075
 5936W        W15629   3.814   3.251   4.685  0.1491  0.0822 -0.2434
 5937W        W15630   7.135  11.707   5.041  0.3365 -0.2955  0.1518
 5938W        W15631   6.938  17.536  15.005 -0.0750  0.1884 -0.0683
 5939W        W15632   1.030   7.844   0.137  0.1553  0.0245  0.3229
 5940W        W15633  14.445  12.505   2.649 -0.0835  0.1138  0.0464
 5941W        W15634  17.649   0.945  17.561 -0.1101 -0.2205  0.0570
 5942W        W15635   8.681  12.360  16.136 -0.1894  0.1404 -0.3011
 5943W        W15636  16.800   9.261   5.141  0.1383  0.0807 -0.3549
 5944W        W15637   3.554   5.951   2.510 -0.2803 -0.0517 -0.0320
 5945W        W15638   8.635   9.314  11.258  0.0506 -0.1431 -0.0425
 5946W        W15639  13.040   4.968   2.329  0.0805 -0.0891  0.0773
 5947W        W15640   0.750   5.026  12.792  0.2205  0.1784  0.2174
 5948W        W15641   8.555   2.618  13.362 -0.0326 -0.1420 -0.1353
 5949W        W15642   3.262  10.909   2.550  0.0154  0.2506  0.2765
 5950W        W15643   3.870   6.546   3.165 -0.1156 -0.1646  0.1727
 5951W        W15644   5.361   9.074  13.808  0.0016  0.0444 -0.0909
 5952W        W15645  13.372  13.251  14.684  0.1766 -0.3597  0.1549
 5953W        W15646  16.746   1.067  13.190 -0.0840 -0.1809  0.2217
 5954W        W15647   5.401  11.043  12.553  0.2931 -0.3391  0.0653
 5955W        W15648  17.405  16.381   5.954 -0.0134  0.0062  0.2284
 5956W        W15649  15.080  17.506  17.529 -0.0133 -0.0685 -0.0792
 5957W        W15650   7.513   8.219   0.223  0.0126  0.1446 -0.0398
 5958W        W15651  12.316   4.277  12.561  0.0230  0.0142 -0.0199
 5959W        W15652  17.269  14.753  14.864 -0.1032  0.1373 -0.2437
 5960W        W15653   3.130   7.683  15.968 -0.3946  0.0459 -0.0995
 5961W        W15654  12.821  13.342   0.646 -0.1526 -0.1143 -0.0819
 5962W        W15655  14.860   2.808  11.906  0.3610  0.2951 -0.2032
 5963W        W15656   2.212   3.990  13.115  0.0056 -0.0347  0.0602
 5964W        W15657  10.741   7.445   5.229 -0.1136 -0.1701 -0.0642
 5965W        W15658   9.234   7.011  15.838 -0.0379 -0.0044 -0.1375
 5966W        W15659   9.788   7.063  15.856 -0.0581  0.0250 -0.2174
 5967W        W15660  10.105  15.804  17.373  0.1322 -0.2212 -0.2171
 5968W        W15661   9.666  15.141   5.840  0.2939  0.1728 -0.4060
 5969W        W15662   9.755  16.161  13.349 -0.0492 -0.3533 -0.0528
 5970W        W15663   1.535  13.049  13.955  0.1854 -0.0874 -0.0239
 5971W        W15664  15.431  13.689  16.204  0.4114  0.2170 -0.1740
 5972W        W15665   5.315   8.674   5.064 -0.1249  0.2268 -0.2216
 5973W        W15666   6.307   9.340   4.156 -0.1153  0.2628  0.1347
 5974W        W15667   0.907  12.821  11.686 -0.3920  0.0701 -0.0693
 5975W        W15668  12.641  17.405  16.993 -0.1704  0.2822  0.3178
 5976W        W15669  10.266   4.219   5.267  0.0896  0.2003 -0.0436
 5977W        W15670  12.912   3.248  16.379 -0.0746 -0.2354  0.2656
 5978W        W15671   2.556   2.804   5.189 -0.1257  0.0274  0.1944
 5979W        W15672  13.094  16.390   5.177 -0.0418 -0.1597 -0.0456
 5980W        W15673   8.902  13.225  13.935 -0.2781  0.3164  0.1801
 5981W        W15674   5.582  11.908   2.005 -0.1809  0.0476  0.0652
 5982W        W15675  16.570   9.743  15.476  0.0578 -0.1565 -0.2890
 5983W        W15676  10.232  15.290  13.597  0.1482  0.1602 -0.0923
 5984W        W15677   7.740  15.292  16.717  0.0392 -0.1318  0.4447
 5985W        W15678   4.988  14.194  13.621 -0.0328 -0.2709 -0.2091
 5986W        W15679  11.266   3.655  14.951  0.3530  0.1309 -0.0371
 5987W        W15680   7.479   7.525  16.694  0.0547 -0.1224  0.0032
 5988W        W15681  10.747   6.682   6.168 -0.0430  0.1835 -0.0530
 5989W        W15682   1.431   4.307  11.590  0.2061  0.1739 -0.0142
 5990W        W15683   6.982  11.943  13.822 -0.1626  0.2419 -0.6897
 5991W        W15684   0.063  12.949  14.397  0.1566 -0.1594 -0.0983
 5992W        W15685  16.605   8.143   2.826 -0.2506  0.2041  0.1450
 5993W        W15686  15.541   5.494   0.929 -0.2727 -0.0168  0.1869
 5994W        W15687   3.392  14.249   4.119 -0.1145 -0.0652  0.0700
 5995W        W15688   1.293  17.234  16.170 -0.0030  0.1524  0.0545
 5996W        W15689   1.954  12.572  16.452  0.0498  0.1621  0.1364
 5997W        W15690  14.002  16.392   4.659  0.3618  0.1340  0.1616
 5998W        W15691   7.760   3.913  11.306  0.3120  0.0138  0.2746
 5999W        W15692   2.011   0.261   1.510 -0.1094  0.2710  0.0112
 6000W        W15693   5.681   7.103   5.353  0.1537  0.0619 -0.0097
 6001W        W15694   1.133  15.102   2.901  0.0806  0.0691  0.0131
 6002W        W15695   7.136  16.699  17.077 -0.1939 -0.0105  0.0319
 6003W        W15696   3.955   2.612  17.668 -0.1328 -0.1283  0.0033
 6004W        W15697   5.096   7.787  17.535 -0.1332 -0.1612 -0.1592
 6005W        W15698   0.318   8.570  13.175 -0.5317  0.3858 -0.0466
 6006W        W15699   3.209   2.895  12.381 -0.0370 -0.2904  0.0914
 6007W        W15700   6.076   5.125  13.945  0.0951 -0.1166 -0.2526
 6008W        W15701   8.332  11.237   3.699  0.0811  0.2909  0.0694
 6009W        W15702   3.024   1.035   2.248 -0.0156  0.1744  0.1035
 6010W        W15703   3.099  11.588   2.865  0.3709  0.0575  0.1323
 6011W        W15704   6.179  15.573   5.393 -0.0842 -0.1343  0.1295
 6012W        W15705   2.133   6.686   5.211  0.0922 -0.0286 -0.0288
 6013W        W15706   5.915  11.048   3.439 -0.3266 -0.3985 -0.4964
 6014W        W15707   1.206   8.024  16.791  0.1058  0.0723 -0.4710
 6015W        W15708  14.002   2.821  12.808  0.3286 -0.4137 -0.2884
 6016W        W15709  11.384   6.303  17.407  0.2086 -0.2384  0.2335
 6017W        W15710   6.765   4.526  14.588  0.1202 -0.1159 -0.1581
 6018W        W15711  14.572   8.903  14.920  0.0787  0.1637 -0.0922
 6019W        W15712   0.430  14.275  14.318 -0.1107  0.1564 -0.3925
 6020W        W15713   3.613  16.700  12.267  0.1488  0.1435  0.0571
 6021W        W15714   0.046  12.784  17.185 -0.1204  0.0898  0.2873
 6022W        W15715  11.546   0.171   3.116 -0.0597 -0.0889  0.4006
 6023W        W15716  11.285  11.236   0.788 -0.0756  0.3190  0.0906
 6024W        W15717   0.479   0.082   5.455  0.0562 -0.2494  0.0115
 6025W        W15718   1.615   0.612   6.757  0.0365  0.4057 -0.0517
 6026W        W15719   1.138   4.441  15.788 -0.1515  0.1946  0.1165
 6027W        W15720   9.040  11.942  16.970 -0.0506 -0.1429 -0.0272
 6028W        W15721  17.617   0.828  13.649 -0.0235 -0.0468 -0.2399
 6029W        W15722  13.162   9.676   2.229 -0.2610 -0.0528 -0.0630
 6030W        W15723  14.750  14.055  15.297  0.0253 -0.1175  0.3074
 6031W        W15724  10.662  12.032   4.803 -0.0778 -0.4268  0.2826
 6032W        W15725   7.467   1.537   0.449 -0.3648 -0.1192 -0.1200
 6033W        W15726  11.744   8.027  13.639 -0.0611 -0.5736 -0.1954
 6034W        W15727  12.672   6.620   3.096 -0.2732  0.0495  0.1225
 6035W        W15728   8.182   9.103  14.236  0.0259 -0.3760  0.1595
 6036W        W15729  11.176   9.698   0.099  0.0529  0.0444 -0.0200
 6037W        W15730   7.841  13.970   4.274 -0.0754 -0.3947  0.4303
 6038W        W15731  12.913   6.481   5.165  0.1057 -0.2677  0.0293
 6039W        W15732  17.639   9.327  16.696 -0.3011 -0.1232  0.3113
 6040W        W15733  17.277   1.714  11.138  0.0620 -0.2660 -0.0118
 6041W        W15734  13.759   1.578   4.573  0.1381  0.0549  0.1200
 6042W        W15735   3.685   6.411   1.666  0.0256  0.2703 -0.2725
 6043W        W15736  15.739   5.804  15.667 -0.0413 -0.0119 -0.0299
 6044W        W15737  11.044  13.753   0.486 -0.2028 -0.0491  0.0163
 6045W        W15738   4.700  16.868   6.346 -0.0189 -0.0051 -0.0338
 6046W        W15739  13.493  12.438   3.158  0.0501 -0.1642 -0.0439
 6047W        W15740   9.967  14.067  15.129  0.0926  0.1653 -0.0254
 6048W        W15741   8.851  16.342   1.164  0.1037 -0.2933 -0.0220
 6049W        W15742   0.527   8.043  15.448  0.2249  0.1608 -0.1265
 6050W        W15743  11.232   7.564   3.777  0.1652 -0.1110  0.1821
 6051W        W15744   6.682  13.155  13.095 -0.0303  0.3731 -0.2885
 6052W        W15745   9.553   5.306  16.814  0.0436 -0.1155 -0.1036
 6053W        W15746  15.747   1.353  17.184  0.1978 -0.1270 -0.3661
 6054W        W15747  15.738   0.353   5.821  0.0768 -0.0874  0.0832
 6055W        W15748  15.154   1.388  12.864  0.2408  0.3848  0.2833
 6056W        W15749   9.403   2.117   1.174 -0.0256  0.1799 -0.2904
 6057W        W15750   8.828   0.726  12.833  0.1342 -0.3610 -0.0063
 6058W        W15751   2.285   8.837   4.101  0.1380 -0.4039  0.0895
 6059W        W15752  10.534  15.593  15.912  0.0584  0.0015  0.3354
 6060W        W15753   6.544  12.338  16.461 -0.2452 -0.1169  0.0942
 6061W        W15754  14.405  10.990   3.223 -0.3792  0.1930  0.1734
 6062W        W15755   7.808   1.373  15.167 -0.2144 -0.3389  0.0529
 6063W        W15756   6.937   0.642  13.189 -0.1512  0.0484  0.1913
 6064W        W15757   7.034   2.604  15.352  0.3920  0.1866  0.0471
 6065W        W15758   3.142  10.366   3.543  0.0658 -0.1679 -0.1559
 6066W        W15759  13.660   7.012  13.539  0.0270 -0.0510 -0.1700
 6067W        W15760  15.017  14.606  12.714 -0.0964  0.0073  0.2947
 6068W        W15761  10.997   8.709  16.974  0.0533  0.1453 -0.2996
 6069W        W15762  13.904   4.257   2.830 -0.1918  0.2925  0.0773
 6070W        W15763   0.967  16.784  12.567 -0.1446 -0.1808  0.1470
 6071W        W15764   5.539  13.080   1.761 -0.0311 -0.1385  0.3505
 6072W        W15765   0.780   4.705   2.507 -0.1382  0.0595 -0.0348
 6073W        W15766   0.538   6.597   3.695 -0.0376 -0.1223  0.1008
 6074W        W15767  16.264   5.972   6.379  0.2439 -0.2799 -0.2102
 6075W        W15768   0.469   7.330  14.478 -0.1329  0.0755 -0.1344
 6076W        W15769   5.244  11.917   3.136 -0.0626 -0.0486  0.0879
 6077W        W15770   5.743   2.427   5.487 -0.2705  0.3151  0.3807
 6078W        W15771  12.267   4.657   3.404  0.0004  0.1897  0.0442
 6079W        W15772  11.894  17.486   3.578  0.0368  0.2093  0.1312
 6080W        W15773  17.587   0.038  15.826 -0.1519  0.0294  0.1380
 6081W        W15774   5.404   0.178   2.865 -0.0055 -0.0134 -0.1423
 6082W        W15775   7.696   2.169   2.578 -0.1273  0.1022  0.0889
 6083W        W15776   7.600   1.509   5.072 -0.2376  0.0183 -0.1185
 6084W        W15777  15.424  13.535  17.445 -0.0872  0.2380  0.1286
 6085W        W15778   1.520  14.649  11.870 -0.1321 -0.2091  0.3318
 6086W        W15779  16.597   8.651   0.841  0.1096 -0.1202 -0.1451
 6087W        W15780  12.926   1.539   3.400 -0.3419  0.4824  0.0150
 6088W        W15781   4.562  16.558   0.009 -0.3988 -0.2478  0.0098
 6089W        W15782   9.007   9.607   3.182  0.2572  0.0610 -0.1788
 6090W        W15783  11.362   0.727   1.928 -0.0900 -0.0415 -0.2522
 6091W        W15784   6.643  14.682  12.212 -0.0411  0.0024 -0.2820
 6092W        W15785  10.998   2.326  15.626 -0.1202  0.4669 -0.3188
 6093W        W15786  11.606  16.455   0.398  0.2814  0.0288 -0.2148
 6094W        W15787   5.544  10.291  16.464 -0.1359  0.3784 -0.1102
 6095W        W15788  13.045  10.108   6.609 -0.0842  0.5646  0.1376
 6096W        W15789   8.371   7.860  11.755  0.0176  0.1421 -0.2665
 6097W        W15790   7.500  14.038   4.651  0.2374 -0.2452  0.0037
 6098W        W15791  16.612  12.808  15.967  0.0077  0.0981 -0.0801
 6099W        W15792   8.982   7.498   5.877  0.0283  0.5160  0.0861
 6100W        W15793   3.570  15.030   3.582 -0.1261 -0.0736  0.3285
 6101W        W15794  11.877  13.451  13.751 -0.0753  0.4380  0.0192
 6102W        W15795  16.888   4.420   0.257 -0.0534  0.0901  0.0970
 6103W        W15796   1.205   7.229  11.741  0.0026  0.1527  0.4147
 6104W        W15797  15.986   2.856   1.818  0.0647  0.2625 -0.0809
 6105W        W15798  11.464   5.206  16.875  0.2018 -0.2498 -0.0553
 6106W        W15799   0.746  12.437   6.418  0.0604  0.0536 -0.0794
 6107W        W15800   8.857  11.812  16.245  0.3642 -0.0574  0.2800
 6108W        W15801   1.303   6.436  14.909  0.0320  0.1244  0.3029
 6109W        W15802   7.957  13.635  13.969 -0.1077 -0.3247 -0.0788
 6110W        W15803  12.938  10.009   5.086 -0.1436 -0.3482  0.2549
 6111W        W15804  13.903  15.399   3.572 -0.1388  0.2361 -0.1170
 6112W        W15805   4.165   6.397   4.604  0.0918  0.1445  0.0065
 6113W        W15806   6.964  15.531  12.496  0.0088 -0.0353 -0.1402
 6114W        W15807   1.282  17.326  14.881  0.2380 -0.2638 -0.1144
 6115W        W15808  12.804  12.744   4.033 -0.0245  0.3514  0.1145
 6116W        W15809  16.716  11.385  12.305  0.0405 -0.3346 -0.2342
 6117W        W15810   3.088  17.416   3.010  0.1007 -0.4034 -0.0347
 6118W        W15811  11.816   6.495  14.989  0.0873 -0.2002 -0.4411
 6119W        W15812   9.195   2.275  12.949 -0.1054 -0.0723 -0.1009
 6120W        W15813  11.468  13.171  12.604  0.3749 -0.1021 -0.0168
 6121W        W15814   5.227   5.212   0.347  0.1970  0.0524  0.1502
 6122W        W15815   1.101  11.722   2.754 -0.2834  0.0917  0.2632
 6123W        W15816   2.573   5.412   0.241  0.1251 -0.1127 -0.3795
 6124W        W15817   4.210  17.651  10.911 -0.0159 -0.0422  0.0689
 6125W        W15818   9.433   6.835   5.333 -0.1362 -0.2502  0.0386
 6126W        W15819  11.251   5.284  12.985  0.0694 -0.2636 -0.1153
 6127W        W15820  17.341  15.168  12.270 -0.2562  0.0765  0.2117
 6128W        W15821  11.945   7.219   6.311 -0.2759  0.2415 -0.1656
 6129W        W15822  10.401   1.249  14.979  0.0231 -0.1373  0.0427
 6130W        W15823   4.644  14.428   5.106  0.2143  0.2164 -0.0843
 6131W        W15824  15.332  14.678   2.971  0.1392 -0.0168  0.3821
 6132W        W15825   7.661   3.769   2.442  0.3642  0.1174 -0.2057
 6133W        W15826   9.263   1.013  12.623 -0.1055 -0.0386  0.1674
 6134W        W15827   7.141   1.873  12.808  0.0020 -0.0593 -0.0987
 6135W        W15828  11.438  12.752   1.802 -0.0998  0.2021 -0.0848
 6136W        W15829   0.706   8.060  12.031  0.0772 -0.1752  0.4226
 6137W        W15830   7.893   7.624   1.046 -0.1499 -0.1697  0.1151
 6138W        W15831  13.656  15.973  14.543 -0.0745 -0.1839  0.2509
 6139W        W15832  16.938   2.588  10.804 -0.2340 -0.4448  0.0228
 6140W        W15833  14.462   6.244  16.299 -0.0612  0.2862  0.2420
 6141W        W15834  16.007  12.287   7.234 -0.0271 -0.0626  0.0924
 6142W        W15835   9.647  12.884   1.604 -0.1367  0.1234  0.3486
 6143W        W15836  15.380   7.395   0.921  0.4010 -0.0508 -0.0086
 6144W        W15837  10.378  12.535   1.559 -0.2404  0.3319 -0.0891
 6145W        W15838   5.675   6.667  15.657  0.1911  0.3960 -0.1156
 6146W        W15839   6.679   3.575   4.441 -0.1905 -0.1375 -0.0990
 6147W        W15840   7.903   5.855  11.955  0.2233 -0.1485 -0.2969
 6148W        W15841   3.354  13.666   3.764 -0.1518 -0.2310  0.5120
 6149W        W15842  12.602   4.593   0.337  0.2635 -0.1809  0.1554
 6150W        W15843  17.571   3.639   0.375  0.1539  0.0103 -0.2111
 6151W        W15844  13.210   8.220   4.969  0.1349 -0.1827  0.2591
 6152W        W15845   3.929   8.006  13.818  0.2267 -0.0468 -0.1566
 6153W        W15846   5.524  13.335  15.988 -0.0809  0.0161 -0.2186
 6154W        W15847   6.391  15.122   1.613 -0.2545 -0.1709 -0.0208
 6155W        W15848  14.996   8.573  12.936 -0.3087 -0.1071 -0.0493
 6156W        W15849   7.903   4.458   5.454 -0.0873 -0.0874  0.1806
 6157W        W15850   0.098  13.571  12.888 -0.0214 -0.0755 -0.0103
 6158W        W15851  12.253  16.151  12.514 -0.4077  0.0052 -0.1494
 6159W        W15852   6.958   1.419   1.626 -0.3485 -0.1314 -0.1730
 6160W        W15853  14.400  15.913  12.110  0.2288 -0.1333  0.1659
 6161W        W15854  13.966   4.847  13.186  0.1879 -0.2714  0.1298
 6162W        W15855   8.583  16.695  17.688  0.3900  0.2986 -0.0234
 6163W        W15856  15.852   3.958   4.655  0.0546 -0.0187 -0.2153
 6164W        W15857  14.914   7.549  12.009  0.0071  0.1425 -0.0677
 6165W        W15858  16.285   2.535  11.685  0.3237  0.0444  0.0806
 6166W        W15859   2.281  16.633   5.068 -0.0464  0.3563 -0.2196
 6167W        W15860   6.714   1.601   1.173 -0.0505 -0.0193  0.1619
 6168W        W15861   6.852   5.348  15.954 -0.2367 -0.2076 -0.3275
 6169W        W15862   3.801   1.108  11.489  0.0486  0.3800 -0.2561
 6170W        W15863   9.107   7.100  13.409  0.0982 -0.0183  0.1015
 6171W        W15864  11.101   1.226   0.493  0.0086 -0.0419  0.0963
 6172W        W15865   1.563  12.280   4.241  0.0007  0.1860  0.2911
 6173W        W15866  14.631   2.705  13.260  0.0321 -0.0875  0.0508
 6174W        W15867  11.174   1.564  12.051 -0.1290 -0.0702  0.0399
 6175W        W15868   0.384  12.425  15.149 -0.2464 -0.0433  0.0244
 6176W        W15869  17.102   3.888   1.445 -0.3352  0.0962  0.0678
 6177W        W15870   0.280  16.208  12.233  0.0728  0.1177  0.1245
 6178W        W15871  14.202  11.723  15.379  0.0492 -0.0578  0.0719
 6179W        W15872  16.534  16.236  15.186  0.0814 -0.0713  0.0227
 6180W        W15873  17.050  16.266   5.209  0.2143  0.4299  0.1090
 6181W        W15874   1.762  14.395   0.886  0.2308  0.0659 -0.0304
 6182W        W15875  12.198  12.804   4.024  0.1402  0.2050 -0.0929
 6183W        W15876  14.323  13.625  17.012 -0.0072 -0.0746 -0.1056
 6184W        W15877  14.416   2.837  16.047  0.0838 -0.0430 -0.1019
 6185W        W15878   1.143   8.021  12.981 -0.1219  0.5233  0.2884
 6186W        W15879  11.657   2.254  14.942  0.0054  0.1261 -0.0920
 6187W        W15880  11.427   7.119  15.988 -0.1594 -0.4108  0.1778
 6188W        W15881   3.049   5.316  14.879  0.0348  0.0309 -0.2693
 6189W        W15882   4.293   0.813   1.642  0.2695 -0.3841 -0.2702
 6190W        W15883  14.366   0.340   3.717  0.3395 -0.4422 -0.1762
 6191W        W15884  13.092   2.441   0.732 -0.3835  0.3693  0.0253
 6192W        W15885   4.079   4.858   4.907 -0.2750 -0.1643 -0.0512
 6193W        W15886  14.829  14.029  13.235  0.0152 -0.3646  0.3225
 6194W        W15887  12.575  14.485  11.478 -0.3581 -0.3454  0.1047
 6195W        W15888   6.221   9.713   5.365 -0.0776  0.3748 -0.0079
 6196W        W15889   4.050   0.620   3.734 -0.0278 -0.0522  0.2047
 6197W        W15890  13.326   6.173  13.272 -0.1515  0.2916 -0.0826
 6198W        W15891   5.362   4.015  12.203  0.2623  0.1671 -0.0550
 6199W        W15892   2.434   3.500   3.715  0.0570  0.0706 -0.0880
 6200W        W15893  15.247  12.006   1.583 -0.1916  0.1113  0.2026
 6201W        W15894  16.049   1.831  15.285 -0.5380  0.0472 -0.1392
 6202W        W15895  16.875   2.487   0.395 -0.0016 -0.0133 -0.0012
 6203W        W15896   0.285  13.248   0.258  0.0878  0.0188  0.0126
 6204W        W15897  15.297   0.212  16.158  0.2605 -0.0622 -0.2828
 6205W        W15898  13.698   1.210  14.551 -0.2883  0.0155 -0.3272
 6206W        W15899  11.507   3.801  11.616 -0.0156  0.0926  0.1441
 6207W        W15900  15.864   3.889  13.424  0.2889  0.1245 -0.1516
 6208W        W15901  12.306  10.142  16.963  0.1121 -0.1335 -0.1584
 6209W        W15902  14.822   7.898   1.414 -0.1078  0.0952 -0.1453
 6210W        W15903  13.487  15.144   0.122  0.1634  0.1351  0.2920
 6211W        W15904   7.867  14.481   1.026 -0.1010  0.0329  0.3903
 6212W        W15905  17.186  16.839  17.289 -0.1434 -0.0795 -0.2404
 6213W        W15906  11.489  16.626  15.104 -0.0834  0.0529 -0.2659
 6214W        W15907   7.896   4.622   2.161 -0.3585  0.0637 -0.1552
 6215W        W15908  15.378   8.947  12.912 -0.1885  0.0091  0.1955
 6216W        W15909   4.543  10.978  12.402 -0.2802 -0.0650  0.0058
 6217W        W15910   4.014   1.270   6.517  0.0683  0.1489 -0.0138
 6218W        W15911  16.137  10.342   0.895  0.3818  0.1828 -0.0307
 6219W        W15912   8.325  14.878  13.539 -0.1286  0.0580 -0.1218
 6220W        W15913  10.107  12.793  17.317 -0.0505 -0.2819  0.0363
 6221W        W15914   5.702  10.613   4.546  0.1234  0.0284  0.0572
 6222W        W15915   6.458   5.318  14.146 -0.0891 -0.0420 -0.0296
 6223W        W15916   6.963  15.235  13.722  0.1609 -0.0757  0.1737
 6224W        W15917  13.710  14.715   1.591 -0.0789 -0.0336  0.4758
 6225W        W15918   3.287   1.897  12.445  0.2223  0.0771 -0.1560
 6226W        W15919  15.573   4.773  14.294  0.0747  0.1812 -0.3899
 6227W        W15920   4.627   2.912  16.012  0.0322  0.4236 -0.4011
 6228W        W15921  15.983   1.381   4.566  0.3054 -0.1870  0.0137
 6229W        W15922  15.528  16.814   0.020 -0.2258  0.0937 -0.3719
 6230W        W15923   1.705   6.801   3.495  0.2109 -0.0050 -0.0391
 6231W        W15924  13.840  12.163  14.799  0.1810  0.3691 -0.1878
 6232W        W15925   5.578   5.464   0.543 -0.2941 -0.0840  0.2680
 6233W        W15926   0.422  12.668  12.817 -0.4241 -0.0652  0.2857
 6234W        W15927   2.977  11.509  15.931 -0.2004  0.1007  0.0772
 6235W        W15928   9.840  11.414  16.294  0.0661 -0.1734 -0.3289
 6236W        W15929  11.225   6.628   2.524  0.0738  0.0614 -0.0843
 6237W        W15930   0.983  12.893  17.523 -0.1681  0.1413 -0.0490
 6238W        W15931   0.154  14.785   1.548  0.2260 -0.0540  0.2078
 6239W        W15932  17.309  16.183  13.129 -0.1752 -0.0808  0.0457
 6240W        W15933   3.436   8.237  12.223  0.0808 -0.3515 -0.1253
 6241W        W15934   5.132  11.442  15.917 -0.0135 -0.1499 -0.1091
 6242W        W15935   6.146  12.849   4.967 -0.3371 -0.2155  0.3784
 6243W        W15936   8.232   4.506   5.072  0.2226 -0.4391 -0.4236
 6244W        W15937  11.720   2.284   4.567  0.0420 -0.0988  0.0747
 6245W        W15938   7.656   7.021  15.006 -0.0336 -0.1460  0.1449
 6246W        W15939   3.215   9.067  14.285  0.0347 -0.0396  0.1510
 6247W        W15940  10.212   3.110  14.887  0.1180 -0.1225  0.1424
 6248W        W15941   0.077  11.402   3.378 -0.2346 -0.1440  0.1538
 6249W        W15942  12.636   8.758   1.569  0.1208  0.4080 -0.2315
 6250W        W15943  15.375   1.560   1.899  0.2802  0.0294  0.0196
 6251W        W15944   2.873   9.548   4.049 -0.3700 -0.0226 -0.0809
 6252W        W15945   5.767  10.157  11.690 -0.1502  0.1442  0.1024
 6253W        W15946  13.613   0.704  14.547 -0.3448 -0.0447  0.2958
 6254W        W15947   0.156   8.315   4.528 -0.0789 -0.1460 -0.2162
 6255W        W15948   2.189   1.567   5.214  0.1683  0.1193  0.0234
 6256W        W15949  11.007  10.446   3.448 -0.2101  0.1772  0.1551
 6257W        W15950   6.850   4.941   2.825 -0.0689 -0.0846 -0.2418
 6258W        W15951  14.245   7.871  14.942  0.0490 -0.1869  0.2276
 6259W        W15952   3.075  17.329  13.401  0.1306  0.2688  0.0396
 6260W        W15953  15.955   9.485  16.899  0.1066  0.0681 -0.2394
 6261W        W15954   8.534   5.739   4.400 -0.3771  0.1779  0.1115
 6262W        W15955   8.761   7.541  12.765 -0.0477 -0.0791  0.0823
 6263W        W15956  11.734   3.763  12.051 -0.1556 -0.2752 -0.0570
 6264W        W15957  11.021   7.325  15.755 -0.2042  0.0988 -0.0815
 6265W        W15958   8.837   1.210   3.367 -0.1198  0.1410 -0.2486
 6266W        W15959   8.613   9.530   5.198 -0.1388 -0.0682  0.0291
 6267W        W15960   6.454  11.203  17.081  0.3414  0.1869 -0.2404
 6268W        W15961   6.544  11.711   6.437 -0.0746 -0.2202  0.2219
 6269W        W15962   6.817  12.502  16.894 -0.1250  0.0393  0.0652
 6270W        W15963   6.936   5.869  17.489 -0.1081  0.1868 -0.2233
 6271W        W15964  10.409   6.367  13.848  0.0299 -0.1891  0.1027
 6272W        W15965   2.788  13.914   1.490  0.3343  0.3305  0.3597
 6273W        W15966   2.288  14.180   2.825 -0.0086 -0.0114 -0.3675
 6274W        W15967  16.027   5.577  14.813  0.0284  0.2023 -0.0278
 6275W        W15968  11.556   0.722   5.102  0.1555 -0.1883  0.3774
 6276W        W15969  10.469  14.118   5.197  0.1370  0.0939  0.1795
 6277W        W15970  14.720   3.611  12.879  0.1328 -0.2961  0.0484
 6278W        W15971  13.115  17.582  15.867  0.0218 -0.2659  0.1288
 6279W        W15972   8.455   0.523  15.923  0.3031  0.0425 -0.4181
 6280W        W15973   3.182  12.891   4.505  0.0612 -0.1152  0.3252
 6281W        W15974   2.298   3.874   2.578 -0.2754  0.0993  0.0001
 6282W        W15975  10.349   4.859   5.217 -0.1997 -0.0293 -0.2648
 6283W        W15976  14.780   9.607   2.948 -0.3131  0.0847 -0.3381
 6284W        W15977   7.359   5.136  16.779 -0.0254  0.1435 -0.0476
 6285W        W15978  15.519   8.277  15.967  0.0887  0.2639 -0.0302
 6286W        W15979  17.244  13.094  14.395 -0.1251  0.0989  0.1866
 6287W        W15980   3.581  10.152   2.046  0.2989  0.3143  0.0512
 6288W        W15981   9.731  11.289  13.120 -0.1042 -0.0263 -0.0882
 6289W        W15982   2.425  14.264  13.992  0.4609 -0.1212 -0.3222
 6290W        W15983   7.308  13.312  12.843 -0.0523  0.2572 -0.1252
 6291W        W15984   3.741   2.586  16.622  0.0574  0.0888 -0.1970
 6292W        W15985  10.338   8.625  14.181  0.0280 -0.3697 -0.3141
 6293W        W15986  16.103  14.128  12.425  0.1606  0.2778  0.0449
 6294W        W15987   0.384  16.905   2.047 -0.0119 -0.4510 -0.1763
 6295W        W15988   2.616   8.748   5.560  0.1064 -0.0503  0.0799
 6296W        W15989   7.706   0.662  14.189  0.1024 -0.0103  0.0103
 6297W        W15990   3.271  10.325   4.886 -0.0683  0.2414 -0.2036
 6298W        W15991  16.834   6.348  14.898 -0.1711 -0.1652 -0.2007
 6299W        W15992   7.919  15.859   0.965  0.3862 -0.0277  0.0809
 6300W        W15993   2.092  17.605  15.931 -0.1586 -0.0851 -0.0283
 6301W        W15994   0.428   6.500  14.061 -0.2071  0.0533 -0.0498
 6302W        W15995  16.433  11.355  14.689  0.0176 -0.0776 -0.0417
 6303W        W15996  14.324   0.798   4.043  0.2976  0.2265 -0.1336
 6304W        W15997   2.472  16.388   3.487 -0.1209 -0.0308  0.1394
 6305W        W15998   5.051  12.316   5.730  0.1068 -0.3999  0.3199
 6306W        W15999  14.831   6.008  14.308 -0.0044  0.1487  0.2665
 6307W        W16000  12.576   9.609   3.060 -0.0217  0.0002 -0.2651
 6308W        W16001  13.349   0.003  14.983  0.1871  0.2289  0.0149
 6309W        W16002   9.718  13.728  12.948 -0.0124 -0.3165 -0.2047
 6310W        W16003   3.906   1.812   1.448  0.0931 -0.0441  0.0637
 6311W        W16004   1.592  10.322  14.267  0.3201  0.3493 -0.2484
 6312W        W16005   9.924   3.785  15.437 -0.1106 -0.0535 -0.0406
 6313W        W16006   1.027   1.100   4.714 -0.0766  0.1257 -0.1938
 6314W        W16007  12.319  13.651   0.064 -0.2384  0.0794  0.0137
 6315W        W16008  13.086  10.802   3.747  0.1069 -0.1335  0.0283
 6316W        W16009   2.925   3.853   3.749  0.1001 -0.0928  0.1642
 6317W        W16010   0.799   2.501   2.476  0.0702  0.0612  0.0248
 6318W        W16011   3.030  17.047  13.797  0.0170 -0.2782 -0.0107
 6319W        W16012  11.616   1.433  15.609 -0.0655  0.0176 -0.1121
 6320W        W16013   6.610   2.208   0.667 -0.0681 -0.0892 -0.0079
 6321W        W16014  11.942   6.093  13.256  0.2174  0.0733 -0.1122
 6322W        W16015   8.370  13.638  13.487  0.1050  0.1040  0.0048
 6323W        W16016  10.737   4.211  14.434 -0.2554 -0.1547 -0.2555
 6324W        W16017  10.154   2.238   3.844  0.0910 -0.1896  0.1202
 6325W        W16018  13.951   9.830   2.010 -0.1719  0.1284  0.1856
 6326W        W16019   6.771  14.974  14.423 -0.2334  0.1001  0.5232
 6327W        W16020   1.318  10.809  12.849 -0.0451  0.0990 -0.0110
 6328W        W16021   3.382   9.884   2.352 -0.0701  0.3701 -0.1466
 6329W        W16022   8.027   5.880   0.745  0.1161 -0.0215 -0.2874
 6330W        W16023   0.022  14.127  16.129 -0.0072  0.0254 -0.1453
 6331W        W16024  14.963   5.546   2.744  0.1199 -0.0107 -0.3234
 6332W        W16025   7.689  13.041  11.614 -0.1065  0.3201  0.2286
 6333W        W16026   5.607   7.512   3.022  0.0024 -0.2854 -0.2183
 6334W        W16027   5.371   3.871   0.666 -0.1005 -0.4055  0.2470
 6335W        W16028   6.197  17.248   5.138 -0.3021 -0.3096 -0.4020
 6336W        W16029   0.795  16.073  14.939 -0.2621 -0.1756  0.0426
 6337W        W16030  16.503  16.780   0.647 -0.3230 -0.2470 -0.0666
 6338W        W16031   8.520  12.330   2.736  0.2421  0.1186  0.1614
 6339W        W16032   5.028   8.713  14.685  0.0743  0.0051 -0.1731
 6340W        W16033  15.057  13.520   2.739 -0.0851  0.4250 -0.1505
 6341W        W16034   4.160   4.624   1.008 -0.0749 -0.0090  0.0038
 6342W        W16035  12.658   1.786   0.047  0.0867  0.1117  0.1255
 6343W        W16036   2.286   4.031  15.481 -0.3543  0.0747 -0.2389
 6344W        W16037   3.121   8.237  13.478 -0.3010  0.0358 -0.3613
 6345W        W16038   1.348  14.001   5.335  0.2155  0.1170  0.1202
 6346W        W16039  10.239   2.534   5.395 -0.3179 -0.1466  0.0895
 6347W        W16040   9.039   1.406   1.858  0.2014  0.0663  0.2397
 6348W        W16041   3.419  10.655  12.375  0.0603 -0.1078 -0.1161
 6349W        W16042   9.792  11.840  14.929  0.0943  0.1582 -0.1033
 6350W        W16043   6.012   6.681  12.614 -0.0058 -0.0055  0.2340
 6351W        W16044   9.375  13.314   1.111 -0.1360  0.3423  0.2603
 6352W        W16045   5.950  13.850  11.736  0.0395  0.2256 -0.1602
 6353W        W16046   7.253  17.346   3.368  0.4403  0.1729  0.0605
 6354W        W16047   4.348   9.561  13.438  0.2369 -0.2051  0.4352
 6355W        W16048   0.057  17.657  14.300 -0.3750  0.1555 -0.0093
 6356W        W16049   2.667  12.986  17.608 -0.2000 -0.0210  0.2406
 6357W        W16050  14.633   1.836  14.152 -0.0780 -0.0986  0.0859
 6358W        W16051  16.762  10.541  16.903  0.0367 -0.1394 -0.3931
 6359W        W16052  17.235  13.033  12.479 -0.0083 -0.3511 -0.0699
 6360W        W16053   5.572   6.279  14.578  0.2014 -0.0678 -0.1451
 6361W        W16054   1.755  11.869  16.942  0.0320 -0.1234  0.2474
 6362W        W16055  12.205   1.263   5.343 -0.2374  0.2645  0.0926
 6363W        W16056   5.418  10.652  16.774  0.2243 -0.2093  0.0975
 6364W        W16057  10.208   2.624  11.790  0.0463  0.0564 -0.0467
 6365W        W16058  16.166  17.116  15.331 -0.3432  0.1449  0.0476
 6366W        W16059  10.690   2.510  11.852 -0.0316  0.0438 -0.0302
 6367W        W16060   4.482   1.232   4.074 -0.2166  0.1818 -0.2189
 6368W        W16061  13.810  10.368   5.798  0.0380 -0.0958  0.0722
 6369W        W16062  15.970   9.862   0.777  0.0043  0.2387 -0.0830
 6370W        W16063   1.978  10.094   0.788 -0.1637 -0.1904 -0.2866
 6371W        W16064  11.876  15.660  16.447  0.0724  0.2989 -0.1589
 6372W        W16065  13.036  14.865  12.652 -0.0533 -0.0087 -0.0296
 6373W        W16066   9.649  11.440  13.656  0.1398  0.1817 -0.3340
 6374W        W16067  17.406  13.325   0.904 -0.1560 -0.2887 -0.2385
 6375W        W16068   2.104   8.361  16.410  0.3433 -0.0806 -0.1665
 6376W        W16069   7.220   7.772   5.235 -0.0041 -0.0217 -0.1750
 6377W        W16070   0.006   2.508   4.107 -0.0869 -0.2076  0.1988
 6378W        W16071  10.403  12.079   5.221  0.2773 -0.0898 -0.1729
 6379W        W16072  11.675  12.037  16.779  0.2343  0.0132 -0.1187
 6380W        W16073   2.061   4.605  16.197  0.3036  0.2267  0.4176
 6381W        W16074   5.032  11.153  15.551 -0.0090 -0.1141 -0.3762
 6382W        W16075  16.709   9.164  14.850  0.1848 -0.1325  0.0177
 6383W        W16076  14.891  10.018   4.965  0.0701  0.1167  0.0620
 6384W        W16077   7.531   7.373  15.396  0.2381  0.1965 -0.1768
 6385W        W16078   2.054  16.642   2.386 -0.0225 -0.2288 -0.1045
 6386W        W16079   8.189  10.293   5.088 -0.1520 -0.3744  0.2471
 6387W        W16080   4.697  14.304  16.928 -0.0376 -0.0577  0.2793
 6388W        W16081   4.467   1.909  16.358 -0.0439  0.1503  0.0789
 6389W        W16082  12.271   7.852  17.211 -0.1736 -0.0460 -0.1646
 6390W        W16083  12.833   7.105  16.865  0.3680  0.0770 -0.0316
 6391W        W16084  16.262  14.531   0.875 -0.1378  0.1254  0.1687
 6392W        W16085   8.322  15.027   1.311 -0.0299  0.0117  0.0387
 6393W        W16086  14.022  11.133  16.522  0.1457 -0.2631 -0.0207
 6394W        W16087  10.033  15.206   1.008 -0.1458 -0.0933  0.0821
 6395W        W16088  13.405   8.352   1.174  0.0856 -0.0513  0.1087
 6396W        W16089   3.523   6.979   0.390  0.0692 -0.0036 -0.3114
 6397W        W16090   3.424   4.118   1.425 -0.2773  0.1166 -0.2224
 6398W        W16091   1.306  12.138   1.822  0.0830 -0.0207  0.1491
 6399W        W16092  11.980  11.333   2.548 -0.0974  0.0237 -0.0119
 6400W        W16093   6.631  14.309   3.124  0.0413  0.1936  0.0909
 6401W        W16094   7.945   5.750  15.189  0.0265  0.2148  0.1505
 6402W        W16095  15.536   5.675   4.821  0.0483 -0.0506  0.0410
 6403W        W16096   4.139   5.896   5.596 -0.2348  0.2123  0.1262
 6404W        W16097  10.708   1.490  11.829  0.0149  0.0637 -0.1728
 6405W        W16098   8.355   0.271   0.935 -0.0542 -0.2794  0.1117
 6406W        W16099   5.605  16.834   4.403  0.0750 -0.1182  0.2956
 6407W        W16100  15.151   2.148  16.004 -0.1703 -0.1348 -0.0683
 6408W        W16101  14.066   0.514   2.597 -0.2527  0.1871 -0.0836
 6409W        W16102  12.961  16.214  13.568  0.2097 -0.1813  0.2144
 6410W        W16103   8.836   9.817  15.649  0.2052  0.1351  0.3978
 6411W        W16104  17.287   9.235   1.906 -0.4390  0.1438  0.1826
 6412W        W16105  12.212   5.320  17.421  0.0043 -0.0210  0.2277
 6413W        W16106  13.340   4.357   2.003 -0.3605 -0.0543 -0.0229
 6414W        W16107   2.465   4.330   5.862  0.0162 -0.1025  0.2359
 6415W        W16108  13.412  14.661   0.214  0.2858  0.2824  0.0174
 6416W        W16109  15.229  15.986   1.740 -0.0494 -0.1134  0.0161
 6417W        W16110   7.046  12.602   2.404  0.3342 -0.1914  0.0078
 6418W        W16111   2.971   0.013  17.527  0.2220  0.0303 -0.0145
 6419W        W16112   9.077  10.923   5.270  0.0195 -0.2351 -0.1133
 6420W        W16113   9.467   6.570  13.944 -0.1943 -0.0628  0.1079
 6421W        W16114   9.465   5.135   0.647  0.0370 -0.0954 -0.0577
 6422W        W16115  13.559   8.946   1.849  0.1393 -0.1735 -0.1176
 6423W        W16116  16.895   5.000  13.234  0.0940  0.0524  0.2227
 6424W        W16117   8.832   5.122   0.069 -0.2834 -0.0724  0.2050
 6425W        W16118   1.123   4.667  15.311  0.0587  0.3022  0.1349
 6426W        W16119   5.818  14.149   0.478 -0.1962 -0.2629  0.0713
 6427W        W16120  15.965   4.947  14.065  0.1773 -0.3479  0.1781
 6428W        W16121   9.353  12.095   5.457  0.1661 -0.2567 -0.2360
 6429W        W16122   2.256   3.291  17.451 -0.0375 -0.0153 -0.1363
 6430W        W16123  10.447   5.058   6.087  0.1357  0.2682 -0.2479
 6431W        W16124  13.687  11.857   5.786  0.3052 -0.1964 -0.1539
 6432W        W16125  17.287   2.373  12.575 -0.0040 -0.2605  0.2354
 6433W        W16126   7.003  16.310   2.539 -0.1806 -0.2602  0.0077
 6434W        W16127   9.266   2.150   4.286  0.0975  0.0132  0.0212
 6435W        W16128   2.689   3.262  16.956  0.3055 -0.1360  0.3202
 6436W        W16129  16.748  16.128  16.987  0.3222  0.0372 -0.0516
 6437W        W16130  13.555   4.195  14.959 -0.4478  0.2099 -0.0273
 6438W        W16131  10.465  16.420  12.194  0.2224 -0.0670  0.0145
 6439W        W16132  16.867   9.598   3.734  0.2784  0.0758 -0.0209
 6440W        W16133  15.606   7.325  13.805 -0.2435  0.1676 -0.0677
 6441W        W16134   0.055   8.790  16.677  0.1459  0.2222  0.2540
 6442W        W16135   6.228   2.397  16.360  0.2363 -0.1981 -0.2839
 6443W        W16136  13.614  10.576  13.584  0.0452  0.0434 -0.0679
 6444W        W16137   0.916   6.241   1.283  0.1093 -0.0849  0.4399
 6445W        W16138  10.702  11.032   2.569 -0.1180 -0.2547 -0.2438
 6446W        W16139  14.203   8.978  16.345  0.0350  0.1966  0.3959
 6447W        W16140  16.132  13.370  14.495  0.2624 -0.2438  0.4946
 6448W        W16141   4.910  15.786   0.368  0.1019 -0.0999 -0.1869
 6449W        W16142   0.361   2.017   0.896 -0.2095 -0.0325  0.2555
 6450W        W16143  16.870   9.342  17.303 -0.1452  0.1851 -0.1025
 6451W        W16144   1.563  12.811  16.534  0.1889  0.2505 -0.2912
 6452W        W16145   7.613  15.592  12.218 -0.1283  0.2937 -0.0014
 6453W        W16146   8.501  11.277   1.596 -0.2025  0.2073  0.1316
 6454W        W16147   2.929   7.427  15.024 -0.2461 -0.1484 -0.1077
 6455W        W16148  16.632  12.931  11.572 -0.1895 -0.1737  0.0295
 6456W        W16149  16.024   2.103  11.985  0.0390 -0.0832 -0.1024
 6457W        W16150   2.539   7.666  14.527 -0.1106  0.3137  0.1900
 6458W        W16151   3.655   7.145  15.293  0.0687  0.3223  0.2228
 6459W        W16152  11.587   5.325  12.096 -0.0968 -0.1336  0.4335
 6460W        W16153   1.270   9.111  16.615 -0.0956 -0.0003  0.1045
 6461W        W16154   0.797   1.640   0.888  0.4775  0.1206  0.2738
 6462W        W16155   6.110   8.250  16.417 -0.0614  0.0411 -0.2751
 6463W        W16156   9.113  13.295   5.722 -0.4407 -0.0235 -0.4282
 6464W        W16157   0.592   9.252  15.790  0.1057 -0.2373 -0.1906
 6465W        W16158   2.503   5.251   1.704 -0.0243  0.0244  0.1120
 6466W        W16159   0.084   7.390   0.397 -0.0342 -0.0120  0.2113
 6467W        W16160   1.538   9.337   5.315  0.0842  0.1430  0.1044
 6468W        W16161   4.102   3.337  11.901  0.0944 -0.0298  0.2306
 6469W        W16162   0.002   9.679   0.215  0.0861  0.1573  0.1490
 6470W        W16163   3.545   0.466   1.416 -0.0885  0.2212 -0.2426
 6471W        W16164  15.406   7.245  13.174 -0.1317  0.2849 -0.2027
 6472W        W16165   6.176   3.706   7.017 -0.1368  0.0845  0.0913
 6473W        W16166  13.410   4.555  14.566 -0.2972 -0.1331 -0.1877
 6474W        W16167  17.055  14.386  16.998 -0.0011  0.1297 -0.2194
 6475W        W16168   0.391   9.030  13.005 -0.2243 -0.0292 -0.2221
 6476W        W16169  14.950   2.071  10.742 -0.1583  0.3234  0.1807
 6477W        W16170   9.802  12.941  14.548 -0.0040  0.1785 -0.1710
 6478W        W16171  16.280   0.727   5.836 -0.0730  0.0374 -0.0348
 6479W        W16172   5.637   4.279  16.695  0.0351 -0.3261 -0.3097
 6480W        W16173   9.355  15.486   6.025 -0.2382 -0.1684 -0.2112
 6481W        W16174  15.052   8.540  16.100 -0.2561 -0.0599  0.0453
 6482W        W16175  11.977  15.336   4.422  0.3499  0.0398  0.1992
 6483W        W16176  12.601   7.601  13.229  0.0554 -0.0633 -0.1866
 6484W        W16177  15.837   2.195   2.375  0.1219  0.0624  0.2880
 6485W        W16178  11.822   9.095  16.539 -0.1630 -0.2253  0.2309
 6486W        W16179   7.746   4.384  16.704 -0.1597 -0.3818  0.3088
 6487W        W16180   8.226  12.798   5.232  0.0478 -0.2770 -0.0377
 6488W        W16181  10.636  14.275  12.767 -0.2228  0.1290 -0.0635
 6489W        W16182   3.901  15.007   2.019  0.0143 -0.0452 -0.1163
 6490W        W16183  12.534   6.780  12.744 -0.0563 -0.3158 -0.1793
 6491W        W16184   0.128  15.586   0.894 -0.0623  0.1895  0.1815
 6492W        W16185   7.305  10.875  14.363  0.0617  0.0638 -0.2383
 6493W        W16186   0.890  11.531  16.029  0.1474  0.3324  0.0007
 6494W        W16187  11.068   9.830  16.791 -0.0546 -0.2188  0.3766
 6495W        W16188  14.978   4.833   3.440 -0.0096  0.0334  0.1346
 6496W        W16189  10.518  15.653   1.776 -0.0930  0.3284  0.2122
 6497W        W16190  15.698  13.006  15.357 -0.1329  0.0965  0.0054
 6498W        W16191  11.199  10.832   1.763 -0.0166 -0.0460  0.2066
 6499W        W16192   5.181  15.790   6.527 -0.0318 -0.1920  0.1797
 6500W        W16193  11.890   3.118   0.479 -0.0731  0.1021 -0.0188
 6501W        W16194   6.737   7.088  15.153 -0.2146 -0.1292  0.0866
 6502W        W16195  14.056   4.687   2.478 -0.1219 -0.0561 -0.0129
 6503W        W16196   8.981   9.892   0.793  0.2878 -0.1245 -0.0415
 6504W        W16197  15.023  15.003   1.672  0.0424  0.2792  0.0145
 6505W        W16198   3.714  10.528  12.786 -0.1706 -0.0695  0.0565
 6506W        W16199   3.840   0.935  11.981 -0.1150  0.1298  0.0827
 6507W        W16200  10.110   7.575  12.566 -0.1894 -0.2793 -0.0528
 6508W        W16201  15.183   0.977  11.385  0.2581 -0.2254  0.1151
 6509W        W16202  17.030  14.779   3.407 -0.1708  0.1045 -0.2663
 6510W        W16203   3.356   5.214   0.562 -0.0772  0.0635 -0.0241
 6511W        W16204   7.046  13.120   0.404 -0.0339  0.1175  0.0602
 6512W        W16205   6.843   1.755   2.117  0.2401 -0.1106 -0.0228
 6513W        W16206  12.820   0.138  12.281 -0.0148 -0.2792  0.2160
 6514W        W16207  11.483   5.168   3.794  0.0956 -0.1081  0.0845
 6515W        W16208   2.369   8.293   1.956  0.0157  0.4524 -0.0331
 6516W        W16209  14.502   1.104   0.564  0.3907  0.0584 -0.0089
 6517W        W16210   6.861  10.929  16.497  0.2933 -0.0124  0.0951
 6518W        W16211   9.245   3.999   4.327 -0.0388 -0.2212 -0.0050
 6519W        W16212   2.833   4.574  17.287  0.0105  0.2174  0.3208
 6520W        W16213   0.021   5.813  12.823 -0.0417  0.2229  0.1472
 6521W        W16214  11.253  16.550  15.555  0.1221  0.1961 -0.1430
 6522W        W16215  12.586   9.171  17.337 -0.3765  0.0497  0.1266
 6523W        W16216  10.442   8.834   6.477  0.0627 -0.0126  0.1265
 6524W        W16217  11.640  16.772   1.676 -0.0054  0.2273 -0.1057
 6525W        W16218  15.545  10.124   3.684 -0.0808  0.2486 -0.0573
 6526W        W16219  17.477  17.250   2.946 -0.0423 -0.4172 -0.0258
 6527W        W16220   4.198   5.309   5.913 -0.3363  0.1120 -0.1037
 6528W        W16221  15.877   9.269   4.761  0.2547 -0.0240  0.2703
 6529W        W16222  10.199   9.035   3.852  0.0230  0.1538  0.0493
 6530W        W16223   1.374   2.682  15.951  0.0169 -0.1384  0.2574
 6531W        W16224   9.236  11.533  12.296 -0.3561  0.2951  0.1165
 6532W        W16225   3.498   8.923  11.991 -0.0007 -0.1071  0.2735
 6533W        W16226   0.911  14.167  13.780  0.0660 -0.0454  0.0599
 6534W        W16227   7.314   1.636  14.113  0.1932 -0.0074 -0.2049
 6535W        W16228  13.058   4.077  14.556  0.1666  0.2530  0.2495
 6536W        W16229   4.243  15.002   0.884  0.0095 -0.0049  0.0195
 6537W        W16230   4.901   7.732   2.814  0.1129  0.0110  0.1591
 6538W        W16231  14.248  16.141  12.738  0.0893 -0.0598 -0.0091
 6539W        W16232   8.813   0.404  15.586  0.1416  0.2101 -0.1022
 6540W        W16233   1.216   4.096  16.162  0.0585  0.2525 -0.2867
 6541W        W16234   0.041   9.242  15.925  0.4193  0.2214 -0.0917
 6542W        W16235   3.676  14.584   2.768 -0.0969  0.4697 -0.0760
 6543W        W16236   5.173   5.339   3.119 -0.0276 -0.1338  0.2032
 6544W        W16237  13.088   0.563   5.812 -0.0828  0.2400  0.1618
 6545W        W16238   3.871   8.955   2.767 -0.1897 -0.1853 -0.0013
 6546W        W16239  17.658   5.663  15.669  0.0893  0.0106  0.0928
 6547W        W16240   2.147   3.769  16.914  0.2604 -0.0387 -0.1693
 6548W        W16241  15.041  10.635   4.719  0.0434  0.0235  0.1784
 6549W        W16242  15.600   0.437   2.476  0.0576  0.3043 -0.0966
 6550W        W16243   5.871   4.305   3.896  0.1928 -0.0339 -0.3686
 6551W        W16244   6.749  12.895  16.515  0.0014 -0.4547 -0.0329
 6552W        W16245  14.465  10.017  15.564  0.2139 -0.2457 -0.1485
 6553W        W16246  13.557   4.905   6.347 -0.1222  0.1619  0.1045
 6554W        W16247  10.920   0.594  14.827  0.0751 -0.0959 -0.2159
 6555W        W16248   2.007   7.597  13.820 -0.1764  0.2666 -0.1172
 6556W        W16249   4.720   5.728   2.989  0.0188  0.2297  0.0365
 6557W        W16250   3.432  11.746   5.629 -0.1573  0.0099 -0.0028
 6558W        W16251  11.129   2.884   1.993 -0.4176  0.1003 -0.2709
 6559W        W16252  16.904   4.598  12.015 -0.1087 -0.1313  0.3667
 6560W        W16253   4.210   1.506  15.153  0.0763  0.0837 -0.0500
 6561W        W16254   4.368   6.169   3.018 -0.1100  0.3472  0.1594
 6562W        W16255   1.804   0.165  15.191 -0.1003  0.3517 -0.1169
 6563W        W16256  15.582   0.826   0.812 -0.1991  0.1937 -0.1699
 6564W        W16257   5.487  16.504  12.390 -0.3871 -0.1995 -0.0298
 6565W        W16258   1.123   0.643  15.121  0.1374 -0.1792 -0.0821
 6566W        W16259  11.149   6.811  15.689  0.0669  0.1316 -0.1325
 6567W        W16260   8.110   9.698  12.884  0.2314  0.3254 -0.3230
 6568W        W16261   2.285  12.654  14.459  0.0774  0.1603 -0.0728
 6569W        W16262  14.844   7.058   4.742  0.0527 -0.0779 -0.1789
 6570W        W16263   4.067   7.409  15.357 -0.3806 -0.4707 -0.0363
 6571W        W16264  16.452  14.828  13.409 -0.1123  0.2067 -0.1751
 6572W        W16265  14.728   9.878   0.182 -0.3519 -0.0823  0.1221
 6573W        W16266   2.965   1.511   4.733 -0.0338 -0.0524 -0.0834
 6574W        W16267  12.053   3.028   3.981 -0.0500 -0.1241  0.0217
 6575W        W16268   8.746   0.655   3.405 -0.3970  0.1440  0.1207
 6576W        W16269   8.480  15.614  12.445 -0.0641  0.3026  0.0376
 6577W        W16270   2.322   8.252  13.158  0.0391 -0.1772  0.3370
 6578W        W16271  15.323   0.422  14.573 -0.2757 -0.0296 -0.3491
 6579W        W16272  10.063  10.632  15.532  0.0460  0.1043  0.1148
 6580W        W16273   5.157   7.206   4.827 -0.0177 -0.0108 -0.3860
 6581W        W16274   9.434  13.546   2.627  0.2618 -0.0448  0.0752
 6582W        W16275  15.560   7.108  16.651  0.0906 -0.0587 -0.0803
 6583W        W16276  15.449  15.713  15.587  0.1764 -0.1492 -0.2622
 6584W        W16277  13.653   0.426  16.756  0.0723  0.0116 -0.2083
 6585W        W16278  12.522   5.096   2.149  0.0139 -0.2577  0.0659
 6586W        W16279   7.648  12.968  17.271  0.1851 -0.0597  0.3375
 6587W        W16280  17.381   9.823   1.155 -0.1689  0.2493 -0.2378
 6588W        W16281  10.173   0.181  15.255  0.3570 -0.0564 -0.0950
 6589W        W16282   6.640   3.726  13.668 -0.1129 -0.0481 -0.0941
 6590W        W16283  12.850   2.611  15.070 -0.1164 -0.1837 -0.3851
 6591W        W16284  13.554  17.376   0.984  0.0304  0.1129  0.3191
 6592W        W16285  11.362   1.940   4.237  0.1939  0.2238  0.2464
 6593W        W16286   1.704   0.695   3.714  0.0213 -0.1168 -0.0685
 6594W        W16287  11.457  15.966   1.264  0.1045 -0.2915  0.0220
 6595W        W16288   4.979   1.767   3.803  0.2295  0.1255 -0.1476
 6596W        W16289   4.996  16.334   3.984  0.0721  0.0061 -0.0627
 6597W        W16290   1.324   3.754   4.927 -0.1072  0.1057 -0.0723
 6598W        W16291   1.121   2.106   3.384  0.0027 -0.0536  0.2508
 6599W        W16292   2.399  13.616  17.428 -0.1616  0.3335 -0.2294
 6600W        W16293  16.966  14.063  12.357 -0.2457 -0.1505 -0.1680
 6601W        W16294   9.573   9.695   3.373  0.1605 -0.0879  0.0141
 6602W        W16295  14.830  10.401   4.322 -0.2600 -0.0464 -0.0330
 6603W        W16296  12.018   2.502  15.637 -0.1480 -0.3581 -0.0833
 6604W        W16297   8.778  12.819  14.397 -0.2026 -0.0003 -0.1449
 6605W        W16298   0.610  16.929   3.076  0.0324  0.4229  0.0874
 6606W        W16299   7.862  16.164   4.655  0.1008  0.0929 -0.0315
 6607W        W16300   9.392  15.375   4.420 -0.3423 -0.2205  0.2873
 6608W        W16301   9.066   9.828   0.321  0.0307  0.2356 -0.1032
 6609W        W16302   0.102   4.452  13.120  0.3841  0.0413 -0.4086
 6610W        W16303   5.744  16.907   0.200  0.1477 -0.1595 -0.0584
 6611W        W16304   9.952  13.125  13.102  0.1758  0.1209 -0.0160
 6612W        W16305   4.543   2.000  14.915  0.1066  0.0710  0.2930
 6613W        W16306  16.454  10.410   3.857  0.0369 -0.1889  0.2586
 6614W        W16307  11.604  11.595  12.684 -0.0767 -0.0051 -0.5589
 6615W        W16308   5.054  12.647  14.154  0.1222 -0.0019 -0.2782
 6616W        W16309   4.480   0.161   1.031 -0.1619  0.1205 -0.2173
 6617W        W16310   1.843   5.316  15.446  0.1246  0.1109 -0.1587
 6618W        W16311  11.771  13.130  14.929 -0.1260  0.2726  0.1992
 6619W        W16312  17.122   8.145  13.990  0.1527 -0.0899 -0.1853
 6620W        W16313   7.847  14.531   2.644  0.1468  0.2585  0.0104
 6621W        W16314   7.752  16.822   3.818  0.2894  0.3414 -0.4141
 6622W        W16315   4.979   0.680   5.686  0.1230  0.0137  0.0221
 6623W        W16316   4.158  17.270  16.436  0.2031  0.2120 -0.0805
 6624W        W16317  17.248  12.316  13.331 -0.0166  0.1461  0.2238
 6625W        W16318   2.870   1.417  13.519  0.3166  0.0016  0.1946
 6626W        W16319   7.114  11.485   1.139  0.1923 -0.3702 -0.1797
 6627W        W16320   5.347  10.960  12.022 -0.0003 -0.3409  0.0332
 6628W        W16321   0.676  14.332   5.992 -0.3151 -0.0052 -0.0942
 6629W        W16322   4.245   0.198  17.203 -0.1209 -0.3696 -0.3201
 6630W        W16323  11.991   3.614   1.044  0.0653  0.1315  0.1686
 6631W        W16324  16.355   2.172  13.351  0.1253  0.1327  0.2702
 6632W        W16325   5.742  12.924   1.130  0.1524 -0.1076 -0.0833
 6633W        W16326   0.391  13.720   6.316  0.0158  0.0826  0.0706
 6634W        W16327  10.756  15.427   2.694 -0.5539  0.0393  0.0100
 6635W        W16328   7.198  14.506  15.452  0.0609 -0.0358  0.0073
 6636W        W16329   8.535  14.902  17.313 -0.3718  0.0127  0.2063
 6637W        W16330   7.448  14.959  15.848 -0.1010  0.2712 -0.0315
 6638W        W16331   4.244   8.935  14.128  0.1421  0.0558 -0.1165
 6639W        W16332   5.411   0.108  14.223 -0.0204 -0.0991 -0.2568
 6640W        W16333   1.588   9.740   1.074  0.1482 -0.1514  0.1695
 6641W        W16334  14.755   3.593   5.706  0.2250 -0.0827 -0.2051
 6642W        W16335   4.276   1.749   3.328  0.0831 -0.0776  0.0230
 6643W        W16336  10.660  15.990   5.278 -0.2248  0.1631 -0.0730
 6644W        W16337   6.989   6.366  16.107 -0.2012  0.2302  0.0737
 6645W        W16338   2.932  15.964  12.534  0.3787  0.0357  0.1097
 6646W        W16339   9.489   2.079  11.846  0.2596  0.3296  0.0476
 6647W        W16340   7.826   8.807  12.654 -0.4222 -0.2522  0.1969
 6648W        W16341  15.169   4.628   1.360  0.2391  0.3469  0.1807
 6649W        W16342  10.496   5.746  17.512 -0.0820  0.1914  0.1967
 6650W        W16343  11.270   4.497   6.116 -0.0927  0.0062 -0.0744
 6651W        W16344  13.437   7.004  14.016 -0.0883  0.0209 -0.1440
 6652W        W16345   5.000  11.229  12.253  0.3652  0.2265 -0.2543
 6653W        W16346   8.683   5.803   4.891 -0.1117  0.0954  0.0770
 6654W        W16347  17.556   8.324  11.466  0.3589  0.1570 -0.0564
 6655W        W16348   2.892   0.832   5.556  0.1575 -0.3400 -0.0262
 6656W        W16349   1.923   7.047   0.391  0.1601  0.1881  0.0593
 6657W        W16350   8.360  17.412   1.105 -0.2338 -0.0139 -0.1481
 6658W        W16351   1.089  17.625  13.253 -0.0377 -0.2284  0.2929
 6659W        W16352   9.303   2.845  16.320 -0.1909  0.0227 -0.1581
 6660W        W16353   2.995  15.089  12.119 -0.2254  0.1066 -0.2112
 6661W        W16354  13.983   5.638   5.962  0.0927 -0.1308  0.1391
 6662W        W16355   6.726  17.445   3.381  0.0740  0.2704  0.0643
 6663W        W16356  11.992   2.019   1.679  0.3083  0.2527 -0.2835
 6664W        W16357  11.040   7.770  16.973  0.3171  0.0836  0.0957
 6665W        W16358  17.388  10.894  13.333  0.0305 -0.2010 -0.2081
 6666W        W16359  14.908  16.660  16.080 -0.1533 -0.1942 -0.1523
 6667W        W16360  13.811   4.944   2.124  0.1038 -0.2267  0.3184
 6668W        W16361   9.242   6.960  14.841  0.1233 -0.0491 -0.0500
 6669W        W16362   7.650   1.076   5.333  0.1866 -0.1697  0.0759
 6670W        W16363   7.591  14.617   5.636  0.0279 -0.1016 -0.1758
 6671W        W16364   4.122   0.997  17.314 -0.1180  0.3316 -0.1653
 6672W        W16365  13.422   3.369  16.468 -0.2983  0.1463  0.1428
 6673W        W16366   7.885   7.540  14.990  0.3043  0.2520 -0.0749
 6674W        W16367  15.457   9.621  17.478  0.0431 -0.0769 -0.3200
 6675W        W16368  11.236   1.815   5.126  0.1508  0.0688  0.2070
 6676W        W16369   1.796  11.671   3.540 -0.0686 -0.0662 -0.1844
 6677W        W16370  13.338   5.064   0.880 -0.1014  0.0477  0.0296
 6678W        W16371  16.685   2.401  11.435 -0.0772 -0.1838  0.1180
 6679W        W16372  15.583   8.631  12.490  0.1395 -0.0952  0.0683
 6680W        W16373   7.059   0.374   2.449  0.2831  0.2073 -0.1841
 6681W        W16374  10.587   7.654  16.953 -0.1493 -0.0067 -0.0926
 6682W        W16375  14.418   0.185  15.803 -0.1841 -0.3627 -0.0078
 6683W        W16376   2.903  17.239   3.523 -0.0443 -0.0828  0.3773
 6684W        W16377   3.941  11.810   0.807 -0.0818 -0.1169  0.0547
 6685W        W16378   9.105  15.380  11.800  0.1101 -0.2867  0.3370
 6686W        W16379  16.848   0.732  16.798  0.1727 -0.1445 -0.0383
 6687W        W16380  10.842   1.568  14.677  0.0485 -0.1452  0.2541
 6688W        W16381  15.702  15.450   4.035  0.0987  0.2433 -0.4049
 6689W        W16382  14.045  10.676   1.212  0.0781 -0.0115  0.0486
 6690W        W16383   5.063   9.335  12.864  0.2146  0.3771 -0.1108
 6691W        W16384   5.375  14.351  14.058  0.2956 -0.0076  0.0152
 6692W        W16385   7.563  10.968   1.193  0.0528  0.2562  0.0892
 6693W        W16386  16.180   6.117   5.348 -0.4522  0.1553 -0.0805
 6694W        W16387  10.025   4.696   0.217 -0.0227  0.0015 -0.0448
 6695W        W16388   8.983  13.560  12.219  0.0420 -0.0762 -0.1307
 6696W        W16389   7.907   8.615  15.050  0.0273  0.1473  0.3716
 6697W        W16390  13.657  13.492  14.251  0.0618 -0.1470  0.1307
 6698W        W16391   1.528  12.349  15.228 -0.0710  0.0264 -0.0123
 6699W        W16392   1.157   8.946  12.692  0.1374  0.0278  0.0222
 6700W        W16393   1.235   7.707   5.587  0.2700 -0.2611 -0.2677
 6701W        W16394  14.680   1.294  15.008 -0.1064 -0.0479 -0.0623
 6702W        W16395   7.925  13.227  13.572  0.0009  0.3680  0.0555
 6703W        W16396  16.875  12.972  16.421 -0.2796  0.2928  0.6872
 6704W        W16397  15.861  12.020  15.079 -0.1516  0.0704 -0.0598
 6705W        W16398   7.081  13.445  15.881 -0.0362 -0.2114 -0.1854
 6706W        W16399   8.598   8.723  15.032 -0.1012  0.2007 -0.0890
 6707W        W16400   8.323   2.534  15.496 -0.0990 -0.1903 -0.1964
 6708W        W16401   3.483   5.041   2.703 -0.3103 -0.2199  0.0754
 6709W        W16402  16.194   0.104   5.795  0.1570  0.0401 -0.1722
 6710W        W16403   4.805   7.801  13.180 -0.1132  0.0851  0.1586
 6711W        W16404   5.564  15.554   0.512  0.1627 -0.5724  0.2791
 6712W        W16405   7.533   6.787  12.817 -0.0608  0.0499  0.3527
 6713W        W16406   0.646  17.123   4.648 -0.2000  0.0640 -0.1468
 6714W        W16407   9.020   6.512   4.434 -0.2521  0.1353 -0.5185
 6715W        W16408   8.235  16.576  14.063  0.0129  0.2293 -0.0225
 6716W        W16409  10.041  12.544   6.464 -0.0080 -0.1408  0.0483
 6717W        W16410   4.374  10.069  17.095  0.2107  0.2889 -0.0139
 6718W        W16411   2.647   6.137   2.188  0.3294  0.0776  0.1014
 6719W        W16412   1.810  12.985  12.070 -0.0205 -0.1846  0.0918
 6720W        W16413  17.398  15.074   5.744 -0.2448  0.0697  0.1610
 6721W        W16414  11.701   0.341  14.129 -0.0047 -0.1230 -0.1107
 6722W        W16415   3.310   1.604  15.932 -0.0483 -0.0535  0.2842
 6723W        W16416  11.709   1.014  17.666  0.1222 -0.1623 -0.1284
 6724W        W16417   2.348   4.740  13.749  0.1423 -0.0653  0.1269
 6725W        W16418  16.205  15.330  15.453 -0.1756 -0.2494 -0.0891
 6726W        W16419   0.725  12.047   1.950 -0.3950 -0.1950  0.0052
 6727W        W16420   8.011  15.385   4.218  0.0091 -0.0178 -0.0956
 6728W        W16421   8.634  14.224  17.146  0.2128  0.2032  0.4289
 6729W        W16422   1.371   5.998   0.451  0.0333  0.1812  0.1816
 6730W        W16423  12.955   5.928   0.576  0.0033  0.0719  0.3832
 6731W        W16424   2.667   4.636  14.521  0.0332 -0.0186  0.1791
 6732W        W16425   6.916  12.021  16.704  0.1233  0.0766 -0.3449
 6733W        W16426   7.096   9.243  14.326 -0.1973  0.3799  0.2108
 6734W        W16427   0.373   3.060  12.585 -0.2215 -0.3562  0.2243
 6735W        W16428   6.121   5.681   4.461 -0.0743 -0.1415  0.2085
 6736W        W16429   3.074   5.782  15.572  0.2859 -0.1017  0.2318
 6737W        W16430  13.502   6.344   0.126  0.2032  0.0975  0.1456
 6738W        W16431  15.488  15.277  17.253  0.4835  0.0317 -0.0142
 6739W        W16432  10.572  13.855   2.876  0.0944  0.3495  0.2235
 6740W        W16433   3.133  15.265   0.117  0.0284 -0.3187  0.0103
 6741W        W16434  10.641   6.941   3.794  0.2119  0.0504  0.0668
 6742W        W16435  15.159   1.506   3.777 -0.0173 -0.2851  0.4379
 6743W        W16436  14.381  13.630  17.531  0.0097 -0.1119  0.3887
 6744W        W16437   8.087   5.407  15.989  0.0094 -0.1993  0.0459
 6745W        W16438  13.566   7.083   0.877 -0.0878  0.3183  0.0792
 6746W        W16439   6.163   1.132   3.765  0.0713 -0.1446  0.3325
 6747W        W16440   8.363  11.950   1.927 -0.2944 -0.0362 -0.3655
 6748W        W16441  10.535   8.453   2.594  0.0722 -0.2646 -0.2788
 6749W        W16442   0.836  11.844  13.995  0.2908 -0.0515  0.1164
 6750W        W16443  16.681  17.053  12.160 -0.0026 -0.2291  0.0986
 6751W        W16444   5.348  10.611  11.612  0.0269  0.4124 -0.1325
 6752W        W16445   1.323  10.268  11.608  0.1809  0.0480  0.2789
 6753W        W16446   9.209   5.328  17.450  0.1613 -0.1106 -0.1571
 6754W        W16447   0.695  13.745   4.788  0.0432  0.1594 -0.1262
 6755W        W16448  12.063   2.937   2.932  0.1426  0.2455 -0.0343
 6756W        W16449  13.767   2.432  15.372 -0.1778 -0.2695  0.1211
 6757W        W16450  14.757   9.057   4.017  0.1296  0.0309  0.0657
 6758W        W16451  11.807  13.498  12.406  0.0914 -0.0760 -0.1119
 6759W        W16452   6.336  12.382   3.265  0.0358  0.2537  0.0629
 6760W        W16453  16.713   3.374   2.035 -0.2128  0.0976 -0.0083
 6761W        W16454   2.571   9.951   4.128 -0.3633 -0.2141  0.0822
 6762W        W16455   1.975   2.028  14.889 -0.0200 -0.3014 -0.0446
 6763W        W16456  14.229   4.079   3.641  0.0144  0.1123 -0.2084
 6764W        W16457  12.627   5.463   5.311 -0.1604 -0.0401  0.1999
 6765W        W16458   6.221   0.510  15.940 -0.0369  0.0309 -0.0164
 6766W        W16459   2.839   1.126  12.231  0.2487  0.0898  0.1586
 6767W        W16460   6.858   0.959  12.354  0.0710  0.2350  0.1349
 6768W        W16461  11.804  14.307  14.869  0.3405 -0.5080  0.1018
 6769W        W16462   3.374  15.388  16.983  0.0431  0.0907  0.4580
 6770W        W16463  10.155   4.565  16.379  0.1851 -0.1256 -0.4190
 6771W        W16464   1.713  16.426   3.269  0.0452  0.1554 -0.0785
 6772W        W16465   9.926   2.655   0.150  0.0634 -0.1938  0.1319
 6773W        W16466  11.692  13.831   5.546  0.0399  0.1263  0.0698
 6774W        W16467   2.501  15.343   2.063 -0.0144  0.2046 -0.1457
 6775W        W16468  14.089  17.287  13.493 -0.0029 -0.2129  0.1150
 6776W        W16469  12.288  12.143   5.215 -0.1063 -0.1673  0.0167
 6777W        W16470   2.735  17.287  16.619 -0.2835 -0.1502  0.0018
 6778W        W16471   9.875  10.973   0.570  0.0707 -0.1531 -0.0897
 6779W        W16472  16.750  11.324   1.809  0.0834  0.0868  0.1227
 6780W        W16473   5.765   5.037  14.306 -0.0073  0.5055 -0.2611
 6781W        W16474  13.399  13.387  16.975 -0.1575  0.1192  0.0511
 6782W        W16475  15.001  14.825   4.195 -0.1626 -0.0193 -0.2481
 6783W        W16476  17.332   2.732  12.023  0.1099 -0.0261  0.0275
 6784W        W16477   1.230   2.381   2.168 -0.1044  0.1258  0.2889
 6785W        W16478   7.491  12.543  16.249  0.3985 -0.0434  0.1960
 6786W        W16479   5.764   5.402  13.528 -0.1762  0.2417  0.1884
 6787W        W16480   5.271  14.143   3.389 -0.2279  0.0271 -0.1215
 6788W        W16481   5.120  11.432  15.059  0.1026 -0.1312  0.1552
 6789W        W16482  10.045   5.942  17.126 -0.1481  0.0130  0.3303
 6790W        W16483   3.992   5.297  13.477 -0.1842 -0.0555  0.0510
 6791W        W16484  13.748   8.726   5.326 -0.3272 -0.0709  0.1134
 6792W        W16485   5.875   9.849   4.315  0.0165  0.1528  0.2758
 6793W        W16486  15.811  15.634   6.143 -0.0083 -0.2076  0.0870
 6794W        W16487   6.365  12.457   5.297 -0.0006  0.1089  0.1054
 6795W        W16488  16.337  13.218   1.720  0.2052 -0.2797 -0.0135
 6796W        W16489   6.923   5.706   2.279  0.0697 -0.0614 -0.1207
 6797W        W16490   5.478   2.690  16.405  0.0927  0.1860 -0.0887
 6798W        W16491   9.790   6.480  15.776 -0.0126 -0.3837  0.2500
 6799W        W16492  14.309   4.345  14.010  0.2596  0.1357 -0.0419
 6800W        W16493  16.094  15.632   4.417  0.1289  0.0584 -0.0015
 6801W        W16494   1.996  15.734  16.609  0.3689  0.1733 -0.0355
 6802W        W16495  10.284   5.828   3.440  0.0774 -0.2031 -0.1958
 6803W        W16496   8.187  17.308   1.619  0.1630 -0.1563  0.0807
 6804W        W16497   3.084   8.588   0.811 -0.1828 -0.2438 -0.3452
 6805W        W16498  13.157   9.037  15.445 -0.1146  0.1853  0.1089
 6806W        W16499  11.249  12.506   7.143  0.0317 -0.0089 -0.1692
 6807W        W16500   4.888   8.674   1.051 -0.2512  0.2793  0.0331
 6808W        W16501  15.222   1.990   0.054  0.1097  0.1467 -0.1153
 6809W        W16502  11.734   8.885   0.321 -0.1725  0.1217  0.1445
 6810W        W16503  14.487   5.681   5.941 -0.1531 -0.1612  0.2315
 6811W        W16504  17.559   2.137   4.862 -0.0724  0.2114 -0.1795
 6812W        W16505  12.797   5.994  15.821 -0.1510  0.0812  0.1414
 6813W        W16506   6.184  15.846   2.218  0.4272 -0.2343  0.0671
 6814W        W16507   9.651   0.152  16.782  0.0026  0.0201  0.0299
 6815W        W16508   3.698   3.729  12.098  0.2377 -0.0538  0.2475
 6816W        W16509   2.897   5.600  12.539  0.2273  0.0117 -0.0334
 6817W        W16510   7.091  14.625   5.587  0.4260  0.1076  0.0478
 6818W        W16511   2.509  14.649   2.614  0.1674  0.1794  0.1856
 6819W        W16512   5.727  13.108   4.599 -0.2015  0.0307 -0.2193
 6820W        W16513  14.768   3.636  16.913 -0.1443 -0.2908  0.0195
 6821W        W16514   4.041  12.736  13.283  0.0440  0.0689 -0.2823
 6822W        W16515  10.586  17.275   3.849 -0.2783  0.1857 -0.3385
 6823W        W16516  10.254  13.566  13.963 -0.1249 -0.2406 -0.0671
 6824W        W16517  12.582   5.671  17.382 -0.0781 -0.0167 -0.1023
 6825W        W16518  14.591   0.309   2.766  0.0412  0.0695 -0.0752
 6826W        W16519   6.673  12.998   1.079  0.0937 -0.1724  0.1023
 6827W        W16520   0.502  12.012   1.048  0.1009  0.1978  0.1618
 6828W        W16521  15.337   5.173   1.285 -0.2105  0.0568  0.0220
 6829W        W16522  12.596   2.319   0.866  0.1272  0.0625  0.2960
 6830W        W16523   7.732   5.847   1.213  0.0156 -0.2453  0.1278
 6831W        W16524   3.524  12.227  17.134  0.3017  0.0046 -0.1703
 6832W        W16525   0.862   1.876   4.082  0.0451 -0.3643 -0.1066
 6833W        W16526   8.057   4.078  16.017  0.2243 -0.0398 -0.0446
 6834W        W16527   9.720   5.009   5.447  0.0183 -0.0372  0.3347
 6835W        W16528   4.710  12.503  13.724  0.1774  0.0454 -0.6382
 6836W        W16529  10.306  10.692  13.376 -0.0039 -0.2172  0.0241
 6837W        W16530   6.460   2.258   1.541 -0.0705 -0.3492 -0.1561
 6838W        W16531  11.187   8.965   1.974  0.1611 -0.4172 -0.1057
 6839W        W16532  10.202  15.793   4.196  0.0126 -0.0777 -0.0705
 6840W        W16533  12.748   0.127   4.970 -0.1564  0.2676  0.1875
 6841W        W16534  15.826  16.575   1.837  0.0215  0.2081 -0.1780
 6842W        W16535   3.677  17.008  17.288 -0.2135 -0.3229 -0.0954
 6843W        W16536  14.379   6.463   2.216 -0.3800  0.1688 -0.2445
 6844W        W16537   7.264   7.711   4.171  0.0174  0.4243  0.0820
 6845W        W16538  15.267   3.751  17.662 -0.0109 -0.1398 -0.0312
 6846W        W16539  12.865   6.787  16.217 -0.2360 -0.2498 -0.2197
 6847W        W16540   5.235  17.100   0.183  0.1105 -0.1899  0.2650
 6848W        W16541   6.844  12.204  14.241 -0.0426  0.1880  0.3711
 6849W        W16542   2.740   0.834   3.759 -0.0600  0.0001  0.1629
 6850W        W16543   1.656   1.545   6.820  0.1514 -0.4161  0.0777
 6851W        W16544   1.787  14.149  11.787  0.1572  0.0119  0.1474
 6852W        W16545  11.137   1.543  13.841 -0.3302 -0.2236  0.1991
 6853W        W16546   7.481  16.225  16.275 -0.3912 -0.1003 -0.4102
 6854W        W16547  13.534  17.278  17.588 -0.0194 -0.1052  0.0232
 6855W        W16548  16.416  12.211  13.165  0.1892  0.0863 -0.0780
 6856W        W16549  11.092  11.171  17.619  0.1252  0.0387  0.0090
 6857W        W16550  14.609   5.831   4.986 -0.0847 -0.1507  0.0483
 6858W        W16551   1.446   2.096   2.583 -0.0159 -0.1790 -0.0524
 6859W        W16552   6.331  10.796   5.792  0.2667 -0.0397  0.1869
 6860W        W16553  11.058  15.827  13.870 -0.1311 -0.0344  0.1620
 6861W        W16554  17.094  10.071  16.197  0.0493 -0.1089  0.0528
 6862W        W16555   6.660   5.815  12.055 -0.0912  0.2652  0.0682
 6863W        W16556   5.117  17.116   3.167 -0.0234 -0.0391 -0.2700
 6864W        W16557  17.565  14.329  14.580 -0.0714  0.1826  0.2864
 6865W        W16558   2.135  13.489   1.748 -0.0758  0.0351 -0.0506
 6866W        W16559   6.187   5.794  15.890 -0.6592  0.2592 -0.0723
 6867W        W16560  11.922   0.952   6.721  0.2198  0.3011 -0.0018
 6868W        W16561  10.426  17.665  13.533 -0.2643  0.3518  0.0228
 6869W        W16562  13.459   9.918  15.817  0.1240 -0.1136  0.2248
 6870W        W16563   7.133  14.786   4.235  0.0149 -0.2812  0.4108
 6871W        W16564  10.383   5.004   0.377 -0.2823 -0.2319 -0.0558
 6872W        W16565  12.425   6.536   6.077  0.0603  0.0972  0.0737
 6873W        W16566   4.723   6.619  15.788 -0.2365 -0.1327  0.1529
 6874W        W16567  11.465  15.565  12.311 -0.1877  0.3299 -0.0664
 6875W        W16568   6.269  12.297  11.747 -0.0155  0.4690 -0.3274
 6876W        W16569   9.163  15.992  15.821 -0.1624  0.2442 -0.0203
 6877W        W16570   9.823  12.095  15.550  0.3354  0.0747 -0.2341
 6878W        W16571  17.042  12.528  15.608  0.1480  0.1680  0.1325
 6879W        W16572   5.296   7.743   1.255  0.0633  0.3535  0.1480
 6880W        W16573  15.862   5.946  13.765  0.1047 -0.2747 -0.2679
 6881W        W16574   1.916   7.619  14.881 -0.0622 -0.1658 -0.1389
 6882W        W16575  10.704  12.830  12.489  0.1396  0.2051  0.1624
 6883W        W16576  16.188  17.197  17.273  0.0714  0.1582 -0.2518
 6884W        W16577  15.773  14.244   1.097 -0.3792 -0.0733 -0.0758
 6885W        W16578  17.454  10.473   2.228  0.1970  0.3729  0.3257
 6886W        W16579  15.643  13.861  12.270 -0.3140 -0.1561  0.1968
 6887W        W16580  14.797  11.237   2.996  0.3354  0.0627 -0.0834
 6888W        W16581   2.741   1.140  14.429 -0.3495  0.2173  0.1741
 6889W        W16582   9.351  16.949  13.671 -0.0553  0.1918  0.3001
 6890W        W16583  12.140  14.541   5.398 -0.0913  0.3064 -0.0065
 6891W        W16584   8.696   8.228   6.897 -0.2864  0.1165  0.0415
 6892W        W16585  15.798   7.229   6.244  0.4267 -0.1324 -0.1312
 6893W        W16586   3.471   0.459  16.172  0.1648 -0.1607  0.0481
 6894W        W16587  12.885   9.390  12.627 -0.0182  0.2362  0.0754
 6895W        W16588  13.527  14.916   5.311 -0.2032 -0.0491 -0.0444
 6896W        W16589   0.914   4.985  12.336  0.1194  0.0080  0.2273
 6897W        W16590  11.105   4.124   1.424  0.3185 -0.1434  0.0443
 6898W        W16591   7.345   5.428  13.580  0.0333  0.2621  0.1647
 6899W        W16592  16.405   6.124  17.463  0.0824 -0.0603  0.2232
 6900W        W16593  15.245   3.511  16.848 -0.0677  0.1982  0.2004
 6901W        W16594   9.925   9.640   5.990  0.0571 -0.0879  0.3165
 6902W        W16595  12.684  11.733   2.434  0.0027  0.0207 -0.1358
 6903W        W16596   3.643   5.532   0.843  0.0430  0.0179 -0.1048
 6904W        W16597  16.463   8.154   4.205 -0.1273  0.1000  0.0930
 6905W        W16598  15.156   4.426  12.993 -0.3196 -0.1601  0.1599
 6906W        W16599  12.625   0.380  15.897 -0.1703 -0.2613 -0.3064
 6907W        W16600   6.517   1.519  14.428  0.0427  0.0438 -0.2949
 6908W        W16601   2.518   9.769  16.953 -0.2578 -0.0313 -0.6714
 6909W        W16602   9.561   0.105   1.245 -0.2278 -0.1202 -0.3260
 6910W        W16603   7.130   3.795  14.721 -0.0117 -0.1803  0.0243
 6911W        W16604  12.901   9.579   5.389  0.0299 -0.0914  0.1498
 6912W        W16605  13.427  15.618   2.334  0.1493 -0.0728  0.0547
 6913W        W16606  14.288   9.118   4.253  0.1021 -0.2251  0.0694
 6914W        W16607  17.274  17.212   0.428  0.1331  0.2636 -0.0202
 6915W        W16608   2.418   9.022  15.490 -0.1987 -0.1632 -0.0247
 6916W        W16609  12.844   9.250   3.976 -0.0939 -0.0815  0.0898
 6917W        W16610   4.810   7.340   6.382  0.0747 -0.2707  0.1641
 6918W        W16611  16.591   5.456   6.402  0.3400  0.0455 -0.3807
 6919W        W16612  17.438   6.085  11.965 -0.1036  0.1630  0.1635
 6920W        W16613   0.603  11.379   3.264  0.0328  0.0682 -0.2102
 6921W        W16614   1.894   8.586   0.775 -0.0191 -0.3858  0.2091
 6922W        W16615  11.923  16.123  16.777 -0.1930 -0.2536  0.1758
 6923W        W16616   3.793   6.539   1.200 -0.1474  0.0010  0.2672
 6924W        W16617  12.743  10.379  16.864  0.2299 -0.2077 -0.1917
 6925W        W16618   6.453   1.013   8.860 -0.0185  0.2142  0.0656
 6926W        W16619  17.438  16.631  12.250 -0.1856 -0.0209  0.1653
 6927W        W16620  11.165  10.663  14.071  0.3072  0.0627  0.0362
 6928W        W16621   8.926   0.852  12.254 -0.0724 -0.0972 -0.0966
 6929W        W16622  16.484  13.597   1.382  0.1893 -0.0705  0.0825
 6930W        W16623   3.059   9.988   4.422  0.1144  0.2517  0.0328
 6931W        W16624  17.422   0.435   1.280 -0.0499 -0.1092 -0.0607
 6932W        W16625   7.081  13.923   1.171 -0.1221 -0.2732 -0.0481
 6933W        W16626   6.709   4.436   1.697  0.0634  0.0093 -0.1693
 6934W        W16627   6.546   1.774  16.048  0.0447  0.3085  0.1713
 6935W        W16628  12.959   1.282   6.016  0.1084 -0.0933 -0.1753
 6936W        W16629   5.625   5.183  11.984 -0.0711 -0.1778  0.0791
 6937W        W16630  15.539   4.244   0.224 -0.0773  0.2535  0.3943
 6938W        W16631  12.569  10.483  14.615 -0.0681 -0.2496 -0.3813
 6939W        W16632   1.673   3.704   5.674 -0.1083 -0.1962 -0.1723
 6940W        W16633   2.592  12.431   2.589  0.1712 -0.2787 -0.0035
 6941W        W16634  10.998   5.955   5.037 -0.1622 -0.1548 -0.0170
 6942W        W16635  17.143  14.199   0.559  0.2005  0.0542  0.0397
 6943W        W16636   4.556   4.688  13.750 -0.1297 -0.1017 -0.0627
 6944W        W16637  17.629  16.209  17.422  0.0175  0.1173  0.0901
 6945W        W16638   6.441   5.956  17.383 -0.1697 -0.0531 -0.1991
 6946W        W16639   9.424  14.719   5.285  0.0808  0.0811  0.0398
 6947W        W16640   2.431  15.554   1.592 -0.1569 -0.3042 -0.1200
 6948W        W16641  14.373   3.767  16.128 -0.0409 -0.1000 -0.1251
 6949W        W16642   7.492   6.152   0.653  0.0600 -0.0432  0.1155
 6950W        W16643   1.219   7.740   4.938  0.1318 -0.2146 -0.0475
 6951W        W16644  15.726   6.827   5.450 -0.0342  0.1465 -0.0583
 6952W        W16645  16.567  14.816  12.585  0.0456 -0.1199  0.0389
 6953W        W16646   6.685   0.944  12.795 -0.3023 -0.1123  0.5158
 6954W        W16647  12.946  13.738   6.019  0.2899  0.0675 -0.0695
 6955W        W16648  15.223  14.611   1.372 -0.2725 -0.2404 -0.0648
 6956W        W16649  12.225  16.649  15.391  0.0418  0.0354  0.1203
 6957W        W16650  14.574  17.494   3.032  0.3172  0.2093 -0.2965
 6958W        W16651   0.441   8.590   1.153 -0.5469 -0.0283  0.3116
 6959W        W16652  13.668  16.501  12.170 -0.0851  0.1209  0.1639
 6960W        W16653  10.060  13.272  17.289 -0.0100  0.1507 -0.0897
 6961W        W16654   5.021   9.107  17.303 -0.1119  0.0492  0.1080
 6962W        W16655  15.421   4.875   2.135 -0.1173  0.1615  0.1585
 6963W        W16656   6.859  13.446   1.013  0.1734 -0.1063  0.0831
 6964W        W16657   4.967   2.314  14.706 -0.0115  0.2372 -0.0727
 6965W        W16658  10.640   7.191  14.437  0.2271 -0.1325  0.0067
 6966W        W16659   9.634  14.237  13.145  0.2638 -0.1471  0.2911
 6967W        W16660  10.252  11.213  14.263 -0.2256  0.0845  0.1709
 6968W        W16661   6.782  14.927   4.760  0.0517 -0.0320 -0.0085
 6969W        W16662  12.496   7.512   4.126 -0.0705 -0.1523  0.1634
 6970W        W16663   4.618   5.354   6.358 -0.0590  0.5851  0.0958
 6971W        W16664  11.818  17.376  13.123  0.1851  0.0419 -0.1540
 6972W        W16665  16.825   9.740  13.784  0.0846  0.2880  0.1716
 6973W        W16666  17.601   4.110   5.827 -0.0410 -0.1436 -0.1254
 6974W        W16667   6.859  17.098  12.609 -0.5408 -0.0602 -0.0253
 6975W        W16668   9.941   1.527  13.701  0.1661 -0.2507 -0.0004
 6976W        W16669  15.711  14.362  13.861  0.4472 -0.1980  0.2765
 6977W        W16670  13.043   8.831   6.523 -0.2780  0.1639  0.1218
 6978W        W16671  17.465  11.036   3.126  0.0438 -0.0277  0.3204
 6979W        W16672  12.983  15.265   0.179 -0.1019 -0.2433 -0.3880
 6980W        W16673   0.130  16.610   2.360  0.1382 -0.0567  0.1378
 6981W        W16674   7.780   0.570  12.210 -0.1834  0.2031 -0.1690
 6982W        W16675  10.508   2.951   2.356  0.0162  0.0763 -0.0098
 6983W        W16676   6.001  10.708   2.597 -0.1716  0.0882 -0.0747
 6984W        W16677   8.210   2.417   0.972 -0.0549  0.1237 -0.3801
 6985W        W16678  12.528  16.992  15.079  0.0375  0.2300  0.0258
 6986W        W16679  13.223   9.351   1.820 -0.0842  0.0840  0.3209
 6987W        W16680   8.471  16.665  13.202 -0.0896 -0.3547  0.1834
 6988W        W16681   8.026   4.098   1.474 -0.1043  0.0009 -0.0324
 6989W        W16682  14.051  14.721  12.644 -0.2157 -0.2793  0.3465
 6990W        W16683   5.928  16.023  14.072 -0.3370  0.2479 -0.0454
 6991W        W16684  14.148   6.946   0.277 -0.2756  0.0890 -0.0528
 6992W        W16685   0.994   7.177  15.479 -0.1228 -0.3588 -0.1898
 6993W        W16686   6.649   0.665   6.568  0.1977 -0.4813  0.0609
 6994W        W16687   3.941   9.859  17.004 -0.0513  0.0465  0.1913
 6995W        W16688   5.504   7.868  14.926  0.1918 -0.1431  0.1170
 6996W        W16689   1.990   5.130   0.299 -0.0264  0.1549  0.1257
 6997W        W16690   7.826  12.885  16.373  0.0841 -0.3049 -0.5092
 6998W        W16691   8.637   4.198  11.729 -0.1468  0.1210  0.2543
 6999W        W16692   9.948   7.131  12.346  0.0100  0.1710  0.1148
 7000W        W16693   4.042   3.170   0.880 -0.1068  0.0735  0.0224
 7001W        W16694   3.673  10.245   5.884  0.0898 -0.2032 -0.0701
 7002W        W16695  14.447   5.625  13.452  0.2504  0.2263  0.2425
 7003W        W16696  11.926   6.332  17.206 -0.2978 -0.1909  0.0166
 7004W        W16697  17.289   3.250  12.082 -0.0840 -0.0678 -0.1975
 7005W        W16698   5.660  17.468  11.846  0.1297 -0.3093 -0.1173
 7006W        W16699   6.778  13.829  11.783  0.0480  0.3156  0.0161
 7007W        W16700   6.708  12.422   1.419  0.1930  0.0491 -0.1223
 7008W        W16701   9.338  10.923   6.199  0.0231  0.2329 -0.1274
 7009W        W16702   7.952  14.478   4.347 -0.1849 -0.1685 -0.0352
 7010W        W16703   1.575   7.203  16.368  0.1647 -0.1065  0.2585
 7011W        W16704   0.402   4.874  15.834 -0.1061 -0.1957  0.1332
 7012W        W16705   6.755   9.442   5.254  0.3292  0.1506  0.0374
 7013W        W16706   4.638   2.711   2.243 -0.0778  0.3569  0.2530
 7014W        W16707   4.220   0.861   4.203 -0.1084  0.1632 -0.0189
 7015W        W16708  17.337  15.901   5.870  0.3773  0.1351 -0.2334
 7016W        W16709   2.131  10.619   3.811 -0.1058 -0.0163 -0.0398
 7017W        W16710  10.081   5.845  14.587  0.2777  0.0666  0.1169
 7018W        W16711   0.282   0.732  11.360 -0.1658 -0.1051  0.1319
 7019W        W16712  13.789  14.789  15.729 -0.2619  0.1280  0.2630
 7020W        W16713  12.475  12.952   5.940 -0.3806 -0.0741 -0.2282
 7021W        W16714  16.411  15.491   3.294  0.3634 -0.1752 -0.0867
 7022W        W16715  13.230  10.743   2.651  0.4206 -0.1645 -0.0015
 7023W        W16716  13.182   3.145  15.489  0.3854 -0.0270  0.0016
 7024W        W16717   9.579   0.536  17.683  0.0900 -0.2600 -0.1159
 7025W        W16718   9.019   9.332   4.913  0.0094 -0.1717  0.1982
 7026W        W16719   6.139   8.636  14.800  0.0575 -0.1335 -0.1733
 7027W        W16720   4.081  10.863   2.556  0.3404  0.4085  0.3034
 7028W        W16721   5.695   6.632  11.533  0.2660 -0.0073 -0.2044
 7029W        W16722   3.423   5.119  15.137 -0.0322  0.1234  0.1303
 7030W        W16723  11.846  14.201   5.143  0.2497  0.2358 -0.1092
 7031W        W16724   2.375   3.923  11.353 -0.1102 -0.1104 -0.0622
 7032W        W16725   4.570   0.137   5.825 -0.0933 -0.4206 -0.1235
 7033W        W16726  11.858   7.891   3.569  0.3118  0.0430 -0.1973
 7034W        W16727  14.798   4.002  13.211  0.1168  0.0711 -0.0416
 7035W        W16728  12.924   5.607  13.871  0.1024  0.0448  0.0026
 7036W        W16729   5.819   3.739   0.427 -0.3864  0.3389 -0.1435
 7037W        W16730   1.258   4.362  14.861 -0.4315  0.3261 -0.1632
 7038W        W16731  14.461   7.399   2.534 -0.0871 -0.2191 -0.1393
 7039W        W16732  14.097   0.788   1.697 -0.2628  0.1006 -0.0838
 7040W        W16733  11.860   2.168   5.031 -0.0243 -0.0260  0.2012
 7041W        W16734  10.920  13.248   0.728 -0.0240 -0.0026  0.1140
 7042W        W16735  14.129  17.559  13.088  0.1794 -0.0693 -0.3797
 7043W        W16736   5.636  14.598   5.070 -0.0679 -0.1205  0.3583
 7044W        W16737   4.745  12.218  14.890 -0.0113  0.0668 -0.0945
 7045W        W16738   4.977  16.556  14.396 -0.0027 -0.2580 -0.1499
 7046W        W16739  15.075   0.481  14.008  0.1132  0.1590 -0.1825
 7047W        W16740  12.482   4.757  13.856  0.1810 -0.0743 -0.2886
 7048W        W16741  14.284  10.998   2.760  0.2645 -0.1959  0.1660
 7049W        W16742  11.757  16.332  15.545 -0.1079  0.0416  0.0754
 7050W        W16743   4.865   3.231   0.667  0.2595  0.0427  0.2022
 7051W        W16744  12.653   9.322  15.411 -0.1241 -0.0351  0.0155
 7052W        W16745  12.007  11.034  14.195  0.0571  0.1531 -0.0565
 7053W        W16746  17.135   0.325   4.385  0.0011 -0.0748  0.0683
 7054W        W16747   1.572  14.766   2.201  0.0118 -0.0591 -0.2295
 7055W        W16748   0.187   4.268   3.703 -0.2491  0.3419  0.1488
 7056W        W16749  10.222   5.349   0.019  0.2148  0.1513  0.0262
 7057W        W16750   8.287   4.628  13.703 -0.0880  0.2151 -0.2253
 7058W        W16751  12.029  17.174  17.583  0.2944 -0.6859  0.1717
 7059W        W16752  17.351   1.151   5.047 -0.1131  0.1052  0.0960
 7060W        W16753   5.716   5.204   4.968  0.1423  0.1306  0.0474
 7061W        W16754   1.246  16.994   1.124  0.1233 -0.3178 -0.0367
 7062W        W16755  10.598   8.139  12.779  0.0876  0.1623 -0.0748
 7063W        W16756   4.171   8.427   2.651 -0.2019  0.1387  0.0069
 7064W        W16757   2.623   9.649   0.891 -0.2472  0.2511 -0.0190
 7065W        W16758   1.544  13.989   4.407  0.3139 -0.0313 -0.3211
 7066W        W16759   1.868  13.202   3.673  0.0422 -0.2248 -0.1467
 7067W        W16760  14.507   6.509   4.983  0.0006 -0.2102 -0.0492
 7068W        W16761  14.973   8.180   4.673  0.5637  0.2000 -0.2537
 7069W        W16762  10.770  15.468   5.385 -0.0014 -0.0100  0.2129
 7070W        W16763  13.313   3.749  12.118 -0.0681  0.1876 -0.1653
 7071W        W16764  17.391   3.543  13.688 -0.0215  0.2251 -0.0087
 7072W        W16765   1.403  17.510  16.955 -0.0977 -0.3236  0.4656
 7073W        W16766  14.949   0.250   3.705 -0.0649  0.0800 -0.0581
 7074W        W16767  17.011  15.977  17.553  0.2235 -0.4135 -0.3353
 7075W        W16768  15.661  15.989  12.639 -0.4480 -0.0691  0.0207
 7076W        W16769  12.297  13.836   1.413 -0.0188 -0.1677  0.0873
 7077W        W16770   2.747   8.590   2.370 -0.0751  0.3567 -0.1193
 7078W        W16771   6.246   7.627   4.016 -0.4952  0.0436 -0.2481
 7079W        W16772  14.791  10.666   0.285  0.0633 -0.2433 -0.0616
 7080W        W16773   1.020   1.773  16.356  0.3608 -0.2839 -0.3230
 7081W        W16774  12.517   1.669   5.467 -0.1826 -0.0340 -0.0261
 7082W        W16775  14.366  11.644   1.378 -0.0245  0.1179 -0.0021
 7083W        W16776   1.596  17.039   0.720 -0.1702  0.0130  0.1466
 7084W        W16777  17.293   3.208  13.287 -0.1300  0.0129 -0.1338
 7085W        W16778  11.527  15.491   2.237 -0.1134 -0.1522 -0.2432
 7086W        W16779  15.327   6.471  14.785 -0.2145 -0.0256 -0.1483
 7087W        W16780   7.772   4.814  11.837  0.0954 -0.0873  0.1296
 7088W        W16781  13.015   4.560  13.816 -0.2358  0.1830  0.0725
 7089W        W16782  15.181  17.195   4.372  0.0233  0.3314  0.3405
 7090W        W16783  16.772   7.478   0.559 -0.2461 -0.0168 -0.6410
 7091W        W16784  13.325  10.612  12.633 -0.1383  0.1514 -0.0604
 7092W        W16785  14.868  13.724  14.707 -0.0598 -0.3096  0.1255
 7093W        W16786  16.540   1.358   2.134 -0.1686  0.2517 -0.1647
 7094W        W16787   2.470   3.066   2.424  0.2443 -0.1131  0.0333
 7095W        W16788   8.357  14.322  16.216 -0.0140 -0.1082  0.0661
 7096W        W16789   3.351  12.460  12.139 -0.3237  0.0336 -0.3125
 7097W        W16790  15.864  14.928  17.387  0.0904  0.0193  0.1792
 7098W        W16791   5.735  12.947   0.651 -0.0877 -0.0410 -0.1400
 7099W        W16792   8.504  10.562   0.312 -0.2129  0.2958  0.2660
 7100W        W16793   4.413  12.724  12.648  0.0351 -0.1537  0.0876
 7101W        W16794   3.766   3.922   4.911  0.2759  0.1223 -0.1635
 7102W        W16795  16.400   0.539   2.750  0.0099  0.3066  0.0844
 7103W        W16796  13.158  16.130  14.564 -0.0554  0.0432 -0.0942
 7104W        W16797  14.431   4.976  13.127 -0.1394  0.1321 -0.0699
 7105W        W16798   4.684   1.626   5.231  0.1181  0.0171 -0.1910
 7106W        W16799   5.863  11.185  16.327  0.0279 -0.0640  0.0968
 7107W        W16800  16.385  13.098   6.157  0.0766  0.0530 -0.0492
 7108W        W16801  13.976  17.183  16.766  0.1067  0.0554 -0.0012
 7109W        W16802   3.591   0.840  15.412 -0.2717  0.1869  0.2138
 7110W        W16803  11.615   6.565  15.632 -0.0891 -0.0910 -0.2835
 7111W        W16804   1.497   1.488   1.901 -0.2160  0.2125 -0.1197
 7112W        W16805  16.143   3.974   4.284 -0.2060 -0.2699 -0.0864
 7113W        W16806  10.963   7.598  13.220 -0.1932  0.1027  0.0524
 7114W        W16807   0.257  14.553   2.509  0.0950  0.2676  0.0819
 7115W        W16808   1.022   0.889   5.173  0.0325  0.0252 -0.1738
 7116W        W16809  13.273   7.733   4.892  0.3125 -0.3127  0.2667
 7117W        W16810  11.733   5.469  16.125 -0.0050  0.3089 -0.1539
 7118W        W16811  17.483  17.051   6.213  0.1268  0.0301 -0.0427
 7119W        W16812   3.957   7.050   6.129  0.0659 -0.3007 -0.1598
 7120W        W16813  11.721   6.437  12.700 -0.2013 -0.2133 -0.0761
 7121W        W16814   7.972  16.317  16.481  0.2804 -0.3652  0.2142
 7122W        W16815   6.684  14.373   0.501 -0.1720  0.1158 -0.1599
 7123W        W16816   9.159   7.972   3.559 -0.2409  0.0134  0.1144
 7124W        W16817   6.952  10.894   2.353  0.0135  0.0451 -0.3392
 7125W        W16818   2.460   0.454   3.807 -0.0109  0.2869 -0.1643
 7126W        W16819  12.428   6.328   0.409 -0.0490  0.0720  0.1577
 7127W        W16820  10.764   8.391  12.385  0.3577 -0.0691 -0.1089
 7128W        W16821   7.009   4.673  14.056  0.0247 -0.2090  0.1571
 7129W        W16822  17.228  14.870  17.169 -0.0416 -0.1015  0.1289
 7130W        W16823  12.981   7.121   4.018 -0.0033 -0.3559 -0.1323
 7131W        W16824  12.102   3.571   4.671 -0.1375  0.2080  0.0169
 7132W        W16825  13.541   5.106  13.034 -0.1167  0.0770  0.2470
 7133W        W16826   2.603   5.749   3.617  0.0341  0.0372 -0.1795
 7134W        W16827  16.673   5.928  17.084 -0.1001 -0.5134  0.1103
 7135W        W16828   1.389   5.460   0.826 -0.2298  0.0685  0.1663
 7136W        W16829   7.616   3.695   6.436 -0.0745 -0.0189 -0.2758
 7137W        W16830   2.449   8.000  11.644  0.0035 -0.0615 -0.1264
 7138W        W16831   0.182   4.531  15.567 -0.0814  0.1131  0.2051
 7139W        W16832  14.919  17.561   2.638  0.0345 -0.3579  0.3738
 7140W        W16833   2.768   6.503   0.091 -0.2093 -0.2198 -0.0547
 7141W        W16834  15.918   9.468  16.157  0.1195  0.0633 -0.1698
 7142W        W16835   2.718   1.368  12.698 -0.2242 -0.1898 -0.1614
 7143W        W16836   1.919  10.750  11.435  0.3671  0.4345  0.0950
 7144W        W16837  14.616   5.535   1.154  0.0202 -0.0473 -0.1328
 7145W        W16838  12.228   0.033   4.943  0.0533  0.0239 -0.0399
 7146W        W16839   3.214   4.282  13.263 -0.1469  0.0958  0.0800
 7147W        W16840   1.640  14.697   5.570  0.0265 -0.1188 -0.2447
 7148W        W16841   5.514   1.783   2.804 -0.1877  0.2904  0.0325
 7149W        W16842   2.178   4.191   1.637 -0.4641  0.0706  0.4012
 7150W        W16843   7.794   1.987   0.286 -0.1697  0.2614 -0.5362
 7151W        W16844  14.391  14.125   2.013 -0.1558 -0.0303 -0.1810
 7152W        W16845  17.137  10.475  11.320  0.0737 -0.0352 -0.3429
 7153W        W16846   4.346  11.776  13.640  0.0701 -0.0651  0.0228
 7154W        W16847   5.272  10.205  15.771  0.1198 -0.1907 -0.0046
 7155W        W16848   1.283  13.517   2.060  0.2092  0.0177 -0.0695
 7156W        W16849  13.746   1.099   3.499  0.1559  0.0152 -0.0976
 7157W        W16850  10.675   7.730  14.531 -0.0356 -0.1321 -0.1539
 7158W        W16851  16.006   7.020   3.765  0.0123 -0.0796 -0.0266
 7159W        W16852  15.360   4.578   5.673 -0.0131  0.5786 -0.2139
 7160W        W16853  14.579   8.578   3.534  0.0363  0.1154 -0.1013
 7161W        W16854   2.768   7.776  11.342 -0.4749 -0.0568 -0.1528
 7162W        W16855  14.030   0.122  12.172 -0.1162 -0.0961 -0.0044
 7163W        W16856   3.672   4.448  17.546  0.0346 -0.1454  0.2310
 7164W        W16857  10.392   6.274   4.350  0.2349 -0.1196 -0.1850
 7165W        W16858   0.229   3.537  15.746 -0.0390 -0.1330 -0.0226
 7166W        W16859  10.415  11.463  16.797 -0.2404  0.5164 -0.4403
 7167W        W16860   5.968   1.556   2.765 -0.0623 -0.2829 -0.1822
 7168W        W16861   2.851   0.445  13.524 -0.0018 -0.1310  0.1513
 7169W        W16862   3.029  15.756   3.484  0.4847  0.0469  0.1714
 7170W        W16863  14.227  10.468   4.427 -0.0195  0.1646  0.0080
 7171W        W16864   8.104  15.201   3.310  0.3065 -0.3993  0.0549
 7172W        W16865   2.116  17.558  12.141 -0.4041 -0.2048 -0.2109
 7173W        W16866   3.018   6.668  11.358 -0.0809 -0.1288  0.0791
 7174W        W16867   2.407   3.567  15.370 -0.0043 -0.1774  0.1558
 7175W        W16868   7.265   8.942   3.770 -0.0191 -0.0236  0.1743
 7176W        W16869   7.171   7.995   0.554 -0.0787 -0.1525 -0.2268
 7177W        W16870   0.032  14.709   4.316  0.1652 -0.0750  0.0151
 7178W        W16871   5.615   2.540   1.785  0.0876  0.0839  0.0010
 7179W        W16872   2.478   4.165  16.024 -0.1190  0.3065  0.1936
 7180W        W16873  11.984   3.428   2.980  0.0449  0.0481  0.2624
 7181W        W16874  10.891  12.276  16.275 -0.5043  0.3068  0.0276
 7182W        W16875   4.763  15.664   1.880  0.3088 -0.0328 -0.1559
 7183W        W16876   6.524   4.205  12.566  0.0998 -0.1657  0.1574
 7184W        W16877  16.737  15.128   5.643  0.1694 -0.0382 -0.2017
 7185W        W16878   9.855  15.693  16.522  0.1074 -0.3758  0.0476
 7186W        W16879   3.725   9.487   5.257 -0.1936  0.3771 -0.1412
 7187W        W16880   4.124   6.962  15.203 -0.3288  0.0541 -0.0353
 7188W        W16881  16.925   1.549  16.470 -0.0394 -0.0927 -0.0591
 7189W        W16882  16.511   7.670   3.714  0.1937 -0.2982 -0.0253
 7190W        W16883   1.231   3.505  12.322  0.0177  0.0139 -0.0525
 7191W        W16884  11.013   7.713   4.731  0.0024  0.2371 -0.3597
 7192W        W16885   4.536   8.168  11.541 -0.0616  0.1121 -0.4320
 7193W        W16886   3.293  13.327  17.063  0.2412  0.0151 -0.1070
 7194W        W16887   1.131  15.724  12.544  0.0731 -0.1011  0.0301
 7195W        W16888   5.918   6.448  11.969 -0.0433  0.0452 -0.2746
 7196W        W16889   1.496   9.861  11.877  0.0087 -0.1093 -0.0904
 7197W        W16890   2.216   0.583  12.823 -0.1812 -0.0546  0.0523
 7198W        W16891   3.920   5.150  14.994  0.2201 -0.0315  0.1172
 7199W        W16892   2.273   7.256   6.482 -0.0830  0.4395 -0.1271
 7200W        W16893  14.508   6.255  12.678 -0.2233  0.0534  0.0957
 7201W        W16894  16.472  10.890   0.708  0.4430 -0.0362 -0.3135
 7202W        W16895  13.917  16.741  17.030  0.2311 -0.2447  0.3862
 7203W        W16896  16.190  15.053   1.376 -0.1069 -0.0468 -0.2864
 7204W        W16897  15.602   7.754   6.393 -0.2596  0.2787 -0.1355
 7205W        W16898   2.711   0.219  10.917 -0.2421 -0.0145  0.1938
 7206W        W16899  16.753   0.517  14.111 -0.0005 -0.3183 -0.0791
 7207W        W16900   7.643   1.718  15.555 -0.0023 -0.2442 -0.1379
 7208W        W16901  15.156  11.904   2.384  0.0583  0.4261  0.1046
 7209W        W16902   8.161  14.162  11.460  0.1229 -0.1414  0.1030
 7210W        W16903   9.335   2.624   6.484  0.2382 -0.4839  0.1499
 7211W        W16904  17.322  14.473  17.462 -0.0687  0.0065 -0.0286
 7212W        W16905  11.724  16.713   0.840 -0.3030  0.0455  0.4528
 7213W        W16906  16.964   0.211  17.547 -0.1237 -0.1565 -0.0106
 7214W        W16907   7.577   3.770  14.273 -0.0490  0.1467 -0.0245
 7215W        W16908   3.152   6.641   3.818 -0.2660 -0.1537  0.0841
 7216W        W16909   7.635   1.006  13.848  0.0508 -0.3257  0.0215
 7217W        W16910  10.756   8.290  16.160 -0.0882  0.2391  0.0150
 7218W        W16911  16.670  13.513  14.414 -0.0092  0.3104  0.0432
 7219W        W16912  16.672   5.489  16.344  0.1027 -0.0242  0.2374
 7220W        W16913   1.936  16.457  11.583 -0.0687 -0.5732  0.2860
 7221W        W16914   6.965   4.412   2.609 -0.0327  0.1151 -0.1536
 7222W        W16915  16.341   9.641   2.188 -0.0494 -0.0032 -0.1520
 7223W        W16916   5.197  14.625   2.831  0.1831 -0.1407 -0.0092
 7224W        W16917   1.404  10.761  16.258  0.0078 -0.0214 -0.2989
 7225W        W16918  17.622   1.717   3.995 -0.0790  0.0047 -0.0485
 7226W        W16919  15.958  10.007  14.210  0.3893 -0.2765  0.2706
 7227W        W16920  11.201   1.394   2.574 -0.0680  0.1570 -0.4079
 7228W        W16921   8.962   6.930   0.243 -0.1549  0.1665  0.0034
 7229W        W16922   8.117   8.250   0.452 -0.0281 -0.0907 -0.1283
 7230W        W16923   3.876   9.203  13.509 -0.1413 -0.0056 -0.1958
 7231W        W16924   4.070  15.918   5.455 -0.1786 -0.0292  0.0067
 7232W        W16925   4.705  16.372   4.404 -0.1578  0.2459 -0.0065
 7233W        W16926   8.572  10.449  17.118  0.3038 -0.1468 -0.1598
 7234W        W16927  10.306   0.168   3.523  0.0683 -0.0188 -0.2500
 7235W        W16928   1.898  13.140   4.163 -0.0827 -0.1651  0.3680
 7236W        W16929   0.436  12.041   5.061 -0.0123 -0.0491 -0.1445
 7237W        W16930   9.532   4.761  11.919  0.0127 -0.0984 -0.2690
 7238W        W16931   7.260   7.912   2.127  0.3605  0.1413  0.0704
 7239W        W16932  12.735   6.358  11.178 -0.2205 -0.0553 -0.0515
 7240W        W16933  17.605   9.668   6.503  0.0174  0.1593  0.2061
 7241W        W16934   2.363  17.505   5.169 -0.0118 -0.1699  0.3083
 7242W        W16935   9.764   8.580  16.518  0.0370 -0.2785 -0.1234
 7243W        W16936  16.876   6.673   4.497 -0.2610 -0.4348 -0.2420
 7244W        W16937   2.340  11.043  14.888 -0.1201  0.1341 -0.1536
 7245W        W16938   5.132   6.841  17.376 -0.4117  0.2208 -0.1336
 7246W        W16939   3.851  13.913   2.346  0.0395 -0.2434  0.2524
 7247W        W16940   9.481   3.722  16.249 -0.0813  0.1136  0.1867
 7248W        W16941  15.449  12.870   5.615 -0.0826 -0.2903  0.1066
 7249W        W16942  11.055  13.298   4.955  0.0235 -0.1641  0.0936
 7250W        W16943   8.760  14.751  16.891  0.1067 -0.3625  0.3316
 7251W        W16944  15.602  12.952   1.674  0.2006  0.1762 -0.3617
 7252W        W16945   0.360  10.515   2.219 -0.2406  0.4443 -0.3307
 7253W        W16946  15.644   5.368   2.279 -0.0673 -0.2601  0.0706
 7254W        W16947   9.241  15.738  12.203 -0.2687 -0.2622 -0.0051
 7255W        W16948  14.173   0.937  12.256  0.0927 -0.1979 -0.0490
 7256W        W16949  14.790   7.034  13.268  0.0526  0.1871  0.1470
 7257W        W16950   4.974   3.724  15.779  0.0205 -0.0590 -0.0309
 7258W        W16951  17.659   7.620   5.250 -0.0366 -0.1989  0.1787
 7259W        W16952  15.004  15.623  15.318 -0.2346 -0.0019  0.0860
 7260W        W16953   4.483   4.007   3.901  0.3088  0.1767  0.0633
 7261W        W16954   0.087   5.151   1.942 -0.3737 -0.2300  0.0345
 7262W        W16955   0.988  11.418  12.291  0.1668 -0.1788  0.1425
 7263W        W16956   3.119  16.376  12.861  0.1178  0.0777  0.1211
 7264W        W16957  10.054   2.091  14.800 -0.0164 -0.1863  0.0853
 7265W        W16958  15.301   7.264   4.771 -0.0686 -0.0318  0.1407
 7266W        W16959   9.617   0.970   6.052  0.2026  0.2915  0.2467
 7267W        W16960  15.752  10.968   5.191  0.2124 -0.1152  0.2495
 7268W        W16961   9.915  10.438   4.231  0.4781 -0.1126 -0.1962
 7269W        W16962  16.570  11.667   5.587 -0.1435 -0.0880  0.0022
 7270W        W16963  11.208  15.624  12.757  0.0083 -0.4772  0.3408
 7271W        W16964   9.239   6.603   3.197 -0.0362 -0.3044 -0.1111
 7272W        W16965   3.485  12.886  14.087  0.1147  0.1753  0.0976
 7273W        W16966   4.920   7.154  16.965 -0.0716 -0.3606 -0.0368
 7274W        W16967   6.727  16.304   5.089  0.2224 -0.0280  0.1902
 7275W        W16968  14.939   3.908  11.028 -0.1363  0.1481  0.1812
 7276W        W16969   4.128  15.845  12.024  0.1110 -0.1722  0.0711
 7277W        W16970   8.800  12.988   3.079 -0.2985 -0.4653  0.0942
 7278W        W16971   0.956  15.656  13.027 -0.2282 -0.0855 -0.2763
 7279W        W16972   9.764   5.484   4.857 -0.0957 -0.0413 -0.1232
 7280W        W16973   0.409  17.519   0.326  0.1302 -0.1200  0.1587
 7281W        W16974  15.156   6.598  15.281 -0.2775  0.2551 -0.0023
 7282W        W16975   9.929  12.278  17.278 -0.0636  0.0199  0.3297
 7283W        W16976  11.035   9.758  12.814 -0.2410  0.1885  0.1682
 7284W        W16977  10.539   8.778   5.247 -0.1576  0.2026  0.0357
 7285W        W16978  15.055   4.961  12.348  0.1597  0.1161 -0.0752
 7286W        W16979  16.209   4.871   5.890  0.3351 -0.1610  0.0591
 7287W        W16980   1.475   6.810   1.693  0.0464 -0.1548  0.0522
 7288W        W16981  12.642  10.488  16.005  0.3123 -0.3518  0.0779
 7289W        W16982   3.699   7.642   2.309  0.0258  0.1085 -0.0718
 7290W        W16983   8.813  16.637   6.650  0.0335 -0.1121  0.1779
 7291W        W16984   7.687   6.233  14.554 -0.2296 -0.2845 -0.1150
 7292W        W16985  17.358  16.250  16.687  0.2344 -0.0997 -0.0102
 7293W        W16986  10.031   3.558  11.951 -0.1243  0.1173  0.1246
 7294W        W16987  16.675  17.202  15.215 -0.2170  0.3635 -0.0198
 7295W        W16988   0.938   8.121  15.127 -0.3285  0.0456  0.4574
 7296W        W16989   8.808  15.533   4.213 -0.2404 -0.1188 -0.1786
 7297W        W16990  15.956  16.444  16.881 -0.1329  0.0263  0.3658
 7298W        W16991   7.016  16.196   1.102  0.1454  0.4619  0.1814
 7299W        W16992   9.369   7.531   2.945 -0.0223 -0.3895 -0.2207
 7300W        W16993  12.263  15.354  16.662 -0.0179  0.0568  0.3217
 7301W        W16994   9.069   9.356  14.409 -0.2709  0.1584 -0.4532
 7302W        W16995  10.172   5.937   4.763 -0.2654 -0.0236  0.0904
 7303W        W16996   8.044   3.320   5.087  0.0994  0.0092  0.4159
 7304W        W16997   0.820  12.030   4.593  0.0129  0.4211 -0.0107
 7305W        W16998   4.518   4.590   5.640 -0.1552 -0.2064 -0.1408
 7306W        W16999   7.716   9.053  15.646 -0.2917 -0.0147  0.0422
 7307W        W17000  14.726   0.358   5.665 -0.1159  0.0116 -0.0424
 7308W        W17001   2.823  10.522   2.798  0.1398 -0.1579  0.0308
 7309W        W17002   8.757  15.979   3.231 -0.3759 -0.1547  0.1440
 7310W        W17003  12.206   7.576   2.117  0.4065  0.1555 -0.0415
 7311W        W17004   7.535   4.450   2.505 -0.4154 -0.0674  0.1973
 7312W        W17005  14.331   1.816  17.108 -0.1950 -0.1244  0.1682
 7313W        W17006  11.631   1.489   0.113 -0.0469 -0.1298 -0.1380
 7314W        W17007  13.444   8.391   0.320 -0.3205 -0.0708 -0.0290
 7315W        W17008   1.814   8.293   2.600  0.0764 -0.1201  0.2212
 7316W        W17009   4.910  15.316   3.866 -0.2989 -0.0453 -0.0866
 7317W        W17010   6.801   5.120  12.748  0.1820  0.2595  0.2433
 7318W        W17011  16.064   1.384   2.221 -0.1813 -0.2217 -0.1304
 7319W        W17012   9.571  15.776  15.608 -0.0282  0.0087  0.1249
 7320W        W17013   9.257   3.203  16.968  0.0291 -0.0060 -0.2092
 7321W        W17014  10.284   7.514  16.591 -0.2029  0.1713  0.0993
 7322W        W17015  15.684  14.148   4.414  0.0723  0.0023 -0.3668
 7323W        W17016  15.756  12.782   4.324  0.2036  0.0324  0.0119
 7324W        W17017  12.547   3.856  15.393 -0.1819 -0.3812 -0.2581
 7325W        W17018   8.591   2.557  17.566 -0.0285  0.3116  0.1169
 7326W        W17019  10.620   6.231   2.685 -0.1217 -0.2320 -0.1312
 7327W        W17020   6.072   6.703   3.477 -0.2242 -0.2523  0.1911
 7328W        W17021   9.222  11.752   5.868 -0.2130 -0.2438 -0.0863
 7329W        W17022   8.677   1.890   1.604 -0.0904 -0.2423 -0.0153
 7330W        W17023  16.199  13.724   5.432  0.1811  0.0436  0.0928
 7331W        W17024   0.267  13.279   5.333  0.2352 -0.2005  0.0824
 7332W        W17025   8.393  16.192   5.086  0.0196 -0.5728  0.0808
 7333W        W17026  10.151   3.568  16.960  0.1964  0.2288 -0.4194
 7334W        W17027   0.795   9.479  17.290 -0.1063  0.0420 -0.4012
 7335W        W17028  17.328  14.185   6.095  0.2689 -0.0666 -0.0285
 7336W        W17029  14.775  16.414   4.184  0.1242 -0.0164 -0.0664
 7337W        W17030  15.956   8.210  15.354 -0.1569  0.1716 -0.0384
 7338W        W17031   4.883  15.620  15.709  0.3300 -0.2450 -0.0230
 7339W        W17032   8.340   1.169  12.683 -0.2399 -0.3457 -0.1879
 7340W        W17033  11.678   0.093  15.880  0.0843 -0.0229  0.0258
 7341W        W17034  10.593   5.769   4.230  0.1100  0.0690  0.1387
 7342W        W17035   7.218  13.803  13.483 -0.1577  0.0475 -0.1501
 7343W        W17036   5.218   8.333   4.370  0.2811 -0.0155 -0.2204
 7344W        W17037   2.653  17.254   1.689  0.0237 -0.2894 -0.1052
 7345W        W17038   3.963  17.478  11.354 -0.0245  0.1246 -0.0048
 7346W        W17039  11.758   6.531   3.443  0.0295 -0.0840 -0.1820
 7347W        W17040   1.838  10.362   0.006 -0.0146 -0.0668 -0.0048
 7348W        W17041   5.263  14.157   2.480  0.0923 -0.4764  0.0249
 7349W        W17042   2.861   9.607  11.608 -0.0734 -0.1953  0.3723
 7350W        W17043   6.186   3.831   4.032 -0.0146  0.0788 -0.2893
 7351W        W17044  15.475   8.598  13.936  0.1086  0.0356  0.2963
 7352W        W17045  16.193   4.569  13.842 -0.2302  0.3077  0.1409
 7353W        W17046   6.717   7.105  13.421  0.1955  0.2818 -0.0124
 7354W        W17047  14.197   9.802  12.769  0.1260  0.0397 -0.0122
 7355W        W17048   2.973   0.212  12.653  0.2096  0.4213 -0.2251
 7356W        W17049   9.744  14.845   0.787  0.2299 -0.1276  0.1008
 7357W        W17050  17.035   6.773  16.949 -0.1581 -0.1752 -0.0704
 7358W        W17051  15.795   5.781   6.129  0.0632  0.1378  0.0491
 7359W        W17052  11.393   1.979   0.173 -0.0437 -0.0012  0.1092
 7360W        W17053   9.014  10.160   2.256  0.2343  0.0389  0.6432
 7361W        W17054   4.787  12.009   1.309 -0.1958  0.0324  0.0568
 7362W        W17055  11.039  13.617  14.325  0.0942 -0.1186 -0.0446
 7363W        W17056  13.677  11.188   1.789 -0.0109 -0.2785  0.0374
 7364W        W17057   2.608   1.373   0.434  0.1651 -0.0387 -0.2329
 7365W        W17058  12.016  16.002   0.501  0.1228 -0.1232  0.2032
 7366W        W17059   9.574  13.323   1.763 -0.0966  0.3042  0.2749
 7367W        W17060  10.785  12.292   2.928 -0.1825 -0.3459  0.0102
 7368W        W17061   3.325   7.439   3.611 -0.0194 -0.0715  0.2343
 7369W        W17062   8.451  11.944   4.602 -0.1832 -0.2592 -0.2189
 7370W        W17063  11.397  13.250   0.938 -0.2756 -0.0944 -0.4357
 7371W        W17064   2.468  14.262   1.832  0.0119 -0.3187 -0.5079
 7372W        W17065   1.728   6.567   3.934 -0.1315 -0.0135 -0.1029
 7373W        W17066  15.845   2.904  16.885 -0.2964  0.1251 -0.2667
 7374W        W17067  16.724   3.778   5.320 -0.2942  0.0836  0.0924
 7375W        W17068  13.574  13.415   7.049  0.1465  0.0167 -0.2746
 7376W        W17069  15.821   4.534   2.076 -0.0177  0.1668 -0.2083
 7377W        W17070   2.265   8.070  17.499  0.0244 -0.4329 -0.0251
 7378W        W17071  12.665   6.505  15.868  0.3359  0.1661  0.1562
 7379W        W17072   3.851   8.233  15.148 -0.2405  0.1609  0.2292
 7380W        W17073   0.489   1.603  12.156  0.1341  0.0752 -0.0866
 7381W        W17074   9.340   4.826  15.712 -0.1400 -0.0626  0.1434
 7382W        W17075   5.439   2.122   1.568  0.0882  0.2263 -0.0116
 7383W        W17076   4.977  13.084   6.771 -0.1937  0.0819 -0.0855
 7384W        W17077   6.324   4.789  17.299  0.0956  0.0559 -0.2710
 7385W        W17078  15.327  11.197   6.357 -0.2385 -0.2025 -0.0475
 7386W        W17079   4.332   7.685  12.938  0.0737 -0.2225 -0.0931
 7387W        W17080  13.196   7.294  13.042 -0.0268 -0.2737 -0.1536
 7388W        W17081  16.241  16.295   0.582  0.0233 -0.1668  0.1455
 7389W        W17082   1.154  10.192   1.594  0.2871  0.2255 -0.1604
 7390W        W17083  10.018   7.966   0.884 -0.1932 -0.1958  0.0186
 7391W        W17084  10.452  11.848  17.408 -0.2870  0.0093 -0.4468
 7392W        W17085   4.903   7.743   0.906  0.0530  0.3522  0.2144
 7393W        W17086   9.887  17.031  17.675 -0.2758 -0.1007  0.2765
 7394W        W17087  16.184   2.872   2.888 -0.1575 -0.0492 -0.0382
 7395W        W17088   6.499   3.216  12.301 -0.2125 -0.1930  0.1124
 7396W        W17089   5.544   6.143  14.087 -0.0776  0.1311  0.1860
 7397W        W17090   3.967   3.369   0.313  0.0946 -0.1649 -0.2000
 7398W        W17091  15.279   0.879  14.846  0.0275  0.3337 -0.1391
 7399W        W17092   9.559  15.005  14.759  0.1067  0.0359 -0.1707
 7400W        W17093   5.742  11.006   4.897 -0.1803  0.0520  0.1128
 7401W        W17094   9.888   2.172   1.004 -0.1657 -0.2087  0.2734
 7402W        W17095  17.639  16.857   1.780 -0.0624 -0.0931 -0.2683
 7403W        W17096  13.889  12.529   1.241 -0.2454  0.2515  0.0244
 7404W        W17097   1.661   4.749  11.738 -0.1626  0.1024  0.1860
 7405W        W17098  17.630   5.837   5.791 -0.0009 -0.1485  0.0985
 7406W        W17099   9.667   1.956  17.074  0.3388 -0.1823 -0.1078
 7407W        W17100   4.516   2.928   0.855  0.2577  0.0551  0.0798
 7408W        W17101  11.690   5.934   5.017  0.3221 -0.0218  0.0782
 7409W        W17102  14.244   6.562   3.147  0.1950 -0.1266  0.1243
 7410W        W17103  17.205   2.106  10.829 -0.0846 -0.0125 -0.1772
 7411W        W17104   3.088  16.709   4.468 -0.2299 -0.0884  0.1721
 7412W        W17105  15.692  13.868  15.793 -0.0967 -0.1954 -0.1265
 7413W        W17106  16.182   8.639   0.613  0.0001 -0.3061 -0.0659
 7414W        W17107  12.557   5.252   4.793 -0.0020 -0.0893 -0.0444
 7415W        W17108  14.297   2.400  14.144  0.0101 -0.2646  0.1358
 7416W        W17109  10.221   6.647   6.331 -0.1765  0.0183 -0.0440
 7417W        W17110  13.723  17.327   4.729  0.0855 -0.2691  0.0720
 7418W        W17111   7.937  10.112  13.724  0.3390 -0.1288  0.0770
 7419W        W17112  15.976  11.489  15.112 -0.5125 -0.0720  0.1428
 7420W        W17113   8.081   4.772  16.837 -0.0792  0.1987  0.2362
 7421W        W17114  13.491   5.610  13.952 -0.1345 -0.2058 -0.3061
 7422W        W17115   9.378   7.532   3.919  0.4267 -0.1338  0.0209
 7423W        W17116   0.212   7.248   2.518 -0.5804 -0.2686 -0.1354
 7424W        W17117   1.558   8.320   4.450 -0.1086  0.1050  0.0680
 7425W        W17118  10.713   2.588   0.630  0.0181 -0.1620 -0.0426
 7426W        W17119   5.870  10.045  16.096  0.0935 -0.1174  0.0159
 7427W        W17120  15.875   9.447  13.698 -0.1572 -0.2132  0.1051
 7428W        W17121  17.221   9.434   0.170  0.0459  0.1322 -0.1081
 7429W        W17122   4.474  11.246  12.860 -0.1647 -0.0000  0.1834
 7430W        W17123   7.504   9.659  14.404  0.0538 -0.3790 -0.1492
 7431W        W17124   6.163   1.350  14.746 -0.2337 -0.1336 -0.1711
 7432W        W17125   9.476  17.670   6.065  0.3626  0.2541  0.1768
 7433W        W17126   4.090   6.861  16.604  0.3045  0.0087 -0.3637
 7434W        W17127   2.155   4.613  11.755 -0.0828 -0.2967 -0.1840
 7435W        W17128  13.658  10.865   3.279  0.4389 -0.0261  0.2291
 7436W        W17129   2.658  17.462  13.862  0.1804  0.0557 -0.1877
 7437W        W17130   0.418   8.935   3.194  0.0177 -0.2171 -0.1009
 7438W        W17131  11.623  13.905  13.586 -0.1785  0.1789  0.1847
 7439W        W17132  15.486   0.776  17.342 -0.2301  0.3460 -0.0461
 7440W        W17133   9.049   2.877  14.296  0.0242  0.1578 -0.0185
 7441W        W17134  15.279   4.336  16.062  0.0067  0.2710 -0.0776
 7442W        W17135   2.815   5.431   5.156 -0.2875  0.1866 -0.2259
 7443W        W17136   8.463  11.989  12.481  0.4119 -0.1603  0.1122
 7444W        W17137   1.632   7.279  15.323 -0.2583  0.1013 -0.0128
 7445W        W17138  11.929   1.222   2.219 -0.2510  0.0298 -0.2627
 7446W        W17139   1.542   2.662  13.874  0.0783  0.3091  0.0037
 7447W        W17140   0.015   6.559   0.107  0.0768  0.1036 -0.1368
 7448W        W17141   4.498  11.707   2.746 -0.3413  0.0269  0.3831
 7449W        W17142  16.169  12.615   2.895 -0.1608  0.1403  0.0529
 7450W        W17143   4.404  10.260   0.233 -0.1091 -0.0966 -0.1498
 7451W        W17144  11.567   0.623  13.410 -0.0719 -0.3451 -0.4337
 7452W        W17145  14.570   0.073   4.092  0.1633  0.0811 -0.2079
 7453W        W17146  13.872  10.447   5.292  0.2642  0.0827  0.2876
 7454W        W17147   1.384   0.377  13.120 -0.1622  0.0194  0.0146
 7455W        W17148   7.575   0.228   3.897  0.2381 -0.0941 -0.1701
 7456W        W17149  15.472  10.376   2.662  0.0850  0.1357  0.0125
 7457W        W17150  11.917  15.385  12.307 -0.4953  0.0833  0.3414
 7458W        W17151   6.907   6.620   6.194 -0.0078 -0.1921  0.2394
 7459W        W17152  14.603   1.090   1.985 -0.5170 -0.0925 -0.0476
 7460W        W17153   9.375   0.249   0.816 -0.1748 -0.3047  0.0117
 7461W        W17154   8.583   4.624   1.911  0.0439 -0.0161  0.0967
 7462W        W17155   1.863  12.762  17.005 -0.2155 -0.2915  0.5803
 7463W        W17156   1.885   8.889  15.723 -0.1418 -0.0124  0.2195
 7464W        W17157   2.391   6.806   4.314 -0.0699  0.2366  0.1576
 7465W        W17158  16.901   7.665  13.793  0.0245 -0.0491 -0.2253
 7466W        W17159   6.091  16.784   2.291 -0.5244 -0.0985 -0.0927
 7467W        W17160   1.877   2.403   1.211  0.4662 -0.1113  0.0228
 7468W        W17161  14.464   2.273  17.367 -0.1727 -0.1109  0.2220
 7469W        W17162   0.942  14.617   5.165  0.0470  0.0132 -0.1303
 7470W        W17163  16.369   1.623   1.757 -0.2399  0.1325 -0.2070
 7471W        W17164  16.135   2.370  15.276 -0.0282 -0.1170 -0.0881
 7472W        W17165  14.603   3.238   0.950  0.0694  0.0573 -0.0426
 7473W        W17166   4.285   0.811  13.683 -0.3156  0.0268  0.2545
 7474W        W17167   6.790   1.568   5.472 -0.0599  0.0537 -0.4741
 7475W        W17168   0.458   8.545   4.204 -0.0218  0.1439 -0.1176
 7476W        W17169   8.991  12.361  13.092  0.0006 -0.1736  0.0115
 7477W        W17170   5.230   3.042   2.878  0.0121  0.2071 -0.0913
 7478W        W17171   2.672  15.883  11.639  0.2031  0.2681 -0.1539
 7479W        W17172   0.560   5.825   0.114  0.3177 -0.1734 -0.1022
 7480W        W17173   2.073   6.411   5.993 -0.2099  0.2678  0.3423
 7481W        W17174  15.342   5.375  15.712  0.1975 -0.2218  0.1219
 7482W        W17175  16.507  14.132   2.841 -0.0367 -0.0068  0.0301
 7483W        W17176  11.505  10.838  16.009  0.0505  0.1221  0.2218
 7484W        W17177   4.478   3.156   4.337  0.0052 -0.0224 -0.1617
 7485W        W17178   9.869   0.031   3.817  0.1808 -0.1077 -0.1174
 7486W        W17179  11.870   9.451   4.931  0.2240 -0.2822 -0.1035
 7487W        W17180  13.034   9.759   4.606  0.1078 -0.0795 -0.0373
 7488W        W17181  11.235  14.584   2.403  0.1177  0.0078  0.0477
 7489W        W17182  11.910  14.728   5.845  0.0479  0.1899  0.2952
 7490W        W17183   4.072  15.340   5.010  0.2022  0.2848 -0.0878
 7491W        W17184   1.294   1.595  16.756  0.1402  0.1255  0.1565
 7492W        W17185   1.731  14.304  16.091 -0.1737 -0.1339 -0.0394
 7493W        W17186  11.360  13.729   4.306 -0.2183  0.2910  0.1549
 7494W        W17187   7.077  11.624  16.353 -0.1118 -0.3059 -0.0483
 7495W        W17188   9.333  12.483  12.748 -0.0865  0.1384 -0.4959
 7496W        W17189   3.591   8.799   1.918 -0.0991 -0.0328 -0.1754
 7497W        W17190   3.888   9.608  12.567  0.0094 -0.0469  0.0960
 7498W        W17191  12.314   3.282  13.137 -0.0044  0.0175  0.0341
 7499W        W17192  12.303   1.456   3.778 -0.0303  0.2274 -0.2301
 7500W        W17193  12.211  10.334   5.989  0.0544 -0.5429 -0.2720
 7501W        W17194   4.535   8.804   0.712  0.2755  0.0075 -0.2450
 7502W        W17195  15.265  13.845   5.817 -0.1905  0.3775 -0.0670
 7503W        W17196   2.425  10.589  15.566 -0.2599 -0.2222 -0.0600
 7504W        W17197   6.076  11.489  14.671  0.0311 -0.3436  0.0277
 7505W        W17198   5.921   0.305   3.932  0.0666  0.0488 -0.0824
 7506W        W17199   7.046  12.985  12.480 -0.0121  0.0461  0.1070
 7507W        W17200   6.278   0.166  16.340  0.4329  0.0384  0.0913
 7508W        W17201  12.700  11.721  11.604 -0.1720 -0.1612  0.4020
 7509W        W17202   9.701  15.523   1.460  0.1470  0.0208 -0.1402
 7510W        W17203   4.739  13.011   4.770  0.1295  0.0935 -0.2017
 7511W        W17204   9.769   1.887   1.387  0.0154 -0.0613  0.1389
 7512W        W17205   0.494   6.509   0.408 -0.0404 -0.0405 -0.2060
 7513W        W17206  15.107   7.180  12.291 -0.0110  0.5262  0.0027
 7514W        W17207   5.577   8.002   2.107 -0.0757 -0.0594 -0.0513
 7515W        W17208   2.513  12.176  13.474  0.1096  0.3862 -0.0980
 7516W        W17209   7.231  14.824   6.871  0.1382 -0.1554  0.1194
 7517W        W17210   3.226  16.613  15.081 -0.0942  0.0997  0.2329
 7518W        W17211   9.981  16.301   6.487  0.0789  0.0006  0.1511
 7519W        W17212   1.368  13.371  15.829  0.0150  0.1520  0.0241
 7520W        W17213   5.595  12.323  16.106  0.0623 -0.0979  0.0113
 7521W        W17214   5.702   0.725  15.107 -0.1858 -0.0068 -0.0422
 7522W        W17215  13.553  15.710  15.949 -0.1627 -0.3107 -0.0036
 7523W        W17216   2.315  11.829   4.364 -0.4331 -0.3163 -0.0042
 7524W        W17217   0.198   4.590   0.449 -0.2333  0.0734 -0.1299
 7525W        W17218  17.636  16.936  13.616  0.1309  0.0188 -0.0394
 7526W        W17219  17.420  17.180  17.597  0.2218 -0.0295  0.1348
 7527W        W17220   4.587   4.688  12.061 -0.0025 -0.0007 -0.1342
 7528W        W17221  16.470  11.272  17.601  0.1038  0.0896  0.0544
 7529W        W17222   5.364   5.392  16.297 -0.0405 -0.0129 -0.0728
 7530W        W17223   5.633   3.451   5.357  0.0781  0.2035 -0.1681
 7531W        W17224   6.892  14.219  10.675  0.2765 -0.0117 -0.2804
 7532W        W17225  11.931  13.738   5.014  0.1721 -0.1390 -0.0296
 7533W        W17226  10.249   2.849   3.039 -0.3840 -0.0531 -0.0327
 7534W        W17227  12.645   7.302  13.630 -0.0252 -0.0974 -0.2446
 7535W        W17228   4.621   8.019   2.117  0.0149  0.3820  0.0909
 7536W        W17229   7.793  10.237  12.647 -0.3003 -0.5015 -0.0541
 7537W        W17230   7.430  12.961  16.839 -0.1310  0.1615 -0.1095
 7538W        W17231  14.661   4.609   0.827  0.0355  0.0194  0.1977
 7539W        W17232  11.441   7.678   3.243 -0.0572  0.0952  0.0166
 7540W        W17233  10.423   1.864  12.479  0.0771  0.0550 -0.4658
 7541W        W17234  11.260   4.614  12.394  0.4286 -0.1586  0.0825
 7542W        W17235   9.194  11.008   3.645 -0.2445  0.0044 -0.2660
 7543W        W17236   5.854   5.229   0.995  0.0258  0.2798  0.1940
 7544W        W17237   9.738  15.524   4.060  0.3228 -0.0519  0.1336
 7545W        W17238  16.583  10.217  15.406  0.0877 -0.0737  0.1892
 7546W        W17239  14.695   9.364  15.057  0.1630 -0.1403 -0.4136
 7547W        W17240   8.368   4.821   2.917 -0.0374 -0.0748  0.0366
 7548W        W17241   4.691   0.295  15.954 -0.1342  0.0012 -0.0121
 7549W        W17242   9.362   3.304   3.663  0.2551  0.1654  0.0499
 7550W        W17243  10.521  13.690   5.477 -0.2970 -0.0979 -0.2477
 7551W        W17244   6.707  11.051  11.950  0.0593 -0.0187  0.0694
 7552W        W17245   0.799  15.792  13.551  0.0742 -0.0603  0.0801
 7553W        W17246   0.216   4.427   1.191 -0.1572 -0.0514  0.0969
 7554W        W17247  16.776  11.367  15.596 -0.5570  0.1421 -0.3796
 7555W        W17248   7.163   5.407  12.455  0.0236  0.1493  0.2263
 7556W        W17249   1.009  10.073  11.927  0.1053 -0.0593  0.1434
 7557W        W17250   1.922   0.336  13.163 -0.1268 -0.0373 -0.2520
 7558W        W17251  13.662  16.062   3.326  0.4011  0.2234  0.1740
 7559W        W17252   8.228   9.399   3.065  0.0937  0.1217 -0.1724
 7560W        W17253   5.544   8.331   1.689  0.1098  0.1418  0.2288
 7561W        W17254   9.142  14.354  16.350 -0.2059 -0.0641 -0.4576
 7562W        W17255  12.550   7.833   4.651 -0.3375 -0.0662  0.0737
 7563W        W17256  15.758   7.940  12.318 -0.1606  0.4060  0.2944
 7564W        W17257  13.997  14.206   4.777 -0.0315  0.2204  0.1283
 7565W        W17258   3.268  13.263   5.361  0.0200  0.3402  0.3803
 7566W        W17259  14.380   8.204  16.973  0.0136 -0.1515  0.4115
 7567W        W17260   4.449   4.454   4.740 -0.1038 -0.2222 -0.0666
 7568W        W17261   6.586   5.909  16.743 -0.1764  0.0368  0.0261
 7569W        W17262  13.200   8.547  15.495 -0.2301  0.0315 -0.1082
 7570W        W17263  17.632  12.617  17.675 -0.1363 -0.1811  0.1112
 7571W        W17264  14.902  10.281   6.092 -0.2502 -0.1210 -0.0998
 7572W        W17265   8.333  10.044   4.655  0.0032 -0.2428  0.0320
 7573W        W17266  15.627   7.586  14.594  0.0938  0.0524 -0.4867
 7574W        W17267  12.205   3.387  16.777 -0.3684  0.4035  0.1735
 7575W        W17268   9.444   9.551   1.448  0.2993  0.2062 -0.1200
 7576W        W17269   7.436  16.985  16.796  0.1094 -0.0537 -0.2774
 7577W        W17270   9.095   9.999   4.063  0.3735  0.1058 -0.1673
 7578W        W17271  10.396   4.157  16.647 -0.1404 -0.3196  0.2293
 7579W        W17272  16.696   6.855   6.436 -0.0773 -0.1472  0.1328
 7580W        W17273   0.974  12.530  11.182  0.0882  0.0825  0.1387
 7581W        W17274  13.063   2.023  12.411  0.1584  0.1107  0.0570
 7582W        W17275   0.461   2.935   3.753 -0.1284 -0.2212  0.0978
 7583W        W17276   7.393   6.001  14.178 -0.0326 -0.0609  0.0814
 7584W        W17277   7.301   0.947  15.279  0.0011 -0.2282 -0.0890
 7585W        W17278   7.173   6.605  15.714  0.0422  0.2547  0.1833
 7586W        W17279   1.106   6.963  17.114  0.0862  0.0756 -0.1477
 7587W        W17280   3.269   2.343   4.732  0.3273 -0.0975  0.3373
 7588W        W17281   4.196  11.171  14.338 -0.2157  0.2618 -0.0383
 7589W        W17282   9.379   3.938   3.049  0.0577 -0.4695  0.1550
 7590W        W17283   8.256   1.158  15.305  0.2113  0.0499  0.0419
 7591W        W17284   9.808   4.499  17.308 -0.1069  0.1693  0.1010
 7592W        W17285  14.586   2.984  13.711  0.2010 -0.1817  0.0909
 7593W        W17286  12.962   3.591  15.523  0.0499 -0.2513  0.2358
 7594W        W17287  13.845  16.854  17.475  0.2309 -0.3330  0.1330
 7595W        W17288  13.166  14.207   2.669 -0.1159  0.0916  0.0425
 7596W        W17289   3.108  15.640  13.930  0.2563  0.1203 -0.0460
 7597W        W17290  11.839   9.285  13.861 -0.1909 -0.2584 -0.1954
 7598W        W17291  12.079   8.780   1.008  0.3008  0.1258 -0.0925
 7599W        W17292   2.125  12.197   3.571  0.3014  0.0901 -0.1070
 7600W        W17293   0.607   4.597  12.227  0.1153 -0.4536 -0.0532
 7601W        W17294   9.925   6.794   5.040  0.0776  0.1244 -0.2648
 7602W        W17295   1.248  11.742   1.552  0.0478 -0.1773 -0.1522
 7603W        W17296  14.437   5.947   1.365  0.1190  0.1827  0.1662
 7604W        W17297   2.887  12.454   4.764  0.0585 -0.2575 -0.0761
 7605W        W17298   9.917   0.888  15.037 -0.1117 -0.1777  0.0968
 7606W        W17299  11.291  12.578  15.811 -0.4305 -0.3070 -0.2316
 7607W        W17300  13.537  14.230   2.234  0.0492 -0.1813  0.3473
 7608W        W17301  15.115   4.335  14.537  0.2885  0.1441  0.3031
 7609W        W17302  14.097  15.410  14.574  0.1703  0.0124  0.1375
 7610W        W17303   2.452  13.281  14.930 -0.1028  0.1422 -0.1812
 7611W        W17304  13.555   4.739  17.052 -0.1697 -0.1518  0.0150
 7612W        W17305   0.410   3.697   0.342  0.0312 -0.2712 -0.0472
 7613W        W17306  10.947  17.630   5.785  0.0105  0.2105 -0.0270
 7614W        W17307   6.283   6.915  15.238 -0.2338 -0.3419  0.0337
 7615W        W17308   0.500  10.166  15.824  0.2041  0.0392  0.0565
 7616W        W17309  13.133   5.869  16.394 -0.0544  0.0069 -0.0782
 7617W        W17310   5.740  17.294  15.303  0.1375  0.1613  0.2337
 7618W        W17311  16.528  15.349   4.887 -0.0590  0.1791  0.0772
 7619W        W17312  10.503   6.618   1.465  0.0968 -0.1455 -0.0182
 7620W        W17313   9.859  11.370   2.799 -0.0827 -0.4075 -0.2858
 7621W        W17314   4.911   6.148   0.910 -0.2019 -0.1610 -0.2111
 7622W        W17315   7.444  16.843   3.380 -0.3144  0.2350  0.0564
 7623W        W17316  17.422   9.660  15.760  0.3843 -0.0954 -0.2329
 7624W        W17317   4.692  14.595   2.539 -0.4525  0.0884  0.1025
 7625W        W17318   6.926   6.823  14.767  0.2621 -0.2573 -0.2099
 7626W        W17319   0.748   9.989  17.559  0.1257  0.1575  0.0687
 7627W        W17320  10.426   2.372   2.533  0.0356  0.0855 -0.0578
 7628W        W17321  12.605  13.763  17.381 -0.1060 -0.0362 -0.1183
 7629W        W17322   7.077   9.564   4.823  0.0026 -0.1231  0.0593
 7630W        W17323  12.422  14.158   4.991 -0.2178  0.1486 -0.2777
 7631W        W17324   5.483   3.777  17.649 -0.1025  0.1358 -0.0189
 7632W        W17325   5.203   3.561   0.329  0.0750  0.0371 -0.1034
 7633W        W17326  15.743  11.428   5.381  0.0629 -0.1515 -0.2902
 7634W        W17327  11.144   7.210   1.027  0.1579 -0.3104 -0.0385
 7635W        W17328   3.719   0.297  14.804 -0.4787  0.0414 -0.1095
 7636W        W17329  17.128  14.130  16.086 -0.2163  0.3470  0.3584
 7637W        W17330  14.730  11.623  16.526 -0.1938  0.2257  0.1108
 7638W        W17331   0.049   6.051  13.663  0.0010  0.0409  0.1149
 7639W        W17332   4.588   1.779   2.789  0.0634 -0.2974  0.2500
 7640W        W17333   6.039  17.209   0.534 -0.3537 -0.0622  0.1740
 7641W        W17334   1.248  13.514  17.186  0.0504 -0.2633  0.0014
 7642W        W17335   1.701   0.715  14.901 -0.0132  0.2573 -0.1660
 7643W        W17336  12.607   4.601  17.530 -0.1017 -0.0835  0.0525
 7644W        W17337  11.653   5.475   5.668  0.2572 -0.0001  0.1938
 7645W        W17338  13.079   8.905  14.716 -0.1059  0.1016  0.1320
 7646W        W17339  14.320   6.775   4.051 -0.0027  0.0469 -0.1838
 7647W        W17340  12.850  12.688   4.612  0.1871  0.1953 -0.0067
 7648W        W17341  11.633   9.237   2.133  0.3525  0.1006 -0.2022
 7649W        W17342  13.184   3.950  13.686 -0.0688 -0.2211 -0.0984
 7650W        W17343   3.062  17.552   5.410  0.3869  0.2186 -0.1454
 7651W        W17344   0.600   6.307   5.849  0.1705  0.0720  0.1784
 7652W        W17345   4.831   8.783  11.879 -0.2012 -0.0558  0.0389
 7653W        W17346   2.254   5.747   4.956  0.2382 -0.4965  0.1559
 7654W        W17347   5.746   0.352   3.182  0.1530  0.0173  0.0171
 7655W        W17348   0.983  11.126   0.921 -0.1141 -0.5133 -0.0408
 7656W        W17349   0.631   0.077  13.621  0.0259  0.0001 -0.3318
 7657W        W17350  10.734   7.365   0.174 -0.1465 -0.0962 -0.2900
 7658W        W17351   6.714   5.020   4.933 -0.2555 -0.1420  0.1931
 7659W        W17352  13.115   6.509  15.480  0.0920 -0.2168 -0.2610
 7660W        W17353   3.879  13.335   3.257  0.2943  0.2079  0.1193
 7661W        W17354   7.599  15.902   0.525  0.1616  0.2261  0.2479
 7662W        W17355  17.541   9.535   2.211  0.3240 -0.1268 -0.2686
 7663W        W17356  13.361   6.894  16.047  0.1182 -0.0263 -0.2400
 7664W        W17357  12.035   7.113   0.843 -0.3476  0.1051  0.0053
 7665W        W17358  11.689  15.165   4.013  0.2373 -0.3869  0.0130
 7666W        W17359   7.862   7.889  17.580 -0.0022 -0.0803 -0.0110
 7667W        W17360   8.889   4.946  15.495 -0.0489  0.0309 -0.0881
 7668W        W17361   7.686  10.974   5.216  0.1794  0.0519 -0.0375
 7669W        W17362   2.816  16.797   4.910 -0.2790  0.3664  0.4071
 7670W        W17363   2.487   3.034  16.537 -0.2334 -0.0397  0.0675
 7671W        W17364  12.814   1.638  13.986 -0.1631  0.1651 -0.0748
 7672W        W17365   5.086   2.112   4.477  0.1295  0.2360  0.2088
 7673W        W17366  17.415  16.071  15.347  0.1567 -0.2327  0.4399
 7674W        W17367   7.259   2.756  17.609 -0.1500 -0.1332 -0.1417
 7675W        W17368   9.321   4.205  16.111 -0.0350  0.1046  0.0423
 7676W        W17369   3.114   0.733  12.512 -0.1277  0.1313 -0.2267
 7677W        W17370   7.861   8.639  14.090  0.1831  0.1385  0.1627
 7678W        W17371  10.500   7.405   4.798 -0.3497 -0.1350  0.1604
 7679W        W17372  10.371   9.327   0.726  0.0433 -0.4473 -0.2295
 7680W        W17373   2.851   4.898   1.853  0.0439  0.1480  0.2412
 7681W        W17374  15.714  15.121   5.294  0.1865  0.0541 -0.2678
 7682W        W17375   5.381  16.261   2.314  0.0255 -0.4797 -0.0367
 7683W        W17376  12.066  11.624  15.819  0.1941 -0.0236  0.2212
 7684W        W17377   5.331  10.147   4.449 -0.0132 -0.0855  0.2879
 7685W        W17378   3.176   0.763   3.930 -0.0320 -0.0343  0.0454
 7686W        W17379   4.537  13.017  14.595 -0.0287 -0.0829 -0.1897
 7687W        W17380   9.386   1.991  12.357 -0.1029 -0.0355  0.2625
 7688W        W17381   9.690   8.200   4.458  0.0293  0.2611 -0.1774
 7689W        W17382  17.164  12.474   6.500  0.0486  0.1904 -0.0141
 7690W        W17383   2.544   2.039   2.545  0.0521 -0.1415  0.2414
 7691W        W17384   4.823   7.007   4.517  0.2824  0.0432 -0.2126
 7692W        W17385  15.326   7.371   3.907  0.1915 -0.1652  0.1306
 7693W        W17386  15.650  12.689  14.270  0.0237  0.1809  0.1095
 7694W        W17387  16.790   0.783   2.705 -0.2192  0.0271  0.0730
 7695W        W17388   1.218  16.042   5.999  0.5224  0.3356 -0.0236
 7696W        W17389   4.691  15.307   3.396 -0.2037 -0.0627 -0.7817
 7697W        W17390   6.799  10.428   5.387  0.2318  0.1353  0.1249
 7698W        W17391  13.786   4.164   0.297  0.1228 -0.1635  0.0778
 7699W        W17392   6.671   5.995   2.606  0.0088  0.1097 -0.1109
 7700W        W17393   5.662  15.569   0.035 -0.2664  0.0890  0.1163
 7701W        W17394   7.009  16.691   2.094 -0.1265 -0.0982 -0.4023
 7702W        W17395  15.242   8.996  16.444 -0.0142  0.0437 -0.1687
 7703W        W17396  12.368   9.495  12.691 -0.0993 -0.1484 -0.2495
 7704W        W17397   7.680   5.031   3.339 -0.2524  0.1689 -0.2709
 7705W        W17398  10.297   8.001   5.411  0.0516  0.2020 -0.1491
 7706W        W17399   2.759  12.892  11.671  0.0677 -0.0494  0.1621
 7707W        W17400   5.073  13.699   2.075  0.0516  0.1522 -0.0191
 7708W        W17401  15.127  14.221  14.897  0.0670  0.0406  0.0706
 7709W        W17402   4.663  12.757   2.180 -0.0392 -0.0637 -0.1810
 7710W        W17403  13.252  14.836   3.266 -0.2677  0.1190  0.4261
 7711W        W17404   8.635   8.026   6.423 -0.0652 -0.0589 -0.2573
 7712W        W17405   6.226   1.390  11.959 -0.0408 -0.0930  0.1088
 7713W        W17406  13.222  13.272   6.239 -0.4240  0.0684 -0.2873
 7714W        W17407   2.324  11.796  15.462 -0.0211 -0.0982 -0.0349
 7715W        W17408  15.067   1.027   3.393  0.2279 -0.1606 -0.1695
 7716W        W17409  14.708   8.151   5.778 -0.2141 -0.0306 -0.3953
 7717W        W17410  13.206  15.635  16.861  0.1058 -0.1034  0.0278
 7718W        W17411   0.700  13.943  15.597 -0.3287 -0.1782 -0.3539
 7719W        W17412   6.259   5.953   2.281  0.1305 -0.0125  0.0231
 7720W        W17413   4.630   2.386   1.666 -0.0311  0.1251  0.0201
 7721W        W17414   0.114   9.820   2.533  0.1273  0.1950 -0.2009
 7722W        W17415   0.826   7.269   4.861 -0.1555  0.0075  0.0308
 7723W        W17416   4.719   2.783   2.725  0.0516 -0.1827  0.0896
 7724W        W17417  16.608  13.280  17.065 -0.3165 -0.1042 -0.2765
 7725W        W17418  12.961   8.609   1.222 -0.0513  0.2434 -0.1793
 7726W        W17419   0.332   3.624  17.173  0.0617 -0.1044 -0.4912
 7727W        W17420  12.546   1.362  17.417 -0.0926  0.0084  0.1346
 7728W        W17421   0.929  12.886   6.566  0.3347 -0.2994 -0.4421
 7729W        W17422   1.621   0.993  15.690  0.1430  0.2698  0.1985
 7730W        W17423   3.093   6.281   4.144 -0.0170 -0.0783 -0.0439
 7731W        W17424  17.557   0.952  16.306 -0.1242  0.1381  0.1633
 7732W        W17425  15.926   4.780   3.461  0.1276  0.1085  0.2254
 7733W        W17426  16.498  11.450   0.979  0.0169  0.1088 -0.0007
 7734W        W17427   0.739   9.395  13.231 -0.3566 -0.1246  0.1599
 7735W        W17428  15.159   1.170  15.712  0.0393 -0.0557  0.3996
 7736W        W17429  10.704   5.732  15.142 -0.0710  0.2759  0.2020
 7737W        W17430   5.595  12.266  11.053 -0.1653 -0.1304  0.0169
 7738W        W17431   6.589  13.978   5.233  0.0618 -0.0025 -0.2954
 7739W        W17432   1.660   5.508  17.021 -0.3206  0.0533  0.2074
 7740W        W17433  12.270  12.359   1.723  0.1617 -0.3093 -0.1421
 7741W        W17434  11.763   1.191   4.406  0.2990 -0.1210  0.0347
 7742W        W17435   4.252  15.085  17.688 -0.0700  0.2534  0.0182
 7743W        W17436   4.377   6.367  15.332 -0.0373  0.0169  0.0442
 7744W        W17437   0.179   6.405  12.021 -0.0142  0.3362 -0.4190
 7745W        W17438   4.826  15.721  14.809  0.2600  0.2745 -0.0865
 7746W        W17439  15.139   6.538  17.369  0.0510  0.0311  0.0086
 7747W        W17440   5.546   5.343  17.665  0.0255 -0.0608 -0.0058
 7748W        W17441  15.599   1.547  16.404  0.0417  0.1601  0.2239
 7749W        W17442   6.652   3.960  16.999 -0.1324  0.0172  0.2643
 7750W        W17443  14.473   7.206  13.808 -0.4141 -0.3177  0.1107
 7751W        W17444   3.130  11.061   0.093 -0.2368  0.1075 -0.2568
 7752W        W17445   6.661  14.072   6.651  0.4426 -0.1609  0.4010
 7753W        W17446   5.797   4.241   2.396 -0.0416 -0.0860 -0.3563
 7754W        W17447   8.220  11.080  15.413  0.1220 -0.2261 -0.0105
 7755W        W17448  17.137   2.296  17.636  0.1233  0.0673 -0.0798
 7756W        W17449  12.339  15.404  15.259  0.0973  0.3042 -0.1993
 7757W        W17450   1.773   8.489  17.583 -0.0740  0.1974 -0.1022
 7758W        W17451  16.137  11.102   2.458  0.0990 -0.1178 -0.4461
 7759W        W17452   3.319  11.257  11.939 -0.3969  0.2298 -0.2212
 7760W        W17453  16.704  14.442  16.054 -0.1016 -0.0606 -0.0755
 7761W        W17454  10.610  16.780   0.400  0.0005 -0.1254 -0.1901
 7762W        W17455   3.003   6.531  17.364  0.0383  0.0928  0.1964
 7763W        W17456   4.634   5.731   0.150 -0.2719 -0.1020 -0.0581
 7764W        W17457   4.481   2.653   4.297 -0.1427  0.0910 -0.0389
 7765W        W17458  15.644   6.683  12.995 -0.0689 -0.4064 -0.1703
 7766W        W17459   0.958   6.810  14.967 -0.2008  0.0276  0.0559
 7767W        W17460   2.693   5.501  12.083 -0.0415  0.1111  0.0625
 7768W        W17461   9.314   4.939   6.291  0.1327 -0.1743 -0.1896
 7769W        W17462  11.635   3.559   0.709  0.1692  0.2577  0.1944
 7770W        W17463   7.442  14.613   3.877  0.0419 -0.3293 -0.2734
 7771W        W17464   9.573   0.340   5.205  0.1883 -0.0774  0.2898
 7772W        W17465   0.263  15.840   4.606  0.2086 -0.0052  0.0636
 7773W        W17466   7.594  16.627   2.915  0.3740  0.1045 -0.0837
 7774W        W17467   1.091   6.908   4.291  0.0685  0.0776  0.2093
 7775W        W17468   6.131   4.256   6.128 -0.1465 -0.3969  0.1050
 7776W        W17469   3.837   2.535   4.806 -0.0623  0.1526 -0.0410
 7777W        W17470   6.086   7.312   2.203 -0.0592 -0.0758  0.3407
 7778W        W17471   3.637   2.205  16.264  0.0399  0.3724  0.1305
 7779W        W17472   1.371   0.416   4.034  0.1255 -0.0849  0.0330
 7780W        W17473   6.454  14.357   3.652  0.0917  0.0128 -0.0102
 7781W        W17474   9.425  14.475  17.671 -0.3473  0.0659  0.0137
 7782W        W17475   9.728  11.636   3.863 -0.0252 -0.0282 -0.0371
 7783W        W17476   9.917   6.971  11.628  0.0372 -0.2286 -0.0997
 7784W        W17477  15.836   2.357   5.493  0.3885  0.1092  0.0840
 7785W        W17478   2.667  14.360   0.487 -0.2266 -0.1517 -0.1665
 7786W        W17479   7.267   2.058  17.198 -0.0497  0.0004 -0.1077
 7787W        W17480   5.111   4.808  13.708  0.0892  0.1442 -0.0875
 7788W        W17481   5.653  10.870   6.829 -0.0916  0.0924  0.3395
 7789W        W17482   4.707  13.859  15.078  0.1606  0.0947  0.1909
 7790W        W17483  16.290  10.029  15.014 -0.1338 -0.0520  0.1926
 7791W        W17484   8.996   8.756   3.503 -0.1064  0.0440  0.1066
 7792W        W17485  12.100  14.398   3.062  0.0888 -0.1316 -0.0165
 7793W        W17486   7.920  16.753   3.356  0.0873  0.3192  0.3356
 7794W        W17487  14.067  15.171   0.865  0.1441 -0.1579  0.3117
 7795W        W17488   6.432  10.193  13.703 -0.0705  0.1988 -0.0405
 7796W        W17489   1.323  12.981  12.669  0.2891  0.0282 -0.0353
 7797W        W17490   0.802   4.144  14.685 -0.1121 -0.0361  0.0593
 7798W        W17491   4.696   5.102   5.454  0.0968 -0.1200  0.2064
 7799W        W17492   9.849   4.694   4.064 -0.1336 -0.1326  0.4079
 7800W        W17493  13.378   5.819   4.247  0.0951 -0.0653  0.1463
 7801W        W17494   3.411  11.255   5.428  0.0005  0.0687 -0.3512
 7802W        W17495   3.898   3.271   5.203  0.0791 -0.1033  0.0433
 7803W        W17496   1.273   2.628   3.543  0.0881  0.1809  0.1485
 7804W        W17497   8.516  17.545   1.971  0.2064 -0.1835  0.2832
 7805W        W17498   1.033  16.410  14.255 -0.0793  0.2060  0.3816
 7806W        W17499   2.949  13.495  17.367 -0.0761 -0.1781 -0.0632
 7807W        W17500  16.474  15.363   0.676 -0.1880 -0.2775  0.0221
 7808W        W17501  10.534  11.627  11.585  0.1470  0.3115 -0.2487
 7809W        W17502  13.327  17.321   4.415 -0.1072  0.1333 -0.3058
 7810W        W17503   5.963   1.315   6.415 -0.2505 -0.2208 -0.1141
 7811W        W17504  13.487  14.248   3.998  0.3614 -0.0786  0.0777
 7812W        W17505  16.507  12.132   5.298  0.3100 -0.2061 -0.0769
 7813W        W17506  15.871   6.273   6.102  0.3231 -0.1642  0.0723
 7814W        W17507   5.885   4.836   4.572  0.0583 -0.1909  0.0162
 7815W        W17508   8.502   9.253  10.797 -0.0574  0.0299 -0.0005
 7816W        W17509   8.945  13.941  16.790 -0.1975  0.2421  0.0864
 7817W        W17510   9.413   2.127  14.489 -0.0254 -0.3640  0.0451
 7818W        W17511  13.996  16.879  13.142  0.0271  0.1232  0.4238
 7819W        W17512   3.943   6.940   4.425 -0.0354  0.1989  0.1945
 7820W        W17513  14.748   6.360   1.393 -0.1819  0.2984  0.1611
 7821W        W17514   3.681   1.380   2.759  0.2804  0.3879  0.3956
 7822W        W17515  11.246   2.732   5.581 -0.0513  0.0844 -0.2960
 7823W        W17516   5.513   7.140  11.590  0.2854  0.0155  0.0835
 7824W        W17517   8.330  11.989  16.208  0.3339 -0.0115  0.3137
 7825W        W17518  14.609   2.393   4.087  0.0277 -0.2526  0.1616
 7826W        W17519   2.830   9.516   5.380  0.1110  0.0240 -0.1651
 7827W        W17520   9.398  11.611  15.061 -0.0021 -0.0837 -0.2699
 7828W        W17521  13.599   3.966  14.486 -0.2570 -0.2254  0.0466
 7829W        W17522   5.265  16.193   3.369 -0.0337 -0.2048  0.1464
 7830W        W17523   1.776   7.710   6.639  0.2819  0.1339  0.0300
 7831W        W17524   4.491   0.066  15.524 -0.0574 -0.0614  0.2822
 7832W        W17525   9.861  16.804   1.943  0.2152  0.1505 -0.1297
 7833W        W17526   9.680  12.418  15.164 -0.0870  0.0253  0.1667
 7834W        W17527  10.750   8.938   4.072 -0.0456 -0.0945 -0.0934
 7835W        W17528  14.327  10.181   1.398 -0.1217 -0.1976 -0.0709
 7836W        W17529   3.997  14.088  13.632 -0.1605 -0.1224  0.2582
 7837W        W17530  12.479   1.804   0.987  0.0820  0.1062  0.1061
 7838W        W17531  12.056  15.260  13.694  0.3713 -0.1292 -0.0588
 7839W        W17532   4.140  10.400  12.979 -0.0832  0.2821 -0.0718
 7840W        W17533   8.244   3.342   4.586 -0.0574 -0.3144  0.1495
 7841W        W17534   1.073  11.954  14.421 -0.2006 -0.0075  0.1305
 7842W        W17535   2.074   4.872  15.318 -0.5185  0.2108 -0.1522
 7843W        W17536  16.742   1.589   6.147  0.5682 -0.3036  0.1051
 7844W        W17537  17.247  17.019   4.904 -0.1890  0.2159  0.0042
 7845W        W17538   5.543   0.990   2.347 -0.2825  0.3316  0.0374
 7846W        W17539   5.184   7.950   3.226  0.0212  0.0512  0.0554
 7847W        W17540   5.215   7.552  11.488 -0.0222  0.2533 -0.0237
 7848W        W17541   1.486   6.761   6.363 -0.3643  0.0019 -0.0219
 7849W        W17542  14.534  12.741  14.719 -0.1399 -0.2518 -0.0363
 7850W        W17543   8.846  12.959  13.505  0.2180  0.1775 -0.1341
 7851W        W17544  16.603  15.922  14.321 -0.4452  0.1478 -0.1162
 7852W        W17545   9.502   9.146  11.895  0.0378 -0.1643 -0.1107
 7853W        W17546   5.464   4.118  10.773  0.1306 -0.1429  0.1287
 7854W        W17547  15.561   6.366  16.085 -0.1831  0.0561 -0.0185
 7855W        W17548   5.926   0.393   2.589  0.0158  0.1223  0.0978
 7856W        W17549   8.896  16.155   2.678 -0.1785 -0.0551 -0.1915
 7857W        W17550   2.403  13.909  14.718 -0.1948 -0.1693 -0.2205
 7858W        W17551   3.241  15.327   3.301 -0.1440  0.0491 -0.0846
 7859W        W17552   0.374  11.643   2.585 -0.3038  0.1918 -0.1234
 7860W        W17553  17.483   0.845   1.564 -0.1397 -0.2273  0.1720
 7861W        W17554   8.395   1.476  16.162  0.1259  0.1567 -0.0714
 7862W        W17555  13.404   4.674   5.273  0.0021  0.0441  0.4057
 7863W        W17556   7.255   7.306   3.799  0.1443  0.0234 -0.1708
 7864W        W17557   2.469   1.114   5.358 -0.0543 -0.1881  0.0415
 7865W        W17558   4.045   2.310   5.346 -0.0137  0.0040 -0.2009
 7866W        W17559   5.807  16.736  16.140 -0.0070  0.0312  0.0038
 7867W        W17560   2.244   2.668  14.317  0.0775  0.3259 -0.1157
 7868W        W17561  17.336  12.861   2.416  0.1076  0.2930 -0.1835
 7869W        W17562  15.066   9.849  13.777 -0.2062 -0.0114 -0.2234
 7870W        W17563  12.005   0.380  14.585 -0.1651 -0.1910 -0.0140
 7871W        W17564   4.580  14.682   6.164  0.0160  0.2377  0.2094
 7872W        W17565   1.655  12.478   5.649 -0.1146  0.1351 -0.0523
 7873W        W17566   2.380  15.926  17.224  0.1307  0.1626 -0.1924
 7874W        W17567  15.524   4.777  13.806 -0.2432  0.0378 -0.2518
 7875W        W17568  12.202   4.853  15.129  0.0753 -0.0366  0.1406
 7876W        W17569  12.511   5.212  14.049 -0.3314  0.1525  0.1273
 7877W        W17570  12.886   6.684  17.084 -0.0729 -0.1508  0.1446
 7878W        W17571  16.502   1.637  15.597  0.2860 -0.0434 -0.0737
 7879W        W17572  15.909  14.615  16.469 -0.1824 -0.1380 -0.0758
 7880W        W17573   2.917   7.060   5.306  0.0360  0.0707 -0.3131
 7881W        W17574   8.397   2.731  15.964  0.0680  0.0512 -0.0897
 7882W        W17575  14.397   4.794   5.798 -0.0377 -0.3743 -0.2943
 7883W        W17576   3.097   2.306   7.144  0.0053 -0.1769 -0.2615
 7884W        W17577   0.283  13.848   1.938  0.1048 -0.0235 -0.0622
 7885W        W17578   5.511  13.824   0.692 -0.2020  0.1080  0.1257
 7886W        W17579   5.565   4.632  11.470 -0.3583 -0.0707 -0.0855
 7887W        W17580   3.092  16.138  14.773 -0.0596 -0.0784  0.1027
 7888W        W17581   6.457   5.106  10.653 -0.0523 -0.0451  0.1667
 7889W        W17582   2.899   8.204   1.971  0.0325  0.4840  0.0627
 7890W        W17583   3.060   7.167   4.809  0.0072  0.1050 -0.0511
 7891W        W17584   9.214  12.861   5.962  0.0227  0.1161  0.0593
 7892W        W17585   5.766  17.301  13.998 -0.0411  0.0361 -0.0553
 7893W        W17586   2.887  16.229  11.876  0.1932  0.2274  0.0145
 7894W        W17587  16.057   1.375  13.499 -0.0795  0.3615 -0.0022
 7895W        W17588   5.707  15.477  13.872 -0.0290 -0.0604  0.2301
 7896W        W17589  11.324   8.378  15.066 -0.0505  0.1781  0.2578
 7897W        W17590   0.095   5.361   4.784  0.0451 -0.2982 -0.0150
 7898W        W17591   4.600  14.516   4.579 -0.5977  0.3168  0.0736
 7899W        W17592   9.669   2.269  17.527 -0.3416  0.0146  0.1193
 7900W        W17593   9.996  13.170   3.377 -0.0174  0.2880 -0.0434
 7901W        W17594   7.999   7.015   3.643  0.0395  0.1013  0.0658
 7902W        W17595   1.082  14.566  16.938  0.1044  0.2494  0.2146
 7903W        W17596   8.020   9.894   0.497  0.2958  0.0575  0.1809
 7904W        W17597   5.353   0.145   1.857  0.1807  0.1530 -0.4107
 7905W        W17598   2.924  16.931   2.773  0.2484 -0.1969  0.3631
 7906W        W17599   2.738   8.608   1.734 -0.2197  0.0657 -0.0715
 7907W        W17600  10.797  16.566  17.660  0.0177 -0.2335 -0.1908
 7908W        W17601  14.226   0.797   0.211 -0.3115 -0.0100 -0.0783
 7909W        W17602   6.741  10.584  16.188  0.0613 -0.0409 -0.2472
 7910W        W17603  15.956  10.181   2.517 -0.0914  0.3497  0.0394
 7911W        W17604   1.304  12.775  14.601  0.0363 -0.0966 -0.1453
 7912W        W17605  13.757  13.425   2.067  0.1842  0.1018  0.1700
 7913W        W17606   0.559   7.040  14.040  0.0785  0.2932 -0.1398
 7914W        W17607   2.004  11.523   2.362  0.1337  0.1014 -0.0290
 7915W        W17608   1.398   5.155   5.932  0.2095 -0.0366 -0.1915
 7916W        W17609   7.934  12.957  15.023  0.1632  0.1846 -0.1530
 7917W        W17610  11.035  15.171   3.447 -0.5121 -0.1779 -0.1956
 7918W        W17611   1.466  12.747   4.383  0.0981  0.3245  0.2744
 7919W        W17612   7.470  10.679  12.955  0.5041 -0.1620 -0.2229
 7920W        W17613   8.532   8.077   4.790 -0.1022  0.0340 -0.1553
 7921W        W17614   3.720   1.241  12.888 -0.0454 -0.1283  0.1650
 7922W        W17615  12.045  15.102  13.055 -0.1798  0.2298  0.1577
 7923W        W17616   4.880  14.017  14.105  0.1682  0.3783 -0.1027
 7924W        W17617   3.750   7.922   4.639 -0.1964  0.2087  0.2742
 7925W        W17618  15.219  14.955  16.031  0.2195 -0.0162 -0.0135
 7926W        W17619  11.281   1.980  14.705  0.1948 -0.1058  0.0261
 7927W        W17620   1.458   8.372   6.545  0.0872  0.0255 -0.0388
 7928W        W17621   1.108  13.345   2.470  0.2225  0.2082 -0.3754
 7929W        W17622   5.910  14.971  12.534 -0.1942  0.1998 -0.1200
 7930W        W17623  10.267   9.467  13.868 -0.0280 -0.0669 -0.0104
 7931W        W17624  12.236   2.684   4.300  0.0043  0.0867 -0.1029
 7932W        W17625   9.742  16.083   1.452  0.1618 -0.2577  0.3541
 7933W        W17626  13.600   9.975   5.404  0.1226  0.2642  0.2016
 7934W        W17627  15.303   1.917  11.964 -0.2783 -0.0593 -0.0138
 7935W        W17628  15.857   9.002   0.688 -0.0774  0.1169 -0.0693
 7936W        W17629   3.214   8.771   5.894  0.2748 -0.4785 -0.2916
 7937W        W17630  15.998  10.243   3.922  0.1847  0.0792  0.0667
 7938W        W17631  12.482   5.918   0.845  0.0154  0.3939 -0.0161
 7939W        W17632   4.737   2.840  17.617  0.0543 -0.3615 -0.2178
 7940W        W17633   8.144   6.213   2.452 -0.0940  0.0076  0.2030
 7941W        W17634  11.777   5.430   5.138  0.2600  0.0683  0.0868
 7942W        W17635  13.320  15.212   5.788 -0.0597  0.0527 -0.0838
 7943W        W17636   1.620   1.617   4.314 -0.1483 -0.2946  0.2309
 7944W        W17637   4.273   4.938   3.720  0.0057  0.1775  0.0479
 7945W        W17638   1.087   7.299   3.907  0.1797  0.0434  0.2052
 7946W        W17639   8.769  12.698   6.266  0.0329 -0.2516 -0.0997
 7947W        W17640   7.436  12.383   6.255  0.0652  0.0446  0.4019
 7948W        W17641  10.326  17.629  14.671  0.0079  0.1004  0.0835
 7949W        W17642   8.746   7.087   5.698 -0.0435  0.2162 -0.0121
 7950W        W17643   5.640   5.632  14.085  0.0085  0.0933  0.0687
 7951W        W17644   1.852  14.314   6.111  0.0606 -0.0371 -0.0669
 7952W        W17645   5.616   5.700   2.906  0.0401  0.0091 -0.3510
 7953W        W17646  15.018  12.876   2.619  0.0089 -0.0309 -0.2109
 7954W        W17647  13.622  15.396   1.409 -0.2988 -0.1967 -0.5858
 7955W        W17648  11.012   7.579  15.297 -0.0596 -0.0888  0.3249
 7956W        W17649  13.999  10.740  13.816  0.0717  0.3431  0.0463
 7957W        W17650  11.089  16.063  16.832 -0.1823  0.0694 -0.2565
 7958W        W17651  16.300  14.956   5.535  0.2826 -0.2106  0.1480
 7959W        W17652   2.669   6.460   5.897  0.0035  0.1461 -0.1032
 7960W        W17653   7.006  12.420   5.823  0.1142 -0.3481  0.1091
 7961W        W17654   9.022  11.463  14.738 -0.1099 -0.1220  0.0946
 7962W        W17655   0.639  10.986   5.515 -0.0239  0.0056 -0.4118
 7963W        W17656   6.146  15.676  12.452 -0.0076  0.0717  0.2216
 7964W        W17657   7.656   7.100   3.283 -0.1847 -0.0036  0.1285
 7965W        W17658   6.867  14.818  13.465 -0.2351 -0.1750  0.2778
 7966W        W17659  16.269  11.765   4.133 -0.0557  0.1167  0.1021
 7967W        W17660  16.519  17.245  14.387  0.0767  0.0318 -0.1558
 7968W        W17661   8.058   4.514   1.177  0.2371  0.3066 -0.0751
 7969W        W17662  14.122   2.023  15.960  0.0744 -0.0985  0.0641
 7970W        W17663  11.044   0.806  13.403 -0.0497 -0.1171  0.0648
 7971W        W17664   7.329   3.593   0.879  0.0314  0.2430 -0.3231
 7972W        W17665  13.403   2.690  15.005 -0.0575 -0.0127 -0.1163
 7973W        W17666  10.474  15.913  13.831  0.1795 -0.4603  0.0351
 7974W        W17667  14.506   6.250   4.091  0.0380  0.0626 -0.0046
 7975W        W17668   2.195   6.017   0.648 -0.1657  0.1603  0.1555
 7976W        W17669  14.233  11.198   1.351  0.2697 -0.1753  0.0575
 7977W        W17670   2.763   4.111  17.371 -0.1668  0.3222  0.1878
 7978W        W17671  13.265   9.438  16.661  0.1873  0.2703 -0.1179
 7979W        W17672   6.533  12.023   5.049 -0.1728  0.1075 -0.1471
 7980W        W17673  17.652   3.676   1.544 -0.1951  0.0646  0.7896
 7981W        W17674  13.088  11.692   2.006  0.1763  0.1467 -0.1675
 7982W        W17675   2.222   5.502  11.938 -0.1681 -0.0273 -0.0619
 7983W        W17676   3.946   5.310  11.652  0.0986 -0.2210  0.0498
 7984W        W17677  11.918   9.750   4.240 -0.2953  0.1428  0.0272
 7985W        W17678   8.842   6.630  11.060 -0.0312 -0.5264 -0.0148
 7986W        W17679  15.023  11.377   2.543  0.1740  0.3264  0.2529
 7987W        W17680   9.448  10.880  13.206 -0.0231  0.3916 -0.0244
 7988W        W17681   8.525  10.788   1.342  0.1593  0.1736  0.2129
 7989W        W17682   1.517   0.253  17.192 -0.1272  0.0114 -0.1310
 7990W        W17683  17.544  10.203   6.260  0.0051  0.1806  0.1636
 7991W        W17684  10.247   0.513   6.108 -0.1421 -0.0025 -0.2456
 7992W        W17685  15.311  11.978  11.600  0.0059  0.6125 -0.1620
 7993W        W17686  15.584  17.361   3.252  0.0393 -0.1800 -0.0987
 7994W        W17687  15.256  16.388  14.399 -0.0671 -0.2120 -0.0755
 7995W        W17688  12.431   2.670  17.510  0.0893 -0.1736  0.2285
 7996W        W17689   8.790  16.974   3.137  0.1991 -0.3328 -0.2416
 7997W        W17690   7.895  14.575   2.135  0.1455 -0.2804  0.2820
 7998W        W17691  17.502   8.807   1.846 -0.4202  0.1953  0.0357
 7999W        W17692   8.597   3.222   4.908 -0.0441  0.0462  0.2397
 8000W        W17693  12.771   0.672   4.933 -0.1353  0.0121 -0.1080
 8001W        W17694  10.083   8.234  13.331  0.1224 -0.0907  0.0896
 8002W        W17695  10.665   8.792   6.978  0.1837  0.0681  0.0995
 8003W        W17696   0.474   6.929  14.788 -0.1915 -0.3157  0.1989
 8004W        W17697  15.568  15.898  16.148 -0.1238  0.2834  0.2018
 8005W        W17698  11.892  12.683  14.176  0.1686  0.1579 -0.2168
 8006W        W17699   3.301  11.947  12.044 -0.2070 -0.1028 -0.1810
 8007W        W17700   7.251   0.434  15.980 -0.0669  0.0161  0.0388
 8008W        W17701  13.006   6.490   0.244  0.0534  0.0274 -0.1366
 8009W        W17702   3.656   2.794  12.191 -0.1882  0.1344  0.1754
 8010W        W17703   0.406  12.171  15.652 -0.0138  0.3880 -0.1192
 8011W        W17704   9.817   7.163  15.153 -0.2714  0.0275  0.0265
 8012W        W17705   6.603  16.828  13.383  0.1231  0.4339  0.0532
 8013W        W17706  16.441   1.200   6.347  0.1254  0.0979  0.0747
 8014W        W17707   4.717   4.079   5.819 -0.1670 -0.0371 -0.1585
 8015W        W17708   6.802  17.593  13.297 -0.0911 -0.0235 -0.0705
 8016W        W17709   3.317   6.301   1.279 -0.0118 -0.0845  0.2850
 8017W        W17710   7.334  16.521   5.628 -0.2161  0.1534 -0.4176
 8018W        W17711   2.527   1.004   2.423  0.0861 -0.1508  0.0732
 8019W        W17712  10.533   8.552  14.775  0.0579 -0.4065 -0.2868
 8020W        W17713   5.225  16.028   1.205  0.0117 -0.2286 -0.0195
 8021W        W17714  14.105  11.259  17.566 -0.0812  0.3378  0.0939
 8022W        W17715  17.013   9.310  16.208  0.2803  0.1750 -0.0162
 8023W        W17716   1.293   5.117  16.350  0.0834  0.1161 -0.1538
 8024W        W17717   3.703   1.292   6.097  0.0176  0.2596 -0.2344
 8025W        W17718  10.541   6.120  16.464  0.1824  0.2850 -0.1411
 8026W        W17719  16.523   4.086  14.975  0.1728 -0.0126 -0.1401
 8027W        W17720  15.697   5.825  12.177 -0.2279  0.0307 -0.2663
 8028W        W17721   8.282  10.555   3.791 -0.1806  0.2794 -0.0903
 8029W        W17722   7.022  15.967  13.416  0.0013 -0.2495 -0.1453
 8030W        W17723  14.732  11.848  15.639 -0.0607  0.0305  0.2076
 8031W        W17724   1.744   7.646   5.655 -0.2617 -0.0166 -0.1195
 8032W        W17725  16.441   2.394   0.140  0.0365  0.1111  0.0458
 8033W        W17726  12.230   6.548   3.910  0.4274  0.1344  0.0707
 8034W        W17727  12.983  11.643  14.313  0.3941  0.1861  0.4530
 8035W        W17728   8.054  10.174   4.198 -0.4485  0.1105 -0.0335
 8036W        W17729  15.652   8.147   3.620 -0.0079 -0.2466  0.0398
 8037W        W17730  13.580  11.866  15.520 -0.2553 -0.0908  0.3037
 8038W        W17731   8.099   7.974  16.383  0.3055  0.0232 -0.1175
 8039W        W17732   0.790   9.495   2.401  0.1402  0.1416 -0.3710
 8040W        W17733  16.668   3.920   4.140  0.2003 -0.4609 -0.1472
 8041W        W17734   8.390  12.409  15.670  0.1472 -0.0914  0.2671
 8042W        W17735   3.308  11.991  16.675 -0.1180  0.0746 -0.2887
 8043W        W17736  13.055   3.057   3.199  0.2102 -0.1296  0.1767
 8044W        W17737  14.332   9.630   2.796  0.0737  0.1338 -0.0907
 8045W        W17738   4.767  17.268  16.675  0.0027  0.2901  0.0238
 8046W        W17739  11.590  10.573  15.025 -0.0091  0.3711 -0.1944
 8047W        W17740   2.157  10.542   5.753  0.1654  0.0528 -0.0499
 8048W        W17741  11.988   3.531  17.277 -0.1026  0.0606 -0.0871
 8049W        W17742   8.663   8.739   1.182  0.0026 -0.0827 -0.4006
 8050W        W17743   6.298  10.338   3.838 -0.0155  0.0674  0.0016
 8051W        W17744   6.293   9.096   0.097  0.1812  0.0693  0.1422
 8052W        W17745  13.167  14.065   4.336  0.1852 -0.2314 -0.0015
 8053W        W17746  17.658   9.249   4.497  0.2409 -0.2326 -0.1678
 8054W        W17747   8.174  13.727   2.716 -0.1273 -0.0057 -0.2778
 8055W        W17748   1.190   6.657   3.767  0.2687 -0.0115 -0.3561
 8056W        W17749   4.063  17.078   2.172 -0.0693 -0.2256  0.0732
 8057W        W17750   5.344   9.940   1.258  0.1714 -0.0804  0.0986
 8058W        W17751  15.725   4.378  13.108  0.0120  0.0222  0.1340
 8059W        W17752   4.023  16.611   2.597 -0.1680  0.0885  0.0365
 8060W        W17753   6.814   2.520   6.356 -0.1296 -0.5039  0.0282
 8061W        W17754   5.252   2.404  15.928 -0.4043 -0.2436 -0.2881
 8062W        W17755   6.228  15.560  15.569 -0.1116  0.1134  0.1221
 8063W        W17756   4.279  10.991  15.551  0.0037  0.0963 -0.1307
 8064W        W17757  13.570   2.323   0.813 -0.0483 -0.1359 -0.1716
 8065W        W17758  14.236  13.840  16.212 -0.2274 -0.1478 -0.1237
 8066W        W17759  14.595   7.944   4.867  0.0109 -0.0592 -0.4676
 8067W        W17760   9.106   0.598   4.175  0.1326 -0.1260 -0.0417
 8068W        W17761  15.268  16.730   4.159  0.0084  0.2522  0.0030
 8069W        W17762   2.279   8.577  17.616 -0.3297  0.3303  0.4707
 8070W        W17763  17.231  10.465  12.041 -0.2746  0.1111 -0.3175
 8071W        W17764   2.921   1.933   5.562  0.0373  0.0660 -0.3394
 8072W        W17765   4.134  16.239  12.449 -0.0869  0.1427  0.1815
 8073W        W17766  12.570   0.943  13.397  0.0571 -0.0583 -0.2521
 8074W        W17767   1.975   6.858  16.524  0.0703 -0.5991 -0.1641
 8075W        W17768  17.385   0.813  16.810 -0.1740  0.0189 -0.0719
 8076W        W17769   2.917  12.312   3.856 -0.2515 -0.0018 -0.2660
 8077W        W17770   0.548   8.923  14.826  0.2381  0.0578  0.1014
 8078W        W17771   7.260   4.210   3.228 -0.1099  0.2558 -0.2641
 8079W        W17772  14.767   2.690   1.274  0.0595  0.0737  0.1185
 8080W        W17773  13.844  17.185  12.411  0.1667  0.0729  0.1858
 8081W        W17774   8.652   9.068   5.416 -0.1366 -0.1035  0.3550
 8082W        W17775   7.086   3.988  16.317  0.1533  0.0374  0.0622
 8083W        W17776   1.900   4.132   3.244  0.2687  0.1884  0.0178
 8084W        W17777   4.778   8.435   5.225 -0.0502 -0.0770 -0.1651
 8085W        W17778   9.775  12.231   4.046 -0.0989 -0.0878 -0.2369
 8086W        W17779   0.959  17.132  13.169  0.0080  0.1384  0.2159
 8087W        W17780   7.104   6.541   3.536 -0.0328  0.0395  0.0252
 8088W        W17781  14.372  11.480   3.007  0.1141 -0.2752 -0.1594
 8089W        W17782  13.672   7.407  15.213  0.3196  0.1670 -0.1980
 8090W        W17783   8.242   8.242  13.402 -0.2304  0.0719  0.3121
 8091W        W17784  10.355  10.671   1.315 -0.0027  0.2441 -0.0836
 8092W        W17785   8.645  13.132   1.679 -0.0444 -0.2067 -0.1903
 8093W        W17786   7.416   8.631  10.849  0.3901 -0.0565  0.1447
 8094W        W17787   4.308   5.475   2.454  0.0719 -0.0754  0.2765
 8095W        W17788  16.069  15.435  16.937 -0.0137  0.1590 -0.1260
 8096W        W17789  11.076   9.018  16.126  0.1247  0.0094 -0.0377
 8097W        W17790  16.754  16.923  14.085 -0.2490 -0.0523  0.0366
 8098W        W17791   4.795  15.735   4.235 -0.0938  0.0696  0.2708
 8099W        W17792   1.789   0.033   5.967 -0.1144 -0.1068 -0.0427
 8100W        W17793   3.696   0.253   5.074 -0.0842 -0.2564 -0.3078
 8101W        W17794   1.704  16.339  14.926 -0.0855  0.0414 -0.1865
 8102W        W17795   6.107  12.477  12.592  0.0989  0.2253  0.0212
 8103W        W17796   7.515  16.964   6.036  0.1256 -0.1020 -0.1882
 8104W        W17797  16.110   1.658  12.740  0.1226  0.2601 -0.3158
 8105W        W17798   0.484  14.650  16.032  0.0480 -0.2716  0.2101
 8106W        W17799  15.781   8.836  15.433 -0.1415 -0.3768  0.0503
 8107W        W17800  10.633  16.690   1.283  0.1466 -0.1374  0.2033
 8108W        W17801   9.065   9.037   5.782  0.3061  0.0302 -0.2584
 8109W        W17802  16.856  14.608   4.279 -0.0059  0.2585 -0.3028
 8110W        W17803   6.822  14.860  15.287  0.0793  0.0301  0.0009
 8111W        W17804   3.228  16.256   4.208  0.0143  0.3566 -0.3657
 8112W        W17805   8.887   4.159  14.226 -0.2483  0.0535 -0.0790
 8113W        W17806   1.374   8.107  14.087 -0.2563  0.2145  0.1426
 8114W        W17807  17.064   5.984   6.951  0.0829 -0.0163  0.0269
 8115W        W17808   4.325   8.717  11.912  0.2882  0.5852  0.0327
 8116W        W17809  17.425  16.906   2.209 -0.4940 -0.2515 -0.1759
 8117W        W17810  17.502   7.017  17.400 -0.1175 -0.1594 -0.1169
 8118W        W17811  17.253  12.936   5.624 -0.2328  0.0311 -0.1126
 8119W        W17812  16.640   0.225  15.704  0.1007  0.1819  0.2856
 8120W        W17813  17.036   9.852  17.504  0.0396 -0.0200  0.1262
 8121W        W17814  14.664  14.580  16.915  0.0328  0.0858 -0.0864
 8122W        W17815   5.382  14.932  12.549  0.0571  0.1457  0.2375
 8123W        W17816   1.973  14.432  13.821 -0.1042  0.1694  0.1221
 8124W        W17817  16.807  13.428  15.156  0.1049  0.1579  0.0733
 8125W        W17818   7.452  17.259  15.798 -0.1527  0.2151  0.2053
 8126W        W17819  14.475   2.615   3.465 -0.0329 -0.0399 -0.0714
 8127W        W17820  15.574   7.815   3.165 -0.1780 -0.2090 -0.1592
 8128W        W17821   4.067  10.524   3.630  0.0670 -0.0012  0.2395
 8129W        W17822  12.889   8.107  14.016 -0.0757  0.0945  0.3025
 8130W        W17823   5.312   9.654   2.230 -0.1242  0.3328 -0.0063
 8131W        W17824  13.761   1.536   2.908 -0.1464 -0.0074  0.2109
 8132W        W17825  16.887   0.558  12.960 -0.0192 -0.0218 -0.1017
 8133W        W17826  12.940   1.184   0.660 -0.0882 -0.0763 -0.1000
 8134W        W17827   6.846   8.350   1.795  0.0811 -0.5031 -0.0134
 8135W        W17828  12.929   0.645   3.919 -0.2946  0.1492 -0.1109
 8136W        W17829  14.938  16.018   0.811  0.0708 -0.3206  0.0817
 8137W        W17830  16.440   4.013   4.671  0.0140 -0.2676  0.0065
 8138W        W17831   1.937   8.558  13.024 -0.0924 -0.1449 -0.0673
 8139W        W17832   1.810   5.946  16.506  0.0037  0.0673  0.2223
 8140W        W17833   6.251   2.499   5.604  0.0695  0.0096  0.0540
 8141W        W17834   2.131   7.165  12.140  0.0100 -0.2487  0.5629
 8142W        W17835  17.187   3.111  16.278 -0.2366  0.0392  0.0058
 8143W        W17836  16.477   2.603   1.548  0.0854 -0.2188  0.0699
 8144W        W17837  13.415   5.280  14.376  0.0876  0.2072 -0.1031
 8145W        W17838  17.406  13.264  12.879 -0.1590  0.0870  0.1720
 8146W        W17839   1.901  15.000  17.198 -0.2031  0.3954  0.1283
 8147W        W17840   5.621  14.944  10.787  0.0262 -0.1034  0.1286
 8148W        W17841   9.838  14.951  12.082  0.1942  0.1374  0.1726
 8149W        W17842   1.855  14.643  16.823  0.1922  0.0872  0.0409
 8150W        W17843  14.456   0.689  15.739  0.1249  0.0655  0.1999
 8151W        W17844  12.597   1.173  16.989  0.2233  0.0117 -0.2141
 8152W        W17845  11.593   6.029   2.358 -0.1092  0.1014 -0.2091
 8153W        W17846   4.127   8.568  12.898  0.1714  0.0554 -0.0302
 8154W        W17847  15.986  16.958  13.165 -0.1733  0.1359  0.2074
 8155W        W17848  12.703   5.131  17.504  0.1284  0.0560 -0.1747
 8156W        W17849   7.002   3.152   7.128  0.1442  0.0008 -0.0972
 8157W        W17850  17.131   2.863   0.593 -0.1493 -0.0556 -0.1504
 8158W        W17851   8.421  16.431  17.248 -0.0211 -0.0074  0.1636
 8159W        W17852   6.060   2.334  12.157  0.3470 -0.0003 -0.0792
 8160W        W17853   7.649   2.394   1.854  0.0028  0.3856 -0.3380
 8161W        W17854  14.814   0.640   1.850 -0.3285 -0.0561  0.0154
 8162W        W17855   7.483  11.671  12.318  0.2354 -0.0827 -0.0055
 8163W        W17856   0.889   0.808   6.026  0.1298 -0.0237  0.2421
 8164W        W17857   7.644   0.673  16.218 -0.2230 -0.3212  0.0429
 8165W        W17858   6.328  15.520  14.588 -0.1353  0.1302  0.1583
 8166W        W17859  12.548   3.886   5.859  0.0074  0.0841 -0.2416
 8167W        W17860   1.770  12.724  14.473  0.1360  0.1475  0.3102
 8168W        W17861   4.191   2.720  12.826 -0.4820 -0.1775  0.0608
 8169W        W17862   3.438  12.431   6.288  0.2341  0.0588 -0.0939
 8170W        W17863  17.160  12.859   0.175 -0.2636  0.0073  0.5928
 8171W        W17864   8.003  17.587   4.180 -0.4394  0.0764 -0.0328
 8172W        W17865   2.502  10.851  12.181  0.2566 -0.2689  0.3008
 8173W        W17866   6.282   5.348  16.185 -0.2558  0.3845 -0.2624
 8174W        W17867  11.434  16.632   3.069  0.2009 -0.1256 -0.0560
 8175W        W17868  13.247   7.964  13.721 -0.1061 -0.1498  0.0280
 8176W        W17869   5.943   2.946  13.986 -0.2362 -0.2904 -0.2178
 8177W        W17870   3.496  13.954  16.171 -0.2902 -0.4510  0.1995
 8178W        W17871  15.975  14.512   4.070 -0.1016  0.0895  0.0369
 8179W        W17872  15.220  12.408   6.476  0.0477  0.1849 -0.1640
 8180W        W17873  17.084   9.393   3.292  0.1613  0.0760  0.2105
 8181W        W17874   3.064   9.495  12.638  0.1602 -0.0139  0.0592
 8182W        W17875  12.805  13.651   1.952  0.0480  0.1524  0.0856
 8183W        W17876   5.231  13.381   1.482  0.1574  0.0428  0.0466
 8184W        W17877  15.239   0.395  17.145 -0.0421 -0.1307 -0.1231
 8185W        W17878   1.558   1.004  12.478  0.1553 -0.1164  0.0470
 8186W        W17879   9.342  11.007  12.702  0.2854  0.3575 -0.0730
 8187W        W17880  12.112   5.171  12.056 -0.1932  0.0914  0.3976
 8188W        W17881  13.168   3.728   0.947 -0.0104 -0.0669  0.0855
 8189W        W17882   8.795  10.051  12.508  0.3130 -0.0318 -0.1698
 8190W        W17883   1.521  17.052   2.976  0.1582  0.1055 -0.3352
 8191W        W17884  12.990  14.519  13.785 -0.0238  0.1000 -0.1728
 8192W        W17885  10.736   1.192   2.806  0.3463 -0.0437 -0.3746
 8193W        W17886   5.233  14.214   0.342 -0.0963 -0.2264 -0.0411
 8194W        W17887  12.753   7.373  15.522  0.1911 -0.3441 -0.3816
 8195W        W17888  15.235  13.051  13.101  0.1010  0.1881 -0.2293
 8196W        W17889   1.373   7.286   5.242  0.0631 -0.3315  0.0864
 8197W        W17890   8.310   4.676   4.184 -0.0638 -0.1977  0.0913
 8198W        W17891   2.266   5.795   3.972 -0.2636  0.2387  0.0177
 8199W        W17892  11.228  15.332  13.708 -0.2260  0.0254  0.4122
 8200W        W17893   8.401   7.097   0.149  0.2070 -0.0973  0.0883
 8201W        W17894  13.676   3.101   3.443  0.0274 -0.0217 -0.0928
 8202W        W17895  10.118  14.813   1.830  0.4689 -0.1190 -0.1510
 8203W        W17896   3.384  15.981  12.798  0.0868 -0.0564  0.1174
 8204W        W17897   1.285  13.274  14.352 -0.1247  0.0166  0.0511
 8205W        W17898   6.757  15.951   6.083  0.2221 -0.1255  0.3150
 8206W        W17899   2.123  15.823  15.554  0.0937  0.0174 -0.3283
 8207W        W17900  10.846   6.254  15.205 -0.1849 -0.0249 -0.0599
 8208W        W17901   6.851   2.958   6.062  0.1354  0.0429  0.6354
 8209W        W17902  11.456   9.916   4.171 -0.1143 -0.0365  0.0689
 8210W        W17903   6.936   3.849  12.893 -0.1595 -0.3028 -0.0473
 8211W        W17904   6.976   0.973   4.639 -0.0371 -0.0112 -0.1340
 8212W        W17905   2.125  12.797   0.686  0.1943 -0.3063 -0.0475
 8213W        W17906   3.011  10.726  12.059 -0.0807  0.1535 -0.0521
 8214W        W17907  16.217  14.465  16.057  0.1715 -0.3124 -0.0956
 8215W        W17908   8.397  12.843   0.076  0.0129 -0.1119 -0.0654
 8216W        W17909   5.990   7.765   2.016  0.1534  0.1544  0.0666
 8217W        W17910   1.657  15.088   3.123  0.1795  0.2891  0.0577
 8218W        W17911  16.118   7.576   1.613  0.1535 -0.1058 -0.0573
 8219W        W17912  16.548   3.561   1.179 -0.0493  0.3812 -0.0802
 8220W        W17913   9.967  11.465  14.618 -0.0266  0.1163 -0.0598
 8221W        W17914   3.141   6.165   2.542  0.2780  0.2099 -0.2037
 8222W        W17915   5.454  16.498   0.959  0.0016 -0.0125 -0.2074
 8223W        W17916  14.779   0.340   2.299 -0.1318  0.2419  0.0069
 8224W        W17917   9.044   8.673   1.505  0.2079 -0.1722  0.0933
 8225W        W17918   4.116   7.869   5.737 -0.1565  0.0098 -0.0720
 8226W        W17919  16.646  12.280   3.480  0.0559  0.1653 -0.0465
 8227W        W17920   5.229  14.426   5.735 -0.2609  0.2075 -0.3100
 8228W        W17921   6.326  15.937   7.031  0.1071  0.0280  0.0110
 8229W        W17922   3.469   3.638  14.491 -0.0520 -0.0134  0.2303
 8230W        W17923   5.525   3.352   1.469 -0.0792  0.1948 -0.0634
 8231W        W17924   8.381  15.761   2.733  0.1679  0.0313 -0.0882
 8232W        W17925  10.073  13.457   5.444 -0.1596 -0.0901 -0.1816
 8233W        W17926   2.265   9.160   3.451 -0.0607 -0.0740  0.2864
 8234W        W17927   2.809   2.648  15.454  0.0441  0.1541 -0.0129
 8235W        W17928   5.826   9.476  16.056  0.0588 -0.1800 -0.1426
 8236W        W17929   3.791   6.074  12.313 -0.1694 -0.2901  0.4432
 8237W        W17930   8.555   6.226   2.822 -0.1352 -0.0307  0.1046
 8238W        W17931  12.027   0.338  17.277 -0.0674  0.1223 -0.3392
 8239W        W17932   0.575  10.459  13.827  0.1422 -0.2036  0.1369
 8240W        W17933   1.047   5.637   5.916 -0.0145  0.3009  0.0273
 8241W        W17934   6.969   5.672   4.654  0.1931  0.3788 -0.0415
 8242W        W17935  15.681  12.267  13.482  0.0052 -0.2425 -0.0915
 8243W        W17936   0.938  14.248  14.295 -0.1846 -0.1602 -0.1799
 8244W        W17937  10.872   4.070   5.957  0.2113  0.0098 -0.0997
 8245W        W17938  12.046  11.641  13.293  0.1144  0.0155 -0.3270
 8246W        W17939  14.407  16.192   4.417  0.0395  0.2062 -0.2878
 8247W        W17940   5.359  15.968   0.364 -0.0954  0.1546  0.0939
 8248W        W17941  15.430   8.829   2.898  0.1537  0.1429 -0.1081
 8249W        W17942   9.763  13.142   5.745  0.1791 -0.1038 -0.1365
 8250W        W17943   0.068  15.174   4.139  0.0839  0.0431  0.2022
 8251W        W17944   2.306  12.987   3.836 -0.6426  0.0987  0.1171
 8252W        W17945   1.959  10.902  15.488  0.1741 -0.2131 -0.1338
 8253W        W17946   4.519   8.014  15.819  0.1537 -0.1500 -0.1807
 8254W        W17947  13.350   1.306   4.998  0.2451  0.0268 -0.2207
 8255W        W17948   7.970   2.798   3.607 -0.2667 -0.1088  0.1233
 8256W        W17949   4.958   0.856  14.963  0.6286 -0.0141 -0.3910
 8257W        W17950   0.616   8.047   3.648  0.1295  0.0926 -0.3848
 8258W        W17951  12.958  16.626  14.489  0.2353  0.4608  0.2760
 8259W        W17952  11.901  11.311  17.196 -0.1436 -0.2121 -0.0864
 8260W        W17953  12.501  13.892   6.347  0.1060 -0.0713  0.2528
 8261W        W17954  12.434  15.914  16.969  0.1606 -0.1945 -0.2152
 8262W        W17955   6.492   3.204   1.972  0.1301 -0.1259  0.0958
 8263W        W17956   4.035  15.881   4.136  0.2234 -0.2070 -0.0139
 8264W        W17957   4.144   8.118   1.612 -0.1475 -0.0311  0.1475
 8265W        W17958  14.373   7.648   1.388  0.0194  0.1585  0.2111
 8266W        W17959   8.147  11.766   5.113 -0.0336 -0.1763  0.3063
 8267W        W17960   9.369  14.909   2.583 -0.1110  0.0649 -0.3219
 8268W        W17961  17.266   8.053  14.457 -0.3082  0.1138  0.3554
 8269W        W17962   6.346  14.552  14.730 -0.3763 -0.1345  0.0016
 8270W        W17963   4.685   4.177  13.822  0.0632  0.2012 -0.1287
 8271W        W17964   2.340   8.823   5.163  0.1914 -0.0380 -0.1982
 8272W        W17965   2.580   8.053  17.121  0.0691 -0.0301  0.1458
 8273W        W17966   4.428  15.303   0.490 -0.0591  0.1517 -0.4200
 8274W        W17967   0.184   9.155   3.839  0.1754  0.0924 -0.0463
 8275W        W17968   9.843   9.252  13.545  0.1168 -0.0092  0.0811
 8276W        W17969   9.935   1.201  16.574  0.1139  0.0313  0.1962
 8277W        W17970   5.817  17.194  16.356 -0.1549  0.1175  0.1112
 8278W        W17971   5.951   6.998  11.618  0.0211  0.3318  0.0753
 8279W        W17972   2.287   7.255  13.976 -0.2449  0.0643 -0.0338
 8280W        W17973  16.174  13.008  15.761 -0.0811  0.0186 -0.2183
 8281W        W17974   3.353  15.295   5.751 -0.2624  0.1030  0.0524
 8282W        W17975   4.432   7.472   3.565  0.0700  0.1702 -0.6038
 8283W        W17976  13.792   9.090  16.595  0.3867  0.0232  0.2144
 8284W        W17977   6.802   6.822   3.877 -0.1435  0.0838 -0.0215
 8285W        W17978   0.460   4.282   5.787  0.0857  0.1654 -0.1837
 8286W        W17979  17.632   7.176   5.501  0.3702 -0.1703  0.2507
 8287W        W17980  14.874  14.239   3.404 -0.3912 -0.1227 -0.0727
 8288W        W17981  12.656  16.846  15.608  0.2347  0.0745 -0.0575
 8289W        W17982  13.209  16.481   3.844  0.0384 -0.0882  0.1953
 8290W        W17983   6.428   8.856  12.385 -0.1001 -0.1683 -0.0409
 8291W        W17984   3.497   7.154   0.912  0.0452 -0.2524  0.0853
 8292W        W17985   0.043   0.371  11.763 -0.0078 -0.2373  0.1152
 8293W        W17986  15.711   8.102  13.971  0.1219 -0.0533 -0.1473
 8294W        W17987   9.801  11.490   0.063 -0.0997  0.1476 -0.0733
 8295W        W17988   8.085   5.281  15.180  0.0616 -0.2249  0.3898
 8296W        W17989  15.456   4.171   3.800 -0.5157  0.0947  0.0531
 8297W        W17990  12.527   0.668  16.403 -0.0859 -0.0445 -0.1246
 8298W        W17991   0.883  17.346  13.708  0.0007 -0.0496  0.1336
 8299W        W17992   4.632  16.513   5.653  0.3109 -0.2861  0.1313
 8300W        W17993  16.451  15.816  15.457  0.0998 -0.0730 -0.1100
 8301W        W17994   2.249   1.303  14.402 -0.0721  0.0803 -0.0042
 8302W        W17995   5.464   6.349   5.798 -0.0134  0.2102  0.0676
 8303W        W17996   3.437   3.058   5.574 -0.2225  0.0958  0.1759
 8304W        W17997  14.744  17.063   2.776 -0.0484  0.0054 -0.1030
 8305W        W17998   0.024  12.125   0.195 -0.0793  0.0117 -0.2477
 8306W        W17999  13.308   3.794   5.365  0.2614 -0.1752 -0.0664
 8307W        W18000   2.052  16.441  17.252 -0.1897 -0.1522  0.0659
 8308W        W18001  16.660   3.643   0.551 -0.3262 -0.0621 -0.0182
 8309W        W18002  17.419  10.026   5.384 -0.1408  0.0991 -0.1443
 8310W        W18003   5.613  14.902  17.427 -0.1653 -0.1366  0.3308
 8311W        W18004   6.763   8.450   0.366 -0.0027  0.2308  0.1635
 8312W        W18005  15.192   8.278   3.061 -0.0691  0.0564 -0.0557
 8313W        W18006   2.917  17.345  15.581  0.3182  0.0767  0.2886
 8314W        W18007   1.031   8.559  14.742  0.0638  0.2922 -0.1719
 8315W        W18008   5.281  12.085   4.079  0.1598 -0.1019 -0.3421
 8316W        W18009   3.417  12.974   1.546  0.0434 -0.1231  0.1436
 8317W        W18010  17.256  10.042   4.172 -0.0403  0.1062  0.2245
 8318W        W18011  16.151  12.424   3.411 -0.1438 -0.2013 -0.1885
 8319W        W18012   5.222   3.482  13.652 -0.3517  0.3312 -0.3799
 8320W        W18013   5.333   6.644  11.911 -0.0409  0.3114  0.0428
 8321W        W18014  16.363   4.444  15.338  0.2892 -0.1935 -0.0349
 8322W        W18015   5.279  12.410   3.186 -0.3229 -0.2553 -0.1349
 8323W        W18016   5.388   6.913  15.931  0.4103 -0.0002  0.1841
 8324W        W18017  16.512   9.336  16.210 -0.0714  0.1884  0.1341
 8325W        W18018   8.899   9.386  15.827 -0.0629 -0.0604  0.2362
 8326W        W18019   6.552   5.396   3.081 -0.0240  0.1566  0.0486
 8327W        W18020   0.543  16.352   5.434 -0.0872  0.0727 -0.0213
 8328W        W18021  14.058  15.908  16.061 -0.0614 -0.0049 -0.2396
 8329W        W18022   9.292  15.866   5.715 -0.0175 -0.1316 -0.2674
 8330W        W18023   1.352   5.934  14.976 -0.2097  0.0003  0.3292
 8331W        W18024   4.381   0.553  15.703  0.2782 -0.2081  0.1215
 8332W        W18025   7.709  16.314   0.340 -0.0631 -0.0902 -0.1213
 8333W        W18026  15.703  16.445   0.498 -0.0224 -0.2206 -0.2953
 8334W        W18027  12.584  10.925   5.400  0.0399 -0.3571  0.1590
 8335W        W18028   2.670   7.865   5.861 -0.0428 -0.1414  0.1455
 8336W        W18029   0.758  17.418  12.346 -0.1260  0.0040  0.2457
 8337W        W18030   3.318  14.927   4.056  0.1493 -0.0623 -0.0557
 8338W        W18031  16.771   9.669  16.435  0.1226  0.0285  0.1328
 8339W        W18032  15.488  13.063   1.203  0.0957  0.0767 -0.1933
 8340W        W18033  17.104   7.703  12.252  0.1091 -0.0858  0.1420
 8341W        W18034   7.716  13.598   0.178 -0.1190  0.0332 -0.2801
 8342W        W18035  17.373   9.013  12.404  0.0213  0.0861  0.1313
 8343W        W18036   9.608  12.147   4.919 -0.1427 -0.2240  0.1806
 8344W        W18037   1.177  16.768  15.934  0.0203 -0.1738  0.1531
 8345W        W18038  12.636  14.100   2.430 -0.0295  0.0372  0.0378
 8346W        W18039  10.901   9.575   1.510 -0.2698 -0.0780  0.1607
 8347W        W18040   0.280  12.470   1.098  0.1023  0.0981  0.3332
 8348W        W18041   0.202  12.838   5.458  0.1421  0.1755  0.0641
 8349W        W18042  10.204   5.269  12.004  0.0237 -0.1689  0.1238
 8350W        W18043   5.144   4.321  16.496  0.0802 -0.0380 -0.2658
 8351W        W18044  13.917   0.964   5.353 -0.0119 -0.0760  0.5247
 8352W        W18045  10.094  16.478  14.693 -0.4160 -0.2129  0.3417
 8353W        W18046   2.021  13.526  14.791  0.0606 -0.0075 -0.1742
 8354W        W18047   4.177   0.079   3.810 -0.0738 -0.0722 -0.5326
 8355W        W18048  12.807   9.040   0.059 -0.1668 -0.0833  0.5171
 8356W        W18049   4.955   7.134   1.689  0.3413 -0.1358  0.1245
 8357W        W18050  10.801  12.478   3.951  0.3622  0.1878 -0.1198
 8358W        W18051  10.447   7.541   1.794 -0.1031 -0.0244 -0.0830
 8359W        W18052   1.221  13.687  14.704 -0.0585 -0.0883 -0.3260
 8360W        W18053  16.618   0.427   2.264  0.0093  0.3341  0.2597
 8361W        W18054   7.120   2.575   1.920  0.1679 -0.1647 -0.0941
 8362W        W18055   8.647  10.821   5.617  0.0781 -0.0306 -0.0417
 8363W        W18056  11.507  12.567  16.838  0.0014  0.1257  0.2037
 8364W        W18057   7.894   2.394   1.375  0.0686  0.0237 -0.1583
 8365W        W18058   3.161  11.204  13.147 -0.0358 -0.0531 -0.1273
 8366W        W18059   9.278  16.539   3.851  0.2279 -0.0532 -0.1194
 8367W        W18060  17.324  14.548  12.980  0.0500 -0.2995 -0.3306
 8368W        W18061   3.242   8.467  15.463 -0.1031  0.0485 -0.0936
 8369W        W18062   1.809  10.750   1.931  0.1324  0.0128  0.0020
 8370W        W18063   3.712   7.545  15.732  0.3607 -0.0931  0.3125
 8371W        W18064   2.515  12.776  12.681  0.3365 -0.0902  0.0034
 8372W        W18065   5.431  16.248   2.891 -0.1823  0.0488  0.1356
 8373W        W18066  17.677   3.370   3.607  0.0015  0.0872 -0.0735
 8374W        W18067   7.939   9.324   4.273 -0.1637 -0.0221 -0.1201
 8375W        W18068   5.218  15.051  15.229 -0.2473  0.1315 -0.2365
 8376W        W18069   2.890   8.412   3.363 -0.1655 -0.3123 -0.1352
 8377W        W18070  10.168   9.333  15.360 -0.0681  0.2419  0.1770
 8378W        W18071   1.178   3.259   0.977 -0.0682  0.0372 -0.0437
 8379W        W18072  12.913  13.260  14.953  0.2134  0.0570 -0.0503
 8380W        W18073   2.279   6.818   5.695 -0.0516 -0.1479  0.2685
 8381W        W18074   7.902   5.436   0.081 -0.3260  0.1390 -0.0842
 8382W        W18075   2.031   3.401   1.130 -0.0851  0.1152  0.1822
 8383W        W18076  15.398   0.121  14.182 -0.1832  0.1278 -0.3144
 8384W        W18077  16.189   0.420  15.628  0.0935  0.0376 -0.0678
 8385W        W18078   8.728   7.670   4.496 -0.2294  0.0162  0.3764
 8386W        W18079  15.343   8.454   4.823 -0.0570 -0.4417 -0.0020
 8387W        W18080   6.303   8.137   1.126  0.0354 -0.2021  0.0931
 8388W        W18081  10.018   3.357  12.876 -0.0397 -0.0056  0.2115
 8389W        W18082   6.170  12.147  14.942  0.1350  0.0388 -0.3892
 8390W        W18083  11.395  16.349   6.461  0.0815  0.0043  0.0026
 8391W        W18084   2.196   2.472   5.101 -0.1217  0.0927  0.0385
 8392W        W18085  11.388   2.932   4.690  0.0927 -0.2372  0.1335
 8393W        W18086  13.725   3.236   5.171 -0.1511  0.1957  0.3075
 8394W        W18087   8.903   4.403  13.710 -0.0301 -0.1287  0.1930
 8395W        W18088  16.296   7.378   4.960  0.0976 -0.0011  0.0503
 8396W        W18089   8.302  12.097   3.210 -0.0361 -0.0217  0.1891
 8397W        W18090  16.804   4.215   3.778 -0.0485  0.0550  0.2909
 8398W        W18091  14.918   6.419   5.880 -0.3153 -0.0575  0.0716
 8399W        W18092   9.168   4.390   5.398 -0.4894  0.2017 -0.0274
 8400W        W18093   1.087   1.403  11.106  0.1088  0.1424 -0.1860
 8401W        W18094  10.381   6.828  14.675  0.0063  0.1687  0.2702
 8402W        W18095  16.698  16.166   4.394  0.1170 -0.0379 -0.2981
 8403W        W18096   6.739   1.928  12.533  0.0433  0.0886  0.4617
 8404W        W18097  17.195  11.934   3.068 -0.2203 -0.1494  0.0426
 8405W        W18098  10.601   7.848  12.336  0.0729  0.1456 -0.0343
 8406W        W18099   5.300   1.732   6.341 -0.1221  0.0684  0.3933
 8407W        W18100   7.723   7.216   4.681 -0.0875 -0.0548 -0.1144
 8408W        W18101  10.949  15.439   0.786 -0.1674  0.1236 -0.2076
 8409W        W18102   7.238   4.456   2.083 -0.1491  0.1213 -0.0406
 8410W        W18103  15.496   7.572  15.701 -0.2389  0.1408 -0.1080
 8411W        W18104  11.235  17.089   2.947 -0.1662  0.2037 -0.0433
 8412W        W18105   6.378   2.533   2.433 -0.3006  0.0019  0.1682
 8413W        W18106   5.467   0.834   3.170 -0.1187  0.0565  0.0780
 8414W        W18107   7.767   3.677   1.295  0.1389 -0.2301  0.1757
 8415W        W18108   1.936   0.291   3.940  0.3066  0.0516 -0.1848
 8416W        W18109   3.733   9.648  13.761  0.1239 -0.1275  0.0275
 8417W        W18110   1.178  14.124  11.951  0.0076  0.0257  0.0144
 8418W        W18111   9.409   5.356   5.297  0.0921  0.1823 -0.0576
 8419W        W18112  13.482  11.151   2.777 -0.1534  0.1752  0.2623
 8420W        W18113   5.198  15.805  12.834 -0.2070 -0.1427 -0.0493
 8421W        W18114  14.174   7.663   0.101  0.1385  0.0852 -0.1705
 8422W        W18115   8.046  11.688   0.425  0.0689 -0.0485 -0.0807
 8423W        W18116   2.139  16.188  16.818 -0.2892 -0.1370 -0.0233
 8424W        W18117   5.065  11.713   3.644 -0.0666  0.1586 -0.0129
 8425W        W18118  11.086  15.634   0.360 -0.2678 -0.0455 -0.0473
 8426W        W18119  13.957   2.761  17.613 -0.2536 -0.0227  0.2985
 8427W        W18120  11.665  12.881   3.944 -0.1145 -0.1362  0.0709
 8428W        W18121  15.625  17.525  13.706 -0.1672  0.7035 -0.0002
 8429W        W18122   6.882   3.146   4.076  0.0391  0.2945  0.2264
 8430W        W18123   4.077   5.910   2.599 -0.0200  0.0048 -0.0009
 8431W        W18124  11.157  14.662  13.014 -0.0378 -0.1599 -0.0092
 8432W        W18125  14.611  17.424  12.941  0.0298  0.3230 -0.0087
 8433W        W18126   6.052   0.159  14.690  0.0045  0.4817  0.3093
 8434W        W18127   3.489   6.431   5.608  0.1396 -0.2475 -0.3069
 8435W        W18128  14.209  15.123  16.438  0.2138  0.2213 -0.4752
 8436W        W18129  15.015   4.737   2.557 -0.1762  0.1995 -0.2711
 8437W        W18130  12.037  17.318   4.240 -0.0878 -0.0069  0.0675
 8438W        W18131   8.077  16.966   2.441  0.1042  0.0016 -0.0161
 8439W        W18132   0.816  12.664  14.912 -0.0065 -0.1078  0.1582
 8440W        W18133  15.035   3.071  14.149  0.0509  0.0199  0.0190
 8441W        W18134   0.389  14.693   0.087 -0.0623  0.0818  0.0301
 8442W        W18135   9.674   5.433   3.924 -0.0677 -0.4410  0.1584
 8443W        W18136   5.905   9.653   2.026 -0.0842  0.2026  0.2571
 8444W        W18137   9.630  10.807   4.516 -0.1317 -0.0708 -0.1530
 8445W        W18138  12.922  15.058  14.706  0.0888 -0.1897 -0.0775
 8446W        W18139  14.812   4.901  12.792  0.1878  0.0342  0.1586
 8447W        W18140   3.393  15.347   1.568  0.3167  0.2206  0.3930
 8448W        W18141  15.247   1.206  13.939 -0.1540 -0.2106 -0.3665
 8449W        W18142  12.150   7.205  15.287 -0.1413 -0.1266 -0.1087
 8450W        W18143  14.699  14.759   4.616 -0.0737 -0.2290 -0.1468
 8451W        W18144   9.436  12.535   5.202  0.1496  0.0150 -0.1270
 8452W        W18145  16.758  12.116  13.521 -0.0066  0.1153 -0.1532
 8453W        W18146   7.566  17.560   6.756  0.0564 -0.1348  0.4178
 8454W        W18147  10.754  16.929  13.907 -0.0992 -0.1763 -0.0983
 8455W        W18148  15.925  12.430   2.490  0.2076  0.4172 -0.2996
 8456W        W18149   7.396   9.021   0.226 -0.0746 -0.4710 -0.1238
 8457W        W18150  11.309  10.706   3.752  0.1980  0.0200 -0.2851
 8458W        W18151   7.882  12.355   2.871  0.3420 -0.2027 -0.1377
 8459W        W18152   4.159   5.175   1.164  0.3504 -0.1887  0.2106
 8460W        W18153   3.337  13.874   4.657  0.0007  0.0358  0.0459
 8461W        W18154   9.885  14.937   3.704  0.1853  0.0142 -0.0474
 8462W        W18155   3.697   6.662   5.997 -0.0814  0.1263  0.0612
 8463W        W18156   8.805   4.218  14.749  0.0267  0.0072  0.0007
 8464W        W18157  13.196   6.141  13.948 -0.3123  0.1027 -0.2447
 8465W        W18158  11.133  11.827   2.687  0.0009 -0.2284 -0.1122
 8466W        W18159  14.460  17.448   0.848 -0.1451  0.0118 -0.0198
 8467W        W18160  16.009   9.282  14.155  0.0959  0.1479  0.0340
 8468W        W18161   0.388  15.992   0.935  0.3492  0.0639 -0.1536
 8469W        W18162  10.381   5.602  13.729 -0.1924  0.1805  0.1637
 8470W        W18163   4.761   4.055  16.789  0.0888  0.2712 -0.0174
 8471W        W18164   6.637   7.841  12.216  0.1131  0.1297 -0.2590
 8472W        W18165   2.148   9.644   2.543  0.2662 -0.0446  0.1544
 8473W        W18166   5.086  16.775  16.461  0.0095  0.1039  0.1167
 8474W        W18167   6.875   0.192  17.144  0.2171  0.3212 -0.1060
 8475W        W18168   3.547   5.452  14.792  0.0093 -0.0825 -0.1632
 8476W        W18169   0.543  13.994  15.019  0.0667  0.2562 -0.2703
 8477W        W18170   4.619  17.534   6.692 -0.1443  0.0393 -0.2165
 8478W        W18171   7.727  11.340   5.646  0.1320  0.1954  0.0951
 8479W        W18172   4.583   3.325   1.612 -0.1119 -0.0428  0.1635
 8480W        W18173   9.412  14.868  13.867 -0.2343  0.2364 -0.4708
 8481W        W18174   2.329   4.510  12.735 -0.0464 -0.0567 -0.0172
 8482W        W18175   1.481  16.986  15.205  0.0812  0.0235 -0.0653
 8483W        W18176   7.019  11.029  11.127 -0.1248  0.2284 -0.2711
 8484W        W18177  13.219  12.078   5.530 -0.2224 -0.0502  0.1364
 8485W        W18178   6.141   2.950  12.583  0.1099 -0.0426 -0.0090
 8486W        W18179  17.160   3.216  14.558 -0.1331 -0.0205  0.1323
 8487W        W18180   0.903  13.874   6.055 -0.0383  0.0124 -0.2543
 8488W        W18181   9.636   2.086   6.481 -0.1295  0.2165 -0.1289
 8489W        W18182  15.295   9.765   3.315 -0.1278  0.0137 -0.0853
 8490W        W18183   5.837  16.070  10.889  0.0790  0.1342 -0.2008
 8491W        W18184  15.149  11.293   5.317  0.1969 -0.0209 -0.1669
 8492W        W18185  13.948  11.193   2.174 -0.0893 -0.2091 -0.1213
 8493W        W18186  12.004   9.850  12.688 -0.2548  0.2388  0.1459
 8494W        W18187  15.335  11.874   7.182 -0.1201  0.2012 -0.0639
 8495W        W18188   1.544  11.022   4.683  0.1311 -0.1164 -0.0247
 8496W        W18189  17.080   8.634   4.755  0.1607  0.0680 -0.1568
 8497W        W18190   1.864   4.890   5.258  0.1908  0.1438 -0.0648
 8498W        W18191  13.312  14.063  13.002 -0.0180  0.2172 -0.1850
 8499W        W18192   9.737   3.666   6.106 -0.3020  0.3173  0.0445
 8500W        W18193  13.385   1.876   0.528 -0.1632  0.0358 -0.3252
 8501W        W18194   5.170  15.333   5.644 -0.1665 -0.0754  0.1381
 8502W        W18195   9.177  16.303  11.867 -0.0159 -0.0585  0.1293
 8503W        W18196   1.529   2.139   4.332 -0.1874 -0.3808 -0.0494
 8504W        W18197  11.052  13.528  13.188  0.2223  0.0637 -0.1195
 8505W        W18198   8.087   6.086   2.947 -0.0848  0.0886 -0.1607
 8506W        W18199   8.934   3.487   4.627 -0.0720 -0.0347  0.2173
 8507W        W18200  12.472   8.998   5.235 -0.0413  0.0635 -0.0303
 8508W        W18201   4.749   6.061  14.359 -0.2568 -0.0983 -0.1646
 8509W        W18202  10.665  17.474   4.897  0.1186 -0.3074  0.1207
 8510W        W18203  16.036  17.219  16.333 -0.2438 -0.0486 -0.2445
 8511W        W18204   8.527   7.561  15.205 -0.2410 -0.2285  0.0452
 8512W        W18205  17.528   4.373   3.225 -0.0850  0.2342  0.0390
 8513W        W18206  11.102   9.933   5.139  0.0755 -0.2459  0.1761
 8514W        W18207  16.339   2.402  12.457  0.0935 -0.2490 -0.2779
 8515W        W18208  12.872  13.431   2.415 -0.2105 -0.1970 -0.2719
 8516W        W18209   2.301  10.890   0.134 -0.1306  0.1385 -0.2481
 8517W        W18210  17.444  15.201   0.763 -0.1702  0.1708 -0.1901
 8518W        W18211   7.388   6.821   1.185 -0.1934 -0.0029 -0.0822
 8519W        W18212  15.929   4.136  12.737  0.0773 -0.1516 -0.2215
 8520W        W18213  11.242   3.447   7.128  0.2405  0.1242 -0.1493
 8521W        W18214   4.566   1.166  12.424  0.2405  0.2101 -0.0363
 8522W        W18215  16.652   3.018  10.849 -0.0845 -0.2255  0.2198
 8523W        W18216  11.858   7.797   1.636 -0.1433 -0.3881  0.0057
 8524W        W18217   1.313   6.036  13.409 -0.2208 -0.0623  0.4864
 8525W        W18218   3.279   5.477  12.848 -0.0239 -0.2047 -0.0005
 8526W        W18219  12.454  13.577   5.151 -0.1680 -0.0063  0.1088
 8527W        W18220  16.754  12.826  16.866  0.0364 -0.3443 -0.0627
 8528W        W18221   9.679   1.916   3.042 -0.2244 -0.0983 -0.0107
 8529W        W18222   7.562   3.293   5.464 -0.0104 -0.0885  0.1972
 8530W        W18223   6.020  14.115  10.953  0.1351 -0.2787 -0.0286
 8531W        W18224  14.203   9.625  16.546 -0.1426 -0.4297 -0.1484
 8532W        W18225  14.584  17.170   0.026  0.3331  0.0171  0.1931
 8533W        W18226   0.957   4.200   5.826  0.1237 -0.0543  0.1010
 8534W        W18227  16.395   0.704  17.106 -0.2394  0.0453 -0.0892
 8535W        W18228   7.357   5.384  14.168  0.2866  0.4376  0.2256
 8536W        W18229   5.560   7.029   2.347  0.0921  0.0723  0.0572
 8537W        W18230  14.710   4.419  12.811  0.2712  0.1203  0.0162
 8538W        W18231   9.812   2.488  15.285 -0.2215 -0.0566  0.1530
 8539W        W18232   1.546  16.211  12.361 -0.1621 -0.2227  0.1947
 8540W        W18233  14.580   0.783   2.696  0.0524  0.1419  0.2088
 8541W        W18234  10.923   5.927  16.751 -0.0238  0.0568 -0.0507
 8542W        W18235   0.802  13.329   5.411  0.2386 -0.0771  0.0481
 8543W        W18236  12.661  16.399   4.762  0.0150  0.1574 -0.2543
 8544W        W18237   0.351   0.315  15.879 -0.0878 -0.2432  0.1034
 8545W        W18238  13.958   7.864  14.425  0.3571 -0.0042 -0.2538
 8546W        W18239   5.366  17.190  11.505  0.3328  0.2838  0.1873
 8547W        W18240  15.230   7.149   1.389  0.0222  0.5067  0.0993
 8548W        W18241   9.571  11.032  16.601  0.1480  0.0023  0.3919
 8549W        W18242   5.109   5.643   0.100  0.5942 -0.1170 -0.1516
 8550W        W18243   5.405   1.421   5.997 -0.0554  0.0894 -0.1961
 8551W        W18244   3.380  13.001   5.834  0.1794  0.1410 -0.2701
 8552W        W18245  15.246  12.532   1.816  0.0143 -0.2275  0.2108
 8553W        W18246  15.999   5.048   4.672  0.0366 -0.2782 -0.2503
 8554W        W18247   4.364  14.988  12.656 -0.3566  0.5387 -0.0818
 8555W        W18248   9.724   9.775  14.779 -0.0152 -0.0205  0.1622
 8556W        W18249   0.393   0.244  15.022 -0.1312 -0.0130  0.3210
 8557W        W18250  14.428   0.712   5.376  0.2366 -0.0283 -0.1519
 8558W        W18251  16.019  13.989   1.517  0.0571 -0.0288  0.1906
 8559W        W18252   1.364  14.246   1.779 -0.0642 -0.0091  0.0756
 8560W        W18253   3.545   5.643  17.284  0.1161 -0.2417  0.0964
 8561W        W18254   5.234  12.268  14.782  0.0539 -0.1238  0.1172
 8562W        W18255  16.297  14.577  17.191  0.2894  0.2183 -0.0274
 8563W        W18256   9.658   7.328  12.713  0.0011  0.1794 -0.2023
 8564W        W18257  14.210  16.119   3.199  0.3219  0.0685 -0.2024
 8565W        W18258   7.132  10.584   2.010 -0.1539  0.1142  0.0453
 8566W        W18259   9.476   8.787   6.076  0.0984 -0.0676  0.2488
 8567W        W18260  15.451  12.370  16.824  0.0890 -0.1987  0.1934
 8568W        W18261   5.853   9.642  12.585 -0.1051  0.2801  0.0118
 8569W        W18262  16.464  10.987   4.615  0.3064 -0.0186 -0.0725
 8570W        W18263   1.800  13.663  13.301 -0.0919  0.1210  0.1537
 8571W        W18264  11.056  15.666  13.295  0.1090  0.0701  0.5409
 8572W        W18265   6.224   7.325   1.080  0.2546 -0.0932  0.0499
 8573W        W18266   3.865  12.234  15.315  0.0553  0.2984 -0.3384
 8574W        W18267  12.522   5.721   2.620  0.0550  0.1133 -0.0452
 8575W        W18268   4.786   3.303   4.771 -0.0385  0.1848  0.1944
 8576W        W18269  15.967   8.227   4.002 -0.1761 -0.2166  0.1395
 8577W        W18270   4.229   7.939  14.405 -0.1011  0.2056  0.0950
 8578W        W18271  15.071  12.693   1.073  0.1816  0.3796 -0.1407
 8579W        W18272  11.415   9.466  12.712 -0.2692  0.1057  0.1869
 8580W        W18273   5.539  11.030   1.971  0.3344 -0.1272 -0.0261
 8581W        W18274   7.212  13.027  16.255  0.3284 -0.0932 -0.0695
 8582W        W18275  11.483  16.065  17.129 -0.1607  0.1789 -0.1935
 8583W        W18276   3.941  12.814   4.035 -0.0379 -0.0703  0.0072
 8584W        W18277   8.610  12.452   5.868 -0.1512  0.0841 -0.0523
 8585W        W18278   6.273  11.018   4.922 -0.1410 -0.3969  0.0510
 8586W        W18279   1.668  15.340   3.583  0.1496  0.1718 -0.0000
 8587W        W18280  10.638   7.290  15.427 -0.3366  0.3950  0.0829
 8588W        W18281   9.836  10.984  14.457 -0.0713  0.0114 -0.0643
 8589W        W18282  12.767  16.351  16.260 -0.1582  0.1731  0.0155
 8590W        W18283   0.861   0.666   1.993 -0.0955 -0.2253  0.5859
 8591W        W18284  13.314   3.485   3.353  0.3665  0.2070 -0.0751
 8592W        W18285  14.783   2.940   2.627 -0.2982 -0.0854  0.0113
 8593W        W18286   8.894  12.737  14.929  0.0616  0.1928 -0.0584
 8594W        W18287  15.748  13.252   2.127 -0.0330  0.0732 -0.2356
 8595W        W18288  10.981  14.105   1.143  0.1070  0.0506 -0.2905
 8596W        W18289   4.703   6.816  13.413 -0.0282 -0.2412 -0.0584
 8597W        W18290  11.622   1.205  16.202 -0.1382  0.0001  0.2596
 8598W        W18291  11.418   6.043  13.540  0.2687 -0.0559 -0.4792
 8599W        W18292  12.667   1.592  16.440  0.4023 -0.1763  0.2313
 8600W        W18293   3.711  10.300   3.217  0.1441 -0.3435  0.0267
 8601W        W18294  14.737   0.154   1.671 -0.0484  0.3820 -0.1674
 8602W        W18295  16.222   6.124  14.825 -0.2712  0.2428  0.2836
 8603W        W18296  14.631  12.099  17.419  0.1283  0.0434  0.3038
 8604W        W18297   4.364   7.239   2.023  0.2407 -0.1346 -0.1110
 8605W        W18298   1.757  11.336  14.150  0.0211  0.3306  0.0208
 8606W        W18299   8.516   8.226   1.273  0.2562  0.0423 -0.0977
 8607W        W18300   6.889  16.829  14.439  0.0759  0.3077  0.1109
 8608W        W18301  12.105   4.624   6.964  0.0376  0.1561  0.3517
 8609W        W18302   7.142  10.997  13.210 -0.0378  0.0785  0.1184
 8610W        W18303  16.450   9.531  15.041 -0.0627  0.0966 -0.5149
 8611W        W18304   2.388  13.680   1.113  0.2167 -0.0576 -0.1444
 8612W        W18305   0.927  13.864  17.572  0.0201 -0.2566  0.2403
 8613W        W18306  14.778  16.350  15.765 -0.1938 -0.1643 -0.1058
 8614W        W18307   9.519  11.301   0.944  0.1884 -0.1030  0.1557
 8615W        W18308   9.698   3.179  13.711  0.0274 -0.0751  0.1084
 8616W        W18309   4.788  16.173  15.975 -0.0853 -0.3456 -0.0117
 8617W        W18310   7.483  11.598  14.829 -0.0923  0.2344 -0.0785
 8618W        W18311  13.049   4.822  16.688  0.2108 -0.3013  0.1031
 8619W        W18312   2.020   5.049  13.933  0.1399  0.2384 -0.0425
 8620W        W18313   8.745  14.177  15.934 -0.2706  0.0087  0.2915
 8621W        W18314   2.021   6.978  15.488  0.1962 -0.3330  0.1690
 8622W        W18315  11.814  11.387   5.413 -0.2343 -0.0933 -0.0778
 8623W        W18316  14.908  16.513  15.264 -0.4635 -0.4992 -0.0891
 8624W        W18317   5.339   5.323  14.415 -0.0422 -0.1969 -0.0325
 8625W        W18318   7.655  11.822   2.546 -0.3463  0.1812  0.0061
 8626W        W18319   0.550  12.673   7.438  0.0530  0.0876 -0.2810
 8627W        W18320   4.075   9.054   3.456 -0.3715 -0.0172  0.2892
 8628W        W18321   7.256   7.112  16.415 -0.0659 -0.3020 -0.1281
 8629W        W18322   1.072  10.504  15.379 -0.3556 -0.4156 -0.0575
 8630W        W18323  16.954  14.897  16.289  0.1385  0.2506 -0.1029
 8631W        W18324   5.863   8.978  15.095  0.1930  0.0124  0.1232
 8632W        W18325  17.323   0.440   3.938  0.0042  0.0574  0.1225
 8633W        W18326  13.027   8.601   0.657  0.1595 -0.1831 -0.2718
 8634W        W18327  12.846   4.428   3.261 -0.2563  0.0184  0.0666
 8635W        W18328   1.464   8.288  16.437 -0.0474  0.1582  0.2645
 8636W        W18329   5.708  16.226  12.015  0.1872 -0.0276 -0.1081
 8637W        W18330  10.354   3.087   3.510  0.1605  0.0721  0.0061
 8638W        W18331   3.983   5.913  13.492  0.0007 -0.0511 -0.2881
 8639W        W18332  13.736  10.749  17.096 -0.1720  0.0012  0.0689
 8640W        W18333   4.099   0.796  15.304  0.1250 -0.2403  0.2305
 8641W        W18334   3.088  17.349   0.700  0.0315  0.3699  0.1582
 8642W        W18335  10.230   4.469   3.224  0.0323 -0.1308  0.1062
 8643W        W18336  12.722   5.317  12.363  0.1068  0.1076  0.0479
 8644W        W18337  13.912  10.838   4.493  0.1024  0.0858  0.1466
 8645W        W18338  17.139   6.634  14.646  0.1478  0.0416  0.1555
 8646W        W18339   5.642   8.004  15.408 -0.1477 -0.0238  0.0266
 8647W        W18340   4.882  14.787   4.065  0.3817 -0.1837  0.0833
 8648W        W18341   3.347  17.622  16.237 -0.5403  0.0544  0.0074
 8649W        W18342   1.925   1.489   1.588 -0.1909 -0.1264 -0.0085
 8650W        W18343   4.782   8.204  15.384  0.1581  0.0513  0.2269
 8651W        W18344   9.074   4.000  15.122 -0.1477  0.1411  0.0779
 8652W        W18345   6.135  10.187  10.711  0.3832 -0.2266  0.3906
 8653W        W18346  14.468  14.227   4.644 -0.0941 -0.0355 -0.0811
 8654W        W18347  12.076  16.817  16.457 -0.1044  0.2173 -0.0585
 8655W        W18348  13.508   7.191   4.025 -0.2628  0.3891  0.3666
 8656W        W18349   1.409   4.512   3.317 -0.0560 -0.1701  0.1186
 8657W        W18350  14.788   1.748  12.848  0.2773 -0.1529  0.2646
 8658W        W18351   7.451  13.937  12.504 -0.1371  0.1520 -0.0354
 8659W        W18352   4.702   1.503   0.276 -0.0715 -0.0466 -0.0715
 8660W        W18353   2.640   7.282   6.181  0.0509  0.2717 -0.2083
 8661W        W18354   7.221  14.843   6.031 -0.0483  0.3524 -0.1882
 8662W        W18355  14.150  13.909   6.650 -0.2425  0.2242 -0.1340
 8663W        W18356   9.873   4.481   2.834  0.1480 -0.4474  0.1228
 8664W        W18357   0.028  10.083   0.537 -0.2132 -0.1213  0.1425
 8665W        W18358  16.445   6.607  15.324  0.0860 -0.2024 -0.1768
 8666W        W18359   3.355   6.694  16.187  0.0086  0.1233  0.1542
 8667W        W18360   7.180  13.585   0.100  0.1403 -0.0585  0.2118
 8668W        W18361   7.731  12.621   5.125  0.0613 -0.1305  0.1455
 8669W        W18362  11.807   9.800   3.755 -0.4984  0.4756 -0.2458
 8670W        W18363   2.293  14.299   6.329  0.1109  0.0847  0.0259
 8671W        W18364  16.712  15.373  15.442 -0.0173 -0.0198 -0.2831
 8672W        W18365  15.106  15.533  14.828 -0.1244  0.0398 -0.0042
 8673W        W18366  14.008   3.848  13.230  0.1931 -0.3725  0.0862
 8674W        W18367   3.262   9.115   3.395  0.0170  0.0914 -0.0802
 8675W        W18368   0.269  12.138   3.906 -0.3719 -0.1061  0.2082
 8676W        W18369   7.725   4.149   2.891  0.1037  0.2950 -0.1296
 8677W        W18370   0.690  15.416   2.541  0.2438 -0.2246 -0.0302
 8678W        W18371   7.813  14.514   6.072 -0.0725 -0.3394 -0.1365
 8679W        W18372  10.785  10.577  13.737 -0.1718  0.4416  0.2261
 8680W        W18373  17.099   2.308   5.229  0.4033  0.2778  0.2419
 8681W        W18374  14.986  12.045  16.028 -0.0789  0.0511 -0.2845
 8682W        W18375   3.280  16.230  12.341 -0.2653 -0.0805  0.0669
 8683W        W18376  14.289  15.091   6.167  0.2012  0.0969  0.0572
 8684W        W18377   7.421  12.513  17.569  0.3791 -0.0798  0.0829
 8685W        W18378  15.838   0.441   6.626  0.0107  0.0148  0.1359
 8686W        W18379   0.363  15.065  14.058  0.0333 -0.0644 -0.2490
 8687W        W18380   8.310   6.992  16.650  0.1385 -0.2823  0.1407
 8688W        W18381  12.194   4.387  14.012  0.1363 -0.2834 -0.1302
 8689W        W18382  14.129   5.138   5.320  0.0956 -0.4853  0.1917
 8690W        W18383   3.689   1.373  14.194 -0.0528  0.0943 -0.1432
 8691W        W18384   4.163   0.777  16.111 -0.1593 -0.0544 -0.0763
 8692W        W18385   0.778   4.042   5.377 -0.0126 -0.2188 -0.0966
 8693W        W18386   6.525   7.133   3.377  0.1745  0.2256 -0.0087
 8694W        W18387  11.608  11.034  13.489 -0.0465 -0.1019 -0.1110
 8695W        W18388   6.422  16.842   2.765  0.0519  0.1232  0.2354
 8696W        W18389   3.153   5.794   4.259  0.1075  0.1248  0.0136
 8697W        W18390  10.341   6.752  14.117 -0.0960 -0.0840 -0.2805
 8698W        W18391  16.857   4.778   1.993 -0.1195  0.0294  0.1771
 8699W        W18392   5.437   2.250   0.040 -0.3055 -0.1189 -0.2037
 8700W        W18393   8.626  16.613  13.687  0.2081  0.4019  0.1077
 8701W        W18394  16.618  14.915   0.762  0.0778  0.2665 -0.0309
 8702W        W18395   0.575   9.020  13.524  0.0102 -0.0063  0.0123
 8703W        W18396  17.170  16.637  13.294  0.2122 -0.0685  0.2153
 8704W        W18397   9.121  16.976   4.484 -0.0400 -0.0333  0.2274
 8705W        W18398   1.537   6.594  17.428  0.2090 -0.4358 -0.1225
 8706W        W18399   1.095  12.130   4.182 -0.2404  0.0033 -0.2232
 8707W        W18400  13.825  10.212   1.091 -0.0374  0.1158  0.2907
 8708W        W18401  11.257   9.305   1.100  0.0241 -0.1946  0.0300
 8709W        W18402   7.835   6.695  17.150  0.2357 -0.0204  0.0083
 8710W        W18403   7.476  11.867   1.050 -0.3472  0.0159  0.2342
 8711W        W18404   1.446  10.917   6.179  0.0025 -0.0810 -0.1340
 8712W        W18405  11.977   2.129   3.343 -0.3981 -0.0916 -0.1517
 8713W        W18406  14.686   1.990  15.829 -0.0165  0.0512  0.0371
 8714W        W18407   0.155  13.282   6.241  0.1270 -0.2066  0.2267
 8715W        W18408   5.063   7.988  11.202  0.0109  0.0484  0.0601
 8716W        W18409   6.000  17.023   2.980  0.2490 -0.0549 -0.0351
 8717W        W18410   6.403   5.041   6.085 -0.1784 -0.1380  0.1104
 8718W        W18411   9.815   3.511   5.273 -0.1665 -0.0293 -0.1279
 8719W        W18412   0.499   5.842  12.653  0.1741 -0.0318  0.0320
 8720W        W18413   2.065   1.557  11.665 -0.0390 -0.1363 -0.2172
 8721W        W18414   5.332   8.853   4.524  0.2095 -0.0056  0.0576
 8722W        W18415   7.579   0.600   0.421 -0.0487 -0.0064 -0.3924
 8723W        W18416  10.401   0.652   2.658 -0.1458 -0.0030  0.1921
 8724W        W18417   2.605   3.540   6.643 -0.2379 -0.1485 -0.2713
 8725W        W18418  15.576   4.784  15.926  0.0114  0.0548 -0.4371
 8726W        W18419  15.359  11.612  17.198 -0.0053  0.1753  0.1203
 8727W        W18420   8.215  14.165  16.741 -0.0699 -0.1241 -0.2215
 8728W        W18421  14.716   0.282  15.390  0.3071 -0.3034  0.1244
 8729W        W18422   9.232   0.417   5.861  0.0216  0.3223 -0.1140
 8730W        W18423  12.605   2.759  16.141  0.1607 -0.1111  0.1174
 8731W        W18424   9.483  10.056   5.334 -0.0687  0.1441  0.0519
 8732W        W18425  10.756   9.699   5.368  0.1959 -0.3040 -0.2139
 8733W        W18426   8.545   5.421   2.446 -0.2277  0.2520 -0.1859
 8734W        W18427   6.455   0.632   0.910  0.0491  0.0265  0.4354
 8735W        W18428  16.214  14.659  14.862 -0.0383 -0.0400  0.1921
 8736W        W18429  13.820  11.235  12.988  0.2001 -0.1775 -0.0098
 8737W        W18430   0.787   3.251   5.446 -0.0569 -0.1158 -0.2363
 8738W        W18431   2.435  17.075   4.885 -0.0485  0.1070 -0.0555
 8739W        W18432   5.626   0.049  12.691 -0.1490 -0.2482  0.3202
 8740W        W18433   6.298  12.541   1.857 -0.0416 -0.2237 -0.0504
 8741W        W18434  13.452   2.879   2.943  0.0237 -0.0031  0.3764
 8742W        W18435  16.218  12.201  13.625 -0.2097  0.1745  0.2770
 8743W        W18436  12.269  13.013  15.539  0.2166  0.0165  0.2050
 8744W        W18437   5.156   7.338   5.821  0.1665 -0.1577  0.1502
 8745W        W18438   4.424  10.722  11.537  0.4205  0.1718 -0.0136
 8746W        W18439   7.778  15.030   5.966 -0.0295 -0.1693  0.1203
 8747W        W18440   5.385   1.469   3.743 -0.0718  0.0964 -0.2328
 8748W        W18441  17.263   4.095  16.439 -0.5101  0.0634 -0.1047
 8749W        W18442  14.818  12.979   3.596 -0.1122  0.1364  0.1758
 8750W        W18443  14.338  14.012  13.541 -0.1953  0.0137  0.1220
 8751W        W18444  15.546  16.468  12.514  0.2153  0.0161 -0.0775
 8752W        W18445  14.613   4.518  16.541 -0.1566  0.1285  0.0713
 8753W        W18446   4.963   9.798   4.405 -0.2331 -0.0112  0.1876
 8754W        W18447   0.347   4.823  14.488 -0.2218  0.0173 -0.0439
 8755W        W18448   5.276   6.456  16.379  0.0290  0.1034 -0.1913
 8756W        W18449  14.018   0.454   4.143  0.0629  0.3098  0.2715
 8757W        W18450   3.229   3.851   5.193  0.0327 -0.1351 -0.1397
 8758W        W18451   4.202   3.086  17.682 -0.0326  0.0282  0.4143
 8759W        W18452   7.468   8.863  15.237 -0.2262 -0.0487  0.0896
 8760W        W18453  10.661   7.862   6.446 -0.1283 -0.0931 -0.1361
 8761W        W18454  11.191  15.174   0.072  0.0084 -0.1559  0.0784
 8762W        W18455   0.359   9.567  17.511  0.0411  0.2235 -0.1328
 8763W        W18456   0.743   0.239  12.444  0.0789  0.3988  0.1171
 8764W        W18457   6.096  13.917   3.944 -0.0935 -0.2027 -0.2929
 8765W        W18458   9.068  13.780   5.511  0.3668  0.1860 -0.0496
 8766W        W18459   0.471   8.679   0.227  0.2005 -0.1254  0.0204
 8767W        W18460   7.759   9.579   6.670  0.1023 -0.0622 -0.0042
 8768W        W18461   8.335  17.158   0.162  0.1475 -0.0579 -0.2364
 8769W        W18462  12.673   6.306  12.603 -0.0556  0.0472  0.3987
 8770W        W18463   1.261   0.876  13.287 -0.1465  0.0236 -0.0584
 8771W        W18464  17.501   7.130   2.791 -0.0742  0.3294 -0.0317
 8772W        W18465   5.705   7.200  12.584  0.0241 -0.3157 -0.0029
 8773W        W18466   6.810   9.853  15.973  0.1521  0.0234  0.0101
 8774W        W18467  16.470  15.667  12.973  0.0801 -0.2832 -0.4277
 8775W        W18468  14.603   3.287  15.945  0.1358 -0.0242  0.2284
 8776W        W18469  14.758   5.650   6.461 -0.2212 -0.3395 -0.2802
 8777W        W18470  11.290   3.211   3.667 -0.1043  0.0119 -0.3409
 8778W        W18471  13.434   9.439  13.510  0.0150  0.3881 -0.2534
 8779W        W18472  14.189   3.582   0.184 -0.1680  0.1249  0.0195
 8780W        W18473  10.507   2.035  16.517  0.1058 -0.1373 -0.0332
 8781W        W18474  13.964   9.505   2.490  0.0848 -0.0696 -0.0666
 8782W        W18475  12.228   8.742  12.168 -0.1022 -0.2403 -0.2020
 8783W        W18476   5.977  15.153   5.739  0.0563  0.1266 -0.2917
 8784W        W18477   9.222  13.248  16.792  0.0982 -0.1907  0.0270
 8785W        W18478   9.341  11.252   6.600  0.1331  0.2607 -0.0645
 8786W        W18479   5.642  12.805   2.479  0.3786 -0.5842 -0.0111
 8787W        W18480  12.173   9.613   1.543 -0.1613  0.0972 -0.0931
 8788W        W18481   5.027   8.595  16.204  0.1924  0.1469 -0.0334
 8789W        W18482   5.885  17.448  13.288  0.0687  0.1261  0.2267
 8790W        W18483   5.616  15.072   1.135 -0.2502  0.0953  0.4099
 8791W        W18484  13.570  10.814   0.008 -0.0115  0.1845 -0.1144
 8792W        W18485   0.990  12.363  11.919  0.0419 -0.1290 -0.1354
 8793W        W18486  12.146  16.264   6.281 -0.0615 -0.1633 -0.3604
 8794W        W18487   2.014  14.839   2.482  0.1665 -0.0095  0.1107
 8795W        W18488  16.468  14.952  15.245 -0.1605  0.0191  0.0710
 8796W        W18489  16.867   9.111  13.493 -0.2114 -0.1980  0.4145
 8797W        W18490   0.722  10.483  17.635 -0.2818  0.0268 -0.2636
 8798W        W18491  14.289  11.381  15.709  0.0879  0.3643  0.0254
 8799W        W18492  13.800   6.004   0.412  0.0434  0.0555 -0.1144
 8800W        W18493  16.769   1.583   3.479 -0.1112 -0.3327 -0.0324
 8801W        W18494   8.271   6.809  15.809  0.1635  0.1750 -0.0568
 8802W        W18495  12.271  12.644   1.295 -0.0614  0.1319  0.3588
 8803W        W18496   2.097   7.760  16.953  0.2304  0.0822  0.0215
 8804W        W18497   7.037  14.511   4.676 -0.1111 -0.0986 -0.4022
 8805W        W18498  14.834   2.697  12.408 -0.0643  0.1232  0.1773
 8806W        W18499   8.367  13.438   3.786 -0.2695  0.0433 -0.0998
 8807W        W18500  17.067  14.474   1.070  0.0410  0.0769 -0.1317
 8808W        W18501  12.672   1.203   0.160 -0.1235  0.0731  0.0094
 8809W        W18502   6.686   5.719  15.643 -0.2557  0.0205 -0.0565
 8810W        W18503   8.291   9.910  16.800 -0.0006  0.1399  0.1112
 8811W        W18504   8.878  11.522  17.147 -0.0117 -0.0138  0.1502
 8812W        W18505   6.365  15.586  16.541 -0.0820  0.0328  0.2556
 8813W        W18506   2.651  15.732  15.879 -0.0865 -0.1059  0.0579
 8814W        W18507  12.082  11.766  12.758  0.0751 -0.1044 -0.0027
 8815W        W18508   3.801  11.842  16.127 -0.4725  0.2293  0.0396
 8816W        W18509  13.582   6.060   1.219 -0.0982  0.0840  0.1469
 8817W        W18510   7.759  11.147  16.225 -0.1017 -0.0303 -0.1264
 8818W        W18511  13.944  14.594  14.670 -0.0143  0.2819  0.3177
 8819W        W18512  11.076  15.081   2.526  0.1655 -0.0283 -0.0657
 8820W        W18513   4.616   2.410   0.718  0.1400 -0.1227  0.2615
 8821W        W18514   1.062  10.152   3.057  0.0774  0.4786  0.3402
 8822W        W18515   9.784  15.405   3.604 -0.2490  0.1688 -0.0698
 8823W        W18516  11.229   7.930   5.736 -0.0055 -0.1512  0.1737
 8824W        W18517   0.375   0.294   4.400 -0.3218 -0.0914  0.1229
 8825W        W18518  17.012   5.090  14.294 -0.2480 -0.0994  0.0063
 8826W        W18519   4.372   1.780  14.460 -0.1383 -0.0187  0.0864
 8827W        W18520   9.930   2.484  10.690 -0.1225 -0.0074  0.1759
 8828W        W18521   4.032   5.850  16.688  0.1458 -0.1286 -0.0383
 8829W        W18522  16.457  17.651  13.486  0.0694  0.1396 -0.0647
 8830W        W18523  14.289   7.422  11.326  0.0933 -0.0247  0.0668
 8831W        W18524   3.102   8.894   4.666  0.0931 -0.1276  0.0188
 8832W        W18525   9.479   3.339  12.699  0.0581  0.1823 -0.2106
 8833W        W18526   1.486  16.355  11.786  0.0559 -0.1643 -0.2140
 8834W        W18527  17.209   2.774  13.024 -0.0779 -0.1082 -0.3112
 8835W        W18528   2.776   2.864  14.330  0.1005  0.0966 -0.1938
 8836W        W18529   6.860   5.085   5.860  0.1521  0.2242 -0.3141
 8837W        W18530   3.850  17.267   4.229  0.0837 -0.0525 -0.2484
 8838W        W18531   8.787   3.455  16.173 -0.0786 -0.0013 -0.1429
 8839W        W18532   8.706  17.519  16.333 -0.1068  0.1012 -0.0560
 8840W        W18533   1.574  15.558   4.005  0.1672 -0.4540 -0.3456
 8841W        W18534   0.406   2.035   6.134 -0.2326 -0.1465 -0.0302
 8842W        W18535  16.990   7.305   4.145 -0.3037  0.0123 -0.0184
 8843W        W18536   1.219  13.720  10.910 -0.4188  0.1661  0.2305
 8844W        W18537  14.144  13.327  16.640  0.2305  0.0561 -0.1087
 8845W        W18538   1.200   4.157   4.517  0.0607 -0.2829 -0.3757
 8846W        W18539  16.001  12.193  11.501  0.2167  0.1126  0.2683
 8847W        W18540  17.213   8.949   4.404 -0.2719 -0.0496  0.0644
 8848W        W18541   7.948  15.577  12.603  0.0473 -0.0441 -0.2444
 8849W        W18542   3.154   3.066   4.175  0.3123 -0.1068  0.0919
 8850W        W18543   5.611   7.793   0.385  0.0536  0.0170 -0.0142
 8851W        W18544   3.826   5.443   4.870 -0.0109  0.1372  0.2583
 8852W        W18545   1.012   1.762   1.847 -0.2462 -0.1064 -0.2085
 8853W        W18546  14.079   0.675   1.203  0.2936 -0.1516  0.1615
 8854W        W18547   4.027  10.544   5.388  0.2222 -0.1488  0.1784
 8855W        W18548   5.485   6.475  12.768 -0.2114 -0.3724 -0.1735
 8856W        W18549  10.825  17.649   0.409 -0.0721 -0.1130  0.0829
 8857W        W18550  13.822  12.390  14.044 -0.1198 -0.2070  0.2049
 8858W        W18551   0.660   6.400   2.763  0.2762  0.0851  0.0584
 8859W        W18552   7.604  12.914  13.209 -0.1123 -0.0182 -0.2546
 8860W        W18553   5.233   5.567   2.102 -0.1941 -0.1863 -0.1194
 8861W        W18554   4.363   0.991  14.914 -0.2596 -0.1152  0.1216
 8862W        W18555   4.918  11.163   5.248 -0.3246  0.1248 -0.1587
 8863W        W18556   0.640  12.931   4.637 -0.2832 -0.1458  0.4127
 8864W        W18557  10.246  17.181  16.751 -0.1990 -0.0137  0.1449
 8865W        W18558  12.639   2.346   5.008 -0.1355 -0.0638  0.1028
 8866W        W18559  12.359  11.787  12.016 -0.0032  0.2550  0.2729
 8867W        W18560  11.274   9.882  15.312 -0.0285  0.2249  0.1428
 8868W        W18561  11.112   9.253   4.252 -0.0291 -0.1184 -0.0658
 8869W        W18562   2.527   4.376  14.046  0.3188  0.1812  0.0701
 8870W        W18563   1.338   0.611  16.332  0.3929 -0.0091 -0.1018
 8871W        W18564   9.354  13.352  14.171  0.1775 -0.3186 -0.0651
 8872W        W18565   3.830   0.615  15.788 -0.1614 -0.0320 -0.2349
 8873W        W18566   4.105  13.159   3.707  0.0965  0.0255 -0.3733
 8874W        W18567  17.401   0.058  16.305  0.1020  0.2564 -0.1299
 8875W        W18568   8.569   5.959   2.311 -0.0035 -0.1049 -0.1134
 8876W        W18569  11.866   7.924   4.994 -0.3238 -0.3015  0.0205
 8877W        W18570  16.203   7.855  16.270  0.0713 -0.0952 -0.1024
 8878W        W18571   1.068  16.422   0.522  0.2110 -0.0872  0.0562
 8879W        W18572  16.237   8.522   6.275 -0.2211  0.0479 -0.1433
 8880W        W18573   7.736   7.978   5.406  0.1886  0.1017 -0.0331
 8881W        W18574   0.690   7.842  16.852 -0.2095 -0.0879 -0.2914
 8882W        W18575   3.250  14.889   1.503 -0.0221 -0.1085  0.0167
 8883W        W18576  14.853   8.631   4.451 -0.1392  0.0089  0.2516
 8884W        W18577  15.451  16.012  14.215 -0.0114  0.0052  0.0054
 8885W        W18578  10.230   4.068  12.130 -0.0521  0.1389 -0.1655
 8886W        W18579   4.076  17.278  17.243 -0.0638  0.1532  0.1353
 8887W        W18580  12.988   4.264  17.498  0.1386  0.2199 -0.0946
 8888W        W18581   8.934   4.738  11.299 -0.0084 -0.0491  0.1381
 8889W        W18582  10.902   6.895  14.762 -0.0158 -0.2785 -0.2388
 8890W        W18583   5.180  14.228  11.947  0.0760 -0.0638 -0.1312
 8891W        W18584   0.294   8.056  14.978 -0.1639 -0.1414 -0.0321
 8892W        W18585   4.273  12.565   5.534  0.1014 -0.0810  0.0587
 8893W        W18586  10.954   2.235   2.651  0.0806  0.1824 -0.1662
 8894W        W18587  10.944  14.864   2.021  0.2224  0.0333  0.2264
 8895W        W18588  15.731   0.100  13.113  0.2891 -0.0938  0.3535
 8896W        W18589   3.768   2.376  15.697  0.1351 -0.0742 -0.1639
 8897W        W18590   1.769   7.140  13.998  0.2135  0.0982 -0.3036
 8898W        W18591   9.065   2.490  17.529  0.1634  0.0968  0.0629
 8899W        W18592   2.715  12.569   4.315 -0.2764 -0.0127 -0.0085
 8900W        W18593  14.461  17.020   5.312  0.0194 -0.1530 -0.2117
 8901W        W18594   8.364   4.085  15.624 -0.2027 -0.0017 -0.0750
 8902W        W18595   8.334   1.001   2.612  0.2189 -0.0109  0.0571
 8903W        W18596  10.717   4.468   5.396  0.3939  0.0367 -0.4045
 8904W        W18597   9.798  13.705   5.797  0.1962 -0.2404 -0.2766
 8905W        W18598  10.785   6.493   3.956 -0.4991  0.2696  0.0985
 8906W        W18599  16.785   3.474   3.943  0.1758 -0.0781 -0.2081
 8907W        W18600  11.208   7.499  17.457 -0.2097  0.0118  0.2933
 8908W        W18601   0.142  11.433   4.247  0.0526  0.0529  0.1659
 8909W        W18602   1.764  11.423   4.360 -0.0806  0.2616  0.2415
 8910W        W18603  12.629  10.400   2.053 -0.2563  0.0441  0.2237
 8911W        W18604   4.208   0.554  12.105  0.0614 -0.0537 -0.0904
 8912W        W18605  14.368  10.153   5.251  0.0668  0.0625  0.1128
 8913W        W18606  11.608   0.925   6.261  0.0490  0.4069  0.1205
 8914W        W18607  13.120  10.022   6.131  0.2524  0.0127 -0.2128
 8915W        W18608  12.015   7.906  15.861 -0.3151  0.2690  0.0020
 8916W        W18609  14.712  16.238  17.202 -0.0987 -0.3141  0.0293
 8917W        W18610  14.751   6.764   1.996  0.0190 -0.1104 -0.3865
 8918W        W18611   0.192   7.251  16.045 -0.3122 -0.3989 -0.0017
 8919W        W18612  11.121   7.960   1.425  0.1663  0.1958  0.0270
 8920W        W18613  13.776  16.487   6.872 -0.1317 -0.0298 -0.1369
 8921W        W18614  14.882   5.875   4.011 -0.2353 -0.1872  0.0322
 8922W        W18615   9.249  12.803   3.238  0.4102  0.1850 -0.2220
 8923W        W18616   2.713  13.537   3.134  0.0698 -0.1653 -0.1461
 8924W        W18617   4.206   1.703  13.670 -0.1682  0.2427 -0.0161
 8925W        W18618   3.081  15.426  17.364  0.0409  0.0568  0.2302
 8926W        W18619  12.271  16.875  17.318  0.1003  0.2040  0.1808
 8927W        W18620  11.564   0.904  10.782  0.2650 -0.3052 -0.0590
 8928W        W18621   7.136   0.988  14.714 -0.1842 -0.2635 -0.3907
 8929W        W18622   1.613  14.576  13.237  0.3205 -0.3454 -0.0436
 8930W        W18623   3.602  14.324   1.557 -0.1638 -0.2238  0.2260
 8931W        W18624   0.487   7.127   5.792 -0.2286  0.0051 -0.2647
 8932W        W18625   5.974  15.340  12.149  0.2242 -0.1155 -0.0682
 8933W        W18626  12.759   0.834  14.961 -0.3357 -0.1801  0.0487
 8934W        W18627   7.953   0.651  14.651  0.1250 -0.1277  0.0380
 8935W        W18628  12.867  11.941  12.830 -0.2848  0.0378 -0.0944
 8936W        W18629   6.002  14.351   1.806  0.0933 -0.1164 -0.1068
 8937W        W18630  12.498   8.858   2.159  0.1335 -0.3232 -0.2200
 8938W        W18631   0.122  14.562  17.334 -0.2406  0.1075 -0.1417
 8939W        W18632   3.844  10.868  14.213 -0.3512 -0.3286 -0.1734
 8940W        W18633   6.633   1.532  13.085 -0.1220  0.0901 -0.1941
 8941W        W18634  13.710   8.197   2.414 -0.2386  0.1993  0.3861
 8942W        W18635   1.309  14.540   6.700  0.1770 -0.2722  0.0850
 8943W        W18636   4.874  16.487  11.643  0.1168  0.2041 -0.1456
 8944W        W18637  15.535   8.699   5.162  0.2569 -0.2458 -0.1233
 8945W        W18638  10.861  12.348   5.172 -0.0063  0.0894  0.0146
 8946W        W18639   6.726   4.100  15.409  0.0767 -0.0682  0.2750
 8947W        W18640   8.771  11.220   3.985 -0.1846 -0.1248 -0.3572
 8948W        W18641  15.498   4.587  17.246  0.0504  0.1104 -0.0065
 8949W        W18642   5.378  13.080  14.129  0.1068 -0.2330 -0.0843
 8950W        W18643  15.810  17.455   3.731  0.1204 -0.3530 -0.0028
 8951W        W18644  12.659   2.639   4.570 -0.3771 -0.0646 -0.0907
 8952W        W18645  16.276   4.444  11.437  0.1418 -0.2194  0.2019
 8953W        W18646  15.738   0.448   2.021 -0.3201  0.2349 -0.2852
 8954W        W18647  17.039   1.695   2.834 -0.0718  0.1081 -0.0954
 8955W        W18648  12.375   2.001   0.460 -0.0319 -0.1045  0.0424
 8956W        W18649   8.682  11.120   6.074  0.0779  0.1626  0.2476
 8957W        W18650  15.453  12.129   4.979  0.1997 -0.3629 -0.1986
 8958W        W18651   5.249  10.510   3.122  0.1992  0.1102  0.3980
 8959W        W18652  16.912   5.876   1.880  0.0719  0.0689 -0.0540
 8960W        W18653  13.613  11.277   6.420 -0.1019 -0.1118  0.1082
 8961W        W18654  16.881   5.106  10.857 -0.0887  0.0097  0.1978
 8962W        W18655   9.587   7.528  15.859  0.0547  0.0739  0.3848
 8963W        W18656   3.113  16.264   1.460 -0.2025 -0.1191  0.2468
 8964W        W18657   8.403  10.981  12.796 -0.4085 -0.2320 -0.0011
 8965W        W18658   8.648   6.299  15.751  0.0069  0.0509  0.1917
 8966W        W18659   8.389  14.860  15.261 -0.0983  0.0870  0.1567
 8967W        W18660  12.357   1.665  16.003  0.0537 -0.1512 -0.0653
 8968W        W18661  14.019   3.381  15.175  0.0899 -0.1400 -0.0442
 8969W        W18662   6.757   8.447  17.415  0.2514 -0.0755 -0.1416
 8970W        W18663   4.087   4.118   1.011 -0.1973  0.0526  0.1155
 8971W        W18664  16.889  11.733   0.655  0.2524 -0.0513  0.0077
 8972W        W18665   0.623   8.056   4.259 -0.0399 -0.0415 -0.0578
 8973W        W18666  14.547  15.051  15.257 -0.1990 -0.1211 -0.1089
 8974W        W18667  15.027  12.431  16.562  0.1536  0.2884  0.1751
 8975W        W18668  11.021   6.400  17.036 -0.1173  0.0024  0.0488
 8976W        W18669   7.653   4.050  13.516 -0.2382 -0.1716  0.2035
 8977W        W18670  14.265   5.848   4.366 -0.0413 -0.0672 -0.0209
 8978W        W18671  10.896  11.710   3.622  0.1467 -0.0870  0.0816
 8979W        W18672   9.594   8.004   3.275  0.0917 -0.0514 -0.0884
 8980W        W18673   1.712   2.381  11.712  0.1278 -0.0473  0.1388
 8981W        W18674   4.538   6.939  10.950 -0.1874 -0.0250 -0.2362
 8982W        W18675  11.319   5.532   4.204 -0.2330  0.1481 -0.4885
 8983W        W18676  13.278   7.368  15.781  0.1589 -0.2355 -0.1997
 8984W        W18677   7.863  15.338   1.539  0.0994 -0.1045  0.1138
 8985W        W18678  12.786   3.190  15.803  0.3004 -0.1903 -0.2076
 8986W        W18679   2.649   0.080   3.236  0.1509  0.2104  0.1319
 8987W        W18680   8.628   8.403   0.298  0.1492  0.2582 -0.6417
 8988W        W18681  12.726   1.859   3.713  0.1552 -0.0087 -0.1817
 8989W        W18682  13.433  12.348  14.976  0.0459  0.3292 -0.2956
 8990W        W18683   4.004   5.412   5.386 -0.1653  0.2367 -0.0231
 8991W        W18684   8.564   6.628   4.780 -0.1635 -0.1496 -0.0473
 8992W        W18685  14.174  10.527   2.988 -0.0342 -0.1227  0.0426
 8993W        W18686   1.312  16.921   4.150  0.0118 -0.1810 -0.2592
 8994W        W18687   5.205   8.162  13.891  0.4230  0.3361  0.0778
 8995W        W18688  17.345  15.779   3.870  0.2300  0.3607 -0.0755
 8996W        W18689   6.883   4.215  13.704  0.1584  0.0078  0.2353
 8997W        W18690  11.488  13.614  13.977  0.1133 -0.3049 -0.1044
 8998W        W18691  10.983   6.326   1.208 -0.4192 -0.0394  0.2873
 8999W        W18692   2.657  11.268  16.370  0.4937  0.1633 -0.3567
 9000W        W18693  14.901   2.223   3.472 -0.0199  0.1150 -0.0885
 9001W        W18694  13.825   0.879  15.064  0.0081  0.1384 -0.2313
 9002W        W18695   2.012   7.831   3.369 -0.1389  0.0849 -0.2364
 9003W        W18696  13.550  10.161   0.541  0.0722 -0.0541 -0.0684
 9004W        W18697  14.104   5.645   0.272  0.0902  0.1011 -0.0770
 9005W        W18698   0.807  12.412   2.923  0.0424  0.0674 -0.2350
 9006W        W18699  14.556   7.608   0.625 -0.0009 -0.0871 -0.4077
 9007W        W18700   7.074  10.149   0.879 -0.0455 -0.0120  0.2178
 9008W        W18701   3.496   3.392   6.013 -0.0363 -0.1265 -0.0438
 9009W        W18702   6.495  13.674   2.907 -0.3910 -0.2164  0.0085
 9010W        W18703   1.291  13.751  15.480  0.0038 -0.0606  0.0312
 9011W        W18704   3.744  11.981  17.475 -0.3633  0.1035 -0.1174
 9012W        W18705   7.956   6.964  17.682  0.3605 -0.2569  0.0372
 9013W        W18706   6.034   8.477  12.454 -0.3309  0.1511  0.0360
 9014W        W18707   3.994   6.383  17.601 -0.1093 -0.0105  0.0577
 9015W        W18708   3.324   2.835   2.880  0.1443  0.1425 -0.1333
 9016W        W18709  16.695  16.663   5.788 -0.0484  0.1748 -0.1172
 9017W        W18710  16.961   3.729  16.626  0.1536 -0.1986 -0.1652
 9018W        W18711   6.601   0.790   2.953 -0.2666  0.1669 -0.0845
 9019W        W18712   3.690   3.658   1.244  0.2158  0.1972 -0.0532
 9020W        W18713   2.051   7.100   4.085  0.1624 -0.0468 -0.0047
 9021W        W18714   9.651   5.081   2.319  0.1368 -0.3654 -0.0231
 9022W        W18715   4.617   0.555  17.143  0.0345  0.3239  0.2941
 9023W        W18716   1.967  15.704   4.727 -0.2461 -0.1383  0.1247
 9024W        W18717  14.159   3.497   1.069 -0.0891  0.1670 -0.3541
 9025W        W18718  17.543  13.754   6.072  0.0329  0.1341 -0.1941
 9026W        W18719   5.955   7.571   4.430 -0.2558  0.2155 -0.1411
 9027W        W18720  15.252  14.702  13.199 -0.3367  0.4676 -0.0200
 9028W        W18721   1.707   5.811  15.557  0.0871 -0.0477  0.1293
 9029W        W18722   8.976   3.990   4.783  0.0709 -0.1087  0.0859
 9030W        W18723   9.640   6.698  14.918  0.2670  0.2611 -0.1663
 9031W        W18724   5.047  11.244   1.926  0.0022 -0.0919  0.0031
 9032W        W18725  13.116   3.133   3.725 -0.0151  0.2313 -0.1352
 9033W        W18726  12.900  14.538   1.496 -0.0658 -0.1476  0.1291
 9034W        W18727  11.277   7.781  14.289  0.1074  0.0339 -0.0128
 9035W        W18728   6.366   3.883  12.958 -0.0953 -0.2033 -0.1721
 9036W        W18729   6.350   6.530   4.962 -0.1878  0.1167 -0.1027
 9037W        W18730   4.873  10.670   3.919 -0.2075  0.0214 -0.1574
 9038W        W18731  16.066  13.902   6.276 -0.0775 -0.0327  0.1625
 9039W        W18732   4.853  16.916  13.019  0.0938  0.0438 -0.2109
 9040W        W18733   7.830  15.632  15.470  0.0057  0.0167 -0.1552
 9041W        W18734  15.136   8.369  17.584  0.1133  0.0013  0.4621
 9042W        W18735   2.071   9.957   4.971 -0.3675  0.1408  0.2440
 9043W        W18736   5.305   2.979   1.842  0.0713  0.0912 -0.1801
 9044W        W18737   1.545  13.778   4.907 -0.0608  0.1410 -0.1788
 9045W        W18738  12.589   4.573  16.557 -0.0182  0.1339 -0.2482
 9046W        W18739   6.060  10.251  13.325  0.2954  0.5088 -0.2229
 9047W        W18740   5.217  10.084  14.288 -0.0070 -0.0195  0.5231
 9048W        W18741   1.201   7.489   3.060 -0.3430  0.2609  0.1437
 9049W        W18742  11.238   5.724   0.515  0.1464  0.0931  0.2231
 9050W        W18743  14.204   6.388   6.674 -0.1416  0.0053 -0.0073
 9051W        W18744  11.886  16.914   3.609  0.0062 -0.1610  0.0609
 9052W        W18745   5.326   1.848   3.317  0.1023  0.0893  0.2020
 9053W        W18746   9.829   6.035  13.259  0.3972  0.1324  0.0241
 9054W        W18747  10.305   7.578   4.026  0.1538 -0.0444  0.1351
 9055W        W18748   0.365   4.795   2.824 -0.0959  0.1473  0.1312
 9056W        W18749   2.575  10.491   5.011 -0.1706 -0.1202  0.0506
 9057W        W18750  12.151   0.403  16.650 -0.0569 -0.0768 -0.3847
 9058W        W18751   5.215  14.664  13.674  0.0738 -0.1231  0.2248
 9059W        W18752  10.733   8.255  16.698  0.1005  0.1059  0.1050
 9060W        W18753  13.436   2.128  11.049 -0.0349 -0.0937  0.0280
 9061W        W18754   6.676   2.684  13.111  0.1364  0.3497 -0.1004
 9062W        W18755   0.893   4.844  16.036 -0.2267  0.1059  0.0974
 9063W        W18756  10.749  16.365   3.560 -0.2151 -0.3008  0.0784
 9064W        W18757  16.271  16.729  12.176 -0.0124  0.0640 -0.1012
 9065W        W18758  16.986   8.721  15.450 -0.3955  0.1662  0.0640
 9066W        W18759   4.696  10.673   0.667 -0.1468 -0.4274 -0.5277
 9067W        W18760   4.084  12.461  14.006 -0.1233  0.1072  0.1815
 9068W        W18761   7.625   6.415   0.204  0.1315  0.1681  0.3233
 9069W        W18762  14.447  13.279   5.931 -0.2266 -0.0980  0.0070
 9070W        W18763   3.028  14.185   1.062  0.0976 -0.0408 -0.2640
 9071W        W18764   2.822   3.516   3.339  0.1516  0.4992 -0.0337
 9072W        W18765  12.629   9.586   4.939  0.0997 -0.3531 -0.0184
 9073W        W18766   7.250   0.792   1.379  0.0805 -0.0586  0.2332
 9074W        W18767   8.998   1.871  15.625 -0.2084  0.0926  0.0236
 9075W        W18768   5.405   8.366   2.448 -0.1692  0.2529  0.2947
 9076W        W18769  15.271  14.966  17.656  0.1782 -0.0604  0.0350
 9077W        W18770   4.951  16.562   2.363 -0.1101  0.0366  0.0115
 9078W        W18771  13.601   5.709  14.600  0.1338  0.0057 -0.1384
 9079W        W18772   1.741   4.716  12.755  0.2050 -0.1433 -0.0832
 9080W        W18773   2.082   9.660   1.091 -0.0828 -0.0491  0.1024
 9081W        W18774   0.946  16.417  17.209 -0.1625  0.1728 -0.2579
 9082W        W18775   6.821  16.155   6.939 -0.0112 -0.0682  0.1424
 9083W        W18776  16.963  16.435  15.485 -0.2691  0.3581 -0.1202
 9084W        W18777   8.116  10.833  13.619 -0.0292  0.0890  0.0834
 9085W        W18778   3.503  10.065  17.355 -0.0598  0.2445 -0.2226
 9086W        W18779  13.581  15.938   1.544 -0.3957  0.3906 -0.0553
 9087W        W18780   4.966   4.272   3.095  0.0011  0.0584  0.0438
 9088W        W18781   5.026   5.522  12.757  0.1218 -0.5890  0.0043
 9089W        W18782   6.395  12.853  14.354 -0.0662 -0.0399  0.0199
 9090W        W18783   1.206  10.803   3.658  0.1146 -0.1828 -0.0642
 9091W        W18784  10.300   6.297  14.421 -0.0421 -0.2220  0.1106
 9092W        W18785   2.421   8.291   5.588  0.2863 -0.1785 -0.0747
 9093W        W18786   2.806   8.965   6.836  0.1084 -0.2705 -0.4717
 9094W        W18787   6.137  17.621   4.502  0.0786 -0.0104  0.1637
 9095W        W18788   4.753  10.579   3.095 -0.0570 -0.0328  0.2429
 9096W        W18789  16.890   8.318  12.075 -0.0252  0.0727  0.0223
 9097W        W18790  15.408   2.423   2.557 -0.0225  0.1906  0.2866
 9098W        W18791  11.736   3.386   0.033 -0.0879  0.1165  0.0159
 9099W        W18792   4.675  13.086   5.584 -0.1781  0.0339 -0.3443
 9100W        W18793   6.889   7.615   0.393  0.2104  0.0168  0.3466
 9101W        W18794   3.483   4.080  14.778 -0.1425 -0.3707  0.1760
 9102W        W18795   7.127   0.531   5.220  0.0318  0.3931 -0.1564
 9103W        W18796   1.769  10.527   0.875  0.0098 -0.2944  0.3060
 9104W        W18797   5.179  11.096   1.044 -0.0056 -0.2446 -0.0232
 9105W        W18798   6.228   7.025   5.067  0.2947  0.1879 -0.1086
 9106W        W18799  15.597  11.773  13.112  0.0066  0.0419 -0.3383
 9107W        W18800   3.411   0.018   6.658 -0.1259 -0.0431  0.3171
 9108W        W18801  11.644  14.287   2.188  0.2304  0.0338 -0.0426
 9109W        W18802   7.432   8.364   2.968  0.2531 -0.1726 -0.2224
 9110W        W18803   8.935  14.969   3.365  0.0836 -0.0012 -0.1517
 9111W        W18804   0.495   6.679   3.155 -0.0530 -0.1980 -0.0530
 9112W        W18805   1.634   9.927  17.467 -0.2649 -0.0500 -0.1274
 9113W        W18806  12.554  11.386   1.015 -0.0277 -0.0130  0.0752
 9114W        W18807   8.812  17.614  15.226  0.1796  0.3132  0.0513
 9115W        W18808  14.696  14.121  17.527  0.0050 -0.0375  0.0493
 9116W        W18809   9.305  15.435  11.352 -0.1712  0.1523 -0.2098
 9117W        W18810   3.277  11.002   3.060  0.1732  0.2021 -0.2630
 9118W        W18811  16.212   4.899   3.042 -0.0948  0.0935 -0.0180
 9119W        W18812   1.002  14.156  13.214 -0.0380  0.1445  0.0758
 9120W        W18813   4.512  10.089   4.268 -0.4557 -0.1492  0.0914
 9121W        W18814   5.062   2.558   1.760  0.0866  0.3880 -0.4334
 9122W        W18815   4.215  10.644   3.033  0.3021  0.0517  0.0552
 9123W        W18816  12.085   2.513  14.935  0.1244 -0.0663  0.3165
 9124W        W18817   2.433  11.292   2.571  0.0530  0.1380  0.0126
 9125W        W18818  12.120  10.674  14.692  0.1970  0.0248  0.1843
 9126W        W18819   3.717  16.138   4.678 -0.0904 -0.1437 -0.1679
 9127W        W18820   1.043  12.010   5.079  0.0278  0.1118 -0.1290
 9128W        W18821  16.493   7.984  16.987 -0.2610 -0.0916 -0.2025
 9129W        W18822   2.241  10.074   3.759 -0.2350  0.0256 -0.1138
 9130W        W18823  17.107   6.060   5.830 -0.1203  0.3524 -0.0162
 9131W        W18824  16.705   2.631   5.178  0.0469 -0.1224  0.1750
 9132W        W18825  12.956   6.950  15.722  0.1583 -0.2402 -0.2299
 9133W        W18826   9.518  16.067  16.680  0.0387  0.0341 -0.1941
 9134W        W18827  12.801   3.872  13.405  0.0653 -0.3348  0.0515
 9135W        W18828   2.376   4.507   0.864  0.0919 -0.0791  0.5035
 9136W        W18829  10.720   1.509  12.318 -0.0317 -0.0052  0.2871
 9137W        W18830  12.585   3.002  16.659  0.0070 -0.1010  0.1280
 9138W        W18831  13.533  16.440  14.411  0.5511 -0.1797 -0.1627
 9139W        W18832   7.279   6.536   4.875 -0.1469  0.1604  0.1180
 9140W        W18833  11.424  11.883   0.058  0.0085 -0.0664  0.1568
 9141W        W18834  15.768  15.354   4.689  0.3277 -0.2029  0.1344
 9142W        W18835   4.559   6.426  14.629 -0.0677  0.1016  0.0986
 9143W        W18836   0.625  13.881  14.068 -0.2383  0.0315  0.3498
 9144W        W18837   7.078   3.036   3.581 -0.3022 -0.2159  0.2407
 9145W        W18838  13.622  11.319   0.075 -0.5932  0.1594  0.1069
 9146W        W18839   7.563  15.618  14.219 -0.1435 -0.0476 -0.1912
 9147W        W18840   8.584   4.652  14.590  0.0609 -0.1389 -0.1316
 9148W        W18841  13.912   8.492   1.147  0.2816  0.3309 -0.0921
 9149W        W18842   3.350   1.397  13.307  0.1507  0.0305 -0.4157
 9150W        W18843  16.482   9.507   2.823  0.1103  0.0643  0.2650
 9151W        W18844   7.270  12.611   1.686  0.2784 -0.1551 -0.1767
 9152W        W18845  14.765   6.779  15.563  0.0099 -0.1165 -0.0105
 9153W        W18846   8.663   9.261   0.989 -0.3532  0.1794  0.2338
 9154W        W18847  15.763   5.143   3.828 -0.0030  0.0048 -0.3006
 9155W        W18848   8.287  11.355  12.056  0.2895 -0.0631 -0.0881
 9156W        W18849   9.423  13.785   3.049  0.2682  0.1926 -0.3059
 9157W        W18850   7.954   6.503  12.870 -0.0070  0.0571  0.0996
 9158W        W18851  10.833  15.592   4.107  0.0064  0.0339  0.0706
 9159W        W18852  11.923   4.105   2.550  0.0344  0.0338  0.1951
 9160W        W18853  12.041   6.159  14.203 -0.0691  0.0863 -0.0085
 9161W        W18854   0.203   1.929   1.845 -0.1430 -0.2585  0.1483
 9162W        W18855   2.724   0.005  13.368  0.0588 -0.0765  0.0062
 9163W        W18856  14.633   7.932   4.326  0.5324  0.1332  0.3325
 9164W        W18857  14.848   3.956  15.279  0.0908 -0.0317 -0.2437
 9165W        W18858  17.313  13.858   5.647  0.0535 -0.1426 -0.2002
 9166W        W18859  10.665  10.124  12.855 -0.0738  0.1077  0.0454
 9167W        W18860  12.194  10.062   1.294 -0.0492  0.2214 -0.0184
 9168W        W18861  12.081  17.063   0.599 -0.0286  0.1354  0.4845
 9169W        W18862  17.147  11.464   2.917  0.0188 -0.3323  0.2933
 9170W        W18863  10.911   1.808  13.334 -0.2291 -0.1495 -0.0540
 9171W        W18864   3.172  10.900   0.569  0.1696  0.3181  0.1564
 9172W        W18865   6.186  11.346   0.092  0.3992 -0.2121  0.1043
 9173W        W18866   8.275   6.151  17.084 -0.1325  0.1833 -0.0924
 9174W        W18867   5.216   7.276   0.345 -0.2511  0.3677 -0.0776
 9175W        W18868   5.939   8.013   4.752 -0.1996 -0.0568 -0.0325
 9176W        W18869  12.114  12.794   0.501 -0.4214 -0.1284  0.2963
 9177W        W18870  11.553  17.493  14.052 -0.2210 -0.0064  0.2819
 9178W        W18871   9.307  14.570  12.771 -0.0849 -0.1120 -0.0739
 9179W        W18872   3.524   6.936   4.729 -0.1266  0.1271 -0.2291
 9180W        W18873  14.797  15.875   4.576  0.0590 -0.2302  0.0332
 9181W        W18874  11.478  14.750  17.682 -0.1831  0.0260 -0.2202
 9182W        W18875   1.974   0.020  14.553 -0.0687 -0.3529  0.1728
 9183W        W18876  10.814   1.870   1.332  0.3125 -0.1406 -0.2634
 9184W        W18877   7.070   1.597   0.739 -0.0490  0.2249 -0.0209
 9185W        W18878   8.117   4.224   0.008 -0.2412 -0.0097 -0.0037
 9186W        W18879   3.398  11.972  15.152  0.0035 -0.4493 -0.3591
 9187W        W18880  12.586  16.832   1.155  0.1232  0.0170  0.1597
 9188W        W18881  11.083   3.510  17.178  0.4394 -0.0856 -0.4964
 9189W        W18882  13.590   2.133   4.758 -0.1615 -0.1125  0.0970
 9190W        W18883   2.565   8.947   2.780  0.0804 -0.0201 -0.0176
 9191W        W18884   6.190   2.043   0.480  0.2223  0.0023 -0.0201
 9192W        W18885   5.177  13.244   2.852  0.0339  0.1581 -0.0716
 9193W        W18886   4.217   4.409   1.522 -0.2521  0.3039  0.0043
 9194W        W18887   8.257  12.701   1.718 -0.1959 -0.1208 -0.0827
 9195W        W18888   9.454   3.188   1.167  0.0167  0.0235 -0.2833
 9196W        W18889  11.938  13.513   2.775  0.1307  0.2284  0.0301
 9197W        W18890   7.845   0.970   2.891 -0.2771 -0.0332  0.2909
 9198W        W18891   8.635  14.311   2.646  0.0244 -0.0250  0.1263
 9199W        W18892   4.857  12.036   2.835  0.2277 -0.0204 -0.0320
 9200W        W18893   6.280   0.496   5.267 -0.2594  0.1754  0.1821
 9201W        W18894  12.226   4.039   1.422 -0.0712  0.0152 -0.0607
 9202W        W18895  13.529   6.102  16.120 -0.2492 -0.1070 -0.0862
 9203W        W18896  11.642   7.432  13.643 -0.0829  0.1168 -0.1417
 9204W        W18897   2.722  14.354  13.190  0.0221 -0.1538  0.2772
 9205W        W18898  12.725   6.253   2.688  0.1628  0.2071 -0.0077
 9206W        W18899   6.000  15.929   0.607 -0.0522  0.1645  0.0346
 9207W        W18900   7.022  14.015   4.927 -0.1634 -0.0203  0.2999
 9208W        W18901  15.364   2.202   4.530  0.4989  0.1474  0.1833
 9209W        W18902  15.793  16.748  14.958 -0.0467  0.0404 -0.0209
 9210W        W18903  15.847   4.369  14.096  0.0076 -0.1644  0.2119
 9211W        W18904  17.620  16.789   5.791  0.1135 -0.1046 -0.0119
 9212W        W18905  16.718  17.209   1.056 -0.0171 -0.1405  0.2115
 9213W        W18906   3.577  16.297   1.803 -0.0403  0.2007 -0.1836
 9214W        W18907  10.729  16.240   5.739 -0.1865  0.1538 -0.0727
 9215W        W18908   4.593   0.742   2.941  0.1316 -0.1183 -0.1641
 9216W        W18909   0.277   6.824   2.739  0.1302 -0.1304 -0.0133
 9217W        W18910  11.660  17.178  16.626 -0.0965 -0.0207 -0.0605
 9218W        W18911   3.505   9.860   5.010  0.0417  0.1886  0.1323
 9219W        W18912   3.156  16.676  12.488  0.0929 -0.0238  0.1186
 9220W        W18913  15.262   8.225  13.738  0.4320 -0.1306 -0.1276
 9221W        W18914   5.551  17.248  14.432 -0.0885 -0.1010  0.1087
 9222W        W18915   6.799   0.236  13.887 -0.1018 -0.1753  0.3021
 9223W        W18916   2.610  15.956   4.667  0.2683 -0.3267  0.0173
 9224W        W18917   7.102  14.027   4.339  0.2050 -0.0788 -0.1855
 9225W        W18918   0.810  10.306  14.344 -0.1333 -0.1953  0.1398
 9226W        W18919   5.792  16.303   6.326 -0.0581  0.0207  0.1083
 9227W        W18920   9.888  17.228   1.734 -0.0682  0.2924 -0.1624
 9228W        W18921   8.415   2.255   2.867  0.2567 -0.0645  0.2504
 9229W        W18922  10.296  12.151   6.703  0.1750 -0.0913 -0.0839
 9230W        W18923  11.641  13.614  14.876  0.0619 -0.3799 -0.0448
 9231W        W18924   2.489   5.580   4.370 -0.4420 -0.0386  0.1197
 9232W        W18925  13.648   6.104   5.291 -0.0048  0.2687  0.0365
 9233W        W18926   0.595   4.525   1.619 -0.0480 -0.1177  0.0278
 9234W        W18927   6.494  13.172   2.817  0.0221  0.1446 -0.1739
 9235W        W18928  12.326  17.217  15.502 -0.2557  0.1678 -0.1856
 9236W        W18929   1.221  12.358  12.372 -0.3578  0.0474  0.0655
 9237W        W18930  16.702   6.372   4.097 -0.1180 -0.0332  0.0789
 9238W        W18931  17.397  17.540  13.761  0.0785 -0.0378  0.0073
 9239W        W18932  12.188  15.072  17.520  0.2534  0.4361  0.1270
 9240W        W18933   4.325  14.170   2.058 -0.3319  0.1617  0.1954
 9241W        W18934   4.529   9.370   5.298  0.0942 -0.4743 -0.1785
 9242W        W18935  17.024  15.777   4.260  0.2624  0.1361  0.3073
 9243W        W18936  10.833  17.633   5.307 -0.1709 -0.1521  0.4836
 9244W        W18937  11.867  13.242   3.183 -0.0326  0.1516 -0.3695
 9245W        W18938  16.336  13.556   3.712  0.2180  0.2369  0.0175
 9246W        W18939   7.026   0.109  11.999 -0.0851  0.3861 -0.2571
 9247W        W18940  16.308   8.767   5.320  0.4051 -0.0176 -0.4386
 9248W        W18941  15.389   9.793  15.482 -0.4603 -0.1299  0.1354
 9249W        W18942   9.505  10.440  12.486  0.0704  0.0200 -0.2286
 9250W        W18943  13.462  12.843   5.302  0.2220 -0.1904 -0.4762
 9251W        W18944   8.974   2.910  11.531  0.0869  0.1465  0.2350
 9252W        W18945   0.077   3.353  12.175  0.0007 -0.0458 -0.1981
 9253W        W18946   9.735   7.764   0.513 -0.0679 -0.1050 -0.3542
 9254W        W18947   3.419   4.338  17.136  0.0033  0.1540 -0.2457
 9255W        W18948  10.380   8.072  14.783  0.0103  0.1995  0.2447
 9256W        W18949   0.929   7.598  16.481  0.1522  0.1338 -0.0395
 9257W        W18950  15.425  10.301   6.411 -0.2139  0.1282 -0.0094
 9258W        W18951   4.848   5.716   0.622 -0.1562 -0.0996 -0.1401
 9259W        W18952  10.588  11.111   4.164  0.0069 -0.1459  0.2985
 9260W        W18953   6.087  10.989  17.451  0.1070  0.3098  0.0836
 9261W        W18954   3.742  15.025   1.495 -0.0340  0.0743 -0.1515
 9262W        W18955   4.677  15.221  16.100  0.2130  0.3174 -0.2284
 9263W        W18956   2.388   5.008   0.560  0.0309  0.2517 -0.1849
 9264W        W18957  17.537   7.067   4.006  0.4388  0.0013 -0.1403
 9265W        W18958   8.064  15.188  13.997  0.1466  0.0191  0.0377
 9266W        W18959   8.724  12.834  15.401 -0.1483 -0.5136  0.4143
 9267W        W18960   3.048  15.371  13.500 -0.0289 -0.1905  0.2463
 9268W        W18961  13.962  15.211   6.623  0.6981 -0.1673 -0.0175
 9269W        W18962  14.393  14.471   5.109 -0.1673 -0.1242  0.1246
 9270W        W18963  11.029   7.780   0.986 -0.1766 -0.4155 -0.2050
 9271W        W18964  13.323  17.044  15.894 -0.0220 -0.1769 -0.0444
 9272W        W18965   0.054   3.205  17.121 -0.0008  0.0474  0.3757
 9273W        W18966  11.749   5.856   4.424  0.2003  0.0698  0.1383
 9274W        W18967  15.589   4.552  12.651  0.1399  0.0386  0.0336
 9275W        W18968   6.374   8.607  12.837  0.1756 -0.0914  0.0237
 9276W        W18969  12.397   6.197  14.609  0.0382  0.0045  0.1636
 9277W        W18970   4.499  13.149   6.612 -0.1272  0.2568 -0.0210
 9278W        W18971   1.734  10.466   6.463  0.2261  0.3116 -0.4318
 9279W        W18972   1.672   5.604   1.200  0.3782  0.2672 -0.2707
 9280W        W18973   5.732   4.388   6.373  0.0846  0.3272 -0.3238
 9281W        W18974  10.978   4.230   1.994 -0.0779  0.1129  0.2728
 9282W        W18975   3.791   5.617   5.775  0.0277 -0.1474 -0.1531
 9283W        W18976   4.998  10.733  12.433 -0.0801  0.3354  0.0542
 9284W        W18977  11.350   7.718  11.657 -0.3027 -0.2720 -0.1453
 9285W        W18978   3.130  15.112   6.231 -0.0930  0.0849  0.0965
 9286W        W18979   4.529  12.681   1.746  0.1741  0.0330 -0.2621
 9287W        W18980  17.042  12.093   2.239 -0.0879 -0.0310  0.3374
 9288W        W18981  11.887  14.686   2.343 -0.3385 -0.0029  0.4268
 9289W        W18982   6.488  17.586   5.439 -0.3584 -0.2755 -0.1279
 9290W        W18983  10.380   1.036  15.417  0.5001  0.2015  0.2455
 9291W        W18984   6.847   0.657  16.868  0.2821 -0.2670 -0.2178
 9292W        W18985   4.144   0.109   6.091  0.0881  0.1768 -0.0619
 9293W        W18986   3.580   3.537   5.506 -0.3060 -0.3338  0.2611
 9294W        W18987   3.759  13.638  15.389 -0.1511 -0.0025  0.0678
 9295W        W18988  11.184  13.643   5.643  0.0526 -0.0720  0.1529
 9296W        W18989   8.733  17.112  16.056  0.0368  0.0164  0.0786
 9297W        W18990   7.080  14.637  17.228  0.1291 -0.2655  0.1844
 9298W        W18991  10.366   9.158  16.655 -0.0256  0.0019 -0.1901
 9299W        W18992   4.469   8.194  13.016  0.1564  0.0598 -0.0325
 9300W        W18993  10.292  16.999   2.085  0.0473 -0.2405  0.0003
 9301W        W18994   4.513  13.887   3.859 -0.1620  0.1120  0.0483
 9302W        W18995   3.643  11.290  14.455 -0.0748 -0.0761 -0.0291
 9303W        W18996  14.995  15.105   0.770 -0.2748  0.0691  0.2566
 9304W        W18997  17.300  13.825   6.471 -0.0813  0.1807  0.0606
 9305W        W18998  11.772   1.692  13.129 -0.0974  0.0033 -0.2905
 9306W        W18999  11.247   3.188  17.586  0.1835 -0.0986 -0.4046
 9307W        W19000  12.902  10.140  15.090 -0.0639 -0.0019 -0.2867
 9308W        W19001  11.769  14.239  13.963 -0.1944 -0.1265  0.0503
 9309W        W19002   5.850  16.922  13.082  0.1390 -0.3527  0.0250
 9310W        W19003   9.510  13.972  17.687  0.2923 -0.1391 -0.1103
 9311W        W19004  10.654   9.297  15.507  0.0365 -0.3199 -0.1617
 9312W        W19005  13.606  12.381  12.304 -0.2809 -0.0467  0.0920
 9313W        W19006   4.197   5.093  16.031 -0.0724  0.0078 -0.1020
 9314W        W19007   7.921  14.133  16.010 -0.0502 -0.1215  0.2978
 9315W        W19008   4.287  16.451   3.019  0.0124 -0.0922  0.0335
 9316W        W19009  15.355   8.839   0.868  0.0094 -0.0315  0.1268
 9317W        W19010  15.238   5.259  13.570 -0.1356  0.2371 -0.1908
 9318W        W19011   3.054   5.056  12.759  0.0611  0.4216 -0.2234
 9319W        W19012   3.131   4.446  14.511 -0.0537 -0.2222  0.1750
 9320W        W19013   6.225  14.003  15.950 -0.0146  0.1623  0.2014
 9321W        W19014   0.937  15.767   0.894  0.0800  0.1224 -0.0321
 9322W        W19015   2.814  13.843   4.533 -0.0728  0.2081  0.0864
 9323W        W19016   0.243  13.384  16.124 -0.0259 -0.2941 -0.2907
 9324W        W19017  14.069  15.015  17.188  0.0537  0.1866  0.1278
 9325W        W19018  14.953   1.246   0.553 -0.2041  0.0017 -0.0340
 9326W        W19019   1.077   3.638  16.306 -0.1019 -0.2502 -0.1382
 9327W        W19020  11.690  15.280  12.694  0.0210 -0.0389 -0.0374
 9328W        W19021   4.755   3.658  12.216 -0.0391  0.0973 -0.2140
 9329W        W19022  15.415   1.676   4.651  0.2282 -0.3093 -0.0625
 9330W        W19023  16.537  11.857  17.086 -0.3146  0.0010 -0.2142
 9331W        W19024   6.921   3.003   2.261 -0.1658 -0.0526  0.0190
 9332W        W19025   3.454  12.513   4.856  0.1108 -0.1473  0.1591
 9333W        W19026   7.959  16.159  17.157 -0.2822  0.0230  0.1149
 9334W        W19027   1.291   9.442   1.428  0.1343 -0.1506 -0.0981
 9335W        W19028   2.695   6.555   4.009  0.1618 -0.2104 -0.1461
 9336W        W19029   0.415   0.617  13.644  0.0017 -0.4323  0.4179
 9337W        W19030   4.146   5.789  12.615 -0.0978  0.2537  0.1352
 9338W        W19031  10.795  17.352  12.203  0.1982 -0.2132 -0.2676
 9339W        W19032  15.685  12.920  17.655 -0.0242 -0.2748  0.1173
 9340W        W19033   5.768  14.513  11.161  0.0827  0.1329  0.2768
 9341W        W19034   1.654  16.102  16.482  0.3278 -0.2707  0.0922
 9342W        W19035   9.272   3.996   2.227  0.5495 -0.2237 -0.1421
 9343W        W19036   3.809  15.391   5.551 -0.0254  0.3639  0.2433
 9344W        W19037  16.423   4.173   1.809 -0.1389 -0.1711 -0.0649
 9345W        W19038  12.455   0.584   5.997  0.2528 -0.0916  0.1034
 9346W        W19039  10.273   0.465  13.806 -0.1220  0.1624  0.1448
 9347W        W19040   4.638  10.332  17.458 -0.1207 -0.1661  0.0929
 9348W        W19041  11.110  13.272   6.879 -0.1172 -0.1282 -0.3550
 9349W        W19042  14.642  11.735   0.071  0.1264 -0.0213  0.0418
 9350W        W19043   1.270  11.803  15.330 -0.0871 -0.0126 -0.1018
 9351W        W19044  16.994   6.046   2.688 -0.1122  0.0331 -0.1577
 9352W        W19045  14.836  12.900  17.027  0.2124 -0.0676  0.0446
 9353W        W19046   1.708  17.457   2.797  0.3723 -0.1017 -0.2028
 9354W        W19047  13.127   2.205   4.600 -0.0065  0.3401  0.2507
 9355W        W19048  15.234  13.102   4.488  0.2106  0.0508  0.2152
 9356W        W19049   5.935   6.212  17.393  0.0703 -0.0233  0.2660
 9357W        W19050  17.636   8.771  12.880 -0.0071 -0.0515 -0.2929
 9358W        W19051  10.037   8.827   6.153  0.0186 -0.1709 -0.1491
 9359W        W19052   4.881   3.487  15.254 -0.0285 -0.0890 -0.0375
 9360W        W19053   2.377   1.005  16.713 -0.0405  0.0253 -0.2936
 9361W        W19054  16.762  16.474  17.378 -0.0355  0.1151 -0.0585
 9362W        W19055   3.857   3.098  16.554  0.0168 -0.2759 -0.1613
 9363W        W19056  12.429   7.593  12.563  0.1266  0.0226 -0.0624
 9364W        W19057   7.075   9.671  13.991  0.0354 -0.2757  0.0843
 9365W        W19058   1.204   9.973  14.294  0.2028 -0.1819 -0.1825
 9366W        W19059   4.767  13.178  12.714 -0.0619  0.2010  0.2334
 9367W        W19060   7.838   1.954   4.879  0.1244 -0.2877  0.0940
 9368W        W19061   8.646  11.337  15.151 -0.0693  0.0720  0.0429
 9369W        W19062  14.567  15.021   3.968 -0.2070 -0.1718  0.3225
 9370W        W19063   3.182  13.418   3.303  0.0300  0.1717 -0.1231
 9371W        W19064  17.251   5.791  17.164  0.0278 -0.0118  0.1484
 9372W        W19065   0.858  14.828  12.618  0.2549 -0.0025 -0.2149
 9373W        W19066   5.864   9.273  14.441 -0.0868 -0.0656 -0.1136
 9374W        W19067   9.188   0.857   3.251  0.1784 -0.1339 -0.0547
 9375W        W19068  16.537   5.289  15.833 -0.0488  0.1121  0.2866
 9376W        W19069   3.685  11.754  14.280  0.0346 -0.0929 -0.3051
 9377W        W19070   6.460  12.079   5.565 -0.0962  0.0507  0.0705
 9378W        W19071   7.163   4.340   4.563  0.0628 -0.2693 -0.2685
 9379W        W19072   1.380  16.473   5.751  0.1113  0.2480  0.0534
 9380W        W19073  11.336   9.759   1.051  0.1883 -0.1836  0.2604
 9381W        W19074  13.808   0.335  15.893 -0.0320 -0.0590 -0.5045
 9382W        W19075   1.421  11.709  13.040  0.0565  0.1130  0.0348
 9383W        W19076   2.615   6.275  11.158  0.3041  0.1375 -0.1163
 9384W        W19077   2.373  17.235  15.689  0.0813 -0.0545  0.0952
 9385W        W19078   7.394  15.459  15.538 -0.0075  0.0535 -0.0197
 9386W        W19079  11.594   6.992   1.134 -0.1028  0.1832  0.0292
 9387W        W19080   7.080   6.997  17.312 -0.2003 -0.0731 -0.1836
 9388W        W19081   9.683   2.445   1.505  0.1975 -0.1768  0.0778
 9389W        W19082  13.459   8.328  16.713 -0.2023 -0.2313  0.2662
 9390W        W19083   0.620   9.305   2.861  0.0561  0.0957 -0.1347
 9391W        W19084   4.059  17.193   5.623 -0.0804  0.0767 -0.1672
 9392W        W19085  10.136   6.531  16.441 -0.2105 -0.5364  0.1908
 9393W        W19086  10.659  12.413   2.052  0.1299  0.0758  0.0684
 9394W        W19087  17.140   0.786  16.046  0.1381 -0.0155 -0.2021
 9395W        W19088  15.749  12.772  16.869  0.0824  0.0407 -0.2017
 9396W        W19089  17.155   3.610  17.515 -0.0288 -0.2389  0.0926
 9397W        W19090   9.100   6.788  12.108  0.0012 -0.4714  0.1532
 9398W        W19091   8.603   8.069  16.306  0.1222  0.0126 -0.0711
 9399W        W19092  17.213  17.524   4.766 -0.0413 -0.0001  0.1809
 9400W        W19093  11.941  15.194  14.893  0.0118 -0.0020 -0.1968
 9401W        W19094   0.845  15.968  11.617 -0.2004  0.1025  0.1407
 9402W        W19095   8.416  13.717  16.800 -0.0098  0.0329  0.2641
 9403W        W19096   0.043  11.645  13.496 -0.0611 -0.0331  0.4536
 9404W        W19097  10.557   5.184   0.777  0.0771 -0.2874  0.0874
 9405W        W19098   4.508   3.877  12.590  0.1449  0.1966  0.2159
 9406W        W19099   7.397  17.059  15.079 -0.1756 -0.2629 -0.2156
 9407W        W19100  16.426  16.464   1.047  0.0445  0.0006 -0.3132
 9408W        W19101  10.543  10.675  15.679  0.0919  0.0717 -0.5042
 9409W        W19102   5.542   0.479   5.411  0.2227 -0.1937 -0.0572
 9410W        W19103  16.243   1.600  11.778  0.0433 -0.2758 -0.1848
 9411W        W19104   9.787  15.003   1.458 -0.1695 -0.0513 -0.2604
 9412W        W19105   6.190  14.737   5.774  0.0912 -0.1688  0.4697
 9413W        W19106   1.301   3.640  15.505  0.2396 -0.1700 -0.3017
 9414W        W19107   8.284   7.076  11.476  0.0300 -0.2784 -0.1625
 9415W        W19108   2.871   3.233  14.638 -0.2382 -0.1676  0.3052
 9416W        W19109  14.210   5.137  13.565  0.2053  0.1924  0.0515
 9417W        W19110  10.215   9.801   5.210  0.0835 -0.2786  0.0475
 9418W        W19111  16.380   6.458   4.842  0.0741 -0.2930 -0.4417
 9419W        W19112   6.412   6.194   5.329 -0.2935  0.3011 -0.2653
 9420W        W19113  12.863  11.996   2.770 -0.2330  0.0456  0.2276
 9421W        W19114   4.613   2.705  14.297  0.1087 -0.0398  0.4290
 9422W        W19115  12.223  15.559  16.178  0.0833 -0.0129  0.5515
 9423W        W19116  14.303   6.995  15.857  0.1325  0.1663  0.3255
 9424W        W19117   4.948   2.051   1.444 -0.1217  0.0521  0.1232
 9425W        W19118   8.765   3.682  12.002 -0.1714 -0.2725  0.2222
 9426W        W19119  10.089   8.909   1.813 -0.2708 -0.0418  0.1159
 9427W        W19120   6.299  11.880  13.809 -0.0301  0.0542  0.1767
 9428W        W19121   6.194  14.524   0.452  0.0658 -0.3894 -0.3430
 9429W        W19122   6.382   6.307   4.547 -0.1037 -0.0100  0.2977
 9430W        W19123  16.644   8.281   5.540  0.1857 -0.2033 -0.0111
 9431W        W19124  10.486  11.297   2.944  0.3534  0.1853 -0.3664
 9432W        W19125   1.936  10.187  12.509  0.3747 -0.2099 -0.1145
 9433W        W19126  12.244  13.859  14.146 -0.2696 -0.1541 -0.2004
 9434W        W19127   9.081  14.029   0.669 -0.0480 -0.3794  0.0180
 9435W        W19128   0.839  13.278  12.080 -0.1051  0.1066 -0.1049
 9436W        W19129   2.603   4.326   2.682  0.0361  0.0677 -0.0937
 9437W        W19130  10.963  16.313   1.276 -0.1503  0.2746 -0.2289
 9438W        W19131   0.268   6.896   2.222 -0.2050 -0.1363 -0.2071
 9439W        W19132  17.255   7.920  17.400  0.4826 -0.0225 -0.2345
 9440W        W19133   0.481  16.539  12.519 -0.4423  0.1519  0.1753
 9441W        W19134   0.244  12.575   5.044 -0.1076  0.1400  0.1324
 9442W        W19135  14.364   5.038   1.360 -0.2195 -0.0253 -0.0987
 9443W        W19136  15.945  13.210   3.577  0.0517 -0.0154 -0.0075
 9444W        W19137  11.248  14.384  16.431 -0.2897  0.0160  0.0693
 9445W        W19138   6.979   1.059  17.186  0.1854  0.0112 -0.1467
 9446W        W19139  10.468   4.634  14.206  0.1517  0.0034 -0.1263
 9447W        W19140   1.920  10.243  13.849 -0.3093  0.0100 -0.4314
 9448W        W19141  16.160   4.789   6.792  0.0403  0.1305 -0.0266
 9449W        W19142   0.183   2.868   3.346  0.2781 -0.0589 -0.1343
 9450W        W19143  11.644  16.542   2.103  0.1609  0.1126 -0.0642
 9451W        W19144   4.100  14.596   4.413 -0.0109  0.0227 -0.1206
 9452W        W19145   4.272  10.908  13.821 -0.2663  0.1743  0.5226
 9453W        W19146   3.885  10.277   0.242  0.0975  0.3404 -0.1726
 9454W        W19147   5.102   6.656   1.034  0.2556 -0.1099  0.0996
 9455W        W19148  10.682  17.564   6.206  0.0277 -0.0167 -0.0749
 9456W        W19149  15.659   3.628   6.095  0.0584 -0.1047 -0.0185
 9457W        W19150   7.116   5.830   5.229 -0.2613 -0.1079  0.1433
 9458W        W19151  15.238   2.664  16.178 -0.0535  0.2814 -0.3224
 9459W        W19152   2.971   5.132  13.785 -0.0230 -0.1358 -0.3080
 9460W        W19153   1.238   9.217   3.243 -0.0362 -0.0035 -0.2494
 9461W        W19154   0.713   0.378  14.409  0.1764 -0.1459 -0.0580
 9462W        W19155  14.673   2.313   5.495 -0.0114 -0.3126  0.1419
 9463W        W19156   2.794   9.701  15.220  0.3863 -0.0213 -0.2283
 9464W        W19157  12.728   2.156   6.052  0.4727 -0.1202 -0.2335
 9465W        W19158  15.209  13.433   4.115 -0.0158 -0.3128 -0.0486
 9466W        W19159   9.601  12.380   2.277  0.1577 -0.2016 -0.2543
 9467W        W19160  12.868   5.362   6.997  0.1053  0.1566 -0.0779
 9468W        W19161  13.272  10.063  16.685  0.2139 -0.1926  0.1202
 9469W        W19162  14.352   5.510   1.708 -0.3145  0.4111 -0.0290
 9470W        W19163  11.755   8.790  13.196 -0.0526 -0.1102 -0.0175
 9471W        W19164   4.567  15.018   4.376  0.1098 -0.1031  0.3372
 9472W        W19165   8.815   1.244  12.694 -0.2370  0.2808  0.1237
 9473W        W19166   1.764  12.513   5.177  0.0063  0.2712  0.1145
 9474W        W19167  10.313   1.996  15.949 -0.0337  0.3285 -0.0832
 9475W        W19168   6.671  12.603  13.215 -0.0410  0.0481 -0.0073
 9476W        W19169   2.281  16.051   3.896  0.1715  0.2557  0.0162
 9477W        W19170   1.973  17.538  14.054 -0.1936 -0.1521 -0.1955
 9478W        W19171   0.970   7.037  16.417 -0.0562  0.0736 -0.0532
 9479W        W19172   3.524   3.855  12.568 -0.1043 -0.2859 -0.0152
 9480W        W19173   0.174   6.633  17.215 -0.0982 -0.1738 -0.0890
 9481W        W19174   0.361  10.307   4.819  0.0040 -0.0320  0.3339
 9482W        W19175   3.853  14.056   5.159 -0.0402 -0.3191  0.0701
 9483W        W19176  17.192   5.520  14.393  0.2158  0.1442 -0.0207
 9484W        W19177  11.476  10.537   5.679  0.4248  0.2793  0.0175
 9485W        W19178   9.135   1.378  13.579 -0.0859  0.1006 -0.3709
 9486W        W19179   3.921  12.161   2.797 -0.1520 -0.0620 -0.6010
 9487W        W19180  11.255  10.328  11.526 -0.2779 -0.0108  0.1061
 9488W        W19181   6.919   4.314  16.758 -0.1728 -0.1855 -0.1088
 9489W        W19182   7.013  17.619   4.722  0.1786 -0.0913 -0.1683
 9490W        W19183  12.323  12.673   6.919  0.2604 -0.0038 -0.2416
 9491W        W19184   1.772  13.853   3.126 -0.0497  0.0532 -0.2667
 9492W        W19185   5.415  16.537  14.716  0.1714 -0.0233  0.0881
 9493W        W19186   8.734   1.043   1.025  0.2193  0.0754 -0.1532
 9494W        W19187  12.486   4.945   1.211 -0.1756 -0.2949  0.3273
 9495W        W19188   5.056  11.810  13.058  0.0033  0.2697 -0.0945
 9496W        W19189   7.680   2.619   5.485  0.0412  0.2752 -0.1816
 9497W        W19190   4.880   9.909  15.718  0.1467  0.2223 -0.1057
 9498W        W19191   4.131   2.909  14.124  0.0724 -0.3277 -0.1314
 9499W        W19192   4.003  13.060   0.451 -0.3949 -0.1875  0.3364
 9500W        W19193   9.926  12.356   5.301  0.1139  0.0958 -0.1802
 9501W        W19194  12.982   4.953   3.950  0.1600  0.0876  0.2938
 9502W        W19195   9.645  17.528   0.757  0.1455 -0.0826 -0.0498
 9503W        W19196   3.171   4.000   0.391 -0.0766 -0.1080 -0.1167
 9504W        W19197  17.570  15.316   2.706  0.0242  0.2487 -0.2147
 9505W        W19198   0.282  13.296   2.085  0.1919 -0.3741  0.1717
 9506W        W19199  12.667   6.783   2.601  0.1615 -0.2070  0.0381
 9507W        W19200  15.162   3.394  17.325 -0.0646  0.4179  0.0268
 9508W        W19201  16.261   4.032  17.215  0.2908 -0.0415 -0.0993
 9509W        W19202   0.970  12.250   1.404 -0.2152  0.2063 -0.1082
 9510W        W19203   1.222  11.974  17.061 -0.0782 -0.1400 -0.1729
 9511W        W19204  13.656   0.132   2.942  0.0572  0.2821 -0.1137
 9512W        W19205  13.199  16.264   2.841 -0.1724 -0.2445 -0.2274
 9513W        W19206  12.706   0.144   0.832 -0.1233 -0.1254 -0.3078
 9514W        W19207   3.692   0.068  15.895  0.3423 -0.1849 -0.1749
 9515W        W19208  12.547  12.782   3.438 -0.3874  0.2990  0.0242
 9516W        W19209  12.877  11.606  16.141  0.0015 -0.1792 -0.1475
 9517W        W19210   4.525  15.551  15.205  0.2915  0.0056  0.2239
 9518W        W19211  14.616  10.458  14.467  0.0228  0.0059  0.0584
 9519W        W19212   9.132   3.261   1.696 -0.0879  0.0945 -0.2253
 9520W        W19213   5.810   8.733  12.907 -0.3171 -0.0313  0.3301
 9521W        W19214  12.401   6.250  16.748 -0.1319  0.0214 -0.3645
 9522W        W19215   3.743  12.021   5.860  0.0771  0.0446  0.1442
 9523W        W19216   5.068   2.741  14.242 -0.2598 -0.4408  0.2665
 9524W        W19217  11.086   6.183   0.660  0.0154 -0.0548 -0.4195
 9525W        W19218  12.015   4.380   6.521 -0.1366 -0.1025  0.2334
 9526W        W19219   2.049   7.915  14.184  0.0444  0.2038 -0.0720
 9527W        W19220   9.303   8.830   3.854 -0.3116  0.2421 -0.2001
 9528W        W19221  10.279  12.385   1.017 -0.1105  0.0027 -0.0505
 9529W        W19222   5.950   1.596   1.697 -0.2337 -0.2104 -0.2002
 9530W        W19223   4.861   2.426   4.884  0.3054  0.0173 -0.3205
 9531W        W19224   4.951  16.248   6.446 -0.1503  0.2264 -0.4317
 9532W        W19225   3.659  16.348  12.649 -0.1566 -0.1033 -0.0064
 9533W        W19226  12.071  10.869   5.531 -0.3584 -0.1807  0.2560
 9534W        W19227   7.449   1.089   3.239  0.0712  0.0788 -0.0716
 9535W        W19228   6.715  10.482   1.129 -0.0276 -0.0553  0.1448
 9536W        W19229  12.964   3.078   6.057 -0.1257 -0.6853 -0.1391
 9537W        W19230   4.197  16.819   6.406  0.2848  0.0546  0.0495
 9538W        W19231  15.630   2.148  14.122  0.3541 -0.4134  0.2615
 9539W        W19232   5.185  16.504  12.025  0.0216  0.1115  0.4898
 9540W        W19233   0.343  15.087   5.083  0.2209 -0.1939 -0.0706
 9541W        W19234   9.125  13.165   4.112  0.1873  0.0440 -0.2080
 9542W        W19235   1.328   0.550   1.785 -0.1320  0.1740  0.1770
 9543W        W19236   5.601   4.796  15.180 -0.1640  0.1661 -0.1721
 9544W        W19237  17.126   0.527  16.465  0.1300  0.0761  0.1056
 9545W        W19238  14.438   5.984   3.023  0.2541 -0.0786  0.1626
 9546W        W19239   4.180  10.922   1.455  0.0458 -0.0750  0.1364
 9547W        W19240   9.370  16.899   5.136 -0.0375  0.1261  0.0999
 9548W        W19241  15.291  15.587   2.491  0.0097  0.1063 -0.0676
 9549W        W19242   8.587   1.222   0.565 -0.0035 -0.1007 -0.1288
 9550W        W19243  15.365   4.256   5.318  0.0658 -0.0313 -0.0326
 9551W        W19244   8.250   9.557  17.314 -0.1228  0.1048 -0.0314
 9552W        W19245   9.603  17.178   4.683  0.0381  0.0856 -0.0708
 9553W        W19246   9.853  11.206   2.294 -0.0791 -0.1834 -0.3785
 9554W        W19247   0.415   3.806  14.371 -0.1032  0.6669 -0.3546
 9555W        W19248   7.589   3.912   4.222 -0.0671 -0.0858  0.0180
 9556W        W19249   9.638   0.474  13.237  0.1717 -0.0827  0.0361
 9557W        W19250   8.138   1.708  15.375 -0.0230 -0.1418  0.2712
 9558W        W19251  17.584   5.228   1.470 -0.2464 -0.0020 -0.3178
 9559W        W19252   3.762   1.560  11.450 -0.0197  0.1262  0.4372
 9560W        W19253  13.138  11.190   4.583 -0.0147  0.1505  0.1812
 9561W        W19254  14.486   0.391  14.936  0.0303  0.1149 -0.1242
 9562W        W19255   4.825  15.609  16.728  0.0494  0.3875 -0.0857
 9563W        W19256   8.473   9.369   3.937  0.3180  0.0052 -0.2439
 9564W        W19257  12.407   6.137  16.175 -0.0903 -0.0354  0.3966
 9565W        W19258   1.570  11.424   0.517 -0.0431  0.0449  0.1484
 9566W        W19259   8.150   4.996  12.157  0.0143 -0.0734  0.1142
 9567W        W19260  10.116   6.826  17.215 -0.0603 -0.0646  0.1633
 9568W        W19261   6.072   6.525   1.063  0.1591  0.2606  0.0421
 9569W        W19262  11.120  11.448  12.658  0.4160 -0.0595 -0.2800
 9570W        W19263  11.750  15.191   1.857 -0.1819 -0.1195  0.2498
 9571W        W19264  16.373   4.465  12.356 -0.1715 -0.1639 -0.1281
 9572W        W19265   9.922   3.414   6.535  0.0052 -0.3703  0.2031
 9573W        W19266   1.198  13.127   4.415  0.0448 -0.0375  0.1536
 9574W        W19267   5.215  14.493  12.354  0.2282  0.3949 -0.0002
 9575W        W19268   8.645   8.028   5.520  0.0407 -0.1306 -0.0250
 9576W        W19269   2.229  17.019  16.606 -0.1598  0.0766  0.0843
 9577W        W19270  17.233  16.722  14.186 -0.0820  0.1272 -0.3243
 9578W        W19271   8.778   9.202   3.516 -0.1219 -0.0873  0.1927
 9579W        W19272  13.132   1.630  12.863  0.1100 -0.3708 -0.1648
 9580W        W19273  10.166  10.188   5.925  0.0173 -0.1373 -0.0490
 9581W        W19274   3.376  13.293   1.944 -0.0421  0.1102  0.1569
 9582W        W19275   2.773  12.995  14.674  0.0978  0.1152 -0.1148
 9583W        W19276   0.220  10.529  17.409 -0.4227 -0.1117  0.2960
 9584W        W19277   0.461   6.812  12.828  0.2575 -0.0339  0.1528
 9585W        W19278   3.366  16.549   3.224 -0.0380  0.2191 -0.0718
 9586W        W19279  14.878   1.407   1.636 -0.0339 -0.1712 -0.0388
 9587W        W19280   6.156   0.729  16.810  0.1717 -0.1718  0.1127
 9588W        W19281   7.817   2.818  17.542 -0.4387  0.2050  0.2129
 9589W        W19282   7.928  13.107   5.004  0.3026  0.2360 -0.0556
 9590W        W19283   0.595   5.841   5.902 -0.4319  0.3622 -0.2130
 9591W        W19284   6.928  14.835  16.713  0.0434 -0.0555  0.4402
 9592W        W19285   3.860  13.813   0.083 -0.1711 -0.1229 -0.0692
 9593W        W19286  17.483  13.828  15.010  0.1171  0.2041  0.0177
 9594W        W19287   5.191   3.361  14.930  0.0699  0.2655 -0.2610
 9595W        W19288   0.974  13.938  12.721  0.1110 -0.3587  0.0611
 9596W        W19289  11.171   5.257   5.643 -0.1392  0.2948 -0.1347
 9597W        W19290   2.499   8.288  15.785 -0.1662  0.1326  0.2438
 9598W        W19291   0.160   2.672  13.905  0.2678 -0.0195  0.1068
 9599W        W19292  11.010   5.986  17.420 -0.0597  0.3766 -0.3374
 9600W        W19293  14.335   1.113  16.277 -0.1226  0.3297  0.1912
 9601W        W19294   3.497  11.894   1.032  0.0586 -0.0554  0.2158
 9602W        W19295  15.102   1.329   4.365 -0.0783 -0.2229 -0.3828
 9603W        W19296   0.057   6.256   5.557  0.4758  0.3836  0.2042
 9604W        W19297  16.541  15.548   6.402 -0.1956  0.1332  0.1268
 9605W        W19298   2.996   7.375   5.877  0.3252  0.2174 -0.2500
 9606W        W19299   3.919   0.399  13.871 -0.0401 -0.5206 -0.2093
 9607W        W19300  14.676  12.674   6.205 -0.0090 -0.1704 -0.0322
 9608W        W19301   5.868  13.374   4.998  0.3840 -0.1144 -0.0312
 9609W        W19302   3.388  11.646  12.954  0.2597  0.3667 -0.1382
 9610W        W19303   9.307   9.278   3.551  0.2778 -0.1581  0.3173
 9611W        W19304   3.962   2.719   1.526  0.4114  0.0732 -0.1991
 9612W        W19305   8.446  15.379   0.189  0.0429 -0.2449 -0.1315
 9613W        W19306  10.744   1.769   5.116 -0.0476 -0.1292 -0.1070
 9614W        W19307   1.665  17.557  12.388 -0.1677  0.0100  0.1752
 9615W        W19308   1.114   9.937  12.463  0.2517 -0.0048  0.1648
 9616W        W19309   8.870   0.377   3.783 -0.1540  0.1411 -0.1000
 9617W        W19310   8.494  12.652   3.812  0.2543  0.1833  0.0308
 9618W        W19311   2.553   7.208   1.121 -0.0787 -0.0105  0.1651
 9619W        W19312   9.612  12.559   3.533  0.1469  0.2335  0.3204
 9620W        W19313  11.597   7.421   0.954  0.0954 -0.1181 -0.2727
 9621W        W19314  14.793   6.968   1.420  0.0722  0.1263 -0.0247
 9622W        W19315   1.896   7.360  11.362 -0.4181 -0.0731  0.0589
 9623W        W19316   5.035   7.761   0.358  0.0996  0.0806  0.0256
 9624W        W19317  13.579   6.022  14.234  0.1239 -0.1966 -0.0457
 9625W        W19318  16.662   0.547   5.085  0.3042 -0.0427  0.1710
 9626W        W19319   3.943   4.432   0.627 -0.2029 -0.1174 -0.3312
 9627W        W19320   3.338   0.540  12.950 -0.1602 -0.1653  0.0310
 9628W        W19321   5.810  14.864  11.780 -0.1789 -0.1633 -0.0373
 9629W        W19322  14.071  10.822   5.863 -0.0050  0.2585 -0.3081
 9630W        W19323   3.555  15.849   4.271 -0.2185  0.0544 -0.1872
 9631W        W19324   6.045   0.418  13.375  0.2528  0.1127 -0.0685
 9632W        W19325  14.985  15.433  16.275  0.0011 -0.0577 -0.3786
 9633W        W19326  11.021   4.330   4.639 -0.4229  0.3209  0.0088
 9634W        W19327   9.033   3.181  12.879  0.4142  0.1685 -0.1546
 9635W        W19328   5.289  12.701   1.882  0.1799 -0.1486 -0.2847
 9636W        W19329  15.593  17.476   4.663  0.1420  0.2387 -0.0457
 9637W        W19330   1.781   1.858   1.213 -0.0892 -0.0772  0.0261
 9638W        W19331  16.191  14.009   0.859 -0.2174  0.0693 -0.1160
 9639W        W19332   3.698  11.054   0.882 -0.0723  0.0028 -0.0720
 9640W        W19333   8.229   3.800   3.671 -0.0604  0.1647  0.2152
 9641W        W19334  16.292   1.341   5.436  0.0015  0.0417  0.1210
 9642W        W19335  17.334  10.071   6.709 -0.2036  0.1096  0.1479
 9643W        W19336   7.005   3.538   2.045  0.3561 -0.0869 -0.0869
 9644W        W19337   8.362   9.832   6.039  0.2336 -0.3649 -0.0071
 9645W        W19338  12.663  16.502   6.285 -0.0277 -0.0269 -0.4196
 9646W        W19339   3.619  14.944   6.176 -0.3047 -0.3457 -0.0282
 9647W        W19340  13.879   4.196  17.178  0.0792  0.1528 -0.1139
 9648W        W19341  14.375   1.861   2.379  0.1028  0.1644 -0.0968
 9649W        W19342  12.713   0.333  12.756  0.1663  0.3098  0.3374
 9650W        W19343   9.277  16.370   5.709  0.1255 -0.2260 -0.0972
 9651W        W19344  16.379   8.748  16.345  0.2746  0.0350 -0.2634
 9652W        W19345  16.379   3.074   5.143 -0.0386 -0.0648 -0.1478
 9653W        W19346   3.324  11.501  13.886 -0.3281 -0.0248 -0.0328
 9654W        W19347   2.855   0.825  15.749  0.3496  0.1394  0.1465
 9655W        W19348   5.526   4.448  13.893  0.2025 -0.2794 -0.0891
 9656W        W19349  16.961  12.045  13.010  0.0272  0.0499 -0.0795
 9657W        W19350   6.248   9.349  10.798  0.1269  0.0287 -0.0861
 9658W        W19351   7.354   5.158   2.771 -0.1091  0.2882  0.0783
 9659W        W19352  15.256   0.248   5.821  0.0939  0.0743  0.0012
 9660W        W19353  15.916  12.591  13.793 -0.1276 -0.4165 -0.2733
 9661W        W19354   9.699   2.990   1.566  0.1935 -0.1454  0.2107
 9662W        W19355   1.287  10.348   1.128 -0.3082 -0.0824  0.1944
 9663W        W19356   4.664   4.812  17.205 -0.1576 -0.2594  0.0287
 9664W        W19357   0.348   2.250   2.189  0.1029 -0.2409  0.1981
 9665W        W19358   4.419  17.225  11.424 -0.0615  0.1753  0.1982
 9666W        W19359   9.781   1.729   5.017  0.0187  0.1834  0.1767
 9667W        W19360   8.493  15.680   2.152  0.1191 -0.1794  0.0752
 9668W        W19361   1.503  15.647   1.082 -0.1870 -0.2094  0.1161
 9669W        W19362   3.208  10.090  15.774  0.0793 -0.2110 -0.2656
 9670W        W19363   0.130  14.736   5.341  0.0370 -0.1866  0.0194
 9671W        W19364   7.428  13.947  15.428 -0.1840  0.1183 -0.0899
 9672W        W19365  17.560  15.080  12.805  0.0735 -0.1110  0.2868
 9673W        W19366  12.361   9.979   3.554  0.2472  0.2488 -0.0728
 9674W        W19367   5.811   3.826   3.686  0.1039  0.1526  0.0441
 9675W        W19368  13.150  17.447   5.132 -0.1293 -0.3379  0.2708
 9676W        W19369   7.962   7.506  12.237  0.0113  0.2299  0.2246
 9677W        W19370  12.716   0.583  14.140 -0.0021  0.2900  0.3097
 9678W        W19371   1.377  16.889  11.718  0.3136 -0.1812  0.2703
 9679W        W19372   8.788   2.064  14.903  0.1396  0.0026 -0.0755
 9680W        W19373   3.178  16.005   2.564  0.1571  0.0321  0.0044
 9681W        W19374  12.998  13.701  14.637 -0.2193 -0.3224  0.1276
 9682W        W19375   3.548   8.390  13.119 -0.1796 -0.1702  0.1547
 9683W        W19376  17.562  17.342   1.962 -0.3553 -0.2678  0.0575
 9684W        W19377   6.959   8.297  12.873  0.2491  0.1584  0.1141
 9685W        W19378   9.031   5.256  13.477  0.0374 -0.0637  0.1240
 9686W        W19379   7.467   3.104  15.494  0.0561  0.1577 -0.0754
 9687W        W19380  14.576   9.786  13.899 -0.1695  0.1045  0.0758
 9688W        W19381   2.196  12.664   3.370 -0.2719  0.0280 -0.1559
 9689W        W19382  13.556  12.031   2.830 -0.0032  0.1245 -0.0045
 9690W        W19383  11.860  11.337   4.130 -0.0599 -0.2010  0.1853
 9691W        W19384  13.170   7.393  15.301 -0.0997  0.1031 -0.2933
 9692W        W19385   8.952  15.186   3.894 -0.0593  0.0666 -0.2095
 9693W        W19386   3.817   1.492  13.303 -0.1667  0.0648  0.2389
 9694W        W19387  10.421   2.904   0.301  0.0938  0.0500 -0.1326
 9695W        W19388   5.730   2.852   3.641 -0.4800  0.0571 -0.1267
 9696W        W19389  13.063   6.950  14.630 -0.0145  0.1607 -0.0315
 9697W        W19390  14.635  11.881  15.142  0.1788  0.0403 -0.0840
 9698W        W19391  16.756   9.076   4.634  0.2297 -0.0262 -0.1661
 9699W        W19392   3.825   5.600  15.200 -0.1053  0.0188 -0.1237
 9700W        W19393  16.403  13.113  16.398 -0.0398 -0.1027  0.0724
 9701W        W19394   5.521  10.722   2.765 -0.2120  0.1704  0.3129
 9702W        W19395   9.880  11.014  13.965 -0.0479 -0.2684 -0.2125
 9703W        W19396   1.553   6.998  11.467 -0.0105 -0.0421 -0.2048
 9704W        W19397   3.120   2.058  12.992 -0.1669  0.1422  0.1005
 9705W        W19398   0.323  15.935  13.610  0.1584 -0.1022  0.3756
 9706W        W19399   9.132  14.742  16.614 -0.1201 -0.2480 -0.0226
 9707W        W19400  10.202  11.793  16.391  0.0677  0.1508  0.2354
 9708W        W19401  17.185   3.826   5.902 -0.0011  0.0512 -0.1282
 9709W        W19402   5.676   3.834  17.072 -0.3325 -0.0267  0.0741
 9710W        W19403  15.206  13.793   5.260  0.0503  0.2068  0.1208
 9711W        W19404   3.519   7.973  16.042  0.2223  0.1274 -0.0383
 9712W        W19405  15.050  14.523   6.474  0.1450  0.3164  0.2215
 9713W        W19406   6.714   0.602   5.553  0.0968  0.4205 -0.1473
 9714W        W19407   4.716  11.213  17.535 -0.1578  0.0842  0.0562
 9715W        W19408  14.871  13.274   1.217  0.0494 -0.0418  0.2745
 9716W        W19409  15.754   6.601  14.318 -0.0557 -0.1959 -0.2762
 9717W        W19410   9.067  16.236   6.336 -0.1685 -0.2455 -0.1392
 9718W        W19411   1.127   8.276  11.948  0.0220  0.3011 -0.0546
 9719W        W19412  13.908   7.832   3.325 -0.2494 -0.2776  0.1332
 9720W        W19413  12.793  17.468   0.532  0.0755  0.0992 -0.1399
 9721W        W19414   8.520  11.115  14.651  0.5193 -0.1505 -0.4025
 9722W        W19415  16.421   0.706  14.587 -0.1376  0.0163 -0.2971
 9723W        W19416  15.906   3.397  13.668 -0.0838 -0.1243  0.1496
 9724W        W19417   0.212   0.585   2.450  0.0793 -0.3225 -0.0091
 9725W        W19418  15.919   1.223  11.793  0.0103  0.3908  0.4892
 9726W        W19419   1.841  15.314   4.341 -0.3268 -0.2337 -0.3566
 9727W        W19420  17.141   1.684   5.810 -0.0758  0.1656 -0.0224
 9728W        W19421  13.269  15.929   6.106  0.2918 -0.1647 -0.0312
 9729W        W19422   9.567  13.580  15.178 -0.0746  0.1748  0.1210
 9730W        W19423  13.949   1.436  12.089 -0.2434 -0.0765 -0.1025
 9731W        W19424   9.698   7.904   6.179  0.3251 -0.2694  0.0562
 9732W        W19425   7.310  13.076  12.004  0.1566  0.0652 -0.0218
 9733W        W19426  12.728   7.462   1.893  0.0490 -0.2601 -0.0607
 9734W        W19427   3.331   5.332   4.404 -0.1792 -0.2740  0.0912
 9735W        W19428   0.863  13.680   1.025 -0.3070 -0.1421 -0.2948
 9736W        W19429   2.190   0.307  12.475 -0.0275 -0.1749 -0.0632
 9737W        W19430   1.599  11.300  17.680  0.1236  0.0168 -0.1099
 9738W        W19431   2.787   0.353   5.720  0.1960 -0.2016 -0.1262
 9739W        W19432   6.388  12.625   3.707  0.0154 -0.4073  0.1557
 9740W        W19433   3.662   2.341   2.384  0.0999  0.1100 -0.0438
 9741W        W19434   3.563  15.463   7.282  0.0474 -0.1456  0.2589
 9742W        W19435   2.942   5.112  17.629 -0.0226 -0.0276  0.0898
 9743W        W19436   8.884  16.176  15.417  0.0618  0.1314  0.0279
 9744W        W19437   3.250  17.363   6.225 -0.3415  0.0886 -0.1397
 9745W        W19438   6.574  15.902  12.549  0.1448  0.1532  0.3754
 9746W        W19439  11.498  14.997   2.210  0.3631  0.2540  0.0627
 9747W        W19440  13.808   4.895  14.472 -0.0241 -0.1485  0.3126
 9748W        W19441  10.347  10.288   6.373  0.1737 -0.1627 -0.0717
 9749W        W19442   5.671  16.365  17.063  0.0649  0.1441 -0.0654
 9750W        W19443  13.170  11.839   6.556 -0.0136 -0.3495 -0.0125
 9751W        W19444   5.871   7.028   3.203 -0.0341  0.1386  0.0433
 9752W        W19445   4.276   6.358   5.818  0.0398  0.1041  0.0071
 9753W        W19446  13.225   0.318   2.936  0.4321  0.1269  0.0516
 9754W        W19447   5.210   5.190   3.613 -0.3909  0.2773 -0.0548
 9755W        W19448  17.572  10.114   4.883  0.0461  0.1943 -0.1210
 9756W        W19449  10.441   1.422  12.805  0.2511  0.0738 -0.1431
 9757W        W19450  12.763  12.232   4.392  0.1134  0.0476 -0.0375
 9758W        W19451   3.096  12.437  16.895 -0.1406 -0.1027  0.0717
 9759W        W19452   1.141   9.760   6.075 -0.0478 -0.0531  0.0774
 9760W        W19453   1.333   1.467   4.731  0.1628  0.1178  0.2082
 9761W        W19454   1.944   1.014  11.587  0.0518  0.0994  0.0420
 9762W        W19455   9.120   6.124   2.604  0.0562 -0.2114 -0.1709
 9763W        W19456   1.327  10.832   1.750  0.1305  0.0808  0.2675
 9764W        W19457   7.810  16.805  12.605 -0.3019 -0.1117  0.0820
 9765W        W19458  15.174   3.737   1.072 -0.0607  0.4570  0.0442
 9766W        W19459  16.886  15.796   2.123  0.2397  0.0670  0.1073
 9767W        W19460   6.357   6.146   0.765 -0.4127 -0.0743  0.1547
 9768W        W19461  13.591   7.018   3.570  0.1671 -0.0194  0.0508
 9769W        W19462  16.684   6.810  12.324  0.1824 -0.0374 -0.1008
 9770W        W19463  14.303  14.766  13.959  0.0342  0.0081  0.0653
 9771W        W19464  12.808  13.186  15.411 -0.1508  0.2042  0.0936
 9772W        W19465   4.343  13.610   3.406 -0.1393 -0.2165  0.1966
 9773W        W19466  12.461   0.875   3.757  0.3661 -0.1701  0.2635
 9774W        W19467   0.309  17.054   0.789  0.0003  0.0327 -0.0570
 9775W        W19468  17.622   4.949   5.432 -0.0113  0.2541 -0.2447
 9776W        W19469   0.767   8.237   1.289  0.1194  0.1174 -0.1044
 9777W        W19470   8.353  10.583   4.338  0.0233  0.0535 -0.1841
 9778W        W19471  16.324   7.413  14.304  0.1471  0.0435  0.0136
 9779W        W19472   1.793   6.460  16.878 -0.4056 -0.0192  0.2460
 9780W        W19473  11.682   6.388   5.272 -0.2049  0.1508 -0.1593
 9781W        W19474   9.112   4.764   0.597 -0.0073 -0.0458 -0.0865
 9782W        W19475   3.849   2.592  11.679 -0.1842 -0.0126 -0.1373
 9783W        W19476   3.075   6.276  15.848 -0.1098 -0.3198 -0.1391
 9784W        W19477  13.097  12.371   5.084 -0.2473 -0.2300 -0.1231
 9785W        W19478  15.770   7.241   3.343 -0.3226 -0.1134 -0.2727
 9786W        W19479  13.215  14.543  13.099 -0.2223  0.1361 -0.1294
 9787W        W19480  17.115   3.084  17.342 -0.0276 -0.0551 -0.0284
 9788W        W19481   2.127  14.098  15.635  0.0982  0.2148 -0.1724
 9789W        W19482  17.145   4.200  14.738 -0.1943 -0.0655 -0.2290
 9790W        W19483  16.272   7.797  13.182  0.0693 -0.0606 -0.0755
 9791W        W19484  15.907  12.675   1.433  0.1756  0.3034  0.4057
 9792W        W19485  15.030  11.040  14.996 -0.0176  0.1736 -0.0069
 9793W        W19486   4.828  16.073   1.581  0.0069  0.3653 -0.2423
 9794W        W19487  13.911   8.392   4.197  0.0997 -0.1823 -0.0245
 9795W        W19488   3.269   7.629   0.658 -0.0405  0.0154  0.0987
 9796W        W19489   7.806  14.465  17.589  0.1919  0.3711 -0.1895
 9797W        W19490   5.466  16.178  17.504  0.1567 -0.1839 -0.2262
 9798W        W19491   5.295   9.128  13.311 -0.2546  0.0250 -0.0474
 9799W        W19492   7.816   9.946  16.675  0.1017 -0.0610 -0.1509
 9800W        W19493   1.864   4.189  12.771 -0.2192  0.0485 -0.1165
 9801W        W19494   7.073   2.116  13.781 -0.2252  0.2219  0.0797
 9802W        W19495  14.590   4.095  14.808 -0.0624  0.2962  0.0584
 9803W        W19496   1.256   7.770   3.816  0.3474  0.0077 -0.1045
 9804W        W19497   1.306   3.670   4.387  0.3934  0.1680 -0.2259
 9805W        W19498   5.564   0.226  11.579  0.3273 -0.1717  0.1289
 9806W        W19499  13.458   0.964  13.567 -0.0953  0.0808  0.2302
 9807W        W19500  16.291  15.676   2.778  0.1683  0.2200  0.1859
 9808W        W19501   8.858   3.421  14.168 -0.2671 -0.0300  0.2464
 9809W        W19502  17.054  12.476   5.960  0.2099  0.0594 -0.2141
 9810W        W19503   2.482   8.265   4.618  0.1035  0.1854  0.0620
 9811W        W19504  15.462   7.605   5.847  0.1428  0.1472  0.3767
 9812W        W19505   7.635   6.750   4.581 -0.4302 -0.2566  0.2291
 9813W        W19506   7.527  16.375   5.155 -0.0769  0.1334  0.0179
 9814W        W19507  13.855   3.771   5.426  0.2709 -0.0192  0.0211
 9815W        W19508   1.732   1.217   0.477 -0.2883 -0.1087 -0.0633
 9816W        W19509  15.080  16.261   1.280 -0.2251 -0.3158  0.0263
 9817W        W19510   7.334  17.386   5.836 -0.0135  0.1935  0.0582
 9818W        W19511  15.363  10.624  17.540  0.0228 -0.0611  0.0414
 9819W        W19512   3.303  11.129  15.685 -0.0051  0.0868 -0.0675
 9820W        W19513   4.013  13.472   4.495 -0.1680  0.3157  0.1139
 9821W        W19514   7.650  13.061   0.497  0.0048 -0.3037  0.0059
 9822W        W19515   1.803   2.524   2.675 -0.1636  0.0001  0.2027
 9823W        W19516   9.966  12.714   4.899  0.2515 -0.0621  0.1652
 9824W        W19517  15.772  12.881   3.173 -0.0374 -0.0118 -0.1839
 9825W        W19518   6.438   0.746  15.489  0.1397 -0.3806  0.0388
 9826W        W19519   1.699   3.955  16.931  0.1873 -0.2706  0.0581
 9827W        W19520   4.681   9.661  14.637  0.0235 -0.1008  0.0611
 9828W        W19521  16.415   2.975   6.220 -0.2323 -0.1673  0.1607
 9829W        W19522  15.442  11.829  15.841  0.0321 -0.1026 -0.1012
 9830W        W19523  15.348  16.669  17.066 -0.0134 -0.0372  0.0546
 9831W        W19524   8.376  12.691  14.959 -0.2504 -0.0051 -0.0871
 9832W        W19525   2.852   1.215   6.255  0.1436  0.1326  0.3000
 9833W        W19526  17.091  13.361   5.762  0.1094 -0.1666 -0.1134
 9834W        W19527  10.963   9.203   5.248  0.4408  0.0667 -0.1781
 9835W        W19528   3.293  14.337   2.460 -0.2127 -0.1349 -0.0291
 9836W        W19529  10.879   5.856   2.200 -0.1891 -0.0778 -0.0186
 9837W        W19530  16.157   9.488   5.570  0.0465  0.0502  0.1294
 9838W        W19531  13.812   7.074  12.623  0.0095 -0.0470  0.0014
 9839W        W19532   9.680   7.224  11.256  0.0599 -0.0632  0.0620
 9840W        W19533   7.783  16.056  12.343  0.0041 -0.1033 -0.2219
 9841W        W19534   5.132  16.376  15.642  0.2903 -0.0089 -0.2639
 9842W        W19535   7.886   3.727  12.963  0.1170 -0.1059 -0.1986
 9843W        W19536   5.784   3.820   2.790 -0.0367 -0.1740 -0.0323
 9844W        W19537  13.826  11.478   0.570  0.0509  0.2117 -0.0142
 9845W        W19538   6.004   8.657   0.422  0.2457 -0.3419 -0.1217
 9846W        W19539  13.207  11.949  16.425  0.0742 -0.3451 -0.0644
 9847W        W19540   1.986  14.900   0.698 -0.2148 -0.0580 -0.0746
 9848W        W19541   8.879   2.560  16.290  0.0614 -0.1706  0.0878
 9849W        W19542  12.113   2.102  15.895 -0.3261 -0.1222  0.1092
 9850W        W19543  11.937  13.402  16.341 -0.0130 -0.2100  0.1629
 9851W        W19544   6.721   1.108  14.158  0.1742  0.0060  0.0432
 9852W        W19545   8.424   4.131   1.115 -0.4440 -0.3017  0.1391
 9853W        W19546  11.651   7.123  16.887 -0.0666  0.0927 -0.2128
 9854W        W19547   0.112   9.584   4.160  0.0587 -0.2331 -0.0765
 9855W        W19548  17.150   3.908  15.925 -0.0308 -0.0714 -0.0946
 9856W        W19549   5.662  14.316   4.123  0.1790 -0.0394  0.0954
 9857W        W19550   2.927   4.168   5.409  0.2752 -0.0501 -0.1822
 9858W        W19551   6.739   5.939  15.201  0.2991  0.0686 -0.1143
 9859W        W19552   9.370  10.716   6.734 -0.0436  0.1476 -0.0124
 9860W        W19553  12.902  13.629  17.018  0.1312 -0.0487  0.0788
 9861W        W19554  10.818   3.238   3.374  0.0500  0.0038  0.1254
 9862W        W19555  13.510   8.521   3.942  0.4034 -0.0178 -0.1910
 9863W        W19556   5.718   3.043  13.542  0.0755 -0.0277  0.0170
 9864W        W19557   0.018  13.962   3.236  0.1624  0.4235  0.1056
 9865W        W19558  16.650  15.573  13.900  0.3806 -0.1482  0.2058
 9866W        W19559  13.040  10.106   1.891 -0.2326  0.0012  0.2161
 9867W        W19560  11.335   1.646  17.470  0.1795  0.3488 -0.0316
 9868W        W19561  16.373  12.330  16.891 -0.3167  0.1220  0.0685
 9869W        W19562   5.933   7.580   5.644 -0.1092  0.3483 -0.1336
 9870W        W19563   0.124  13.651   5.006 -0.1092  0.3643  0.1185
 9871W        W19564   7.643  14.853  13.786  0.3049  0.2674 -0.1735
 9872W        W19565   0.411  16.536   1.001  0.0746  0.4059 -0.2112
 9873W        W19566  12.431  13.794  16.907 -0.0566 -0.2631 -0.3248
 9874W        W19567   6.819   5.626   3.535 -0.1414  0.0410 -0.1649
 9875W        W19568  14.398   0.937  17.227 -0.1631 -0.4401 -0.2870
 9876W        W19569   1.912  11.887  14.611 -0.3672  0.1181 -0.3178
 9877W        W19570   8.678  16.082  15.847  0.1355 -0.1156 -0.1599
 9878W        W19571   7.176   0.519  15.045 -0.3763 -0.1856 -0.0095
 9879W        W19572   6.631   6.797  17.004 -0.2420 -0.2274 -0.0385
 9880W        W19573   9.415  11.643  17.398 -0.0477  0.0941 -0.1109
 9881W        W19574   8.865  11.269  13.990  0.3554 -0.1878  0.0231
 9882W        W19575  10.623  16.191  15.227 -0.0823  0.1315 -0.0126
 9883W        W19576  16.146   5.588  13.466 -0.2826 -0.1465 -0.0791
 9884W        W19577   3.131   7.902   5.602 -0.0469  0.1774 -0.2435
 9885W        W19578   7.128  10.496  12.021  0.1222 -0.3359  0.2002
 9886W        W19579  12.122  14.986   0.490  0.0785  0.0201  0.0856
 9887W        W19580   2.742  12.746  15.617 -0.0671 -0.2484  0.1398
 9888W        W19581  14.957   7.375   5.152 -0.0850 -0.1427  0.0456
 9889W        W19582   4.749  17.593   6.194 -0.1673  0.1786  0.2681
 9890W        W19583   8.526   4.420  13.300  0.1819 -0.3317  0.0565
 9891W        W19584  14.689   9.820   1.349  0.2480 -0.0706 -0.1345
 9892W        W19585  12.659   8.134  12.485 -0.2276 -0.1246 -0.2382
 9893W        W19586  12.553   7.147  12.289 -0.2455 -0.0361 -0.1316
 9894W        W19587  14.811  15.574   6.815 -0.0453  0.1624  0.2442
 9895W        W19588   1.740  12.810  15.330 -0.0569  0.3887 -0.0651
 9896W        W19589   1.367   3.825  14.922  0.1871  0.0195 -0.0158
 9897W        W19590   9.931   1.973  15.366 -0.2437  0.3764 -0.3487
 9898W        W19591   0.281   7.346   4.110  0.0076 -0.0144 -0.2106
 9899W        W19592  17.140  14.649  15.904  0.0521  0.1816  0.4358
 9900W        W19593   4.508  10.030   6.849  0.0881  0.0482 -0.1124
 9901W        W19594   4.533  12.940   1.298 -0.2193  0.0745  0.4920
 9902W        W19595   5.674   9.678   6.777 -0.1191 -0.3520  0.2357
 9903W        W19596   3.594   2.248   1.680  0.0130 -0.4859 -0.4417
 9904W        W19597  17.483   0.522  12.269  0.1558 -0.3097 -0.0637
 9905W        W19598  11.315   2.678  13.261 -0.1820 -0.0047  0.0893
 9906W        W19599  15.236   7.426  17.062  0.0082  0.0999 -0.2116
 9907W        W19600  15.738  14.259  16.161 -0.1032  0.0754  0.0288
 9908W        W19601  17.649  14.610  15.846 -0.1265  0.1724 -0.1184
 9909W        W19602   3.709  13.058   2.209 -0.0103  0.0571 -0.2545
 9910W        W19603   0.152   5.494   6.074  0.0230  0.0490 -0.2435
 9911W        W19604   0.339   4.998  16.316  0.3843  0.1891  0.2236
 9912W        W19605  17.179   9.767   5.783 -0.0919 -0.1108 -0.3411
 9913W        W19606   7.274   4.010   2.712  0.3658  0.0181 -0.0388
 9914W        W19607   1.153   9.873   1.238  0.0340  0.1029 -0.0854
 9915W        W19608   4.187   6.206   3.885 -0.1721 -0.0899 -0.2795
 9916W        W19609   2.333   2.115  12.289 -0.0565  0.1947  0.1503
 9917W        W19610   3.303  11.930   6.529  0.0712 -0.2298 -0.0171
 9918W        W19611   2.962  12.062   1.837  0.1855 -0.1275 -0.4357
 9919W        W19612   3.422   9.112   2.790 -0.0786 -0.2958  0.1970
 9920W        W19613  10.890   5.429   4.447 -0.1774  0.0749  0.0685
 9921W        W19614   7.301   9.608  16.195  0.0206  0.1206 -0.2466
 9922W        W19615  13.176   3.043  16.845 -0.2182 -0.0240  0.0267
 9923W        W19616   2.529   0.874  15.336 -0.2473 -0.3158 -0.2114
 9924W        W19617  14.600  14.117  14.831  0.2684 -0.0255 -0.2674
 9925W        W19618   7.029  12.973  14.577  0.3864 -0.2086  0.4061
 9926W        W19619   8.296  11.279   5.744  0.0340 -0.1361  0.0615
 9927W        W19620   6.233  11.420  16.083 -0.2094  0.0010 -0.0419
 9928W        W19621   3.953  14.616  14.922 -0.0357 -0.0859 -0.2258
 9929W        W19622   7.319  15.950   3.479 -0.1260  0.0108  0.0752
 9930W        W19623   9.720   7.640  14.547  0.1001  0.0335  0.1961
 9931W        W19624  16.923   4.913  13.727 -0.2582  0.1597  0.0926
 9932W        W19625  10.199   5.011   4.559 -0.2271  0.2228 -0.0063
 9933W        W19626   4.541   1.237   3.057 -0.1615 -0.0234  0.3836
 9934W        W19627  14.849  16.703  16.990  0.1276  0.0735 -0.0005
 9935W        W19628   2.534   9.949   6.214  0.0294 -0.1756 -0.0606
 9936W        W19629  10.600  11.511   4.575  0.4870  0.0833  0.2224
 9937W        W19630   8.020   3.160  14.613  0.0078  0.1268  0.1348
 9938W        W19631  16.540   4.683  13.414  0.1438 -0.0826 -0.0110
 9939W        W19632  14.572   3.029  14.489 -0.3169 -0.0867  0.1880
 9940W        W19633  12.440   5.553   3.847  0.2699 -0.1046 -0.4032
 9941W        W19634  14.078  10.880   1.679 -0.0936  0.1292  0.0659
 9942W        W19635   6.800   4.660  15.205 -0.0041 -0.0009 -0.2001
 9943W        W19636  13.610   0.565   3.289  0.0829  0.0853  0.3098
 9944W        W19637   4.248  14.623   2.240 -0.1197 -0.1925 -0.2768
 9945W        W19638   2.371   8.514  15.319  0.0746 -0.0480  0.0341
 9946W        W19639   2.462   6.956   2.100 -0.0643 -0.1925 -0.0676
 9947W        W19640   7.102  17.636   0.756  0.0965 -0.2827  0.0411
 9948W        W19641   3.164  16.865   5.408  0.0104 -0.2781 -0.2482
 9949W        W19642  13.350   3.497  17.241  0.2977 -0.3833  0.1425
 9950W        W19643   6.847   3.069  13.371 -0.2613  0.2043  0.1087
 9951W        W19644   1.205  12.611   1.735 -0.0376 -0.2483  0.0276
 9952W        W19645  17.072   9.414  16.676 -0.1700 -0.1724  0.2736
 9953W        W19646  10.552   7.291  13.312 -0.0786 -0.0265 -0.0244
 9954W        W19647  11.939  13.920   0.165 -0.0060  0.4169 -0.0334
 9955W        W19648   1.792  16.153   1.059  0.0014  0.3794  0.1584
 9956W        W19649   4.438  12.850   5.143 -0.1027  0.1431  0.0223
 9957W        W19650  15.095  15.069  14.457 -0.1445  0.0192 -0.1190
 9958W        W19651   2.125   3.865  14.978 -0.0114  0.0576 -0.1778
 9959W        W19652   0.337   1.438  16.885 -0.3841 -0.2715  0.1749
 9960W        W19653   3.238   3.856  12.043 -0.1635 -0.2948  0.3101
 9961W        W19654  14.026   6.224  14.145 -0.0387  0.0059 -0.3053
 9962W        W19655  10.184  16.179   3.504 -0.1076  0.1534 -0.0440
 9963W        W19656  11.130  13.513  14.841  0.2072 -0.1864 -0.0553
 9964W        W19657   3.752   8.301  15.780 -0.0745 -0.1517 -0.1356
 9965W        W19658  11.067   6.264  12.940  0.1164 -0.0040  0.0510
 9966W        W19659   5.327  12.513  11.424 -0.1911 -0.1414 -0.0816
 9967W        W19660   4.356   7.236  16.998 -0.0835  0.2137  0.1074
 9968W        W19661  12.804   1.776   1.945 -0.0407  0.0302  0.0749
 9969W        W19662   5.083  17.171   0.676  0.3340  0.2132 -0.0418
 9970W        W19663   9.065  10.648  14.008  0.1112 -0.1463 -0.0412
 9971W        W19664  11.224   4.215   5.646  0.0486 -0.0720 -0.2705
 9972W        W19665   0.480  12.822   0.014 -0.2465  0.2146 -0.2422
 9973W        W19666  16.550  13.483   5.694 -0.2558  0.0717 -0.1721
 9974W        W19667  11.253  16.418  12.773 -0.1264  0.1337 -0.0875
 9975W        W19668  11.563  12.257  11.547 -0.2020  0.0291  0.1601
 9976W        W19669  11.392   4.115  15.057  0.1369  0.1519 -0.3904
 9977W        W19670  17.508  11.856  12.571 -0.2705 -0.0737 -0.2017
 9978W        W19671  11.817   0.716   4.653  0.0515 -0.0619 -0.3502
 9979W        W19672   1.023   4.026  17.566  0.1071 -0.3625 -0.1198
 9980W        W19673  16.099  12.865   4.664  0.0229 -0.2202  0.0344
 9981W        W19674  15.201   2.334   3.955  0.0666 -0.3549 -0.0374
 9982W        W19675   6.695  14.414  15.483  0.3195 -0.3217  0.4756
 9983W        W19676   7.912   3.248  12.855  0.2681 -0.0950 -0.0586
 9984W        W19677   7.329   0.907  13.470  0.0669  0.0047  0.1563
 9985W        W19678   1.191   3.117   4.366  0.1576 -0.1409  0.1504
 9986W        W19679   6.024  11.883   5.084  0.0020 -0.1744 -0.0019
 9987W        W19680   5.845   0.426   6.594 -0.0526  0.3771  0.0831
 9988W        W19681   8.514   1.857  14.195  0.1314 -0.0308 -0.1016
 9989W        W19682   9.385  16.852  14.234 -0.1997 -0.1586 -0.0345
 9990W        W19683   1.462   8.123   0.117  0.1444  0.3748 -0.1207
 9991W        W19684  13.790   5.118   2.598 -0.0817 -0.0886 -0.1162
 9992W        W19685  10.831   4.253   0.796 -0.1609 -0.0896  0.0721
 9993W        W19686  15.450  16.041   3.812 -0.2397 -0.1306 -0.1372
 9994W        W19687  13.213   3.772   0.406  0.2135 -0.1470  0.1676
 9995W        W19688  12.638  11.356  15.722  0.0142  0.0290 -0.0219
 9996W        W19689   2.107   4.127  14.388 -0.1602 -0.1649 -0.2043
 9997W        W19690   0.996   6.959   3.431 -0.1419  0.4858  0.2977
 9998W        W19691  15.622   6.993   4.497 -0.0928  0.0088 -0.0391
 9999W        W19692   6.349  10.558   2.979  0.0704 -0.1917  0.0344
10000W        W19693  17.441   8.170  14.895  0.3435 -0.3168  0.0100
10001W        W19694  10.337   3.632   5.136  0.0539 -0.0364 -0.1461
10002W        W19695  11.483  13.140   3.566 -0.0318  0.1108 -0.0480
10003W        W19696   6.248   5.176  12.604 -0.0246 -0.1471  0.3409
10004W        W19697  14.482  12.512  17.117  0.1592  0.2669  0.2402
10005W        W19698   5.396   7.003  11.118 -0.0293  0.4110  0.2499
10006W        W19699  16.200   3.781  15.312 -0.1428 -0.1147 -0.3312
10007W        W19700  12.198  14.223   0.434  0.0766  0.3194  0.0561
10008W        W19701   4.848  13.508  14.063 -0.0334 -0.0960  0.1440
10009W        W19702  15.052  15.951  14.560 -0.0073  0.4015  0.0113
10010W        W19703  13.839   5.140   4.320  0.0649 -0.0500  0.1369
10011W        W19704   7.389   1.116   1.753 -0.0076 -0.0240 -0.2462
10012W        W19705   6.974  10.142   1.423 -0.2091 -0.3225 -0.0994
10013W        W19706   8.269   3.687   1.249 -0.1370 -0.0800  0.0516
10014W        W19707  10.886  14.796   3.770 -0.1058  0.3240  0.0748
10015W        W19708   7.093   1.291   3.585 -0.0530 -0.0324  0.2829
10016W        W19709  13.343  13.650  13.318 -0.2319  0.0871 -0.1955
10017W        W19710  11.132  12.853   1.100  0.3840 -0.0660 -0.0887
10018W        W19711   0.727  11.170   1.415  0.2347  0.0046  0.0813
10019W        W19712  12.641  14.390  16.655 -0.0821 -0.0581  0.1902
10020W        W19713   8.501   5.106  16.838 -0.2495  0.1492 -0.1089
10021W        W19714   6.724   9.901   0.112 -0.4283  0.2837 -0.0397
10022W        W19715   7.564   9.746   5.802 -0.2085  0.0435 -0.0318
10023W        W19716   3.115  11.877   4.067  0.0677  0.1842 -0.1569
10024W        W19717   9.081  17.304  17.385 -0.1376 -0.4301  0.1297
10025W        W19718  13.512   0.820   5.042 -0.0185 -0.1743 -0.0522
10026W        W19719  16.601  15.167  16.621  0.1679 -0.0490 -0.0395
10027W        W19720   3.491   1.669  12.867 -0.1007  0.1760  0.1254
10028W        W19721  13.904  13.129   5.109 -0.0409 -0.1813 -0.0953
10029W        W19722  11.779  10.485  13.534  0.0246  0.0097  0.0987
10030W        W19723   5.959  11.112  13.979 -0.1069 -0.0209 -0.1498
10031W        W19724  11.088  16.984  14.284 -0.3823 -0.0057 -0.0923
10032W        W19725   7.641   4.478  17.474  0.0874  0.1825 -0.0649
10033W        W19726  10.506  17.678  13.065 -0.3163 -0.2216  0.0620
10034W        W19727   4.619  11.273  15.276 -0.1020  0.0055 -0.1538
10035W        W19728   3.856   1.188  13.714  0.0152  0.0158  0.0752
10036W        W19729  17.450   0.690   4.838 -0.0288 -0.0283 -0.2357
10037W        W19730  16.462   0.296  17.483  0.2989 -0.0863 -0.4386
10038W        W19731  15.695  12.229  16.035 -0.0696  0.4399  0.0177
10039W        W19732   0.962   5.199  15.668 -0.0586 -0.2735  0.1555
10040W        W19733   4.181   0.270  16.027 -0.1889  0.1729  0.2701
10041W        W19734   4.060  15.960  12.962 -0.1938  0.2290 -0.1778
10042W        W19735   1.507   1.104  12.925 -0.0136 -0.2855 -0.0826
10043W        W19736  12.847  17.583   5.494  0.0718 -0.0821 -0.1562
10044W        W19737   1.330   7.796   0.571  0.1351  0.0325  0.2619
10045W        W19738   5.441   6.257   4.564 -0.1821 -0.3865 -0.0445
10046W        W19739  16.863  13.160  13.157  0.1313  0.1958  0.0112
10047W        W19740  17.523  11.637   3.866  0.1576 -0.0755  0.1695
10048W        W19741  16.090   6.918   4.992 -0.1140 -0.1247  0.1546
10049W        W19742  17.253  13.338  16.582  0.1752  0.1066 -0.1108
10050W        W19743   6.919  12.637   0.174 -0.0878  0.0734  0.2791
10051W        W19744   5.075  13.652   1.082 -0.0548 -0.0462 -0.1349
10052W        W19745   9.884   6.587   1.938 -0.3698 -0.0874 -0.1942
10053W        W19746   5.030   2.640  16.279 -0.1270  0.1409 -0.2581
10054W        W19747   3.067   9.450   1.440  0.0140 -0.0499  0.0026
10055W        W19748   4.615   7.619  17.304 -0.0231 -0.2942  0.1896
10056W        W19749   4.589   2.195   4.432  0.3546  0.2142  0.0557
10057W        W19750  13.660   7.393  13.064 -0.0412 -0.3878  0.1812
10058W        W19751   6.586  11.760  16.426 -0.1532  0.0738  0.2314
10059W        W19752   1.933   1.380  13.214 -0.0996 -0.2217  0.2523
10060W        W19753  14.050  14.241  12.773  0.1529 -0.1268  0.1409
10061W        W19754   7.717   4.896  12.885 -0.1661  0.0740  0.2277
10062W        W19755   2.225   1.661   2.832  0.1009 -0.2645 -0.2077
10063W        W19756   3.988   5.371  14.558  0.0128 -0.0674  0.0180
10064W        W19757   1.590  14.149  13.576 -0.2902  0.1584 -0.3367
10065W        W19758  13.355  11.728   4.685  0.0975 -0.1267  0.0306
10066W        W19759   1.896   5.742   4.327 -0.1459  0.0773  0.0420
10067W        W19760   5.460   4.146   2.069 -0.0320  0.0070 -0.2112
10068W        W19761   5.090  13.432  16.238 -0.0742 -0.3534 -0.1992
10069W        W19762   0.907  10.948  13.106  0.0238  0.1880 -0.3334
10070W        W19763   0.501   4.756   2.104  0.0757  0.0318  0.1461
10071W        W19764  14.881   0.896  13.777 -0.2156 -0.4909 -0.4379
10072W        W19765  11.705   9.240   6.954  0.3586  0.0751 -0.1825
10073W        W19766   8.922  14.853  15.117  0.2642  0.0260 -0.1041
10074W        W19767  14.563  16.381   0.073 -0.0097  0.1458  0.0331
10075W        W19768   6.366  13.483  12.190  0.0842 -0.2222 -0.0127
10076W        W19769  13.701   7.162   0.378  0.0061  0.0065  0.1732
10077W        W19770   3.481  14.951   0.592 -0.0584  0.1956 -0.1301
10078W        W19771   8.863   0.892  17.573  0.1910  0.3788 -0.0918
10079W        W19772   5.365   1.220  12.282 -0.0484 -0.0820 -0.2910
10080W        W19773  14.714   7.655  15.057 -0.1955  0.2835  0.0093
10081W        W19774   2.769   2.715   4.022  0.0865 -0.3649 -0.4907
10082W        W19775   2.821  15.428  14.743 -0.1176  0.0036 -0.0371
10083W        W19776   9.660   7.480  14.051 -0.1332 -0.0843 -0.0694
10084W        W19777  15.558   3.668   2.547 -0.0411  0.1666 -0.3519
10085W        W19778   2.393  10.453  12.607  0.0825  0.1140 -0.1541
10086W        W19779  13.888   6.265  13.188  0.0098 -0.1609 -0.3548
10087W        W19780   8.213  15.186  16.321 -0.0028  0.0986 -0.0339
10088W        W19781   5.527  13.332  15.069  0.0024 -0.3699 -0.3391
10089W        W19782   0.785   1.658  16.801 -0.1897 -0.1671  0.1625
10090W        W19783  10.979   2.314  16.463  0.1389  0.0632  0.3026
10091W        W19784   6.496   2.314  11.833  0.0171  0.2183  0.2410
10092W        W19785  13.595  10.713  12.141  0.0376 -0.0488  0.0588
10093W        W19786   6.131  12.347   4.837  0.1249  0.0200  0.1231
10094W        W19787  17.006   7.276  16.658  0.0726 -0.0608  0.0099
10095W        W19788   4.362  13.428  14.879 -0.3839  0.1152  0.0621
10096W        W19789  12.642  11.757   7.126  0.0288 -0.2415  0.1254
10097W        W19790   6.527  15.106  16.521 -0.1145 -0.0332  0.0556
10098W        W19791  16.026   9.681   2.571  0.1291 -0.0383 -0.2606
10099W        W19792   0.947  14.955  15.996  0.0409 -0.0025  0.2669
10100W        W19793  17.407   4.361   1.349 -0.0413  0.0504 -0.5136
10101W        W19794  11.160   9.704  13.273  0.3022 -0.0429 -0.3259
10102W        W19795  17.108  10.612   4.407 -0.3211  0.2670 -0.1299
10103W        W19796  12.100  16.422  12.118 -0.2822 -0.0927 -0.1120
10104W        W19797   5.851  11.349  12.580  0.0114  0.3018 -0.1680
10105W        W19798   6.199   2.467   6.128 -0.2115  0.0520  0.1901
10106W        W19799   4.291   9.707  14.326 -0.2444 -0.2748  0.2481
10107W        W19800  10.670   7.908   5.119  0.1747 -0.1844 -0.3800
10108W        W19801   9.758   2.777   2.948 -0.1497  0.0349 -0.0194
10109W        W19802   2.347   2.974   3.878 -0.2027 -0.0393  0.2734
10110W        W19803  16.422   2.939  16.741 -0.1349  0.3127 -0.0240
10111W        W19804   5.098   8.809   0.083 -0.0938  0.1226  0.2455
10112W        W19805   7.742   5.483   5.861 -0.2953  0.0805 -0.0323
10113W        W19806   6.735  11.496  13.916 -0.1203  0.1609 -0.1941
10114W        W19807   2.300   5.285  11.273  0.0466 -0.1068 -0.3928
10115W        W19808   8.696   8.581   5.537  0.0657  0.2598  0.1487
10116W        W19809   1.649   5.055   4.521 -0.1148 -0.1790  0.0826
10117W        W19810   6.583  16.433   1.421  0.0315 -0.2770  0.1932
10118W        W19811   3.391   9.568   2.940  0.1714 -0.3704 -0.1253
10119W        W19812  11.466   5.284   0.182 -0.3885 -0.3374 -0.1657
10120W        W19813  13.733  14.212  14.914 -0.0575  0.0197  0.1587
10121W        W19814   7.211   8.486   0.658 -0.0576 -0.0938 -0.0477
10122W        W19815   4.916   3.832   4.057  0.0551  0.2341 -0.1796
10123W        W19816  12.906   5.526  13.319  0.2190  0.0855  0.0776
10124W        W19817  12.700   8.772   5.787  0.0557  0.3091 -0.2302
10125W        W19818   0.479  11.271  16.954 -0.0045  0.1008 -0.2288
10126W        W19819   7.930  13.748   0.660 -0.0264  0.0962  0.2572
10127W        W19820   9.048  16.660   4.875 -0.0952  0.0829  0.0958
10128W        W19821   7.226   5.990   3.800  0.3504  0.1362  0.0278
10129W        W19822  15.624   1.201  15.497  0.0131 -0.2069 -0.0871
10130W        W19823  15.088   4.264  17.672  0.0619  0.0717  0.1050
10131W        W19824   0.977   3.632   5.230 -0.2174  0.2541  0.0401
10132W        W19825  17.478  10.794   0.747  0.0787  0.2379  0.0083
10133W        W19826   4.530   5.043  12.428  0.0534  0.3410 -0.1497
10134W        W19827   7.819  12.030   0.732 -0.3455 -0.0443  0.0186
10135W        W19828   5.853   6.135   2.497  0.1925 -0.0705 -0.0780
10136W        W19829   6.453   7.544   0.685 -0.0872 -0.1916 -0.0725
10137W        W19830  11.277   4.185  14.051 -0.2608 -0.0549  0.1321
10138W        W19831   8.924  11.290  15.954  0.0513  0.0923 -0.1261
10139W        W19832   2.813  11.755  16.495  0.2827  0.0054 -0.2049
10140W        W19833  14.742   1.715  15.270 -0.0489  0.0195 -0.0230
10141W        W19834   3.210  16.744  16.051 -0.3324  0.1060  0.2337
10142W        W19835   9.659   1.342   1.465  0.0390 -0.1908 -0.2236
10143W        W19836   6.813   6.234  17.136 -0.0034 -0.2462 -0.2491
10144W        W19837  11.774   9.655   1.938  0.0466 -0.2211 -0.1019
10145W        W19838   6.835   3.034  14.359 -0.5343  0.0900  0.1133
10146W        W19839  13.741  17.356   3.572 -0.1261 -0.0744 -0.2184
10147W        W19840  13.742  13.155   0.258 -0.1325 -0.0515  0.0344
10148W        W19841   3.861   7.161   2.090  0.0978 -0.3474 -0.4463
10149W        W19842  12.714   5.351  14.562  0.1576 -0.1725  0.4088
10150W        W19843  10.198   7.255  14.169  0.0982 -0.0198  0.0321
10151W        W19844   7.954  10.718   6.333 -0.1334 -0.0847 -0.0703
10152W        W19845   8.162  12.769  13.179 -0.2640 -0.0334  0.0268
10153W        W19846   4.424   3.825   6.598 -0.0329  0.1083  0.0466
10154W        W19847   9.391  14.588  17.100 -0.2816  0.0253 -0.0989
10155W        W19848   9.378  11.257   3.071  0.1464 -0.3361 -0.1064
10156W        W19849  10.593  15.225   0.392  0.0825  0.0846  0.2678
10157W        W19850   5.889  17.125  17.426 -0.1435 -0.0336  0.3464
10158W        W19851  10.809   1.551   2.299  0.0447 -0.4061  0.1074
10159W        W19852  15.239  13.499   4.831 -0.0461  0.0574 -0.1342
10160W        W19853  12.610   8.472  13.188  0.1063 -0.0046  0.1165
10161W        W19854   4.797  15.751   1.257  0.0136 -0.0397 -0.0957
10162W        W19855  17.389   9.363  17.162  0.0975  0.0270 -0.2276
10163W        W19856   4.936  13.978   5.110  0.3898  0.0034  0.0888
10164W        W19857   3.121   1.972  16.708  0.0044  0.1587  0.3718
10165W        W19858   9.548   5.089  13.451 -0.1303 -0.0810 -0.1631
10166W        W19859  13.494  10.013   4.841  0.1903  0.1788 -0.1773
10167W        W19860   1.797  11.960  15.094  0.0691  0.2423  0.0731
10168W        W19861  17.545   1.609   4.866  0.1717 -0.0641  0.2486
10169W        W19862  15.340  11.410   2.903  0.2799  0.1481  0.0465
10170W        W19863   2.971   1.128  13.073 -0.0316  0.2034 -0.1457
10171W        W19864   1.927  16.616  15.332  0.1907 -0.0536 -0.2686
10172W        W19865  15.330  11.422  15.210 -0.1344 -0.3594 -0.0751
10173W        W19866  12.978  15.273   6.685 -0.0915  0.2065 -0.2459
10174W        W19867   2.824  17.205   4.583 -0.0556 -0.0416 -0.0986
10175W        W19868   0.990  16.998   2.252  0.1053  0.1362 -0.2702
10176W        W19869   2.628   9.128   6.393 -0.2316  0.3094  0.0482
10177W        W19870  10.301   9.294   3.177  0.0274 -0.0252 -0.1082
10178W        W19871   5.832  17.102   5.946  0.1098 -0.0690 -0.0453
10179W        W19872  14.325   5.003  14.461  0.2606 -0.1257  0.3117
10180W        W19873  16.096   9.112  11.199  0.1682 -0.0097 -0.3552
10181W        W19874  15.603   7.085  14.321  0.2238  0.0241 -0.2472
10182W        W19875   6.677   5.833   5.580  0.0791  0.1148  0.0883
10183W        W19876   0.150   7.607   5.695 -0.2476  0.2724  0.1648
10184W        W19877   6.566  15.051   2.570  0.2037  0.1364  0.3782
10185W        W19878  15.411   3.295  15.017 -0.1095  0.2252  0.0234
10186W        W19879   0.719   8.417   2.336  0.2537 -0.2673  0.0411
10187W        W19880   0.662  10.602  15.692  0.0890 -0.3007 -0.0515
10188W        W19881  16.232   5.819   4.296 -0.1165  0.0525 -0.3285
10189W        W19882   7.314   4.501   4.015 -0.0645 -0.2014 -0.6273
10190W        W19883   2.374   2.063   5.745 -0.3547  0.2534 -0.1348
10191W        W19884   5.008  11.324  13.860  0.0089 -0.0644 -0.1840
10192W        W19885   2.729  15.404  11.790  0.2696 -0.0208 -0.0461
10193W        W19886  17.379   7.672  16.646 -0.1018 -0.0125  0.2228
10194W        W19887  11.170  17.366   3.835 -0.3006  0.0245  0.0017
10195W        W19888   6.737  10.454  13.183 -0.0290  0.2110 -0.0692
10196W        W19889  15.008  15.809  17.183  0.0210  0.1500  0.3079
10197W        W19890   7.385  13.076   4.245  0.3156 -0.0927 -0.1937
10198W        W19891   8.596  13.363  16.137 -0.0156 -0.2015 -0.0542
10199W        W19892   9.282   6.888   1.031 -0.1625 -0.1567 -0.1368
10200W        W19893   7.019   2.720  16.291 -0.1456 -0.0049  0.2604
10201W        W19894   5.619   0.639   1.220 -0.0706  0.0527  0.2354
10202W        W19895   5.771  14.472  15.405 -0.0251 -0.0626 -0.1459
10203W        W19896   6.002  14.335  13.380 -0.1011 -0.0248 -0.1888
10204W        W19897  10.239  10.490   0.889  0.1257 -0.2446 -0.0531
10205W        W19898   1.388  16.442   2.857 -0.1057  0.0816 -0.0294
10206W        W19899   9.364   0.638  15.565  0.0690  0.3475 -0.0660
10207W        W19900  13.297   0.105  17.583 -0.1787  0.1682 -0.0301
10208W        W19901   9.025   5.305   0.728 -0.3163 -0.1824  0.0579
10209W        W19902   6.882   7.612   5.781  0.0810  0.1524  0.0084
10210W        W19903   6.884  11.081   0.626 -0.2166 -0.0804 -0.0882
10211W        W19904   7.645   5.171  16.092  0.1280 -0.1360  0.2194
10212W        W19905   4.965   0.272   6.527 -0.1512 -0.2746 -0.1135
10213W        W19906   0.606  16.213   2.461  0.0707 -0.0978 -0.1487
10214W        W19907   3.571   8.994  17.048 -0.1751 -0.2308  0.0446
10215W        W19908  12.604   8.038  16.241 -0.1991  0.1435  0.1341
10216W        W19909  15.135   7.146   1.897  0.1885  0.0033 -0.2291
10217W        W19910   2.198  10.012  17.348  0.0998  0.1725 -0.2067
10218W        W19911  15.680  15.175  16.266  0.1907 -0.0276 -0.0761
10219W        W19912  13.777  16.397   3.724 -0.1145  0.1437 -0.3605
10220W        W19913  10.144  14.073   2.682  0.2030 -0.0319  0.0316
10221W        W19914  15.162  16.185  12.303 -0.1301 -0.3919 -0.0714
10222W        W19915   2.451   2.764  16.991 -0.1525 -0.1756 -0.0111
10223W        W19916   7.229   1.782   1.296 -0.2477  0.4883  0.2835
10224W        W19917   9.306  14.149   1.304  0.2907 -0.0301 -0.2560
10225W        W19918   0.342  11.793   2.117  0.4424 -0.1568  0.0324
10226W        W19919  14.432  14.685   6.491 -0.2698  0.1660  0.0495
10227W        W19920   3.488   9.300  11.475  0.5830  0.0312 -0.0117
10228W        W19921   2.766  14.908   4.096 -0.0500  0.0833 -0.1551
10229W        W19922  15.889   6.622   4.664  0.0538 -0.0879 -0.0518
10230W        W19923   5.027   9.861  12.804 -0.2246 -0.0622  0.2253
10231W        W19924  10.562  15.862   3.290 -0.1963  0.1209 -0.0769
10232W        W19925  13.388   2.612  13.864  0.0149 -0.0261 -0.2123
10233W        W19926  10.979   8.293   4.806 -0.1460 -0.1467  0.0982
10234W        W19927   2.496   8.768  16.394 -0.1502  0.0038 -0.1075
10235W        W19928   5.368   5.918   0.648  0.1655  0.0838  0.1276
10236W        W19929  12.533  15.578   2.547  0.0680 -0.0203  0.3296
10237W        W19930  10.098  15.064   4.349 -0.1824 -0.2500  0.0617
10238W        W19931   8.447   7.255  11.901  0.2223 -0.1222  0.1329
10239W        W19932   3.251   4.202   0.934 -0.2665 -0.1306 -0.1545
10240W        W19933   9.285  11.970   2.187 -0.0277 -0.2059  0.0626
10241W        W19934   9.072   9.824  16.459  0.3192 -0.0495 -0.4102
10242W        W19935   1.643  13.077  13.065  0.0313  0.0093  0.0423
10243W        W19936  11.596  15.692   0.271  0.0446 -0.0269 -0.0506
10244W        W19937   7.346   2.255   4.420 -0.0979  0.0885  0.1610
10245W        W19938   4.276  11.280   5.250 -0.0468 -0.1841  0.0836
10246W        W19939  17.120  12.065   4.475  0.0001  0.0083  0.1414
10247W        W19940  11.294   1.133  17.204  0.0290  0.2854  0.0883
10248W        W19941  14.076  11.971   1.627  0.2396 -0.2428  0.0988
10249W        W19942  15.294   0.094   4.417  0.1429  0.0035 -0.3296
10250W        W19943   8.912  13.549   6.196  0.2929 -0.2128 -0.0909
10251W        W19944  14.190  13.378  14.286 -0.1558 -0.2649 -0.2207
10252W        W19945  15.921   6.837   5.905 -0.0124  0.0954 -0.1543
10253W        W19946   6.929  10.789   6.276  0.1261  0.1787 -0.3801
10254W        W19947   8.494  16.454  16.635  0.0165  0.4688 -0.3692
10255W        W19948   0.977  14.416   1.521 -0.2678 -0.2198 -0.2358
10256W        W19949  17.111  13.156  17.081  0.3285 -0.0179 -0.2366
10257W        W19950   9.280   8.490   0.896  0.1289 -0.2260 -0.0265
10258W        W19951   4.301   8.343   6.007 -0.0569 -0.0264  0.0097
10259W        W19952   9.136   4.383  12.996  0.0182 -0.3390 -0.0936
10260W        W19953  17.437  12.926  16.800  0.1709  0.2365 -0.1703
10261W        W19954   1.302  10.761   2.330 -0.1932 -0.2082  0.1935
10262W        W19955   7.092  14.078  15.787  0.1664  0.1687  0.2173
10263W        W19956   1.950   5.290   0.779 -0.0882 -0.0218  0.1962
10264W        W19957   1.415   0.448  15.862 -0.2386  0.0848  0.3897
10265W        W19958   9.552   6.800  15.444 -0.0956 -0.3723 -0.0570
10266W        W19959  14.626   1.675  14.647 -0.2595 -0.1649 -0.0199
10267W        W19960   1.006   7.271   5.690  0.5121  0.3386 -0.1654
10268W        W19961  11.808   0.468  15.461  0.2328 -0.2727  0.0365
10269W        W19962  17.463   4.930   0.615 -0.3413 -0.2900 -0.0355
10270W        W19963  10.391  12.826   4.406  0.1646  0.2766  0.0559
10271W        W19964   3.413  16.313  11.499 -0.0223  0.1150 -0.0263
10272W        W19965  11.611  11.621   4.997  0.2064 -0.0194  0.3235
10273W        W19966   7.585  12.443  13.480 -0.2617  0.0613  0.2503
10274W        W19967  14.068   2.298  16.820  0.2544 -0.0639 -0.0151
10275W        W19968   5.122  12.478  13.239 -0.2948  0.2025  0.2931
10276W        W19969   8.465   7.344   3.316  0.2162  0.0609  0.0087
10277W        W19970  12.633   8.377  16.686 -0.1239  0.2171  0.2978
10278W        W19971   9.274   3.467  13.908 -0.0249 -0.0810 -0.1613
10279W        W19972   8.673   2.572   5.600  0.1144  0.3412 -0.0565
10280W        W19973  13.892   5.503  15.046 -0.1236 -0.1386 -0.1882
10281W        W19974   3.736  14.381  12.108  0.1229  0.0652 -0.0408
10282W        W19975  12.213  12.147  15.995  0.0378 -0.4259  0.3641
10283W        W19976  11.097  13.291   4.460 -0.1450 -0.2881 -0.0885
10284W        W19977   5.498  15.676   5.840  0.2762  0.0207 -0.0577
10285W        W19978   7.844   3.463  16.222  0.0379 -0.2024  0.0292
10286W        W19979   1.476   9.274   1.882 -0.0213 -0.0395 -0.0393
10287W        W19980   7.029   4.433   0.069  0.0247 -0.3208 -0.2700
10288W        W19981   6.199   2.649   3.744 -0.0206  0.1718  0.1360
10289W        W19982  17.036   2.853   6.046 -0.1623 -0.2352 -0.1653
10290W        W19983   0.884  10.002  14.761 -0.0631 -0.4133 -0.3107
10291W        W19984   8.907   4.752  13.327  0.3181 -0.1194 -0.2855
10292W        W19985   7.855  17.283  13.535 -0.0164  0.1412 -0.1099
10293W        W19986   1.985   3.285   3.633  0.2654  0.0930 -0.0933
10294W        W19987   8.420   3.259  12.776 -0.2392 -0.1206  0.0060
10295W        W19988  11.144  13.786  13.609  0.1510  0.3074 -0.0395
10296W        W19989  15.257  11.458  16.748 -0.0490 -0.0429 -0.0780
10297W        W19990   0.452   3.944   1.318 -0.1873 -0.1439  0.0216
10298W        W19991   3.251  13.719  14.648 -0.2642 -0.0566 -0.1516
10299W        W19992  13.440   6.514   4.927 -0.2239 -0.0502  0.1580
10300W        W19993   0.926   6.868  15.880 -0.0201 -0.1609 -0.1329
10301W        W19994  15.750  13.587  16.848 -0.1139  0.4162  0.1286
10302W        W19995  12.591   4.252  13.766 -0.0332  0.0868 -0.0498
10303W        W19996   4.685   1.121   4.990 -0.0296  0.1206  0.1299
10304W        W19997   0.252  15.112   2.422 -0.1016  0.3411 -0.0262
10305W        W19998   7.356  12.495  14.401  0.1363 -0.1250  0.0899
10306W        W19999   5.039  16.771  14.917 -0.0263 -0.0961  0.1136
10307W        W20000  14.389   4.146   3.006 -0.0879 -0.1500 -0.1479
10308W        W20001   4.794  16.332  14.845 -0.2161 -0.2613 -0.2745
10309W        W20002  11.794  16.147  13.471 -0.0521  0.2335 -0.1081
10310W        W20003   5.723  15.882  16.761 -0.0303 -0.0509  0.3127
10311W        W20004  16.306  17.660   1.112  0.1303  0.1051  0.2413
10312W        W20005  12.498  14.359   6.535 -0.1547 -0.4056 -0.0368
10313W        W20006   7.176  11.758  11.345 -0.1147 -0.1736 -0.0625
10314W        W20007   1.567  13.360   3.288 -0.2171 -0.2579 -0.0328
10315W        W20008   3.871  16.384   3.442  0.0030 -0.0362  0.1300
10316W        W20009  10.887   4.305  16.864 -0.0592 -0.1600 -0.0119
10317W        W20010   2.809  13.107  15.214 -0.1434 -0.4036 -0.0771
10318W        W20011   1.365   6.050  11.535  0.1665  0.1173 -0.1860
10319W        W20012   4.390  14.910  14.116 -0.0602  0.1112  0.0859
10320W        W20013   1.066  17.108  17.587 -0.0323 -0.1025  0.0839
10321W        W20014  12.828  11.595  15.298  0.1816  0.2477  0.1861
10322W        W20015   4.106  16.708  12.530  0.0286 -0.1203  0.2573
10323W        W20016  15.990   8.332  16.284 -0.0459 -0.4662  0.1048
10324W        W20017   7.697  14.152   1.808 -0.2221 -0.1816 -0.0050
10325W        W20018  14.189   0.350  15.391 -0.0423 -0.0824  0.0961
10326W        W20019   2.202  16.307   0.270 -0.1727  0.0241  0.1985
10327W        W20020   5.585  15.597   6.753  0.2454 -0.0935  0.0944
10328W        W20021   5.499  13.028  11.463  0.0189 -0.1466 -0.1948
10329W        W20022  10.154  12.213  15.091  0.0906 -0.1822  0.0900
10330W        W20023   8.526  16.231  14.292  0.0941 -0.2656  0.1417
10331W        W20024   6.013  13.257  13.199  0.0193 -0.1481  0.1128
10332W        W20025  17.193   0.764   2.987 -0.4563  0.0398 -0.1718
10333W        W20026   6.019  13.494  16.146 -0.0035  0.1655 -0.1300
10334W        W20027   4.143  12.475   3.093 -0.0021 -0.0272  0.2415
10335W        W20028  10.231   7.133  17.589  0.0651 -0.1566  0.0756
10336W        W20029  14.650   9.756  15.885  0.2653 -0.1020 -0.2547
10337W        W20030   0.051  10.704   6.325  0.2669  0.1897 -0.1079
10338W        W20031   5.064   4.608  13.184 -0.1753 -0.1517  0.1215
10339W        W20032   7.165   1.856  16.770  0.2382  0.1744  0.2022
10340W        W20033   7.907   7.696   1.530  0.1361  0.2513  0.1882
10341W        W20034   4.495   4.488   0.598  0.1905  0.0803 -0.1645
10342W        W20035   2.857  15.192   5.869  0.1535 -0.1101  0.0615
10343W        W20036   2.557  12.487  11.877 -0.1966 -0.0958 -0.0159
10344W        W20037  11.820  13.266  17.202  0.2309 -0.2509 -0.1495
10345W        W20038   6.976   4.859   4.477 -0.4831  0.4295 -0.0285
10346W        W20039   2.797   3.301   1.613 -0.1523  0.2715 -0.0916
10347W        W20040  15.464   2.192  13.678  0.1285 -0.0670  0.1849
10348W        W20041   0.528   0.069   1.367 -0.2754 -0.2877  0.1394
10349W        W20042  12.333   7.989  12.900 -0.0745 -0.1608 -0.0183
10350W        W20043   2.123   8.612   5.776 -0.0941  0.0699 -0.2250
10351W        W20044   5.942   6.656   5.270 -0.0840  0.4387  0.0694
10352W        W20045   0.473  11.962  16.133  0.0363 -0.0853 -0.0520
10353W        W20046  16.634  11.442  14.171 -0.0360 -0.1915 -0.1060
10354W        W20047  12.362   3.920   6.565 -0.1049 -0.0090  0.0521
10355W        W20048   0.703  11.014  14.054  0.1058 -0.1348  0.2103
10356W        W20049   6.654   6.492  13.192 -0.1151 -0.0176  0.4060
10357W        W20050   2.947  16.863   6.127  0.0339  0.0044 -0.0500
10358W        W20051   3.835   2.377   1.232  0.1246  0.0515  0.0731
10359W        W20052   0.517   5.656   4.974  0.1607 -0.0801  0.0626
10360W        W20053   1.936   7.978  12.881 -0.3749  0.0619 -0.2464
10361W        W20054   3.709  16.309   4.115 -0.0578  0.0569  0.3822
10362W        W20055   1.294  14.491   1.121 -0.0293  0.1414  0.1011
10363W        W20056   4.973   0.237  12.322  0.2648  0.2046 -0.2809
10364W        W20057  15.338   0.435  12.337  0.1710  0.1948  0.1885
10365W        W20058   6.902   5.779   1.707 -0.1018  0.0867 -0.4225
10366W        W20059   2.695   0.599   3.245 -0.0097 -0.1040  0.2003
10367W        W20060  10.723  14.634   5.178  0.1811 -0.3251 -0.0827
10368W        W20061  11.591   8.310   3.296  0.0549  0.3627 -0.3051
10369W        W20062  13.160   5.834   1.499 -0.0031 -0.4773  0.3319
10370W        W20063  14.360   3.745   0.631 -0.1913  0.0310 -0.2307
10371W        W20064  12.024   0.705   5.246 -0.0719 -0.4535 -0.3805
10372W        W20065   9.517   7.101   6.394  0.0307 -0.0181 -0.1054
10373W        W20066   6.233   3.516   0.112 -0.1753  0.1657  0.1584
10374W        W20067  17.075  14.747   6.380  0.1401  0.3948  0.1037
10375W        W20068   6.447  13.709  14.494  0.4812  0.1808  0.2532
10376W        W20069   9.368  11.528  12.821  0.0475 -0.1609  0.2889
10377W        W20070  14.279  17.171   0.468 -0.1025  0.0106 -0.1383
10378W        W20071   4.338  10.515  15.715  0.0436 -0.1179 -0.2935
10379W        W20072  12.008  16.778   3.040 -0.1026 -0.2689  0.2033
10380W        W20073  15.494  11.050   2.312 -0.0570  0.0603 -0.3083
10381W        W20074   4.258   8.250   4.100 -0.2210  0.0803 -0.1818
10382W        W20075  15.652   2.418   5.988  0.1506 -0.1538 -0.0343
10383W        W20076  13.955   3.244  17.414  0.1288  0.0354  0.0582
10384W        W20077   1.139   4.840   6.670 -0.0660  0.0826 -0.1423
10385W        W20078  12.225   1.827  13.163 -0.0824 -0.2173  0.0244
10386W        W20079   2.839   6.064  12.212 -0.1312  0.0139  0.0040
10387W        W20080   1.019  15.128  14.787 -0.1722  0.1813  0.2054
10388W        W20081  10.097   1.952   5.665 -0.2539 -0.0929 -0.2765
10389W        W20082   4.422  11.806   0.982  0.2696 -0.1283  0.1812
10390W        W20083  11.499   8.648  16.957 -0.2393 -0.0092 -0.0590
10391W        W20084   4.541  11.596   6.008 -0.0035 -0.1824  0.0520
10392W        W20085  11.606   6.292  14.038 -0.0483  0.0032 -0.0245
10393W        W20086   1.746  14.760   3.456 -0.0871  0.3288  0.2066
10394W        W20087   3.918  10.227  11.521  0.0729  0.3317 -0.0836
10395W        W20088   4.681   9.232   2.706  0.1006 -0.1664 -0.3100
10396W        W20089   4.222   1.740   5.394 -0.0313 -0.0255 -0.3957
10397W        W20090   8.280  14.028  13.808 -0.0911 -0.0047 -0.0076
10398W        W20091  17.015  17.487   0.059 -0.0308 -0.0088  0.2677
10399W        W20092   9.999   9.977   4.410  0.1937 -0.0999  0.1001
10400W        W20093   2.676   7.932   5.408 -0.0473 -0.0331  0.1020
10401W        W20094   8.260   2.882  12.388  0.1087  0.0347 -0.2484
10402W        W20095   9.799  16.259   0.997  0.1692 -0.0580 -0.3513
10403W        W20096   1.958   3.770   0.597 -0.1558  0.2698 -0.1348
10404W        W20097  17.674  12.404   3.519  0.1621 -0.4409 -0.0698
10405W        W20098   8.463  11.409   2.074  0.2366 -0.0303 -0.0354
10406W        W20099   7.100  12.808  15.213  0.4491  0.0045  0.2720
10407W        W20100   4.905   3.788   2.824  0.1451 -0.3426 -0.0747
10408W        W20101  15.451   9.727  12.341  0.1358  0.3005 -0.1890
10409W        W20102   3.482  14.365  10.792 -0.0372  0.0297 -0.0570
10410W        W20103  10.998   0.992   5.880 -0.1827  0.2195 -0.0832
10411W        W20104  17.228   1.696   4.438 -0.0501 -0.1771  0.0702
10412W        W20105  12.738  14.573  13.253  0.1006 -0.0952  0.1972
10413W        W20106   3.695  13.502  14.795  0.0919 -0.2902 -0.0578
10414W        W20107  13.356   4.870   1.918  0.0048 -0.0116 -0.0764
10415W        W20108  12.924  11.692  13.788 -0.0645  0.3503  0.0449
10416W        W20109  12.242  16.802   5.534 -0.0760 -0.1064 -0.3290
10417W        W20110   7.171  11.046   1.620  0.2148 -0.0081  0.1861
10418W        W20111   8.596   7.800  13.711 -0.1147 -0.0398 -0.2717
10419W        W20112   1.943   1.396   5.877 -0.0059  0.4353 -0.1158
10420W        W20113   8.348   6.598   3.756 -0.2100 -0.0657 -0.0082
10421W        W20114  12.805   4.515  16.091 -0.1110 -0.2542 -0.1244
10422W        W20115  10.648   4.488   3.693 -0.0675 -0.1545  0.1790
10423W        W20116   1.898   7.508  17.344  0.0248 -0.0418 -0.0380
10424W        W20117   1.561   7.595  14.052  0.0679  0.4105  0.3436
10425W        W20118  15.940   0.986   5.278 -0.2501  0.3541  0.0040
10426W        W20119  10.338  12.091   1.765  0.4352  0.0485  0.3597
10427W        W20120   7.233   5.816   3.310 -0.1630 -0.2605  0.0795
10428W        W20121  13.146   6.465  12.761 -0.2537  0.4049  0.0910
10429W        W20122   7.549  10.163  14.684  0.0619  0.1137 -0.1359
10430W        W20123  11.361   8.026   3.659  0.1891 -0.1234 -0.1667
10431W        W20124   3.281   6.691  15.713  0.2155  0.2169 -0.0291
10432W        W20125   3.854   7.128   1.240  0.0531 -0.1746  0.1409
10433W        W20126  16.193  11.593   6.034 -0.0251  0.0161 -0.2255
10434W        W20127  14.939   4.756   2.007 -0.0203 -0.1973 -0.0362
10435W        W20128  12.392  16.422  12.916  0.2663  0.1316 -0.1340
10436W        W20129   3.523  10.821   5.152  0.0456  0.4020 -0.0050
10437W        W20130  13.372   9.532   5.601  0.0446  0.1521  0.0928
10438W        W20131   1.834   7.332  15.805  0.2360  0.0374 -0.4641
10439W        W20132   2.090  15.106   6.974 -0.1528 -0.0811  0.0472
10440W        W20133  12.373  12.059  11.473 -0.1801 -0.1356 -0.0525
10441W        W20134  16.856   7.118  13.194  0.2663  0.1538  0.2106
10442W        W20135  17.239   5.505  16.404  0.0343  0.0953  0.2019
10443W        W20136   1.123   6.937   2.050 -0.0219  0.1438 -0.2765
10444W        W20137  13.731  15.821  16.688 -0.0560  0.3338 -0.1741
10445W        W20138  14.141  11.055  17.018  0.1545 -0.1066 -0.0167
10446W        W20139   9.508  16.579  15.890 -0.0346  0.0622  0.1939
10447W        W20140  13.224   4.617   3.519  0.0599 -0.1180 -0.1951
10448W        W20141  11.558  10.264  15.491  0.3588 -0.2123 -0.2378
10449W        W20142  15.074   2.370  11.727  0.1100 -0.1722 -0.0136
10450W        W20143   6.997   7.141  11.838 -0.1306 -0.0730  0.2845
10451W        W20144   8.808  11.981   6.139 -0.1021 -0.2099 -0.1065
10452W        W20145   7.254   5.331   3.583 -0.0125  0.1952 -0.0913
10453W        W20146  16.544   9.698  17.422  0.2336 -0.1761  0.2183
10454W        W20147  15.822  10.788  16.607 -0.2373  0.0157 -0.1488
10455W        W20148   0.259   1.091  13.872  0.0965 -0.4384  0.2183
10456W        W20149  13.610  12.861  14.984  0.0211  0.1438  0.0028
10457W        W20150  14.948   3.046  15.657  0.2940 -0.1122  0.2259
10458W        W20151   6.274   7.469   5.297  0.2018  0.1812 -0.1567
10459W        W20152  16.991   4.641  17.505  0.0983  0.3429  0.1336
10460W        W20153  14.733   5.394   4.082  0.0639  0.0999 -0.3536
10461W        W20154   0.054   8.176   5.482 -0.2522 -0.0651 -0.0645
10462W        W20155   1.541   7.116   5.730 -0.0957  0.0169 -0.0499
10463W        W20156   9.488   9.254  11.389  0.0910  0.1193  0.0867
10464W        W20157   1.420   3.330  13.261 -0.3152  0.1939  0.1696
10465W        W20158  14.146  12.554  14.397 -0.1140  0.0651  0.1288
10466W        W20159   3.375   1.854   4.839 -0.2000  0.1788  0.0393
10467W        W20160  10.412  12.354  17.234 -0.0479 -0.0146  0.0050
10468W        W20161  15.137   7.681   0.567  0.1123 -0.0693  0.2102
10469W        W20162   1.251   3.373  14.657  0.1707 -0.0770  0.0720
10470W        W20163   8.555   9.343  14.459  0.1653  0.0680  0.1845
10471W        W20164   4.329  15.511   5.759  0.0028 -0.1001 -0.1096
10472W        W20165  10.702   2.750   3.361 -0.1183 -0.2159  0.2132
10473W        W20166   1.901   0.326   1.996 -0.2267 -0.0435 -0.0916
10474W        W20167   6.470   7.130  11.715  0.0512 -0.0648  0.0603
10475W        W20168  13.966  12.195  15.261 -0.0087  0.2267 -0.2212
10476W        W20169   7.118  15.318  15.141 -0.1871 -0.0518  0.0802
10477W        W20170   2.699   7.261  15.451 -0.2475  0.0339  0.0517
10478W        W20171  10.380  11.129   6.481  0.1855  0.0341 -0.1813
10479W        W20172  17.092  13.258   6.668 -0.0167  0.0193 -0.0473
10480W        W20173   4.781   6.136   3.261  0.1414 -0.3499  0.0123
10481W        W20174  16.157  15.943  16.995 -0.1345 -0.0155  0.0524
10482W        W20175  13.847   3.645  16.124 -0.0105 -0.1878  0.0946
10483W        W20176  12.352  16.932   0.212  0.1039  0.3728 -0.0540
10484W        W20177   9.429  16.107  12.479  0.2383 -0.0339 -0.0738
10485W        W20178   9.335  12.787  16.698 -0.2794  0.1171  0.2128
10486W        W20179   5.078  10.151  16.668  0.0621 -0.1938  0.0564
10487W        W20180   9.478   0.084  14.191  0.1243 -0.1073 -0.0295
10488W        W20181   7.229  13.932   2.515  0.0690  0.0187 -0.0864
10489W        W20182   7.995  16.937   4.484 -0.0611  0.1057 -0.2180
10490W        W20183   1.732   4.714   0.162 -0.0219 -0.1895 -0.0635
10491W        W20184  10.762   0.380  16.766  0.0289  0.1118 -0.0731
10492W        W20185  17.449   9.482  14.673 -0.1437  0.1361  0.2004
10493W        W20186   7.821   5.308  12.620 -0.3138  0.1198  0.1353
10494W        W20187   3.060   5.143  14.390  0.1654 -0.1822 -0.0702
10495W        W20188   3.046   4.807  15.400 -0.2260  0.3468 -0.2987
10496W        W20189   4.122   4.538  16.072  0.2441  0.0996 -0.2264
10497W        W20190  17.476   6.576  11.757 -0.2173  0.2264 -0.0201
10498W        W20191   7.010   5.471  15.336  0.2468  0.1056  0.2595
10499W        W20192  17.638   5.844   6.442 -0.3142  0.2081 -0.1352
10500W        W20193   5.079   4.271   5.476 -0.2743  0.0399 -0.1862
10501W        W20194   7.515  14.832   2.242 -0.0028 -0.3787  0.3592
10502W        W20195   1.411  17.057  16.750 -0.0112  0.0882  0.2160
10503W        W20196   3.384   1.497   5.666 -0.0914 -0.1456  0.1783
10504W        W20197  14.693   5.327  14.449  0.1543 -0.0601  0.0757
10505W        W20198   6.964   2.262  17.489 -0.0979 -0.3072 -0.0832
10506W        W20199  15.494   9.301   4.483  0.0524 -0.2075 -0.1983
10507W        W20200   5.702   4.495  16.185  0.2066 -0.2272  0.0631
10508W        W20201  12.257  16.296   5.358  0.0941  0.1180 -0.4955
10509W        W20202  12.084   5.171   1.407 -0.2529 -0.3887 -0.0603
10510W        W20203   0.709   0.626   2.547 -0.1580 -0.1328 -0.1056
10511W        W20204   7.822  13.559  11.661  0.5026 -0.1310  0.2025
10512W        W20205   4.862  11.715  13.611 -0.0440  0.0637  0.0574
10513W        W20206  13.567  12.144   4.871 -0.0415  0.0432 -0.2083
10514W        W20207   3.036   6.982  15.241  0.1332  0.1233  0.1456
10515W        W20208  16.947  16.934  16.018  0.1587  0.0896 -0.0686
10516W        W20209  12.361  13.077   4.475  0.1056 -0.1632  0.1867
10517W        W20210   2.777  10.949  12.794 -0.0196  0.0985  0.0733
10518W        W20211  11.356  10.383   0.150  0.0353 -0.1362 -0.0150
10519W        W20212   0.217   4.836   0.947 -0.0752  0.0016  0.3793
10520W        W20213  10.777  13.717   4.921  0.0608  0.0445 -0.2198
10521W        W20214  13.516   7.447  13.811 -0.0537 -0.1116  0.0269
10522W        W20215   5.116   6.172  11.972 -0.0354 -0.1804  0.0639
10523W        W20216   0.525   4.135  17.484  0.0243  0.1092  0.2089
10524W        W20217   1.758   9.627   1.494 -0.1339  0.3841  0.3236
10525W        W20218   7.087  15.370   0.947 -0.1472  0.1657  0.0447
10526W        W20219  13.174  17.277  16.815  0.0520 -0.2258 -0.1433
10527W        W20220  13.758  11.722  17.427  0.2637  0.0590  0.2094
10528W        W20221  11.443  15.290  14.684 -0.1272 -0.1080 -0.0902
10529W        W20222   0.125   2.275  12.592 -0.1167 -0.3021  0.2888
10530W        W20223   9.930   0.640   2.661 -0.3525  0.2142 -0.1031
10531W        W20224   8.457   9.591   3.440  0.1004  0.0333 -0.0685
10532W        W20225   0.473  15.233   3.536  0.1932 -0.1880 -0.0731
10533W        W20226   7.981   8.937   2.302  0.0573 -0.0639  0.0026
10534W        W20227   7.256  10.406   2.998  0.1055 -0.1150  0.1343
10535W        W20228   0.137  16.505  16.514  0.2153  0.2256 -0.0251
10536W        W20229   1.404   2.648  15.433  0.1437 -0.0797  0.1150
10537W        W20230  14.518   3.693   4.910  0.0457 -0.4698 -0.1713
10538W        W20231  16.234  16.175   1.406  0.1044 -0.0053 -0.0009
10539W        W20232   7.757  10.488   5.419 -0.2048 -0.0422  0.1652
10540W        W20233  10.919   7.957  13.705  0.2277  0.1884 -0.2966
10541W        W20234  11.762  14.316   5.642 -0.1336 -0.0516  0.0419
10542W        W20235  15.140  17.244   0.277  0.1044  0.1190 -0.2272
10543W        W20236   2.331  17.259  16.176 -0.0274  0.0109 -0.0729
10544W        W20237   5.597  13.714  12.805 -0.2216 -0.3763  0.5499
10545W        W20238  14.803  11.595  13.939  0.0425  0.1527 -0.0399
10546W        W20239  12.336   0.003  13.560  0.1299 -0.1676 -0.2647
10547W        W20240  17.284   1.343   4.094 -0.0154  0.0890 -0.0191
10548W        W20241   3.338   1.019   0.887  0.0860 -0.0082  0.3170
10549W        W20242  13.438   7.833  14.165 -0.0702  0.0652 -0.1467
10550W        W20243   9.130  10.320   0.146  0.0890  0.0999  0.0084
10551W        W20244  10.415  15.473  12.135  0.0001  0.1259  0.2815
10552W        W20245   9.314   6.456  12.543 -0.2115 -0.0260  0.1158
10553W        W20246   9.799   7.182   5.491 -0.1610 -0.0356  0.1450
10554W        W20247  14.237  17.134  12.753 -0.2735  0.1632  0.2154
10555W        W20248   6.043  15.617   5.852 -0.0972 -0.0639  0.0808
10556W        W20249  10.702   7.024   1.704  0.1520 -0.2138 -0.1481
10557W        W20250  13.396   4.356  15.912 -0.0627  0.0495 -0.0475
10558W        W20251   3.419   5.504   5.279 -0.0270  0.1752  0.0772
10559W        W20252  14.699   5.793  17.020 -0.0534  0.1769 -0.2528
10560W        W20253  13.641  13.904   4.369 -0.3637  0.1457 -0.0349
10561W        W20254   7.904  10.967   3.721  0.0274 -0.0893  0.1214
10562W        W20255   3.767   7.578   0.706  0.0091  0.0820 -0.0925
10563W        W20256  15.813   5.830   5.586 -0.1060  0.0091 -0.0040
10564W        W20257   4.262   3.222  16.914 -0.1012  0.2923  0.3915
10565W        W20258  10.232  11.571   2.576  0.1562  0.0010 -0.0405
10566W        W20259  16.736   8.192   1.504  0.0583  0.2061 -0.0587
10567W        W20260  14.854  10.285   1.355 -0.2309 -0.1360  0.0249
10568W        W20261  11.643  15.763  15.523 -0.2907 -0.1816 -0.1508
10569W        W20262   5.357   9.629  12.446  0.0625  0.2343 -0.0267
10570W        W20263   5.276   9.004  11.955  0.1643 -0.1133  0.1111
10571W        W20264  16.352   7.344   4.093 -0.2423  0.4054 -0.1479
10572W        W20265   8.351   0.677  15.460 -0.1774  0.3548 -0.1709
10573W        W20266   3.269   1.920   1.407  0.1524  0.2045  0.0398
10574W        W20267   1.103  14.447   0.556  0.0036  0.1413  0.0379
10575W        W20268   4.408  10.963  16.581 -0.1739  0.0987  0.0344
10576W        W20269  12.649   4.840  17.016  0.0518 -0.0876 -0.3158
10577W        W20270  12.828  11.521   4.727 -0.4632  0.0148  0.1103
10578W        W20271   6.427  11.568   5.107  0.0665  0.0217  0.1369
10579W        W20272  16.283  13.471   0.935  0.0726  0.0413  0.2942
10580W        W20273   5.296   9.496  15.028 -0.0456 -0.0928  0.3130
10581W        W20274   1.984   0.764  12.301  0.4296  0.0876 -0.0481
10582W        W20275   8.747  12.345  15.269  0.2316 -0.1375 -0.3076
10583W        W20276   1.720   6.322   1.740 -0.0934  0.0102  0.1129
10584W        W20277   6.189   4.818   0.895  0.1143  0.3394 -0.2824
10585W        W20278  11.097  10.783  11.396  0.1573 -0.0547 -0.0688
10586W        W20279  16.987  10.815  13.078 -0.0529  0.0396 -0.2214
10587W        W20280   8.051  10.580   1.588 -0.2911 -0.0773  0.1267
10588W        W20281   8.742   8.842  14.541 -0.2393  0.0287 -0.3798
10589W        W20282  12.303  12.905  13.211 -0.1733 -0.0281  0.0478
10590W        W20283   4.473  15.910  12.665  0.0567  0.1689  0.1686
10591W        W20284  17.214  11.449  12.510 -0.1611  0.2985  0.1387
10592W        W20285   9.753  13.065  15.081  0.0231 -0.1319 -0.0118
10593W        W20286  10.391   2.797   5.745  0.0912  0.1447  0.0171
10594W        W20287  10.256  15.807  15.307 -0.0770 -0.3939 -0.1273
10595W        W20288  15.693   6.636   1.469 -0.0037  0.2469 -0.3110
10596W        W20289   0.212   6.127   4.931  0.0269  0.1192 -0.1948
10597W        W20290   3.337   4.784  13.102 -0.1263  0.0266 -0.3257
10598W        W20291  13.046   3.038  14.799 -0.1102 -0.3505  0.1501
10599W        W20292  14.613  11.108  13.739  0.0714 -0.2104 -0.1187
10600W        W20293  11.870   8.525   3.662  0.0582 -0.1344  0.0089
10601W        W20294   4.458   5.594  13.431 -0.1508 -0.1335  0.1129
10602W        W20295  12.456  14.285   3.992  0.1033  0.1592  0.1552
10603W        W20296   7.965   9.892  12.250  0.0668 -0.1118  0.1495
10604W        W20297   1.632   8.599   5.626 -0.1165 -0.0661  0.0960
10605W        W20298   5.393  16.317   4.413  0.1765 -0.1335  0.0043
10606W        W20299  10.490   4.292  14.888  0.0984  0.1927  0.1016
10607W        W20300   5.233  15.798   2.134 -0.2229 -0.0577 -0.0321
10608W        W20301   4.308   2.349  11.577  0.2643  0.0172  0.0523
10609W        W20302  12.324  10.469  15.589  0.1377  0.0287 -0.1333
10610W        W20303   8.373   0.956   0.155 -0.1279  0.2247  0.2309
10611W        W20304   9.585   8.473  14.669  0.0627 -0.2666 -0.2236
10612W        W20305   4.682  17.293   2.987 -0.0014  0.2071  0.1669
10613W        W20306   9.965  17.260  14.299  0.3582  0.1093  0.2528
10614W        W20307   2.173   4.498   5.058 -0.0467 -0.1086  0.0228
10615W        W20308   1.188  12.647   2.562 -0.0941 -0.2387 -0.1076
10616W        W20309   4.837  11.573   1.078 -0.1291  0.3419 -0.0432
10617W        W20310  10.435  14.835  15.551 -0.1673  0.1467 -0.1233
10618W        W20311   5.133  15.140   1.393  0.2703  0.1401 -0.0569
10619W        W20312   3.088  11.308   0.843 -0.1568  0.0144 -0.1415
10620W        W20313   4.889  14.437   0.946 -0.3358  0.2972  0.2541
10621W        W20314   2.123   2.888   3.026 -0.0253  0.2497 -0.1054
10622W        W20315   9.841   9.213   3.484  0.2278  0.3498 -0.1935
10623W        W20316   5.861   8.593   3.275 -0.2222 -0.2323 -0.0730
10624W        W20317   5.543   0.094   1.312 -0.1968 -0.2781  0.4326
10625W        W20318   5.108   4.678   3.531  0.0383  0.0044 -0.0139
10626W        W20319   7.195  10.656   0.613  0.1927 -0.0337  0.0873
10627W        W20320   2.705  11.091  17.528  0.0575  0.1123 -0.1204
10628W        W20321   0.629   2.217   3.279 -0.0020 -0.0622  0.1614
10629W        W20322   1.752  16.186   4.732  0.1097 -0.1068  0.2096
10630W        W20323  10.772  14.532   4.174 -0.1597 -0.1316  0.2229
10631W        W20324   8.407   2.191   3.399 -0.0533 -0.0761 -0.1902
10632W        W20325   8.763  10.409  13.276  0.1694  0.1220 -0.2919
10633W        W20326   0.986   9.461   4.333 -0.3151 -0.1251 -0.1616
10634W        W20327   9.800   0.460   6.252 -0.5139 -0.0587 -0.1560
10635W        W20328  15.502  13.451   3.653  0.1580  0.0042 -0.2132
10636W        W20329   8.419   9.398  13.761  0.1187  0.0968  0.0936
10637W        W20330   0.227   8.954   2.689  0.2143  0.2965 -0.1560
10638W        W20331  11.255  14.107  14.038 -0.0296 -0.1873 -0.1775
10639W        W20332  17.581   5.357   3.828 -0.1576  0.2387 -0.6147
10640W        W20333  16.361   8.503   1.280 -0.2299 -0.0195  0.0685
10641W        W20334  11.224   5.856   1.040 -0.3243 -0.0251 -0.0083
10642W        W20335   9.576  14.094   0.457  0.1019 -0.0669  0.1699
10643W        W20336   2.928  11.466   1.875 -0.1460  0.1974  0.0855
10644W        W20337   2.281  14.541  15.511 -0.0689 -0.3040  0.0271
10645W        W20338   3.677  14.410   5.424  0.0358 -0.1703 -0.3249
10646W        W20339   0.008  15.236  16.568 -0.2617  0.0639 -0.2246
10647W        W20340   1.025  10.871  13.591 -0.3549 -0.0235 -0.1646
10648W        W20341   5.641  16.061  14.991 -0.0566 -0.0082 -0.3834
10649W        W20342   5.681   7.708  12.867  0.1450  0.1422  0.0346
10650W        W20343  14.343   1.908   5.473  0.1900  0.0107 -0.0128
10651W        W20344   7.423  15.390   6.100  0.0319  0.0797 -0.1633
10652W        W20345   6.815  14.683  17.658  0.0240  0.2563 -0.1616
10653W        W20346  11.588  11.089   5.726  0.2640 -0.2057  0.0461
10654W        W20347   6.791  16.127   4.511  0.1131 -0.1188  0.2638
10655W        W20348  13.488   2.088  14.130 -0.0891 -0.0112 -0.5165
10656W        W20349  17.169  10.990   0.457 -0.1954  0.0929  0.0294
10657W        W20350   5.620  15.038   0.608  0.0229 -0.0530  0.1480
10658W        W20351  11.993   4.370  15.887  0.1788  0.0499  0.0108
10659W        W20352  15.032   6.112  11.296 -0.3399 -0.1906  0.1710
10660W        W20353   6.379   8.401   2.927  0.1441 -0.1123 -0.4090
10661W        W20354   7.672  11.514  17.576 -0.1126 -0.1227 -0.2466
10662W        W20355  15.438   4.798  13.172 -0.2160 -0.0033 -0.3046
10663W        W20356   1.128  13.117  13.139 -0.4039  0.0270  0.2083
10664W        W20357  16.172   1.752   4.838 -0.2098 -0.0971 -0.1387
10665W        W20358   2.589  12.445  13.085  0.1915  0.3144  0.2488
10666W        W20359  15.302  17.020  16.237 -0.0134 -0.2847  0.2975
10667W        W20360  10.969   7.900  15.855  0.2542 -0.1499 -0.0503
10668W        W20361  15.151   5.327   2.211  0.2888  0.0800 -0.0835
10669W        W20362   2.367  10.438  14.742  0.0740 -0.1015  0.0897
10670W        W20363  16.604  16.124   0.189  0.1347  0.3226 -0.0699
10671W        W20364  10.110  12.012   6.283 -0.0076 -0.0330  0.0188
10672W        W20365   0.814   2.341   4.844 -0.2184  0.1380  0.1935
10673W        W20366  12.271   7.895  15.314  0.0123  0.1838 -0.0438
10674W        W20367   3.692  15.509   3.323  0.1996  0.0999  0.1494
10675W        W20368  16.320  11.249   6.481  0.5448  0.1039 -0.0095
10676W        W20369  12.166  10.504  16.070  0.1306  0.1905  0.4096
10677W        W20370  15.694   4.774   0.123 -0.0619  0.2303  0.6213
10678W        W20371   4.123   6.828   5.692 -0.1166 -0.0619  0.2868
10679W        W20372   1.154   8.249   4.067 -0.0328  0.3094  0.0697
10680W        W20373  14.433   4.645   4.698 -0.1831  0.0695 -0.3110
10681W        W20374   6.462  11.141  13.735 -0.0419  0.0281  0.0626
10682W        W20375  15.538  11.324  13.410  0.0659  0.1387  0.1524
10683W        W20376   5.886  16.440   5.216  0.2239  0.0865  0.4201
10684W        W20377  16.696   3.816   5.851  0.3023 -0.1965 -0.1029
10685W        W20378  13.751  17.266  14.854  0.0328 -0.0274 -0.0717
10686W        W20379  15.445  12.658  13.809 -0.1359 -0.0381 -0.0083
10687W        W20380  11.320   2.566  14.778 -0.0336  0.1455 -0.0090
10688W        W20381   2.398  15.940   1.897 -0.1660  0.1305 -0.0146
10689W        W20382  15.339  13.623  15.550 -0.0136  0.3649 -0.2199
10690W        W20383  14.221   0.069  13.495 -0.0169  0.0051 -0.2114
10691W        W20384   7.330  11.105   0.429 -0.2966 -0.3118 -0.0936
10692W        W20385  15.765   4.999  14.716 -0.0235  0.1051 -0.2263
10693W        W20386  15.582   5.498  16.557  0.0695 -0.0943  0.2349
10694W        W20387   6.448  10.030   1.253 -0.3013  0.0871  0.0921
10695W        W20388   5.620   0.343  17.678  0.4608 -0.0909 -0.1474
10696W        W20389   1.544   8.680   1.725  0.0960  0.1365 -0.2122
10697W        W20390   6.328  16.542   5.464 -0.1904 -0.0305  0.1209
10698W        W20391  12.568   4.804  13.359 -0.0304  0.1402  0.0929
10699W        W20392   3.245   4.312  13.798 -0.0821  0.3034 -0.0389
10700W        W20393   9.473  17.204   5.556 -0.3124  0.0509 -0.0173
10701W        W20394  17.350  17.171   3.518  0.0026 -0.1654  0.3517
10702W        W20395   1.110   5.821  15.946 -0.1580  0.0560 -0.1447
10703W        W20396  11.330  12.414   2.218  0.4254  0.1266  0.0490
10704W        W20397   1.681  11.649  15.542 -0.0122 -0.1155 -0.1520
10705W        W20398  11.635  14.265   3.314  0.0165  0.1161  0.1607
10706W        W20399   9.104   9.029  17.309 -0.0039  0.1573 -0.1165
10707W        W20400   1.618   3.213  17.666 -0.0673  0.2611 -0.0310
10708W        W20401  16.108   2.013   3.074 -0.1067 -0.2258 -0.3320
10709W        W20402   6.050   8.203   1.660 -0.1287 -0.1316 -0.0695
10710W        W20403  10.608  11.681  16.079  0.1054  0.2157  0.2438
10711W        W20404   5.320  17.568   3.624 -0.0178  0.0786 -0.1439
10712W        W20405  10.196   4.305  14.465  0.4070 -0.1133 -0.0735
10713W        W20406  13.845  16.460  14.760 -0.0869 -0.3529 -0.0840
10714W        W20407   2.920  12.258  12.251 -0.0277 -0.0459  0.1964
10715W        W20408   9.350  16.421  17.436  0.2665 -0.2963  0.0379
10716W        W20409   5.344   8.747   1.449  0.1222  0.0594 -0.1487
10717W        W20410  10.596   4.162   1.678  0.2219 -0.1354  0.1606
10718W        W20411   4.433  11.869  16.605 -0.0360 -0.0363  0.1953
10719W        W20412   9.905  11.881   5.249  0.1035  0.0274  0.4968
10720W        W20413   1.022   3.354   0.413 -0.1395  0.1939  0.0519
10721W        W20414  12.655   6.595  14.421 -0.1808 -0.5223 -0.0256
10722W        W20415  15.653  11.027  17.484 -0.4696  0.0115  0.1071
10723W        W20416   9.055   8.537  14.939  0.0343  0.3389 -0.1143
10724W        W20417  10.161  17.648   5.936 -0.0385  0.3382 -0.0282
10725W        W20418   6.087   4.875   2.327  0.1467  0.1345  0.1345
10726W        W20419   7.485   3.810   0.497  0.0325  0.2255  0.0316
10727W        W20420  14.140   9.314   4.719 -0.3531  0.0121 -0.1666
10728W        W20421   0.439  10.065   5.289  0.1943  0.0315 -0.1935
10729W        W20422  12.997  17.603   2.144 -0.1891  0.0357  0.0238
10730W        W20423  10.629   0.177   3.894 -0.0941 -0.0599 -0.2781
10731W        W20424   1.481   5.638   6.489 -0.1583 -0.1189  0.0384
10732W        W20425   3.558   7.064  16.504  0.0537 -0.0894  0.0640
10733W        W20426   9.135   5.997  17.577  0.2370  0.1839  0.0462
10734W        W20427  16.647   6.738   1.454  0.0741  0.1045  0.0921
10735W        W20428  17.419   2.122  17.209 -0.2995  0.2497 -0.0013
10736W        W20429  10.811  11.095  12.864  0.0719 -0.1094  0.1105
10737W        W20430  12.523   3.204  14.595  0.3130 -0.0185 -0.0053
10738W        W20431  12.195   8.909   0.067  0.0671 -0.1763 -0.1090
10739W        W20432   6.935   5.314   1.838 -0.1417  0.0599 -0.0595
10740W        W20433  12.283  17.278   3.807 -0.0715  0.1233  0.0161
10741W        W20434   0.925  13.837   2.617  0.1823 -0.0580  0.1730
10742W        W20435   2.217   5.716  14.719 -0.2793 -0.1538  0.3238
10743W        W20436   7.480  12.793  14.828 -0.2316  0.1361  0.1040
10744W        W20437  11.868   4.342  15.006  0.2011  0.0866  0.0462
10745W        W20438   6.705   7.326   3.787  0.4687  0.2713  0.1657
10746W        W20439  12.911  10.333   2.487 -0.0305  0.3731  0.2742
10747W        W20440   0.783   7.107  11.971  0.1521  0.0600  0.0263
10748W        W20441   8.760   2.818   0.241 -0.1772  0.1528  0.0279
10749W        W20442   0.164   6.293   2.825  0.0076 -0.1888 -0.2051
10750W        W20443   2.150  11.586   2.838 -0.2195 -0.1196 -0.1164
10751W        W20444   4.332  13.741   2.383 -0.0138  0.0706  0.1437
10752W        W20445   5.310  10.481   4.839  0.2509  0.0514 -0.2095
10753W        W20446   5.502   9.113  14.769  0.2609  0.0755  0.0509
10754W        W20447   1.250  12.439   5.228 -0.1398 -0.1169 -0.1646
10755W        W20448   2.663   4.292   1.935  0.0120  0.2594  0.1270
10756W        W20449   6.888   8.823  13.825 -0.1542 -0.1428 -0.0860
10757W        W20450   8.544   4.131   2.506 -0.2694  0.0393  0.1054
10758W        W20451   8.928  10.232  16.810 -0.0898  0.3246 -0.0420
10759W        W20452  10.003  14.795   5.593 -0.2530  0.0585 -0.1764
10760W        W20453   9.637  14.273  16.276  0.1289 -0.1092 -0.0630
10761W        W20454   0.819   6.866   0.091  0.1666 -0.0854 -0.0952
10762W        W20455  14.694   1.026   0.065  0.0221 -0.0118 -0.2055
10763W        W20456  15.538   7.951  14.938 -0.0232 -0.2022 -0.1059
10764W        W20457   8.248   5.503  11.818 -0.1575 -0.3479 -0.0722
10765W        W20458   5.180  14.279   4.794  0.0344  0.1117 -0.0595
10766W        W20459   2.694  13.874  13.434  0.1590 -0.0845  0.1441
10767W        W20460   2.007  14.888  12.016 -0.2178 -0.0465  0.0271
10768W        W20461   9.315   9.824  15.765 -0.0690  0.1192  0.0107
10769W        W20462   6.251   1.814  10.776 -0.3129 -0.2361  0.1817
10770W        W20463   5.119  17.379   1.486 -0.0746  0.0538 -0.0367
10771W        W20464   2.462  14.825  14.086 -0.1655  0.0806 -0.0585
10772W        W20465   7.892   4.057   0.974 -0.1706 -0.0068  0.1453
10773W        W20466   3.765  14.947   5.206  0.0594 -0.0675  0.0151
10774W        W20467   8.742  17.264   1.405 -0.0641 -0.0254  0.0196
10775W        W20468   4.002  15.624  15.356  0.2456 -0.1638  0.0596
10776W        W20469  12.236   9.277  11.775 -0.2339 -0.2697 -0.0595
10777W        W20470   8.251   1.113   1.149  0.1464  0.2346 -0.1613
10778W        W20471  11.941   8.846  13.659 -0.1335 -0.0359 -0.2364
10779W        W20472   6.237  16.245   1.953  0.0015 -0.2656  0.2947
10780W        W20473   5.298   8.142  16.311  0.4553  0.0543  0.4749
10781W        W20474   4.837  15.344  13.993 -0.2611  0.2131 -0.2103
10782W        W20475   7.116  11.808  13.124 -0.3258  0.1676 -0.2112
10783W        W20476   6.181  16.053   6.274 -0.0177 -0.2095 -0.2522
10784W        W20477  16.099  13.384  13.198  0.1565  0.2664  0.0365
10785W        W20478  15.196  15.575   4.621  0.0546  0.2514 -0.1812
10786W        W20479  16.894   2.585   1.841  0.1047 -0.2248  0.1065
10787W        W20480   1.362  14.614  15.907 -0.0210 -0.1324 -0.0228
10788W        W20481   7.315   1.500  17.126 -0.0790  0.1092 -0.0578
10789W        W20482   1.718   0.737  14.028 -0.1148 -0.0811 -0.3486
10790W        W20483   8.774  12.063  13.495  0.2209  0.0167 -0.0289
10791W        W20484  14.288  17.246   2.705  0.2643 -0.1145 -0.2999
10792W        W20485  11.177  11.869   6.653  0.3368 -0.3620  0.0198
10793W        W20486  16.180   4.723  17.070 -0.0224 -0.0838  0.0870
10794W        W20487   1.733  11.211  11.509  0.1601 -0.1560 -0.4890
10795W        W20488  15.704  10.643  11.575 -0.1142  0.0352  0.3767
10796W        W20489  10.635   8.707  15.855  0.0880  0.0764 -0.1235
10797W        W20490  13.682   1.400   4.096  0.1767  0.1704  0.0041
10798W        W20491   8.638  10.985   4.481 -0.1534  0.0635  0.4226
10799W        W20492   5.090  15.301  12.787 -0.0563  0.0738  0.0556
10800W        W20493  13.072  10.595   6.328  0.4175  0.0054  0.0066
10801W        W20494   7.278  11.160   4.938  0.1369  0.1737  0.1178
10802W        W20495   5.454  15.824   4.316 -0.3069  0.0648  0.2562
10803W        W20496  10.695  12.064  12.943 -0.1031 -0.1266  0.0509
10804W        W20497  14.076   2.095  15.434  0.0081 -0.0873  0.0127
10805W        W20498   2.543  10.982   5.115 -0.2185 -0.1566  0.2838
10806W        W20499  11.980   6.123   3.606 -0.2182 -0.0947  0.1715
10807W        W20500  12.357  14.688   1.242  0.0589  0.1534  0.0046
10808W        W20501  17.010  15.754  17.071  0.1621  0.1610  0.0083
10809W        W20502  10.544  12.053   3.829 -0.1440  0.0409  0.0017
10810W        W20503   1.099   2.827  14.022 -0.0787 -0.0999  0.0047
10811W        W20504   4.964   6.738  16.774 -0.0702  0.0989  0.2964
10812W        W20505   8.371   5.008  12.650 -0.1128  0.0685 -0.0033
10813W        W20506  13.381  17.485   0.344 -0.2832 -0.0022 -0.1691
10814W        W20507   4.727   8.009   5.610 -0.1171 -0.1752  0.2732
10815W        W20508  13.460  12.790  12.029  0.0514  0.3183  0.0323
10816W        W20509   8.035   9.590  14.039 -0.0345  0.0557 -0.2434
10817W        W20510   4.899   6.305  13.433 -0.0952  0.4690  0.1897
10818W        W20511  12.447  10.701  12.428 -0.0757 -0.1097 -0.0454
10819W        W20512  13.861   0.545  11.990  0.0573 -0.1450  0.0767
10820W        W20513   1.067   7.415   0.306  0.1927 -0.2258  0.0953
10821W        W20514  14.647  15.952   3.055 -0.0022  0.1733 -0.0570
10822W        W20515   7.159   5.872  16.080  0.3875  0.3704  0.2053
10823W        W20516   5.545   8.743   0.466  0.2777 -0.1473 -0.0393
10824W        W20517  11.640  17.618   4.128  0.3474 -0.3028 -0.1345
10825W        W20518   5.067   5.590   5.394  0.0118  0.0086  0.2252
10826W        W20519   1.825  15.913  15.936  0.0242  0.2316 -0.2051
10827W        W20520  12.924   0.822   2.709  0.1207  0.0940  0.3881
10828W        W20521   0.917   1.968  13.927 -0.2743  0.2949  0.1266
10829W        W20522   5.132  15.971  13.350  0.3637  0.0613 -0.0905
10830W        W20523   3.059  13.961   5.371 -0.1740 -0.0866 -0.1344
10831W        W20524  17.347   4.741  13.181 -0.1875 -0.2549  0.2841
10832W        W20525   1.333   4.196  15.354  0.2350  0.0960 -0.3348
10833W        W20526   2.777   8.898   0.370 -0.0169 -0.1969  0.0912
10834W        W20527  16.555  16.516  13.828  0.2610  0.2102  0.0238
10835W        W20528   7.994  15.721  13.195 -0.1143  0.1465  0.1994
10836W        W20529  11.398   9.877  15.856  0.2971 -0.1417  0.3855
10837W        W20530   9.849   1.767  11.826  0.1596 -0.1325 -0.0594
10838W        W20531   9.207  17.184  16.536  0.0070  0.1266  0.1958
10839W        W20532   4.350   3.622   5.767 -0.0906 -0.1992  0.1814
10840W        W20533  16.583   0.747  17.547  0.0691  0.0964 -0.2125
10841W        W20534   9.374  13.528   0.223 -0.1549 -0.1137  0.1335
10842W        W20535  12.493  13.399  14.568 -0.1655  0.1588  0.0023
10843W        W20536  14.394   8.230   3.955  0.3182  0.1584  0.2193
10844W        W20537  16.034  14.108   2.627 -0.2461 -0.2451  0.3682
10845W        W20538  10.601   3.685   5.826 -0.1248  0.3952  0.1798
10846W        W20539  11.879  13.417   0.019 -0.1515 -0.0108 -0.3005
10847W        W20540  13.616  15.720  17.135  0.1258 -0.0473  0.3540
10848W        W20541  14.555  11.896  14.176  0.0267 -0.3468  0.0574
10849W        W20542   1.294  13.630   2.967 -0.2216  0.2827  0.4287
10850W        W20543   3.268   9.487   5.581  0.0310 -0.0817 -0.0832
10851W        W20544   7.302   7.730  15.726  0.1952  0.1542 -0.1598
10852W        W20545   1.707   3.113  14.667  0.1314 -0.0910 -0.0466
10853W        W20546   6.145   6.060   0.163  0.1316 -0.5461  0.1391
10854W        W20547   8.605   5.521   1.385  0.2800  0.1069  0.3606
10855W        W20548  10.775  14.795   0.093  0.0757 -0.2462  0.2060
10856W        W20549   6.015  15.664   3.124  0.0495  0.1915  0.3179
10857W        W20550  15.065  16.420   6.034 -0.0949 -0.0220 -0.0058
10858W        W20551  16.615   4.529  17.188  0.1613  0.1392  0.1844
10859W        W20552   0.177   9.547   0.725  0.3074 -0.1508 -0.2784
10860W        W20553  12.227   8.334  16.372 -0.4229  0.2977 -0.2933
10861W        W20554   5.033   2.583   3.038  0.7714  0.1644  0.1029
10862W        W20555   4.636  11.316   5.614  0.2941  0.1928  0.1413
10863W        W20556  16.331   7.053   5.424 -0.0075  0.0763  0.2105
10864W        W20557   7.037   7.483  15.301  0.0221 -0.0556 -0.2950
10865W        W20558   6.340  13.266   7.076 -0.2853 -0.0245  0.0487
10866W        W20559  15.926  10.653  14.384  0.0517 -0.0077  0.2029
10867W        W20560  10.154  10.005  14.748 -0.2798 -0.2610  0.3142
10868W        W20561   1.971   9.104   1.995  0.0997  0.0265  0.2195
10869W        W20562   4.792   0.620   4.988  0.0960 -0.0171 -0.2098
10870W        W20563   0.695  13.216  14.083  0.1971 -0.0700 -0.1674
10871W        W20564   4.074   1.546  17.429  0.1296 -0.1400 -0.0216
10872W        W20565   2.620  12.577   6.205 -0.0260 -0.1969 -0.1498
10873W        W20566   2.062  14.337   2.394 -0.0293  0.2920 -0.0369
10874W        W20567  15.554  14.627  12.783 -0.2662  0.0645 -0.2550
10875W        W20568   4.368  12.321   2.182  0.0278  0.1568 -0.1354
10876W        W20569  15.650  14.385   5.656  0.0140 -0.2866 -0.3686
10877W        W20570   2.002  11.109  11.993  0.2556  0.2501  0.1001
10878W        W20571  10.811   3.668   4.904 -0.1147 -0.2723  0.0074
10879W        W20572   5.926   2.269  12.697  0.3170 -0.1609  0.2336
10880W        W20573  12.246  10.761   5.072 -0.1894 -0.2277  0.0046
10881W        W20574  10.344   3.866   4.625 -0.1081 -0.1129  0.2915
10882W        W20575  16.657   4.441   4.562 -0.0589  0.0147  0.2352
10883W        W20576   8.781   7.855  14.738 -0.1968  0.0213 -0.1293
10884W        W20577  16.190   9.507   6.456  0.0863 -0.3191  0.2899
10885W        W20578   8.095   0.383  15.083  0.0150  0.1016 -0.2191
10886W        W20579  12.798   5.132   0.345 -0.3632 -0.2051  0.1269
10887W        W20580  16.519  13.407   4.222  0.0163  0.0347  0.0428
10888W        W20581  17.466   0.031   3.682 -0.1642 -0.2382  0.2212
10889W        W20582   9.470  14.630  14.374  0.0297  0.0612 -0.1101
10890W        W20583   8.095   1.272  16.665 -0.0322  0.0673  0.0122
10891W        W20584   5.651   4.453  12.958 -0.3550  0.0475 -0.2634
10892W        W20585  12.465   0.249   0.417 -0.2545 -0.3018 -0.2867
10893W        W20586   7.939   2.583  15.032  0.1325  0.2398 -0.0813
10894W        W20587  16.477   5.350  17.558 -0.0298 -0.0685  0.1509
10895W        W20588  10.910   6.097   5.493  0.0476 -0.1118 -0.1254
10896W        W20589   9.997  11.606   5.807  0.0892  0.1757  0.2384
10897W        W20590   2.924   7.659   3.918  0.2133 -0.1789  0.0170
10898W        W20591   3.743  15.743   5.079 -0.1165 -0.0680  0.2326
10899W        W20592  12.744  13.073   6.361 -0.1400 -0.2098  0.2094
10900W        W20593   2.676   5.757  13.641  0.0506  0.0895 -0.0266
10901W        W20594   3.166   2.755   0.904 -0.0571  0.1500 -0.1526
10902W        W20595  15.939  14.572   3.547  0.1155  0.4298  0.3964
10903W        W20596   6.315   7.055   2.636  0.1249 -0.1636 -0.2302
10904W        W20597   0.895  11.516   4.906  0.1446 -0.1651 -0.1026
10905W        W20598  12.514   1.594   2.939  0.3328 -0.2326 -0.4023
10906W        W20599  15.512  11.366  12.300 -0.0518  0.2837  0.3591
10907W        W20600   7.826   6.922   4.121  0.1600 -0.1507 -0.3776
10908W        W20601  16.235  12.109   4.863 -0.5141  0.1405 -0.0177
10909W        W20602  17.422  12.310   4.000 -0.2667 -0.0568  0.0062
10910W        W20603  14.516   8.023   6.851 -0.0601 -0.1583  0.0697
10911W        W20604   8.041  14.791   4.963 -0.2819  0.4013  0.2113
10912W        W20605   4.066   1.099   4.749 -0.2880 -0.3350 -0.1953
10913W        W20606  15.641   7.629   1.807 -0.0617  0.0462 -0.2474
10914W        W20607  17.058   0.204   2.387 -0.2671 -0.0390 -0.4403
10915W        W20608   1.041  13.263   0.729 -0.0445  0.2798  0.2647
10916W        W20609  11.648   1.215  13.181 -0.2095 -0.0058 -0.0086
10917W        W20610  10.245   0.316   1.922 -0.0185 -0.1862  0.2298
10918W        W20611   1.068  12.831  16.726 -0.1037 -0.1195 -0.0562
10919W        W20612  11.180   0.290  13.523 -0.0347 -0.1518  0.0098
10920W        W20613   6.358   9.137  16.856 -0.0443 -0.0143 -0.0388
10921W        W20614  10.578   6.053   3.817  0.1971 -0.1228  0.0394
10922W        W20615   1.476  15.132  17.584  0.3937  0.0113 -0.1059
10923W        W20616   1.777   2.828  15.125 -0.1590  0.0431  0.1090
10924W        W20617  13.789   1.533  12.961  0.3686 -0.0125  0.0562
10925W        W20618   6.411  10.138   5.565 -0.1267  0.0183  0.0146
10926W        W20619  16.082   6.843   1.260 -0.3575 -0.2476 -0.2308
10927W        W20620   6.231   1.023  17.294 -0.2566 -0.2052 -0.0322
10928W        W20621   2.034  16.406   0.729  0.3725 -0.2959 -0.0308
10929W        W20622   7.653  16.780  13.623  0.2260  0.3160  0.2760
10930W        W20623   6.685   0.561   6.085  0.0665  0.2073  0.1453
10931W        W20624  16.143   0.859  12.015 -0.2210  0.1134  0.0257
10932W        W20625   5.760   0.805   6.256  0.0478  0.0520  0.2847
10933W        W20626   6.166  11.972  17.509  0.0234 -0.2400  0.0223
10934W        W20627  10.596   2.603  12.894  0.0320 -0.4804  0.1190
10935W        W20628   3.589   8.975   5.260  0.0200 -0.2724  0.4091
10936W        W20629   4.229   4.130   5.620  0.2148  0.0034 -0.2358
10937W        W20630  14.926  10.375  17.646 -0.0519  0.0602 -0.3262
10938W        W20631  11.595   1.158   3.455  0.1608 -0.2302  0.1670
10939W        W20632  12.838  13.576  13.324  0.3730 -0.1148  0.2006
10940W        W20633   5.157  15.182   3.056  0.3200 -0.1839  0.3807
10941W        W20634  10.290   9.023  12.369 -0.1466  0.2219 -0.2414
10942W        W20635  13.749   1.215  16.155 -0.0395  0.0207 -0.0189
10943W        W20636   9.717  10.039  14.345 -0.1028  0.2993 -0.0153
10944W        W20637   6.488  11.618   5.899 -0.0171 -0.4377 -0.1304
10945W        W20638  14.591  14.974  11.840 -0.0687 -0.0544  0.2043
10946W        W20639  13.687  16.015   5.738 -0.0442  0.0484  0.1301
10947W        W20640   2.794   2.143  14.935 -0.0448 -0.0780  0.1177
10948W        W20641   7.311   2.735   4.521 -0.0774  0.2984  0.0707
10949W        W20642  12.742  11.022   6.220  0.1887 -0.0261 -0.3288
10950W        W20643   1.653  15.374   4.907 -0.2518 -0.0135  0.3443
10951W        W20644   1.111  15.094  11.801  0.2161 -0.0175 -0.3203
10952W        W20645  15.722   5.056  16.335 -0.1663  0.0783 -0.2784
10953W        W20646   4.987   6.542   4.411 -0.0457  0.1603 -0.2154
10954W        W20647  16.141   4.318   1.386  0.2116  0.1857 -0.2049
10955W        W20648   1.812  16.071   0.426 -0.1797 -0.4409  0.1697
10956W        W20649   0.148  12.222  12.732  0.1499 -0.2148 -0.1783
10957W        W20650   6.531  11.489   3.264 -0.0542 -0.0060 -0.1565
10958W        W20651  15.443  17.324   1.272 -0.0333  0.2654 -0.1449
10959W        W20652   2.580  10.652  14.327  0.1957  0.1769 -0.0041
10960W        W20653  15.684   8.831   2.097  0.3128 -0.2315 -0.1048
10961W        W20654   4.608   0.725   2.443  0.0570  0.1682  0.1223
10962W        W20655   9.655   3.719  14.985 -0.4882  0.2532 -0.0220
10963W        W20656   8.489   4.563  12.421 -0.3626  0.1373 -0.1496
10964W        W20657  15.358  15.199   2.003 -0.1130  0.0481 -0.1106
10965W        W20658  11.521   7.346   5.390  0.1864 -0.1594 -0.0655
10966W        W20659   8.882   5.624   2.752 -0.1317 -0.1313 -0.3698
10967W        W20660  12.567  15.351   0.379 -0.1373  0.2057  0.0012
10968W        W20661  10.713   3.403  12.142 -0.1226 -0.0996  0.1478
10969W        W20662  13.695  17.425  12.043 -0.1319  0.2860 -0.1480
10970W        W20663   5.972   8.536  11.936 -0.2461 -0.1414 -0.1026
10971W        W20664   2.090   0.585  16.486  0.0357 -0.0664 -0.1348
10972W        W20665   1.460  12.272  11.937 -0.0517  0.3802 -0.3629
10973W        W20666  12.688   2.534   5.766 -0.0395  0.3266 -0.2114
10974W        W20667  17.259  10.606   2.713 -0.1001  0.0360  0.2133
10975W        W20668  14.835   8.905  16.896 -0.2315  0.1227  0.1976
10976W        W20669   2.889   9.044  16.303  0.3232  0.2438  0.0641
10977W        W20670  12.364   4.189   0.570 -0.4673  0.1233  0.3444
10978W        W20671  16.817   1.573  17.061  0.1754  0.0991 -0.0417
10979W        W20672  13.365  11.483  15.280  0.0369  0.0153  0.2311
10980W        W20673   9.642   3.436  15.689 -0.1373 -0.0283  0.0947
10981W        W20674  11.595   4.569   5.105 -0.1337  0.0898  0.0116
10982W        W20675   1.882  10.136   1.318  0.1454 -0.2581  0.3364
10983W        W20676  13.473  14.739  13.489 -0.2062 -0.6147 -0.0165
10984W        W20677   7.732  16.092  12.861  0.0555  0.1168  0.0680
10985W        W20678  15.178  16.847  12.597 -0.2247  0.2946  0.2165
10986W        W20679   9.604   4.665   0.516  0.0182 -0.2313  0.1367
10987W        W20680  13.285  12.218  14.527 -0.0273  0.1224  0.3023
10988W        W20681   3.769  11.353  13.901  0.1493  0.3823  0.1190
10989W        W20682   6.429   4.216  14.934 -0.0515 -0.1519 -0.0169
10990W        W20683  11.619  11.746  14.061  0.1189  0.0703 -0.2804
10991W        W20684  15.365   5.737   0.096  0.0562  0.1050  0.2541
10992W        W20685  15.079  11.069   1.940  0.3102 -0.2383 -0.1116
10993W        W20686   4.820   5.251  17.530  0.3587  0.2327 -0.1832
10994W        W20687   7.818  15.944   0.010 -0.1389 -0.1264  0.1133
10995W        W20688   9.642  13.782   6.437 -0.0411  0.1848  0.1250
10996W        W20689  13.533   1.902   1.080  0.2054 -0.1301 -0.0955
10997W        W20690  12.712   8.941  13.828 -0.0839  0.0592 -0.1466
10998W        W20691  12.877  17.045   1.470 -0.0227  0.1997  0.0060
10999W        W20692   8.625   5.144   4.178  0.1767 -0.1757  0.1005
11000W        W20693  12.602   2.332  14.344 -0.1174  0.0430 -0.1140
11001W        W20694  11.070  11.465   6.316 -0.1481 -0.1345  0.1564
11002W        W20695  16.107  13.048  13.579 -0.1300  0.0260  0.0682
11003W        W20696   3.446   7.888  12.727  0.1131  0.1502 -0.0222
11004W        W20697  14.708   4.237  14.287 -0.3795  0.0885 -0.2826
11005W        W20698  17.370  15.701  16.721  0.0915  0.0527  0.1833
11006W        W20699   0.890   5.682  15.163  0.0414  0.1285 -0.2255
11007W        W20700   5.716   6.768   5.679 -0.1698  0.0891 -0.0796
11008W        W20701   4.504  10.691   3.558  0.0105 -0.0992 -0.0549
11009W        W20702   9.973  10.067  17.597 -0.0223  0.1332 -0.0512
11010W        W20703   2.244   6.342   4.086 -0.1879  0.0476 -0.0622
11011W        W20704  15.928  17.315   1.564  0.2715  0.0995  0.1608
11012W        W20705   4.872  10.383   4.361 -0.2371 -0.0397  0.2652
11013W        W20706  11.482   4.346  12.872 -0.2896 -0.2130  0.3407
11014W        W20707  14.040  13.646   5.829 -0.1818  0.1329 -0.4049
11015W        W20708   9.244  14.452  15.878  0.0524 -0.0107 -0.2263
11016W        W20709   9.235  11.541   3.670  0.0625  0.1640 -0.1534
11017W        W20710   5.054   7.026  14.285 -0.0037  0.1984  0.0553
11018W        W20711   1.525   9.993   0.231 -0.0569 -0.1785 -0.1121
11019W        W20712  12.082  16.932  12.293  0.0533 -0.2829 -0.3475
11020W        W20713  11.669  11.828  15.463  0.1048  0.0990 -0.0709
11021W        W20714   5.750  10.901  13.008 -0.0018 -0.1020 -0.1520
11022W        W20715  14.702  16.104   1.706  0.1224  0.1666  0.0605
11023W        W20716   2.729   3.378  15.695  0.1708 -0.1060  0.0543
11024W        W20717   6.550   8.590  13.404 -0.0014  0.0625  0.2901
11025W        W20718  15.474  10.330  14.560  0.0541  0.0984  0.3742
11026W        W20719   1.365  15.434  16.650  0.0604  0.1380 -0.2947
11027W        W20720  11.060  12.932   2.098  0.1364  0.0516  0.0255
11028W        W20721  12.890   2.265   1.802 -0.0961 -0.0100  0.1254
11029W        W20722  16.999   9.616  14.825  0.1341 -0.0092 -0.2217
11030W        W20723   4.261   7.698   3.031  0.2221 -0.3047 -0.2848
11031W        W20724   1.073   7.637   4.376 -0.0307  0.4177 -0.0665
11032W        W20725   9.986  11.459   1.663 -0.0456 -0.1434  0.0057
11033W        W20726  14.878  13.293  11.325 -0.2484 -0.1949  0.0551
11034W        W20727   1.472   8.084   1.573  0.0660 -0.1122 -0.1151
11035W        W20728   9.961   1.372  15.273 -0.0282 -0.2377  0.0454
11036W        W20729   7.423  10.951   2.221  0.2165  0.0487  0.0324
11037W        W20730  15.111  13.971  15.917 -0.2504 -0.2868  0.1265
11038W        W20731  16.282   9.749  15.976  0.4254 -0.3275 -0.0338
11039W        W20732  10.269  15.530   2.351  0.1025 -0.0719  0.4376
11040W        W20733   1.723  12.416   3.335 -0.0542  0.0848 -0.1100
11041W        W20734  10.027   5.691   1.929  0.0304 -0.1908  0.2060
11042W        W20735  15.265   5.058  17.154  0.1430 -0.0231  0.1202
11043W        W20736   6.469   4.226   5.083  0.1566  0.0507  0.1051
11044W        W20737   8.836   9.188   4.456 -0.3256  0.0502 -0.0753
11045W        W20738  14.625   9.303   0.044 -0.1113  0.1242  0.3189
11046W        W20739   6.673   1.735   2.920  0.0887 -0.0938  0.1426
11047W        W20740   5.293  14.623   6.716  0.0009 -0.0560  0.1060
11048W        W20741   9.485  11.370   5.962  0.0993 -0.1947  0.1774
11049W        W20742   3.217   1.482   2.166 -0.0954  0.0143 -0.0378
11050W        W20743   6.340  13.185  16.340  0.0871  0.1791 -0.2055
11051W        W20744   6.382   3.257  15.839  0.6924  0.0289  0.0949
11052W        W20745  14.294   8.164   3.390  0.1932  0.0139 -0.0781
11053W        W20746  11.607   5.391   3.216 -0.1387  0.1454  0.0415
11054W        W20747   4.766   6.152   0.351 -0.1144  0.0615 -0.0467
11055W        W20748  17.220   1.592   3.667 -0.0422 -0.0333 -0.0017
11056W        W20749   2.524   9.582  14.305 -0.2117 -0.1027 -0.1682
11057W        W20750  10.365  14.909  14.738 -0.0635 -0.1724 -0.0577
11058W        W20751   1.720  10.418   5.488  0.0169  0.0131  0.0020
11059W        W20752  14.829   3.870  13.714  0.0068  0.0556  0.0505
11060W        W20753  16.026   7.024  14.549  0.1348  0.1271  0.0397
11061W        W20754  13.062   5.813   2.774 -0.2764  0.1408  0.2835
11062W        W20755   7.654   4.414   3.618 -0.0091 -0.1067 -0.0235
11063W        W20756  16.103  11.079   0.157 -0.0623 -0.0470  0.1902
11064W        W20757  15.320   6.846  13.475 -0.1618  0.0959  0.2382
11065W        W20758  14.920  16.101   3.837  0.2866 -0.2870 -0.2462
11066W        W20759  13.470  10.464  15.646  0.2499  0.1937  0.0546
11067W        W20760   6.761  16.606   4.429 -0.4486  0.1807  0.0729
11068W        W20761   8.759   1.772  16.719  0.1362  0.2691 -0.0155
11069W        W20762  14.208  16.522   7.132 -0.0450  0.0657 -0.2123
11070W        W20763   5.084   1.550   2.958  0.4668  0.1941 -0.3126
11071W        W20764   6.607  13.910   0.938 -0.1694 -0.0243  0.4580
11072W        W20765   8.440   2.176  14.566  0.1486 -0.0249  0.1287
11073W        W20766  14.812  13.168   3.067  0.2928  0.0988 -0.3386
11074W        W20767   0.728   9.392   0.610 -0.2013  0.0255  0.3911
11075W        W20768   7.468  10.031  17.155 -0.1058 -0.1125 -0.1579
11076W        W20769  17.446  14.526  16.287  0.0635  0.0224 -0.0210
11077W        W20770   3.088  16.572  15.606 -0.0940 -0.2880  0.2813
11078W        W20771  10.058  10.228   1.392  0.6512 -0.0696 -0.0089
11079W        W20772  10.393   0.816   1.786 -0.0490  0.0737  0.3373
11080W        W20773   1.335   0.060   2.630 -0.2518  0.3026 -0.0253
11081W        W20774  16.577  10.272  12.363 -0.0926  0.3140 -0.3651
11082W        W20775  15.787  15.033   2.252 -0.2262  0.2965  0.0703
11083W        W20776   1.738   0.282   4.406  0.1445 -0.2830  0.1509
11084W        W20777   7.230  15.517   0.451  0.1482 -0.0879  0.1136
11085W        W20778  12.365  16.454  16.625  0.3821 -0.0289 -0.4337
11086W        W20779   9.829   9.623   0.095 -0.0848 -0.0590 -0.0021
11087W        W20780   2.967  16.440   2.709  0.2268 -0.1225 -0.0927
11088W        W20781   5.603   4.284  14.789  0.2207 -0.1837  0.1050
11089W        W20782   3.171  11.973  16.064  0.2417  0.1680  0.1385
11090W        W20783   3.067   2.826  17.665  0.1161  0.1723 -0.3887
11091W        W20784  12.725  10.305   5.949  0.1262  0.0850 -0.2182
11092W        W20785   4.606  11.562  13.231  0.0026  0.1389  0.0589
11093W        W20786   4.873   4.564  16.848  0.2031 -0.0851  0.1143
11094W        W20787   9.663  10.257   3.066  0.2046  0.1392 -0.0599
11095W        W20788  14.576  15.517  16.733  0.0493  0.3383 -0.2212
11096W        W20789  11.316   3.724   5.270  0.0018 -0.0791 -0.0944
11097W        W20790   8.809  16.333  11.468 -0.3771 -0.2150  0.1606
11098W        W20791   8.975   7.202   5.224  0.1681 -0.1556 -0.0042
11099W        W20792  14.387   0.736   2.231  0.0445 -0.1310 -0.0898
11100W        W20793   4.446   9.359  12.655  0.0809  0.2958 -0.0579
11101W        W20794  16.615   9.225  13.106 -0.1227 -0.0669 -0.0314
11102W        W20795   2.909   3.843   1.076 -0.1725  0.3183 -0.1038
11103W        W20796   2.200  13.928   1.498 -0.0862  0.1302  0.1550
11104W        W20797   7.068  14.386   1.465 -0.0382 -0.1306  0.0616
11105W        W20798   3.146  13.349   0.141  0.4028  0.0462 -0.0359
11106W        W20799  12.116   6.703  15.330 -0.0596  0.1368 -0.1438
11107W        W20800   4.959  14.422   1.485  0.1317  0.2098 -0.3422
11108W        W20801   4.833   5.485  14.646 -0.1608 -0.1490 -0.4836
11109W        W20802   2.830   0.553  13.079  0.2911 -0.0215  0.2451
11110W        W20803  16.985   0.762   4.717 -0.0008  0.1351 -0.0652
11111W        W20804   6.552  13.085   0.436 -0.2004 -0.2111  0.3901
11112W        W20805   7.953   1.498   1.255  0.4122 -0.2198  0.0655
11113W        W20806   1.450  14.483  15.354  0.0131  0.0015 -0.1933
11114W        W20807   9.898   0.330  12.318  0.0253 -0.2654  0.1464
11115W        W20808  15.146   6.822  12.964 -0.0455  0.4056 -0.0725
11116W        W20809   7.510  14.826  12.958  0.0905  0.0718  0.0636
11117W        W20810   8.360  13.837  15.283 -0.1164  0.0632  0.0137
11118W        W20811   8.293   3.235  16.098 -0.2026  0.0981  0.1073
11119W        W20812   8.486  12.463  12.892  0.0450 -0.0751  0.1009
11120W        W20813   9.611   4.642  13.004 -0.0610 -0.1288 -0.0631
11121W        W20814  16.651   4.660   5.259  0.0715  0.2774  0.0043
11122W        W20815   5.606  10.540  13.408  0.0672  0.0583  0.1069
11123W        W20816   9.600   1.909  16.370 -0.0375  0.1780 -0.3587
11124W        W20817  10.921  17.376   2.580 -0.1930 -0.0233 -0.0547
11125W        W20818   5.155  13.411   3.929 -0.0429 -0.0617  0.1240
11126W        W20819  11.201   5.136   3.348 -0.1700  0.1756 -0.0245
11127W        W20820   9.398  12.828   0.165  0.1283  0.0611 -0.1491
11128W        W20821  17.497   1.900   0.963 -0.1558  0.0739 -0.5558
11129W        W20822  13.916   0.680  12.927  0.0606 -0.1916 -0.2879
11130W        W20823   8.132   2.553  14.549  0.5156 -0.0751 -0.0913
11131W        W20824  14.943  17.399   3.912 -0.1499  0.1590 -0.0198
11132W        W20825  15.173   9.143   0.070 -0.0123  0.2627  0.3864
11133W        W20826  10.350  12.509   0.555 -0.1123  0.3092  0.0290
11134W        W20827   5.454  17.387  13.579 -0.1033 -0.0889 -0.0953
11135W        W20828  16.883  11.322  13.066  0.2088  0.1045 -0.1396
11136W        W20829  15.355  10.749   0.791  0.0870  0.0803 -0.0232
11137W        W20830   1.970   4.473  13.972 -0.0147 -0.1376  0.1364
11138W        W20831  17.511  14.103  17.137 -0.0350 -0.0257 -0.1537
11139W        W20832   8.398   5.156  15.597 -0.0331  0.3000  0.0274
11140W        W20833   9.848   5.651  11.750  0.0352 -0.5152 -0.0939
11141W        W20834   5.521   1.656   5.178  0.1134 -0.0398 -0.2272
11142W        W20835  11.047  16.972  17.412  0.3260 -0.0095  0.1115
11143W        W20836  14.325  13.085  13.789 -0.1666  0.2102 -0.0901
11144W        W20837  16.633   5.310  13.479 -0.1407 -0.1962  0.1711
11145W        W20838   3.793  10.455  13.330  0.3441 -0.4261 -0.0372
11146W        W20839   9.507   8.421  15.134  0.0128  0.0286  0.0176
11147W        W20840   2.081   8.945   6.761  0.2383  0.4979  0.1264
11148W        W20841  11.362  17.358  13.565 -0.3534  0.2304 -0.1614
11149W        W20842  17.417   1.726  13.835 -0.1160  0.2677  0.1383
11150W        W20843   4.687  10.040  15.078  0.1293 -0.0961 -0.1508
11151W        W20844   6.276   9.596   0.135  0.0734  0.0106 -0.0101
11152W        W20845  13.816  10.405   4.781  0.1590  0.0588 -0.1489
11153W        W20846  15.753  14.417  13.367  0.0136 -0.0225  0.0978
11154W        W20847   5.909   4.032  13.988  0.1819  0.2490 -0.0072
11155W        W20848   9.213   1.583   0.534 -0.0547 -0.0809  0.5580
11156W        W20849   0.794  14.687  15.634 -0.0453 -0.0548 -0.3270
11157W        W20850  13.303  14.694   1.267 -0.2224  0.2385 -0.1243
11158W        W20851   8.497  15.711   5.598 -0.1691 -0.1183  0.0761
11159W        W20852   0.351   4.555  12.748  0.1461  0.1474  0.0662
11160W        W20853  14.739   1.685   2.685  0.0028 -0.0842  0.0059
11161W        W20854   3.095  14.248  16.303  0.1381  0.0295  0.0170
11162W        W20855   7.087   4.614   0.546  0.1118 -0.2078 -0.1809
11163W        W20856   0.692  16.861  17.335 -0.2933  0.0071  0.0164
11164W        W20857   7.879  17.218  16.594  0.0334 -0.1362 -0.4205
11165W        W20858  12.084  16.678   1.930  0.0061  0.1366  0.0804
11166W        W20859  12.943  13.231   1.079 -0.0183 -0.1687 -0.0034
11167W        W20860   0.274  15.598  14.336 -0.0208  0.1222 -0.0798
11168W        W20861  16.644   3.273  11.445  0.1925 -0.1587  0.3643
11169W        W20862  14.118   2.718   2.059 -0.0938 -0.0795 -0.0834
11170W        W20863  11.735   3.014   5.169 -0.1218  0.0976  0.0310
11171W        W20864   3.192  13.803   4.210  0.1396 -0.0827  0.2975
11172W        W20865  13.863   9.150  15.298  0.1962 -0.0294 -0.2400
11173W        W20866   2.121   8.765  16.696  0.3515  0.1162 -0.0166
11174W        W20867  11.143   0.560   3.991 -0.3511  0.0953 -0.1841
11175W        W20868   6.047  13.401  16.685 -0.1441  0.2239 -0.2912
11176W        W20869  12.912   8.253   0.327 -0.1491  0.0612  0.0601
11177W        W20870  15.482   7.647   5.253 -0.1142 -0.2137  0.0675
11178W        W20871  14.024  16.815   5.033 -0.0609 -0.1092 -0.1430
11179W        W20872   3.104  11.089  12.357  0.2151  0.2240 -0.1214
11180W        W20873   6.844   8.165  14.283 -0.0553 -0.0139 -0.1314
11181W        W20874   6.673  10.426   4.901  0.1675 -0.0281  0.1100
11182W        W20875  11.901   2.076  16.380  0.2751  0.2116  0.0146
11183W        W20876   9.204  15.952   2.974 -0.0718  0.0681 -0.3623
11184W        W20877   4.338  16.957   1.243 -0.0952  0.2065 -0.2447
11185W        W20878   7.051  15.723   1.287 -0.0189  0.1985 -0.1414
11186W        W20879  10.069  12.649   3.472 -0.1758 -0.2263  0.0117
11187W        W20880  11.220  16.344   5.891 -0.0583  0.0353  0.1527
11188W        W20881  15.858   0.064  16.477  0.0561 -0.1106 -0.2474
11189W        W20882  16.426   1.217   5.882 -0.1268  0.2039  0.2019
11190W        W20883  12.346  14.157  12.770  0.2571  0.4447  0.1996
11191W        W20884  11.771  14.801  15.169 -0.0177 -0.2337  0.1267
11192W        W20885   2.107   1.526   4.660 -0.4175 -0.4588 -0.1867
11193W        W20886  16.379   7.190   1.528 -0.2285  0.0841  0.0860
11194W        W20887  17.531  16.692  16.951  0.2706 -0.3389  0.0597
11195W        W20888   8.052   3.028   3.151 -0.0878 -0.1433  0.2257
11196W        W20889  12.693   4.803   4.431  0.0703  0.1917  0.1311
11197W        W20890   3.473   9.294  14.609 -0.3036  0.0572 -0.1632
11198W        W20891   3.614   2.298   3.851 -0.2052  0.0873  0.2069
11199W        W20892   7.739   8.213  17.207  0.2145  0.0838  0.1157
11200W        W20893   8.274   7.175   6.812  0.0263  0.0954 -0.0932
11201W        W20894  11.151   2.916   4.184  0.0115 -0.0672  0.0352
11202W        W20895  16.733   0.160   1.867 -0.0896 -0.0056  0.1673
11203W        W20896   4.027  14.265   0.989  0.0886 -0.0461 -0.0732
11204W        W20897  17.016  13.085   4.517  0.4631 -0.2318 -0.1251
11205W        W20898   5.084   1.354  14.758  0.0324 -0.2325  0.1346
11206W        W20899  13.131  13.274  13.077 -0.2988  0.3508  0.2251
11207W        W20900   2.532   1.437  13.168  0.3426  0.0636  0.0944
11208W        W20901   0.392   6.312   2.362 -0.0467  0.2167  0.2745
11209W        W20902   0.715   6.934   2.591  0.2625 -0.0322 -0.1125
11210W        W20903   2.491  13.673  16.086  0.0960 -0.2706 -0.1262
11211W        W20904   3.517  12.096   5.166  0.0189  0.0585 -0.1168
11212W        W20905  15.616   2.395  14.580 -0.1313 -0.0225 -0.0806
11213W        W20906   8.025   5.479   1.019  0.1090 -0.2189  0.1723
11214W        W20907   9.221  15.745   0.414 -0.0284 -0.1138  0.2103
11215W        W20908  16.610  12.454  16.386 -0.1455 -0.2136  0.0024
11216W        W20909  11.947   6.909   3.698 -0.1742 -0.2721 -0.1506
11217W        W20910   5.015  10.433  14.718  0.2647  0.3648  0.1217
11218W        W20911   6.078   0.431   2.051 -0.2090  0.1663 -0.2145
11219W        W20912   2.811   6.538  13.563  0.1689 -0.3802  0.1997
11220W        W20913   5.160  17.568  11.826  0.0585  0.3288 -0.1100
11221W        W20914   6.994   7.968  15.210 -0.0512  0.1238 -0.0305
11222W        W20915  11.686   9.540   5.925  0.1741  0.2479  0.1351
11223W        W20916  16.049   2.443   1.465 -0.0787  0.1256  0.1068
11224W        W20917   8.457   8.763   3.377 -0.3566  0.0234 -0.0735
11225W        W20918  17.218  13.247   3.514  0.1421 -0.2763 -0.1535
11226W        W20919   2.759  10.670  16.435 -0.2535  0.0173 -0.1560
11227W        W20920   2.331  16.717   3.946 -0.0100 -0.2051 -0.1598
11228W        W20921  12.923   9.437   2.631 -0.0154 -0.0389 -0.1602
11229W        W20922  12.307   6.479   2.738 -0.1204  0.0220  0.2241
11230W        W20923   7.860  17.245   5.790 -0.0162 -0.1723 -0.3083
11231W        W20924  17.320  16.412   0.598 -0.0839 -0.1460  0.3016
11232W        W20925   9.978   6.906  13.324 -0.2178 -0.2021 -0.2330
11233W        W20926   5.986   4.744  14.719 -0.2297 -0.1059 -0.2693
11234W        W20927  14.468  12.598  16.620 -0.0720 -0.0475 -0.0185
11235W        W20928  11.668   7.715   5.749  0.0607  0.0296 -0.1606
11236W        W20929   4.326   9.992  13.970  0.0261 -0.3289  0.0934
11237W        W20930  10.418   4.043   2.933  0.2478  0.1232  0.1722
11238W        W20931   7.694   8.244   3.482 -0.0518 -0.0333 -0.0265
11239W        W20932   9.412   1.088  12.113 -0.1213 -0.1992  0.0507
11240W        W20933   3.383  13.404  11.867  0.0167  0.1978  0.1616
11241W        W20934  16.344  16.344   4.068  0.0023 -0.0332 -0.0272
11242W        W20935   2.082   8.339  11.952  0.0912 -0.2082 -0.1246
11243W        W20936   5.320  17.262  15.636  0.0419 -0.0770  0.0136
11244W        W20937   3.344   1.283   6.472  0.0513 -0.1902  0.0638
11245W        W20938   8.445  15.000  13.073 -0.0760  0.0066 -0.0895
11246W        W20939   3.145  16.391   5.316 -0.0741  0.1719  0.0997
11247W        W20940   0.927   7.063  14.486  0.1270  0.1009  0.0343
11248W        W20941   1.528   9.394  12.125 -0.0057  0.0615  0.4345
11249W        W20942  11.922  15.166   0.982  0.2703 -0.1262  0.2888
11250W        W20943   0.203  16.461  15.040  0.2089  0.3354  0.1379
11251W        W20944   0.311   2.669   0.291  0.1745  0.1099  0.3517
11252W        W20945  11.774   7.384   0.486 -0.0301  0.0216  0.0092
11253W        W20946   8.886   3.529  12.579  0.0912 -0.1144 -0.1877
11254W        W20947   5.519   1.587   6.781  0.5089 -0.0243 -0.1500
11255W        W20948   8.110   6.330  15.819  0.1610  0.1130 -0.0644
11256W        W20949   2.180  16.071   5.953  0.0135 -0.1350 -0.0266
11257W        W20950   4.308  17.242   2.531  0.2145 -0.0803  0.1018
11258W        W20951   1.648   3.740  12.865 -0.1297 -0.0288  0.0141
11259W        W20952  15.818   3.369   6.933  0.0350 -0.4507 -0.4233
11260W        W20953  11.237   2.698   0.640 -0.0380  0.0788  0.2314
11261W        W20954  16.559  15.920   1.743  0.0548  0.1336 -0.3512
11262W        W20955  12.769  14.243  15.053  0.1083  0.2298  0.3097
11263W        W20956   1.577   6.452  15.713  0.1687 -0.1328 -0.0244
11264W        W20957   9.093  13.698   4.784 -0.1228 -0.0461  0.0631
11265W        W20958  15.491   8.025   0.307 -0.0435 -0.2033 -0.1463
11266W        W20959   5.720   5.975   3.727  0.1222 -0.0819  0.2337
11267W        W20960  14.523   0.102  12.026 -0.0644 -0.0800  0.1674
11268W        W20961   1.698  14.801  12.463  0.0368  0.1779  0.2276
11269W        W20962   7.383   7.978  13.015  0.1312 -0.1148  0.0157
11270W        W20963  16.755   8.580  16.705 -0.1195 -0.2994 -0.1393
11271W        W20964  13.110  12.353  12.707 -0.0553  0.2020 -0.0581
11272W        W20965   0.277  16.511   2.866 -0.1984 -0.2146 -0.2942
11273W        W20966   7.026  17.132  16.196 -0.1210 -0.0210  0.3081
11274W        W20967  15.758   6.582  11.980 -0.0239  0.0651  0.3151
11275W        W20968   9.266   2.370   2.011  0.0173  0.0073 -0.1141
11276W        W20969   1.938   4.696   2.414  0.2559 -0.0528 -0.1514
11277W        W20970  13.057   5.730  17.252  0.1033  0.0595 -0.0096
11278W        W20971   8.637   8.902   3.855  0.4453 -0.0301  0.2052
11279W        W20972   1.893   9.580   1.992 -0.1433  0.0940 -0.0591
11280W        W20973   0.436   3.992  12.554 -0.0856  0.1282 -0.1236
11281W        W20974   2.477  17.007  13.971 -0.4618 -0.0686  0.1557
11282W        W20975  17.675  17.224  16.594 -0.3572 -0.0978 -0.1243
11283W        W20976   4.869   5.921  16.941 -0.1921 -0.0801  0.1487
11284W        W20977   8.529   0.095   4.077 -0.1877  0.3140  0.1400
11285W        W20978  13.639   8.648  12.686  0.4546 -0.0673  0.2960
11286W        W20979   6.983   6.909  13.882  0.0177 -0.2178 -0.0799
11287W        W20980  12.731   5.688   1.847 -0.4440 -0.0067 -0.3998
11288W        W20981   9.655   4.897  16.070  0.0269  0.2941 -0.2701
11289W        W20982   8.575   9.221  17.516 -0.1343 -0.0537  0.1341
11290W        W20983  16.609   1.626   5.070 -0.0499 -0.0288 -0.1745
11291W        W20984   9.179   4.506  15.396 -0.0117  0.2172  0.2933
11292W        W20985  10.266  10.700  14.245 -0.1592  0.0816  0.2355
11293W        W20986   7.002  14.169  13.099 -0.3372 -0.0717 -0.0540
11294W        W20987   8.417   4.429  16.072  0.1873  0.3712 -0.1204
11295W        W20988  11.296  11.225   4.183 -0.1115 -0.0583  0.0834
11296W        W20989  17.591   6.106   4.369 -0.4930  0.0540 -0.2910
11297W        W20990   8.171  16.576  16.096 -0.1767  0.0151 -0.0252
11298W        W20991   5.439   0.319  16.201 -0.2571 -0.0530 -0.0140
11299W        W20992   1.838  14.411  12.189 -0.1037 -0.0130  0.1694
11300W        W20993  16.286   0.488   4.071  0.1690 -0.1678 -0.1184
11301W        W20994   4.271  15.460  14.741 -0.0525  0.2143 -0.0861
11302W        W20995  11.774   2.635   3.282 -0.0830  0.1500 -0.0055
11303W        W20996   0.061   7.850  13.284  0.2820  0.2452 -0.1147
11304W        W20997   9.473   6.268   5.253  0.3359 -0.1322 -0.0700
11305W        W20998   8.216  16.243  15.661 -0.0775  0.0412 -0.4556
11306W        W20999  16.829   1.946   0.279 -0.0435  0.2866 -0.0767
11307W        W21000  13.717  13.417  13.178  0.0034  0.0263 -0.0123
11308W        W21001   7.532   7.338  12.567 -0.0773 -0.0886 -0.1922
11309W        W21002   0.405  16.993   5.510 -0.0570  0.1167 -0.4540
11310W        W21003  15.784  13.378   0.086  0.1430  0.3274  0.1319
11311W        W21004  11.275  16.087   0.245  0.0603 -0.1726 -0.0628
11312W        W21005   3.082   9.001   1.657  0.1616 -0.1180 -0.0181
11313W        W21006   8.851  12.885  16.859  0.1450  0.3438 -0.0103
11314W        W21007  12.550   8.812  11.740 -0.1013  0.0501  0.2941
11315W        W21008   3.321   4.822  14.099 -0.0499  0.0481 -0.2664
11316W        W21009   4.906  15.009  12.264  0.1585  0.0161  0.0913
11317W        W21010   8.416  14.825  16.051  0.3624  0.0081  0.0737
11318W        W21011  15.021   0.500  13.489  0.1289 -0.0621  0.1180
11319W        W21012   0.832  12.716  13.289  0.2852 -0.0980 -0.2195
11320W        W21013   0.664  11.816   4.148 -0.0862  0.2318 -0.2088
11321W        W21014   0.555  13.482   1.590  0.0341  0.0070 -0.1548
11322W        W21015   9.656   3.694   2.109 -0.2929  0.0009 -0.0085
11323W        W21016  15.365  14.851   5.596 -0.1392  0.0335 -0.0629
11324W        W21017  12.077   2.932  13.406 -0.1103 -0.0038  0.4329
11325W        W21018   3.244   3.399   3.767  0.0732 -0.0883 -0.1169
11326W        W21019  12.465   1.746   4.199 -0.1230  0.0438 -0.0404
11327W        W21020  12.506   3.821   2.589 -0.2044 -0.1362 -0.2177
11328W        W21021   6.753   7.765  12.919  0.3615  0.2754 -0.1039
11329W        W21022   8.447   7.081   5.033 -0.0676 -0.0021  0.0973
11330W        W21023  16.671  12.908  17.397  0.1323  0.2322  0.0789
11331W        W21024  11.375  13.378   0.257 -0.0702 -0.0670  0.3315
11332W        W21025  16.098  16.312   5.803  0.2634  0.1947  0.0116
11333W        W21026  12.335  10.689  16.898 -0.0457  0.1403  0.4561
11334W        W21027   6.871   0.225  10.893 -0.0137 -0.2646  0.0670
11335W        W21028  12.588  13.805  14.900 -0.2295 -0.0736  0.1685
11336W        W21029   0.663  14.796   3.651  0.1231 -0.0619 -0.2009
11337W        W21030  12.813   4.156  11.738 -0.2705  0.3705  0.2082
11338W        W21031   5.043   9.702  11.346  0.0958 -0.0693 -0.1774
11339W        W21032   2.152   4.152   4.590 -0.1386 -0.0414  0.1479
11340W        W21033   1.955   6.630  15.137  0.2355  0.1841  0.3683
11341W        W21034  14.453   9.749   4.781  0.0348  0.0399 -0.2042
11342W        W21035   9.920  14.232  17.553  0.2493  0.2088 -0.0611
11343W        W21036  10.607   5.679   4.807 -0.3192 -0.1434 -0.2346
11344W        W21037  10.333  14.661   6.973  0.4610 -0.0102 -0.2242
11345W        W21038  12.114   0.311   5.546  0.0877 -0.4988  0.4223
11346W        W21039   1.530  17.550  12.992  0.1078  0.0385  0.0338
11347W        W21040   2.064   2.301   6.224 -0.0165  0.0744  0.0651
11348W        W21041   5.927   3.394   3.827  0.4790 -0.2001 -0.1838
11349W        W21042  14.997   9.817   5.851 -0.6004 -0.1933  0.1743
11350W        W21043   7.718   1.951   1.585 -0.2312  0.0860  0.1261
11351W        W21044  17.210  12.478   3.226 -0.1476 -0.1736  0.2274
11352W        W21045  13.622  14.640  16.526  0.2108  0.3134  0.2188
11353W        W21046   5.778  17.078   3.439 -0.0824  0.0424  0.4189
11354W        W21047   8.018  11.584   0.882  0.0330 -0.0917 -0.0073
11355W        W21048   2.677   5.921   0.499  0.1663  0.0902  0.0320
11356W        W21049   9.397  15.084  12.850  0.1207  0.0431  0.0764
11357W        W21050   8.754  16.809  11.661  0.1347 -0.1916  0.0913
11358W        W21051  14.674  14.383   1.656  0.1015  0.1059 -0.0137
11359W        W21052   4.758   7.503   4.601  0.1378  0.0821 -0.1771
11360W        W21053  17.062   7.594   4.558  0.1437  0.0511  0.0842
11361W        W21054   6.665  13.301  12.649 -0.0592 -0.1806  0.3810
11362W        W21055   8.335  12.993   2.167 -0.0649  0.4711 -0.0461
11363W        W21056   7.885   6.493   0.787  0.0062 -0.0897 -0.3204
11364W        W21057   9.789   9.140   4.536 -0.1833  0.5380 -0.1227
11365W        W21058   1.803   3.682  15.474 -0.0980 -0.0003  0.2198
11366W        W21059   1.533   1.707  14.636  0.1044  0.0112 -0.3106
11367W        W21060   6.540   0.520  11.691 -0.1235 -0.0885 -0.0585
11368W        W21061  14.427  12.700   3.439 -0.1302  0.2628 -0.0490
11369W        W21062   2.720  16.813   2.014 -0.0082 -0.1905  0.1548
11370W        W21063   1.325   8.978   5.638 -0.0917  0.0395  0.2301
11371W        W21064  17.306   9.061  13.229 -0.0462  0.3195  0.1889
11372W        W21065   5.214   9.410   0.010 -0.1463 -0.2202 -0.1143
11373W        W21066   5.129  10.671  17.194 -0.2337 -0.2201 -0.1359
11374W        W21067   8.859  15.440   5.808 -0.0159  0.0928  0.1666
11375W        W21068  14.689   8.430  15.538 -0.1801 -0.0006  0.2030
11376W        W21069  15.798   3.299  14.684 -0.1412  0.1671  0.0257
11377W        W21070   1.905  16.297  12.061 -0.2945 -0.3886  0.0498
11378W        W21071   6.917  13.943   1.666 -0.2678 -0.0011 -0.0287
11379W        W21072  13.511  12.944  17.502 -0.2794  0.1444  0.3272
11380W        W21073  15.056  13.533  13.721 -0.0992  0.1198  0.3195
11381W        W21074  14.618  12.492   3.973 -0.0294  0.1768  0.0677
11382W        W21075  13.423  14.727  14.384 -0.0941  0.1514  0.0306
11383W        W21076   7.592   0.003  13.238 -0.3149 -0.1482 -0.0777
11384W        W21077   9.837   3.166  17.138  0.0701 -0.0534  0.1681
11385W        W21078  15.230  15.989   2.794 -0.0619  0.0567 -0.0837
11386W        W21079   5.466  13.322   0.505  0.1227 -0.0529  0.0903
11387W        W21080  11.264   8.479  17.340  0.2565  0.2978 -0.1867
11388W        W21081   7.422   0.958  12.313 -0.0323  0.0558 -0.0215
11389W        W21082  10.219  17.340  13.253 -0.0097 -0.1344 -0.0037
11390W        W21083  15.166  13.196   0.758 -0.1146 -0.0729 -0.0195
11391W        W21084  13.167   3.196   5.304 -0.3726 -0.0886 -0.1555
11392W        W21085  10.141   9.427   2.079 -0.1963 -0.0552 -0.1721
11393W        W21086   0.539  15.980  16.855 -0.2348 -0.1369  0.0497
11394W        W21087  16.612  11.595   5.074 -0.0436  0.2941 -0.0272
11395W        W21088   5.698   2.190   0.484  0.0438 -0.4836  0.1988
11396W        W21089  10.843  12.689   2.464  0.1601  0.0165 -0.1173
11397W        W21090   8.410  13.677  14.754  0.0988 -0.1649 -0.2732
11398W        W21091   7.475  13.702  15.921  0.1236  0.0216  0.1215
11399W        W21092   4.553  16.200   7.213  0.0749 -0.1387 -0.3061
11400W        W21093  14.490   7.686  17.360 -0.0009 -0.0265 -0.2584
11401W        W21094   7.248  13.177  11.456 -0.1301 -0.0330 -0.2415
11402W        W21095   1.257   8.983  12.134  0.1145  0.1390  0.1699
11403W        W21096  11.408  15.295   6.261  0.2416  0.2348  0.1350
11404W        W21097   4.616   0.211  13.195 -0.1671  0.0902 -0.0211
11405W        W21098   0.296   5.286   0.071  0.1956  0.1916  0.1771
11406W        W21099   5.759  11.333   3.822  0.1892 -0.0208 -0.1105
11407W        W21100   6.569  16.835  12.854 -0.2443  0.2109  0.0411
11408W        W21101   6.821  12.697  14.233 -0.0786  0.2230 -0.4438
11409W        W21102  17.477   8.882   5.839  0.0454  0.3125 -0.1493
11410W        W21103  13.360  16.142  13.074 -0.2499 -0.0626 -0.2513
11411W        W21104   3.750  17.643   6.341 -0.1424 -0.4778 -0.0651
11412W        W21105  17.345  11.515   4.446 -0.2069  0.3183 -0.1225
11413W        W21106  16.384  13.981   0.366  0.0306  0.0259  0.0476
11414W        W21107   4.922  16.881  17.536 -0.0976 -0.2345 -0.2610
11415W        W21108   4.180   6.505  14.166 -0.0565 -0.3963  0.0504
11416W        W21109   6.289   8.998  13.109 -0.0415  0.2451 -0.1010
11417W        W21110  10.106   4.303   1.736  0.1703 -0.1123  0.1836
11418W        W21111   0.959   8.732   0.989  0.2462  0.4614 -0.0546
11419W        W21112   8.390  11.714   1.176  0.1162  0.1287  0.0332
11420W        W21113   6.767  15.209   4.304 -0.6596  0.3219 -0.0654
11421W        W21114   2.231   1.015   4.496 -0.2169  0.2041  0.2882
11422W        W21115  16.821  16.369  14.211  0.1037 -0.4193 -0.0352
11423W        W21116  10.916   1.596   4.042  0.0444 -0.2948 -0.4376
11424W        W21117   6.020   9.733  11.061 -0.0902 -0.1050  0.1069
11425W        W21118   7.126   2.415   0.300  0.0600  0.0714 -0.2474
11426W        W21119  14.004  15.902   3.697  0.2120  0.0534 -0.0755
11427W        W21120  17.061   6.096   3.616  0.4476 -0.4623  0.0945
11428W        W21121   6.550  14.883   0.372 -0.2581  0.2654  0.4168
11429W        W21122  17.581   7.856   0.199 -0.0441 -0.0956  0.0686
11430W        W21123  12.164  17.240   2.697 -0.2107  0.0697  0.0797
11431W        W21124  13.331   0.525  17.122 -0.0623  0.1358  0.0254
11432W        W21125   2.833   0.136   2.245 -0.0718  0.0131  0.2409
11433W        W21126   7.653  15.331   5.164 -0.1282 -0.1314 -0.1160
11434W        W21127   9.001   1.842  13.673  0.1732  0.4263  0.1727
11435W        W21128  10.510  16.068   2.125  0.0245 -0.0234  0.0254
11436W        W21129   4.443  12.774   2.652  0.0044  0.1824  0.1657
11437W        W21130  13.439   3.481   1.958  0.2598  0.0250 -0.1957
11438W        W21131  10.026  15.860   1.834  0.1491  0.1268 -0.2611
11439W        W21132  13.209  14.389  16.767 -0.1352  0.1345  0.1518
11440W        W21133  17.192   4.697   5.301  0.1260 -0.1698  0.4463
11441W        W21134   9.955  10.830  17.320 -0.1126 -0.0745 -0.0304
11442W        W21135   8.988   1.418   5.752 -0.0304  0.3636 -0.2212
11443W        W21136   6.698  16.877   1.722  0.0662  0.2617  0.1625
11444W        W21137   0.884  10.926   4.196  0.0219  0.0790 -0.2150
11445W        W21138  13.823   9.856   1.427 -0.1823 -0.3110 -0.0435
11446W        W21139   4.902  13.723   3.627 -0.0789  0.0863 -0.2254
11447W        W21140   4.619   5.544  12.406  0.1263 -0.0011  0.2242
11448W        W21141   3.874  12.890   6.203 -0.2849  0.1616 -0.0379
11449W        W21142  14.843  11.574  12.397  0.3767  0.0551  0.3655
11450W        W21143   1.422   6.700  16.149  0.1348  0.0402 -0.2667
11451W        W21144  12.340   1.795   3.379 -0.0397 -0.2619 -0.0712
11452W        W21145   2.783  11.467  12.982 -0.3085 -0.0162 -0.1282
11453W        W21146  12.245   9.930  16.168  0.1562  0.0320 -0.4589
11454W        W21147   2.946   0.620  14.312 -0.0704 -0.2083  0.0018
11455W        W21148   7.154  10.588  15.703 -0.0364 -0.1858 -0.1371
11456W        W21149   1.572   3.738   1.042 -0.2419 -0.0827  0.1136
11457W        W21150   4.949   5.180  13.161  0.1822 -0.1756 -0.0826
11458W        W21151   3.032  12.799   5.544 -0.1616  0.1991 -0.1477
11459W        W21152   7.079  12.824   3.397  0.0251  0.1935  0.0227
11460W        W21153  11.807   3.939   1.639 -0.0493  0.0735 -0.0079
11461W        W21154  11.700  14.047  15.446  0.1397  0.3420 -0.0528
11462W        W21155  10.695  16.318  14.717  0.2534  0.0806  0.2602
11463W        W21156   7.620   5.717  15.951 -0.2784  0.1814 -0.0063
11464W        W21157  16.385  11.683  13.747  0.1255 -0.1688  0.0206
11465W        W21158  16.519  17.079  16.848 -0.1489 -0.1044 -0.5354
11466W        W21159  16.738  10.050  14.770 -0.1422 -0.0763  0.2560
11467W        W21160   5.882   0.016  12.274 -0.1834 -0.3122 -0.3682
11468W        W21161   7.347  16.565  14.015  0.2255 -0.5571  0.1273
11469W        W21162  17.329   8.421   3.389 -0.0818  0.0108 -0.3133
11470W        W21163   1.939   1.770   5.591 -0.2768 -0.3846 -0.1157
11471W        W21164  17.454  12.885  14.804  0.1874  0.0537  0.1848
11472W        W21165   6.613   8.584  16.427 -0.2040 -0.3248  0.0136
11473W        W21166   7.615   4.523  14.729 -0.0703  0.2720 -0.2782
11474W        W21167  12.038   5.828   2.589  0.2280 -0.3782 -0.2400
11475W        W21168  13.623   1.319   5.485  0.0401 -0.0610 -0.0324
11476W        W21169   0.218  12.811   2.089  0.0455 -0.1259  0.0571
11477W        W21170   6.940  10.137  12.755 -0.0668  0.1601  0.1470
11478W        W21171   3.182   2.396   3.637  0.5033  0.1770 -0.1741
11479W        W21172  15.983  10.793   5.619  0.0263  0.1385  0.0153
11480W        W21173   6.568  12.128   1.785  0.0531 -0.1163  0.0310
11481W        W21174   0.024  17.360   1.172 -0.2344 -0.1071  0.4087
11482W        W21175   2.174  10.477   2.089  0.0520 -0.1478 -0.0609
11483W        W21176  13.805   3.484   3.106 -0.0008  0.3605 -0.0516
11484W        W21177  12.796  17.591  14.844  0.1108  0.1179 -0.2586
11485W        W21178   5.926  12.263  14.111 -0.0282 -0.1697 -0.0136
11486W        W21179   7.479   4.420  12.427  0.0871  0.0734  0.2045
11487W        W21180   2.154   4.984  12.121  0.0584  0.2746  0.2867
11488W        W21181   7.058  10.608   1.490 -0.0809 -0.3566  0.1708
11489W        W21182   6.782   6.385  16.557 -0.0546  0.1581 -0.2878
11490W        W21183  11.218   1.409  13.278  0.1501  0.0695 -0.1204
11491W        W21184   6.403   2.741  12.204 -0.2058  0.0350  0.1223
11492W        W21185  17.634  15.457   5.965  0.0786  0.0045 -0.1405
11493W        W21186  11.647   5.622  16.631  0.0703 -0.1134  0.0942
11494W        W21187   7.925   4.768  14.086 -0.0456  0.0274  0.2139
11495W        W21188   9.236   7.722  14.375 -0.2236 -0.1474  0.0592
11496W        W21189   4.035   1.055  12.473 -0.0423  0.1676  0.1537
11497W        W21190  10.690   4.802   3.244 -0.0427  0.0233 -0.1754
11498W        W21191   6.455  11.243  16.606  0.0014 -0.2982  0.1446
11499W        W21192   9.625   8.576   2.203  0.1663  0.0278 -0.0596
11500W        W21193  15.553  10.561   5.478  0.0043  0.2000 -0.1633
11501W        W21194  15.344  17.103  15.763 -0.2879 -0.0825  0.2350
11502W        W21195   8.132  16.418  12.442 -0.1815  0.0483  0.2601
11503W        W21196  14.691   9.548   3.971  0.0489  0.0145 -0.1873
11504W        W21197   8.724   3.566  16.707 -0.0077  0.3391  0.0119
11505W        W21198  15.615   9.597   1.392  0.1371  0.1248  0.0985
11506W        W21199   4.110   1.708   6.745  0.2492 -0.0240  0.0068
11507W        W21200   0.330  12.944   3.523  0.3262  0.0872 -0.0346
11508W        W21201   7.161  11.885  12.590 -0.1509 -0.1280 -0.1328
11509W        W21202   5.529  12.627  14.468 -0.1910 -0.0274  0.2059
11510W        W21203   1.455  14.037  13.108 -0.0618 -0.0687  0.1885
11511W        W21204   9.791   2.964  11.951  0.0210  0.0180 -0.0641
11512W        W21205   6.550   6.605  13.942  0.0142 -0.0718 -0.4335
11513W        W21206  12.488  10.429  12.851  0.0217 -0.0386  0.0950
11514W        W21207   8.111  11.560  15.258 -0.0052 -0.2836  0.0720
11515W        W21208   1.207   5.557   5.104  0.4062  0.2417 -0.0683
11516W        W21209   3.087   7.037   3.388 -0.0814 -0.1275 -0.0559
11517W        W21210   9.174   4.973   2.501  0.1691 -0.0160  0.4520
11518W        W21211   9.048  12.470  15.815  0.1561  0.0689  0.0329
11519W        W21212  15.246  11.400  15.707 -0.0111  0.2102 -0.3603
11520W        W21213  15.886   9.966   5.620  0.2479 -0.2106  0.1321
11521W        W21214   8.987  11.894   0.172 -0.0160 -0.0875 -0.0206
11522W        W21215   5.341   5.200   5.365 -0.3000  0.3593 -0.1083
11523W        W21216   7.591  15.399   0.925  0.0940  0.0378  0.0063
11524W        W21217   5.121  13.856  15.906 -0.1211 -0.0685 -0.0267
11525W        W21218   7.090  16.368  14.380  0.1487 -0.0065 -0.1336
11526W        W21219  16.146   6.773   6.477 -0.1558  0.1660 -0.2989
11527W        W21220  10.850   5.364   6.305 -0.1152 -0.2281 -0.2017
11528W        W21221   8.758  14.597  15.570  0.1029  0.0776 -0.2382
11529W        W21222   1.698   2.143  14.485 -0.0414 -0.0690  0.0082
11530W        W21223   6.563   2.302   4.350 -0.0291 -0.3019  0.1741
11531W        W21224  14.817  14.338   2.136  0.3794 -0.1559  0.1017
11532W        W21225   1.468  14.186   6.379  0.1290 -0.0729  0.2389
11533W        W21226   6.380  13.977   2.361 -0.1592  0.0835  0.2881
11534W        W21227   4.378   7.358   6.165  0.1323 -0.1702 -0.0317
11535W        W21228   3.082   9.560  16.138 -0.0460 -0.0861  0.0885
11536W        W21229  14.637   0.235   0.886  0.1203  0.2766  0.2904
11537W        W21230   8.667  16.837  17.037 -0.0392  0.0750  0.0465
11538W        W21231   9.560   0.880  14.145  0.1367  0.2079 -0.0434
11539W        W21232   8.214   6.549   5.193  0.2589  0.0820  0.0628
11540W        W21233   7.132  16.209   2.075  0.2615  0.0253  0.0540
11541W        W21234   6.874   4.907   1.185  0.2755 -0.0868  0.0337
11542W        W21235   0.752   5.221   3.526  0.1583  0.2868  0.0616
11543W        W21236   5.086  12.066   0.071  0.0179 -0.0267  0.2750
11544W        W21237  14.404  16.742   4.694  0.3700  0.0325 -0.1240
11545W        W21238  14.633   2.362  12.807  0.1552 -0.4418 -0.1447
11546W        W21239   4.457   2.516  14.817  0.0468  0.1281  0.0848
11547W        W21240  15.695   0.377  17.077 -0.0343  0.4609 -0.1354
11548W        W21241   0.781   6.908   3.918  0.2049 -0.4252  0.2505
11549W        W21242   2.899   2.453   5.368 -0.2233  0.0181 -0.1059
11550W        W21243   9.832   4.375  13.433 -0.2292  0.0950 -0.0534
11551W        W21244  15.668   9.287  15.556 -0.3173 -0.0384 -0.2359
11552W        W21245  15.921   1.749   2.665  0.2803  0.0185  0.0931
11553W        W21246  16.557  15.580   5.656 -0.1976  0.0140  0.1821
11554W        W21247   4.904  12.694  12.851  0.0314  0.2090 -0.2574
11555W        W21248  15.750  12.364   2.973  0.3035 -0.1653  0.1720
11556W        W21249   3.956   8.361   4.562  0.0439  0.0051 -0.0598
11557W        W21250   6.783  16.753  12.107 -0.1139  0.0578  0.3543
11558W        W21251   6.808  10.089  14.142 -0.1212 -0.0379  0.1686
11559W        W21252  13.146   2.507   5.551 -0.0693  0.2647 -0.0610
11560W        W21253   3.414   7.976  10.659  0.0708  0.2231  0.1459
11561W        W21254   3.834  10.390   2.429  0.1323 -0.0627 -0.1630
11562W        W21255   9.318  15.461  17.198  0.1734 -0.3234 -0.0047
11563W        W21256   2.825   6.602  13.066 -0.2292  0.2615  0.0721
11564W        W21257   2.051   9.981   5.836 -0.2082 -0.0312  0.1097
11565W        W21258   3.721   8.082  11.642  0.4082  0.4021 -0.0505
11566W        W21259   0.699   3.647  17.571  0.0555  0.3218 -0.3253
11567W        W21260   8.501   4.366   5.770  0.1881  0.1813 -0.3723
11568W        W21261  15.404   2.946  15.413  0.2079 -0.2882 -0.1755
11569W        W21262  14.018  14.301  16.451  0.2393  0.0854 -0.0226
11570W        W21263  13.922   7.432  14.781 -0.1539 -0.3056  0.3087
11571W        W21264   3.995  12.638  16.855  0.3477  0.1020  0.0987
11572W        W21265   9.331   3.331   6.049  0.2185 -0.0012 -0.1766
11573W        W21266  15.537   1.181   4.742 -0.0861 -0.0303 -0.1660
11574W        W21267  10.096   5.299  12.556  0.1026  0.1252 -0.2940
11575W        W21268   5.049   7.429  13.414  0.2116  0.0065  0.0217
11576W        W21269  16.351   5.475   5.978  0.0696 -0.0877  0.1469
11577W        W21270  12.522  16.018  12.081 -0.1463 -0.3069 -0.1473
11578W        W21271   2.047   8.706   2.684  0.0811  0.1240 -0.0490
11579W        W21272  10.412   7.809  16.167  0.0065 -0.1930 -0.1527
11580W        W21273   9.524   4.929  14.758  0.2621 -0.0159  0.1918
11581W        W21274   9.473   8.010  16.808  0.2659  0.1080 -0.0427
11582W        W21275  13.343   0.907   2.247  0.1850  0.0769  0.0531
11583W        W21276   3.430   8.759  14.966  0.1145 -0.0461  0.3765
11584W        W21277   2.491   7.232  12.532  0.1325 -0.2232 -0.0993
11585W        W21278   4.447   7.914  13.466 -0.0686 -0.0342  0.0306
11586W        W21279   1.257   3.623  14.176  0.0885  0.3446  0.0035
11587W        W21280   8.336  16.160  13.789 -0.4674  0.1322 -0.0928
11588W        W21281  16.325  12.557  12.322  0.0334  0.1695 -0.0942
11589W        W21282  12.081  12.224   7.060  0.1829 -0.1630 -0.0234
11590W        W21283   9.706   0.264   0.430  0.2926 -0.0593 -0.1487
11591W        W21284   2.649  11.739   2.623 -0.0208  0.0118  0.2909
11592W        W21285  11.254   7.094  12.401  0.6629 -0.1906  0.2234
11593W        W21286   1.124   8.500   1.601  0.2370 -0.1991  0.0329
11594W        W21287  14.691   0.950   1.517 -0.0640  0.1191  0.0687
11595W        W21288   8.347  10.134  17.672  0.0989 -0.0173 -0.2305
11596W        W21289   7.591   5.873  13.319  0.0264 -0.2152 -0.0239
11597W        W21290  10.979  17.190   3.372  0.1452  0.1429  0.4825
11598W        W21291   5.186  13.489  12.620 -0.5123 -0.0695 -0.1201
11599W        W21292   3.079   5.894   5.133  0.0680  0.3831  0.3098
11600W        W21293   6.289  14.991  11.965  0.0486 -0.2392 -0.0059
11601W        W21294   1.323  11.194  11.257 -0.2430  0.0813 -0.0296
11602W        W21295   8.473  14.952   3.613 -0.4500  0.1051 -0.1009
11603W        W21296   3.944   9.792   6.001  0.5172  0.2684  0.3638
11604W        W21297   6.105   2.282   4.597 -0.1987 -0.2752 -0.0890
11605W        W21298   5.889   1.204   5.905 -0.0368  0.2736 -0.3838
11606W        W21299   0.950   1.404   4.319  0.0373  0.1314 -0.0567
11607W        W21300  14.067   7.285   5.461  0.0025  0.0773 -0.2529
11608W        W21301  15.299  16.549   2.682 -0.0882 -0.3419 -0.2126
11609W        W21302  14.712  11.505   5.671  0.2644  0.0608  0.2278
11610W        W21303   5.107  11.722  12.195  0.0710  0.1266  0.0393
11611W        W21304   9.473  14.089   3.532 -0.2076 -0.3196  0.2762
11612W        W21305   0.826   3.976  17.104 -0.1553 -0.1176  0.1060
11613W        W21306  14.249   2.952  14.140  0.1210  0.0198  0.1909
11614W        W21307  12.084   3.654   4.082  0.0475 -0.0172  0.1595
11615W        W21308  16.937   1.721   1.738  0.1019  0.0326  0.0631
11616W        W21309   6.363   2.901   5.832 -0.2543  0.0673  0.1996
11617W        W21310  16.676   3.161  16.327  0.1096 -0.1842  0.0856
11618W        W21311  12.994  10.330  15.565 -0.3522  0.0899  0.3124
11619W        W21312   3.540  17.128  13.521  0.0355 -0.1078 -0.0113
11620W        W21313   3.958  17.149  12.375  0.2631 -0.0229  0.1915
11621W        W21314  17.292   8.545   1.459 -0.1443  0.0595 -0.0878
11622W        W21315   7.569   1.879  11.839 -0.2226  0.0020 -0.0923
11623W        W21316   2.366  15.453   6.623  0.0955  0.0834 -0.0375
11624W        W21317  15.114  12.212   1.117  0.0509  0.3671 -0.1208
11625W        W21318  17.221  11.498   0.297  0.1643 -0.5410 -0.1355
11626W        W21319   5.745  12.812  17.311 -0.2632 -0.1874  0.1776
11627W        W21320  17.616   2.901   3.810 -0.1570  0.2965 -0.1470
11628W        W21321   8.443  12.036   4.110 -0.3314 -0.2997 -0.0664
11629W        W21322  13.113  16.625   4.743 -0.3087  0.3795 -0.3124
11630W        W21323   8.881  12.960   7.337 -0.2637  0.0292 -0.0794
11631W        W21324   7.861   1.155  10.643 -0.0802  0.2233 -0.4685
11632W        W21325   7.220  13.737  17.328  0.2830  0.0413  0.1765
11633W        W21326   2.298  10.526   4.286  0.1268 -0.0031 -0.1296
11634W        W21327   0.346   3.289  17.604 -0.0323 -0.0251 -0.1074
11635W        W21328   1.388   3.701   1.557  0.2547  0.1987  0.3200
11636W        W21329   5.160  10.645   0.161  0.2671  0.1088 -0.0835
11637W        W21330  10.031  12.399   5.884  0.2106 -0.1134  0.0268
11638W        W21331   4.518  16.427   6.195  0.1382 -0.1926 -0.1722
11639W        W21332  10.311  17.298   1.259  0.0396  0.0748  0.2472
11640W        W21333   5.575  12.948  11.962  0.4195 -0.1810  0.3401
11641W        W21334  13.194  10.879   3.112  0.0328  0.0536  0.0259
11642W        W21335  12.608   8.361   3.607  0.1431 -0.1988 -0.1319
11643W        W21336   8.637  11.223   3.020 -0.2515 -0.2021  0.2460
11644W        W21337   8.455   2.582   0.611  0.1134 -0.0860  0.3984
11645W        W21338  15.316   7.628   1.394  0.1450 -0.1992 -0.0163
11646W        W21339  11.459  13.276   1.487  0.0821 -0.0167  0.1894
11647W        W21340   4.088   4.347  13.270  0.2533 -0.3480 -0.0371
11648W        W21341  14.550   5.101   0.910  0.0071 -0.0391  0.2501
11649W        W21342  10.252   4.541   6.086  0.1823 -0.1769  0.0786
11650W        W21343  16.074   5.049  15.099  0.1571  0.0064  0.0460
11651W        W21344   0.277   4.570   3.317 -0.0197 -0.1150  0.1111
11652W        W21345  11.820  12.712  13.328 -0.4232 -0.1878 -0.2899
11653W        W21346   4.790  17.011  14.125 -0.2889 -0.1409 -0.0016
11654W        W21347  13.444   1.076  17.351  0.2005  0.0554  0.2263
11655W        W21348  16.414  16.643  16.983 -0.1753  0.3304 -0.0092
11656W        W21349  10.320  16.901  13.457  0.0042  0.1072 -0.0969
11657W        W21350  13.207   6.773   3.740  0.0942 -0.0089 -0.0125
11658W        W21351  11.701   2.891  13.045 -0.2614  0.1508  0.0061
11659W        W21352   7.627   6.243   4.466  0.2529  0.1040 -0.3697
11660W        W21353  15.984   8.089   0.490  0.6708  0.0377 -0.0431
11661W        W21354  17.271   6.366  16.566  0.0360  0.0348  0.1900
11662W        W21355   2.715  10.284   2.369  0.2584  0.2012  0.3277
11663W        W21356   6.234   6.404   1.611 -0.1021  0.3150 -0.2306
11664W        W21357  15.752   6.336   2.401 -0.0037  0.1518  0.0490
11665W        W21358   6.298  11.425  13.342 -0.0268 -0.0672 -0.2564
11666W        W21359   2.478   5.019  12.974 -0.1586 -0.0473  0.1018
11667W        W21360   0.852  16.326  16.744 -0.1039  0.0494 -0.1334
11668W        W21361   9.828   7.511   3.136  0.0657 -0.0418  0.3096
11669W        W21362   4.908  13.048   1.699  0.3117 -0.0176 -0.0027
11670W        W21363  16.450  17.584  12.584  0.0870 -0.0695 -0.3586
11671W        W21364   7.980  11.993   1.233 -0.1026 -0.2733 -0.1737
11672W        W21365   6.902   0.288  16.380  0.3622 -0.1014  0.3256
11673W        W21366   9.360  14.287   3.073 -0.1695 -0.1270  0.0588
11674W        W21367   9.973   8.859   5.229  0.1684 -0.2926  0.4762
11675W        W21368   7.650   9.758   3.497  0.0387 -0.1034 -0.0646
11676W        W21369   6.058   5.642   4.907  0.0681 -0.0199  0.2467
11677W        W21370  10.632   4.757  17.688  0.1360  0.0714 -0.0238
11678W        W21371  17.196   5.939  13.525  0.0828  0.2711 -0.1307
11679W        W21372  17.271   9.070   4.972 -0.0613 -0.1830 -0.0647
11680W        W21373   4.861   6.696  16.281 -0.1728 -0.1548 -0.2704
11681W        W21374  15.084   1.125  10.798  0.0710 -0.0897  0.1032
11682W        W21375   0.468   2.253  15.113 -0.0202  0.1620  0.0528
11683W        W21376  13.874   8.608  15.543  0.2481 -0.0759 -0.1379
11684W        W21377  16.088   6.751   0.698  0.2615 -0.0819 -0.0185
11685W        W21378  16.157  14.008   4.519 -0.0370 -0.2174 -0.0809
11686W        W21379  12.601  13.330   1.559 -0.0822  0.0346  0.3195
11687W        W21380  16.240  17.196  12.313  0.1599  0.0856 -0.0529
11688W        W21381   4.207   7.644  13.993  0.0819  0.2213 -0.1126
11689W        W21382  10.233  16.370   5.649 -0.0933  0.2061  0.1939
11690W        W21383   6.895  15.529  16.416  0.5613  0.0144  0.2311
11691W        W21384   0.228   9.401  15.456  0.2005  0.5030  0.0834
11692W        W21385   2.336   1.025   0.771  0.1215  0.0105 -0.0826
11693W        W21386  16.356   7.941  15.535 -0.2310 -0.1359 -0.0058
11694W        W21387   7.766   9.621   1.445  0.0332  0.1182  0.3583
11695W        W21388   0.493  12.847   4.153 -0.0595 -0.2133 -0.1234
11696W        W21389  17.347   5.394   5.048  0.1707  0.0836 -0.0470
11697W        W21390  17.147   5.133   6.371 -0.3637  0.3254  0.0674
11698W        W21391  16.173   9.653  17.688 -0.2270  0.0819  0.3680
11699W        W21392  17.475  12.375   0.898  0.0718  0.3873 -0.0764
11700W        W21393   9.518  13.741   2.146  0.1947  0.0751  0.1502
11701W        W21394  14.259  16.454  13.161 -0.0956 -0.2458  0.1147
11702W        W21395   2.122  11.800   1.912  0.2328  0.1735 -0.0504
11703W        W21396   5.763   5.221   3.675 -0.0743 -0.0167 -0.0140
11704W        W21397  12.671   0.429   1.271 -0.2869  0.0783  0.1435
11705W        W21398   5.744   1.607   4.497 -0.0563  0.2503  0.0145
11706W        W21399  14.676  15.553  12.847  0.0627  0.0203  0.2966
11707W        W21400   5.306   5.951  12.733  0.0960 -0.0750 -0.1697
11708W        W21401  10.224  10.963  15.870  0.0604  0.2105  0.0864
11709W        W21402   6.772   1.281   3.131 -0.0401 -0.1069  0.0576
11710W        W21403  11.491  14.272   1.059  0.2039  0.1076 -0.2118
11711W        W21404  15.402  15.241   4.991  0.2686  0.0208 -0.2533
11712W        W21405  14.624  16.468   0.584 -0.2313  0.1219 -0.0080
11713W        W21406  17.334   3.717  14.554  0.2202  0.1010  0.0397
11714W        W21407  11.874   3.499   5.289 -0.0282  0.1084  0.0852
11715W        W21408  10.484  14.418   2.861  0.0103  0.1864 -0.0421
11716W        W21409   1.411  14.844   0.750  0.0468  0.2324 -0.2861
11717W        W21410   8.423  16.276   2.720 -0.1325  0.0213 -0.2137
11718W        W21411   5.897  14.470   3.693 -0.4830  0.1103  0.1387
11719W        W21412  17.571   2.278   2.545 -0.2014 -0.1054 -0.0544
11720W        W21413  12.154  14.989  15.981 -0.0890 -0.1329 -0.1646
11721W        W21414  15.550   9.914   6.018  0.2235  0.4038 -0.1513
11722W        W21415   9.713   6.625   3.803  0.0147  0.0995  0.1314
11723W        W21416   7.333   5.251   0.221  0.1254  0.1214  0.2930
11724W        W21417  13.054   3.048   1.857  0.1626 -0.0439  0.1992
11725W        W21418   4.540  12.271   6.304 -0.1222 -0.0218 -0.1452
11726W        W21419  16.638   9.130   3.469 -0.2877 -0.1306  0.2344
11727W        W21420  13.173   0.492   0.972  0.0566 -0.1926 -0.0992
11728W        W21421   5.201   5.820  14.220 -0.0544  0.2432 -0.2098
11729W        W21422   7.225  13.475  12.352 -0.1237 -0.2238  0.0205
11730W        W21423   3.682   8.026   0.330 -0.0637  0.2192 -0.1863
11731W        W21424   4.691   9.590   5.707 -0.1764  0.1230  0.0031
11732W        W21425   6.214  11.479  14.185  0.1855  0.1244 -0.0173
11733W        W21426  12.800  15.029  13.101 -0.0723 -0.1503 -0.1367
11734W        W21427   2.065  11.779  15.881 -0.1120  0.0534  0.1872
11735W        W21428   7.038   6.209  11.929  0.0386  0.1271 -0.0066
11736W        W21429   3.261   3.599  13.858 -0.1215  0.1667 -0.0471
11737W        W21430   5.493  11.045  15.850  0.1853 -0.2859  0.0330
11738W        W21431  11.481   2.403   3.943 -0.0093  0.1436  0.4334
11739W        W21432  11.245  16.841  11.872 -0.4505  0.0165  0.0064
11740W        W21433  17.654   8.179  10.961 -0.0359  0.1039 -0.1246
11741W        W21434  15.310   5.608   1.789  0.0891 -0.2530 -0.0322
11742W        W21435  15.267  15.778   0.378 -0.2918  0.1519 -0.4646
11743W        W21436  17.657  11.044   0.344 -0.2534 -0.0114  0.0642
11744W        W21437   1.963  15.777  14.225  0.1825  0.0615 -0.0448
11745W        W21438   9.252   3.774   0.294  0.2352  0.0746  0.1207
11746W        W21439   0.294   2.827  16.480 -0.0918  0.0788  0.1797
11747W        W21440   3.219   5.330  16.810 -0.1596 -0.3938 -0.1816
11748W        W21441  11.828  15.641   3.978 -0.3259 -0.3671  0.1427
11749W        W21442   4.634  15.334   1.000  0.2615  0.3820  0.1759
11750W        W21443  15.027   3.582  15.971 -0.0911 -0.1220  0.1863
11751W        W21444   6.546   8.110  12.608 -0.3051 -0.1574 -0.0680
11752W        W21445   7.450  13.063   2.628  0.0367  0.2472 -0.0780
11753W        W21446  13.902   0.590   3.707 -0.0262 -0.0840  0.3131
11754W        W21447  16.763  13.270   2.476  0.3231  0.3053  0.0010
11755W        W21448  12.938  17.055  14.214 -0.2936  0.2548  0.0309
11756W        W21449   7.526  11.424  16.609  0.0373 -0.1007  0.0756
11757W        W21450  16.638   6.212   5.746 -0.0869 -0.1493 -0.1795
11758W        W21451  16.564   4.058   1.250 -0.2552  0.1183 -0.2203
11759W        W21452   8.356   3.741   3.198  0.0027  0.2959 -0.3041
11760W        W21453   1.767  16.733   1.076 -0.3456  0.0597  0.2434
11761W        W21454  15.142   1.646  15.587  0.1023 -0.1560 -0.0706
11762W        W21455   0.352  12.261   5.550  0.0053 -0.1511  0.3843
11763W        W21456   4.811   9.561   4.912 -0.1560 -0.1751 -0.1883
11764W        W21457   3.816  15.431   1.834  0.3967 -0.1126 -0.0723
11765W        W21458  11.655  15.549   5.268  0.0998  0.3112  0.0415
11766W        W21459   0.315   6.812   4.168  0.2980  0.0210 -0.1838
11767W        W21460  14.365   3.340   2.735  0.1014 -0.1452 -0.1952
11768W        W21461  12.128   4.185   5.692 -0.0988  0.1972 -0.0326
11769W        W21462   0.568   8.393   5.431 -0.0431  0.0193  0.0529
11770W        W21463   2.563  16.768   0.258  0.0476 -0.0788 -0.2670
11771W        W21464   8.990  13.409   5.167  0.1762  0.3250 -0.1241
11772W        W21465   3.185  10.185  12.174 -0.1044  0.1056 -0.3344
11773W        W21466  11.798   5.396  15.640  0.2170  0.2810  0.3118
11774W        W21467   4.879  10.642   5.670  0.2586 -0.2992  0.0323
11775W        W21468   8.087  13.192   1.763  0.1393  0.1334 -0.0270
11776W        W21469  14.782   2.628  14.811  0.0978  0.3942 -0.0290
11777W        W21470   0.388   3.305   5.787  0.1299 -0.0333  0.1243
11778W        W21471   1.268   8.706   3.942 -0.0848 -0.1173 -0.0696
11779W        W21472   4.072   0.439  14.373  0.0632 -0.2539  0.1263
11780W        W21473   3.764  16.260  13.628  0.0778  0.0081  0.1134
11781W        W21474  13.752   5.165  12.537  0.1137  0.1053 -0.2985
11782W        W21475   7.701  13.198  14.576 -0.1219  0.0879  0.2098
11783W        W21476   0.410  17.551  14.621  0.0012 -0.1584 -0.1250
11784W        W21477  15.493   2.098   5.669  0.1504  0.1471  0.1871
11785W        W21478   4.372  12.531   0.018  0.1424 -0.0863 -0.0834
11786W        W21479  12.195   8.025  14.070  0.0922 -0.0805  0.0389
11787W        W21480  11.589   1.090  16.749 -0.2015  0.0214 -0.1431
11788W        W21481   5.923   2.302   2.812  0.2865  0.0957 -0.2294
11789W        W21482  12.985  15.977   3.920  0.1772 -0.1174  0.0662
11790W        W21483   5.203   5.883   3.189 -0.1440 -0.0555 -0.0307
11791W        W21484  16.017   3.308   5.373 -0.4002  0.0814  0.0107
11792W        W21485   7.315   4.603  16.565 -0.1157 -0.1197  0.1459
11793W        W21486   5.086  14.360  14.604  0.1105  0.1188 -0.1078
11794W        W21487  11.483   1.996  16.067  0.0183  0.0955  0.1959
11795W        W21488  15.561   0.712   0.177  0.1108  0.1755 -0.2259
11796W        W21489  14.335  16.730   2.464  0.2920  0.2049  0.5172
11797W        W21490  14.029  12.449  12.673  0.0250  0.0723  0.2933
11798W        W21491   5.843  14.697  14.189 -0.1448 -0.1367 -0.0220
11799W        W21492  14.048   6.312   1.236  0.2653 -0.0196 -0.0831
11800W        W21493   9.954   7.674   1.760 -0.1648 -0.0035  0.2275
11801W        W21494   8.490  10.721   3.074 -0.5247 -0.0434 -0.2232
11802W        W21495  16.719   2.235  14.265  0.0103 -0.1821 -0.2731
11803W        W21496  14.567   9.482   0.962 -0.2102  0.0019 -0.1484
11804W        W21497  10.571   8.356   0.315  0.2034 -0.0377 -0.2707
11805W        W21498   0.630  11.596   7.020  0.2598 -0.1901 -0.2953
11806W        W21499   8.576  14.292   3.177 -0.0823  0.2151 -0.3447
11807W        W21500   5.760   1.826   2.412 -0.2071 -0.1162  0.3042
11808W        W21501   4.623   5.951  14.856  0.2416  0.0989 -0.1725
11809W        W21502  16.848   2.724  14.428 -0.1701 -0.2738 -0.0609
11810W        W21503   3.844  11.582  11.438 -0.2012 -0.0450 -0.2602
11811W        W21504  10.665  14.195   4.518  0.0892 -0.1126  0.0470
11812W        W21505   2.006  16.497  16.408  0.1523 -0.0360 -0.4665
11813W        W21506   7.223   3.519   1.407 -0.2356 -0.1267 -0.0966
11814W        W21507  12.196  14.948  15.418  0.1285  0.1086 -0.0461
11815W        W21508  12.637   1.475   6.354  0.0334 -0.1260  0.0095
11816W        W21509   4.122  11.076   3.447  0.0365 -0.0758  0.1810
11817W        W21510   4.001  16.091   2.441  0.0733 -0.0487  0.1352
11818W        W21511  11.892  13.824   2.224 -0.0695  0.2154 -0.4128
11819W        W21512   6.099   0.548  14.186 -0.0213 -0.1054 -0.2130
11820W        W21513   0.636  15.210  14.480 -0.2811 -0.2442 -0.3135
11821W        W21514   0.466  15.491   4.321 -0.0763  0.0843  0.2294
11822W        W21515   0.921  10.959   3.265 -0.0067 -0.2437  0.0882
11823W        W21516  11.107   0.985   2.258  0.0771 -0.3080  0.0845
11824W        W21517   8.492   0.955   1.607  0.1140  0.1114 -0.0550
11825W        W21518   0.182   4.628   5.987  0.0870  0.1882 -0.2950
11826W        W21519   5.806  11.656  12.217  0.1007 -0.0726  0.1646
11827W        W21520   0.944   1.438  13.480 -0.0606 -0.0453  0.1696
11828W        W21521   9.705   7.533   2.483  0.1833 -0.0314 -0.1154
11829W        W21522  11.121   5.041   4.169 -0.1123  0.1395 -0.0878
11830W        W21523   1.635  15.265   0.805 -0.0198  0.0499 -0.1959
11831W        W21524  13.615   2.827   6.211  0.0438 -0.1710 -0.2664
11832W        W21525   1.519   5.016   0.630 -0.1187 -0.0919 -0.0522
11833W        W21526   0.755  11.907   5.570  0.1612 -0.0415 -0.0755
11834W        W21527   0.987  14.425   3.920  0.0526  0.5138  0.1192
11835W        W21528   7.429   6.562  14.200  0.2004  0.1981 -0.4358
11836W        W21529   2.886   0.762   4.780 -0.1886  0.0187  0.1203
11837W        W21530   2.169   3.161  12.952 -0.1252  0.2586  0.2570
11838W        W21531  10.816  13.640   6.030  0.3159 -0.1689 -0.1634
11839W        W21532   7.823  12.716   4.303 -0.0057  0.0616  0.1441
11840W        W21533  17.306   9.354   0.991 -0.1232 -0.0811 -0.0046
11841W        W21534  12.603   7.645   0.315 -0.2326 -0.2084 -0.1520
11842W        W21535  11.631   5.260  14.342  0.1883  0.0797 -0.0008
11843W        W21536  14.557  11.242   6.120  0.2516 -0.2150 -0.2926
11844W        W21537  13.740  13.829   6.808 -0.0019  0.0825 -0.1422
11845W        W21538  17.658  12.066   5.265 -0.2108 -0.2504 -0.0007
11846W        W21539   4.497   1.253  13.806  0.0290 -0.0170  0.2704
11847W        W21540  10.293   3.430   3.166  0.0801 -0.2565  0.2245
11848W        W21541   4.740   2.281  16.610 -0.1486 -0.2796 -0.0999
11849W        W21542  14.378  17.211  14.846 -0.0287 -0.1431 -0.0394
11850W        W21543   0.494  15.700   3.407  0.0051  0.1993  0.2571
11851W        W21544   9.881   7.719  16.784  0.0164  0.1846 -0.0825
11852W        W21545   1.868  13.289  15.214 -0.1083  0.0450 -0.0331
11853W        W21546  16.829   1.651   4.006 -0.1514  0.2925 -0.2955
11854W        W21547   8.999  17.675   1.626  0.3017  0.1814 -0.0776
11855W        W21548   8.930   7.749   4.014  0.0001 -0.1283  0.0480
11856W        W21549  11.486   1.480   3.841 -0.0263  0.0251  0.1625
11857W        W21550  12.534  13.309  17.088  0.3935  0.1069  0.2562
11858W        W21551   3.597   7.025  15.890 -0.2537  0.0452  0.1142
11859W        W21552  17.386   5.757   1.369  0.2454  0.1061 -0.1794
11860W        W21553   1.537   7.759   2.472 -0.0667 -0.1100 -0.1676
11861W        W21554   0.676  15.377   5.375  0.1583 -0.1570  0.0025
11862W        W21555  12.126   4.709   5.479  0.0075 -0.1926 -0.1640
11863W        W21556   5.856   8.005   6.378  0.0714  0.3619  0.1650
11864W        W21557   1.108  16.852   4.699  0.0653 -0.3012  0.0606
11865W        W21558   3.842  16.688   3.023 -0.0199  0.1782  0.0740
11866W        W21559   5.536  13.782   1.719  0.1192 -0.2745  0.6080
11867W        W21560   7.960  10.016   5.523  0.0528  0.0358 -0.0866
11868W        W21561  13.392   5.350  13.400 -0.1815  0.1473  0.0325
11869W        W21562   7.608   0.095  12.659 -0.0983 -0.0200  0.0318
11870W        W21563   1.379   9.535   0.266 -0.2236  0.0513 -0.1151
11871W        W21564   0.063  11.545   0.395  0.0637 -0.1721 -0.0035
11872W        W21565  17.012   4.291   1.058 -0.2288  0.2777 -0.0558
11873W        W21566   9.898   0.932   1.832 -0.1353 -0.2807  0.0105
11874W        W21567  15.052   3.175   5.717 -0.2075 -0.1692 -0.1353
11875W        W21568   2.245  15.828   2.852  0.0445 -0.1407  0.2866
11876W        W21569   7.676   1.932  12.369  0.4168 -0.1689 -0.0621
11877W        W21570  15.294   0.309  17.616 -0.2196  0.0084 -0.2222
11878W        W21571  13.410   8.557  17.402 -0.1400 -0.2296 -0.4423
11879W        W21572   7.152   8.304  11.164  0.0297 -0.0699 -0.2743
11880W        W21573   5.013   9.314   5.358 -0.2160  0.0040 -0.2445
11881W        W21574  15.040   8.402   3.500  0.3740  0.1183 -0.3712
11882W        W21575   0.116  16.866  15.532 -0.0332 -0.0589 -0.0965
11883W        W21576   1.981   8.602   2.166  0.2366 -0.1362 -0.0967
11884W        W21577   1.869  16.444   6.018 -0.0563  0.2205  0.1285
11885W        W21578   4.089   3.443   4.117 -0.1286  0.0579 -0.0087
11886W        W21579   8.152   7.913   3.267 -0.2567 -0.1234 -0.0921
11887W        W21580   9.839   3.532   4.799 -0.2034 -0.1960  0.3072
11888W        W21581  17.090   2.150   1.885 -0.0573  0.0237 -0.1549
11889W        W21582   2.232   5.870  11.471  0.3597  0.0677  0.0466
11890W        W21583   3.777   8.531  11.872  0.1786 -0.1203  0.1087
11891W        W21584  13.115  12.186  15.761 -0.1025 -0.0199 -0.1987
11892W        W21585   7.157   6.612   4.368  0.0725 -0.1434  0.0341
11893W        W21586   3.089   4.268   2.733 -0.1655  0.0996 -0.1602
11894W        W21587   2.812  10.175   3.237 -0.0639 -0.1516  0.4413
11895W        W21588  10.131   5.434   6.004 -0.4002  0.2320 -0.3340
11896W        W21589   1.395  14.611   0.002 -0.0698 -0.5958  0.0322
11897W        W21590   7.664   6.457   2.894  0.2761  0.1332 -0.0429
11898W        W21591  13.632  12.608   4.477  0.0244  0.1418 -0.1527
11899W        W21592  16.182   1.976  11.491 -0.0986 -0.0092 -0.1776
11900W        W21593   9.008  14.067  15.478  0.1678 -0.0425 -0.2442
11901W        W21594  16.427   9.435   4.137  0.1685  0.0072  0.1113
11902W        W21595   8.396   5.909   1.575 -0.0126 -0.0837 -0.1587
11903W        W21596   2.285  15.579   4.379 -0.0561 -0.0601  0.0448
11904W        W21597  13.619   3.968  13.498  0.2793 -0.0377  0.1974
11905W        W21598  12.475  10.438   1.004 -0.0183  0.0470 -0.0937
11906W        W21599  17.534   6.456   2.437  0.0386 -0.0077  0.1620
11907W        W21600  16.234   1.228   4.981 -0.3681 -0.0100 -0.0273
11908W        W21601   2.275  10.791  13.065 -0.2383  0.0749  0.2130
11909W        W21602   7.831  17.050  16.117  0.1948  0.1131 -0.2182
11910W        W21603  11.231  17.458  12.024  0.3883 -0.1171 -0.0505
11911W        W21604   5.053   1.386  12.575  0.0332 -0.1241  0.0514
11912W        W21605   4.980  15.863  10.981 -0.0233  0.1134  0.0801
11913W        W21606   3.560   2.988  17.639 -0.2752 -0.3247  0.2161
11914W        W21607   9.485   6.453  12.061  0.2941 -0.0089  0.3064
11915W        W21608  10.398   5.778   5.699  0.0330  0.0012 -0.0342
11916W        W21609  14.880  15.573  14.327  0.1508  0.0173 -0.1871
11917W        W21610   5.881  16.833   3.964  0.1498  0.0852  0.2962
11918W        W21611  13.186  10.673  13.277 -0.3325 -0.3043  0.1296
11919W        W21612   8.092   9.433   0.153 -0.2089 -0.0451  0.1647
11920W        W21613  16.603  10.379   0.600  0.0825 -0.1254  0.0607
11921W        W21614   4.006   6.190  13.027  0.0268 -0.0292 -0.0097
11922W        W21615  12.756   9.887  16.892  0.1395  0.1846  0.1156
11923W        W21616  17.672  17.263  14.697  0.2924  0.1059  0.2426
11924W        W21617  15.737  10.578  16.114  0.3020  0.2877  0.0877
11925W        W21618  16.664   9.425   6.759 -0.1195  0.2138 -0.1906
11926W        W21619  14.888   9.042   2.287  0.0700 -0.1378  0.0459
11927W        W21620   4.417   2.553  16.325  0.0106 -0.1017  0.0846
11928W        W21621  14.973  13.866   3.893  0.0737  0.0146 -0.3591
11929W        W21622   8.042   6.709  14.751 -0.0690 -0.4021  0.1163
11930W        W21623  15.246   7.819   3.612  0.1617 -0.1193  0.0146
11931W        W21624   3.435   6.619   2.786 -0.3099  0.1562 -0.3262
11932W        W21625  16.103  14.029  16.352 -0.0170 -0.0562 -0.2796
11933W        W21626   3.895   2.755  13.672 -0.0994 -0.1162 -0.3566
11934W        W21627   7.426   9.949  13.565 -0.2455  0.0015 -0.1559
11935W        W21628   9.408  16.962   1.056  0.0600 -0.2690 -0.0985
11936W        W21629  11.080   6.607   0.436  0.0989 -0.3431  0.3341
11937W        W21630   8.421   3.463  17.361  0.2341 -0.0635 -0.0149
11938W        W21631   4.907   7.314  16.393  0.1723  0.0824 -0.1614
11939W        W21632   8.899   3.811  13.845 -0.1577  0.1477 -0.0966
11940W        W21633   6.373   0.818  13.832 -0.2229  0.2868 -0.0118
11941W        W21634   3.566  12.386  13.993 -0.0895  0.0227  0.2018
11942W        W21635   9.898   4.948  17.054 -0.3624 -0.0364 -0.1460
11943W        W21636   3.096   9.641  16.676 -0.1194 -0.2663 -0.2171
11944W        W21637  11.484  11.664   5.736 -0.1440 -0.0291  0.0107
11945W        W21638   5.042  14.219   1.989  0.1407  0.0775  0.2087
11946W        W21639   7.981   3.594   1.741  0.0516 -0.4535 -0.2103
11947W        W21640   3.141   2.509   3.170 -0.4451 -0.1235 -0.2421
11948W        W21641  10.486  14.209   1.102 -0.0568  0.0140  0.1507
11949W        W21642  17.161   4.026  12.622  0.1129  0.1657 -0.0650
11950W        W21643  13.093  11.379   7.252  0.1404 -0.2081  0.3080
11951W        W21644  16.963  13.822   1.669  0.3243  0.1110 -0.0779
11952W        W21645  12.380  12.331  14.942 -0.0357  0.2351 -0.1202
11953W        W21646  13.945  11.203   3.097 -0.2915 -0.2323 -0.3751
11954W        W21647   2.208   2.104  12.885  0.1079 -0.0385  0.2974
11955W        W21648  16.740  13.306   3.389  0.2946  0.1757  0.2601
11956W        W21649   0.767   5.717   3.412 -0.0990 -0.2806 -0.0733
11957W        W21650   8.626  12.554  13.378  0.1838  0.5038 -0.0173
11958W        W21651  11.340  14.415  17.398  0.2409  0.2119 -0.1520
11959W        W21652   6.468  12.433  12.175 -0.0871 -0.0419 -0.0832
11960W        W21653  12.365   9.570  12.211 -0.3398 -0.1298  0.2277
11961W        W21654   1.071   5.901  12.424 -0.1346  0.0862 -0.1340
11962W        W21655   3.914   5.907   0.625  0.0943 -0.2726 -0.1968
11963W        W21656   4.532  10.771  16.070  0.1838  0.0728  0.1104
11964W        W21657  11.705   3.000  15.647 -0.3302 -0.2786 -0.0229
11965W        W21658  16.265   1.638   4.313 -0.1613  0.2570  0.1984
11966W        W21659   0.196   6.887  14.386 -0.1069  0.0426  0.0710
11967W        W21660  15.528   2.271  16.376  0.1920  0.0422 -0.1172
11968W        W21661   1.146  11.194   0.427  0.1481 -0.1519  0.3598
11969W        W21662   5.882  10.264  13.788 -0.0159  0.0311  0.4916
11970W        W21663   2.713  11.031  16.771 -0.1719  0.0493  0.2380
11971W        W21664   8.489  10.972  14.153  0.1422  0.1948  0.0980
11972W        W21665   1.763  16.856   5.770 -0.1966  0.2359 -0.1822
11973W        W21666   6.243   1.458   4.119  0.1727  0.1732 -0.4170
11974W        W21667   6.334   2.911   5.315 -0.0172  0.4515 -0.1361
11975W        W21668  11.630   5.678  14.640 -0.0828 -0.0358  0.1038
11976W        W21669  11.560   2.986  16.705  0.0594 -0.1127 -0.0783
11977W        W21670   3.769  10.368  17.036 -0.2471  0.2105  0.0729
11978W        W21671  11.658   1.175   5.296  0.1273 -0.4215 -0.0912
11979W        W21672   4.326   6.665   6.315  0.1251 -0.2227 -0.0876
11980W        W21673   1.204  16.538  12.168  0.0801  0.0351  0.1043
11981W        W21674  12.936   5.633   0.077 -0.1655  0.0546 -0.0763
11982W        W21675  13.570   2.235  17.068  0.1334 -0.1681  0.0139
11983W        W21676  15.255  11.639  16.291  0.1009  0.4555 -0.1100
11984W        W21677   2.972  14.094  14.500  0.0564  0.1091  0.4295
11985W        W21678   9.540  14.138   5.793  0.0422 -0.0744  0.2353
11986W        W21679   8.501   0.869   6.378  0.0415  0.0903 -0.1044
11987W        W21680   5.509   0.674   4.613  0.1198  0.1634 -0.0343
11988W        W21681   5.266   5.233  13.922  0.1559 -0.2163  0.2040
11989W        W21682   4.831  15.159  15.468 -0.0317 -0.2248 -0.0547
11990W        W21683   4.462   8.461   1.388  0.0349  0.1161  0.0223
11991W        W21684   3.538   2.760  14.054  0.2409  0.0648  0.5407
11992W        W21685  13.076   7.522  13.946  0.2578 -0.2621  0.4663
11993W        W21686   0.464   6.510  17.613 -0.0694 -0.2645 -0.1291
11994W        W21687   6.679  11.394  14.748  0.1988  0.0130  0.1396
11995W        W21688   5.299   7.636   5.026 -0.1149  0.0254  0.0055
11996W        W21689   9.135   4.912   3.486  0.1537  0.1628  0.1204
11997W        W21690  15.823   9.269   2.871  0.2952  0.0577 -0.0451
11998W        W21691  14.006  12.955   3.556 -0.1849  0.0632 -0.1894
11999W        W21692   6.859   9.147  14.790 -0.0979  0.0232 -0.1144
12000W        W21693   6.339  16.143   3.220  0.4562 -0.0861 -0.0684
12001W        W21694  13.769  17.256  12.913 -0.2193 -0.0633 -0.2269
12002W        W21695   2.983   4.415  11.294  0.0003 -0.0542 -0.0449
12003W        W21696   9.097  15.416   3.486  0.0284 -0.3230 -0.0374
12004W        W21697   0.852   7.772  14.733  0.0798  0.2723 -0.1490
12005W        W21698   1.015  17.361  16.610  0.3291 -0.1260 -0.2855
12006W        W21699  16.491   6.467   0.570 -0.3563  0.2745  0.0090
12007W        W21700  11.889  12.704   6.116  0.1368 -0.1567 -0.0036
12008W        W21701  13.647   5.516  15.869 -0.0968 -0.1178  0.1534
12009W        W21702  10.654   6.928   4.919  0.1765  0.0385 -0.1422
12010W        W21703   7.667   1.644   4.534  0.1634 -0.3376 -0.4928
12011W        W21704   2.971  11.113   1.271  0.1684 -0.2555  0.1537
12012W        W21705   7.904   3.391   2.204  0.0612  0.1037  0.2398
12013W        W21706  17.407  12.932  11.960 -0.2733 -0.0001  0.1946
12014W        W21707  11.052  11.863   5.986 -0.2891 -0.0151 -0.1215
12015W        W21708   2.369  10.743   2.665  0.2292 -0.0761 -0.0776
12016W        W21709  17.584  11.898   4.336  0.0394 -0.1493 -0.0325
12017W        W21710  11.405  11.946   5.370 -0.0168 -0.3180 -0.0286
12018W        W21711  14.696  11.940   2.264 -0.0977 -0.0616 -0.1918
12019W        W21712  14.340   4.644  13.597  0.2853 -0.2624 -0.0595
12020W        W21713  14.784   2.239   1.975  0.1219 -0.0274 -0.1865
12021W        W21714   1.297   4.362   4.998  0.0550  0.2095  0.2805
12022W        W21715  10.220  16.725  14.136 -0.2654  0.0370  0.0746
12023W        W21716   2.295  16.614   1.169  0.2124 -0.0605  0.1748
12024W        W21717   2.817   2.444  17.068 -0.2735  0.0178 -0.2981
12025W        W21718  16.092   5.641   0.537 -0.4518 -0.0980  0.1996
12026W        W21719   7.567  16.580   4.618 -0.0397 -0.1748 -0.0629
12027W        W21720   7.842   1.093   2.388 -0.0081  0.2584  0.0319
12028W        W21721  12.770   3.095  15.224 -0.0424 -0.1953  0.2873
12029W        W21722  13.317  14.950   1.666  0.0156  0.1163  0.0074
12030W        W21723  12.483  15.340  15.767  0.1705 -0.3200 -0.1288
12031W        W21724  15.165   8.288   0.603 -0.1055  0.1642 -0.1126
12032W        W21725   8.152   0.197   2.797 -0.1694 -0.2254  0.1859
12033W        W21726  12.976   1.070   4.585  0.1373  0.0690  0.0034
12034W        W21727   6.705  15.988   5.494 -0.0639  0.3910 -0.0897
12035W        W21728   1.307   6.509   3.279 -0.1411 -0.2114  0.0522
12036W        W21729   4.989  13.885  14.577 -0.2584  0.0910 -0.0816
12037W        W21730   4.636  11.346   0.599  0.3756 -0.0013 -0.0543
12038W        W21731  17.424  14.780   1.847  0.2557 -0.0739 -0.1242
12039W        W21732  11.360  15.730  14.428 -0.0233 -0.1819 -0.3471
12040W        W21733   6.433   2.453   3.316  0.0061 -0.0654 -0.0207
12041W        W21734   2.856  16.497   5.781  0.0966  0.0168 -0.0608
12042W        W21735   2.076  14.273   0.230 -0.0675 -0.1433  0.1034
12043W        W21736  13.145   5.411  11.933 -0.0869 -0.0222 -0.3360
12044W        W21737   1.737   9.011   5.933  0.0910 -0.0992 -0.1672
12045W        W21738   2.184   6.461   2.789  0.1516 -0.2211  0.1808
12046W        W21739   0.442  14.597   4.821  0.2191 -0.0091 -0.2475
12047W        W21740  14.901  10.252  14.048 -0.0841  0.0566  0.0878
12048W        W21741   6.705   1.052   1.386 -0.1580 -0.0067  0.0909
12049W        W21742   8.677  10.214   2.927  0.1579  0.0716 -0.1203
12050W        W21743  12.171   5.906   5.026 -0.0809  0.2464 -0.4554
12051W        W21744  11.061  10.899  16.621 -0.2162 -0.0564 -0.0916
12052W        W21745   0.673   6.899  17.304 -0.0550  0.4900  0.3018
12053W        W21746  16.587   1.388  13.543  0.3419 -0.2731 -0.1654
12054W        W21747  12.416  16.342   1.246 -0.1151  0.1281  0.1139
12055W        W21748  15.558   6.258   4.733  0.0071 -0.1574 -0.1176
12056W        W21749   0.908   8.888   3.007  0.2821  0.2408  0.2482
12057W        W21750  13.477   1.241   0.517 -0.1010  0.0251 -0.0541
12058W        W21751   4.654  16.170   4.894  0.1414  0.0456 -0.0179
12059W        W21752   5.744  12.365   6.199 -0.1336 -0.2038 -0.0551
12060W        W21753   6.175   8.806  14.244  0.4799  0.0850  0.0829
12061W        W21754   4.143  10.325  11.997  0.2713  0.0457  0.0462
12062W        W21755   8.401   6.179  15.309  0.2906  0.1465  0.3538
12063W        W21756   1.915  16.364   4.159 -0.0248  0.0478 -0.1113
12064W        W21757   1.164  13.599   4.069 -0.2143 -0.0111 -0.0726
12065W        W21758  17.014   5.023  16.146 -0.2095  0.0671  0.1322
12066W        W21759   6.442   6.970   0.813 -0.2131 -0.0458  0.1552
12067W        W21760   6.356   3.876   5.689  0.1511 -0.3000  0.2297
12068W        W21761   3.943   4.340  14.688  0.0407 -0.2928 -0.2923
12069W        W21762  13.965   0.778  15.530 -0.1408  0.1692 -0.0025
12070W        W21763   6.925   7.795  14.670  0.0908  0.1012 -0.0804
12071W        W21764   8.293   7.445   3.740  0.0030 -0.0273 -0.1863
12072W        W21765  14.068  14.158   0.935 -0.2333  0.0531 -0.2422
12073W        W21766  16.665   6.470  17.092  0.2666 -0.1382  0.0621
12074W        W21767  12.858  10.281  12.530 -0.3084  0.1941  0.0422
12075W        W21768  15.858   0.835  15.774  0.0825 -0.0283  0.0991
12076W        W21769   3.232  16.185  17.027 -0.0937  0.2130 -0.2418
12077W        W21770   5.307  11.310  13.015  0.1079  0.0536  0.0955
12078W        W21771   7.487   8.722   5.064 -0.0989  0.0077 -0.0478
12079W        W21772   2.327  11.911  16.970 -0.3184  0.1031 -0.0920
12080W        W21773   4.106  14.953  14.619  0.2286  0.1930  0.1054
12081W        W21774   1.455  16.355   6.264 -0.0748 -0.0824  0.1992
12082W        W21775   4.993   8.684   0.553  0.1876  0.0017 -0.1233
12083W        W21776  15.572   9.786   4.744  0.2313 -0.0370 -0.0202
12084W        W21777  11.447   0.156  12.976  0.1288  0.0002 -0.2317
12085W        W21778  12.515   0.763  12.921 -0.0748  0.3605 -0.1203
12086W        W21779   7.724   6.914   6.116  0.1201  0.1721  0.1663
12087W        W21780   5.530  17.224   0.567 -0.3539 -0.0169  0.2473
12088W        W21781  16.683  10.823  15.782  0.0107  0.2569 -0.2047
12089W        W21782  17.006   1.295   5.416  0.0816 -0.0119  0.0503
12090W        W21783  12.914   5.298   4.447  0.1618  0.1189  0.1772
12091W        W21784   5.512   0.819  11.973  0.0811  0.2969 -0.0312
12092W        W21785  12.535   8.964   1.054 -0.4302  0.4343  0.1270
12093W        W21786   9.426  17.239   2.053 -0.4086  0.0373 -0.1769
12094W        W21787  13.919   6.002  17.549  0.1462  0.0529  0.1909
12095W        W21788   3.560  17.175   5.729 -0.2510 -0.2017 -0.2867
12096W        W21789   4.133   8.849   1.735 -0.0799  0.0961  0.1038
12097W        W21790  17.620  12.154  15.008 -0.2715 -0.0701 -0.0026
12098W        W21791   6.505  10.931   4.388  0.2434 -0.2352 -0.0310
12099W        W21792   4.861   0.837   4.202 -0.1280  0.1181 -0.2465
12100W        W21793  15.815   3.828   3.882  0.1546  0.1234  0.0695
12101W        W21794  15.253  12.608   3.013 -0.3129 -0.0933  0.1585
12102W        W21795  13.460   6.454   4.086  0.0774  0.1395 -0.1409
12103W        W21796  13.201  16.898  15.411  0.2497 -0.2526 -0.4996
12104W        W21797  11.571   6.780  13.988 -0.1994  0.3303  0.2125
12105W        W21798  10.760  11.288   5.565 -0.4349 -0.1311  0.0442
12106W        W21799  12.071  10.980   1.527  0.1383  0.1534  0.1473
12107W        W21800   6.709   1.264   5.980  0.0225  0.1717 -0.0849
12108W        W21801  11.192   0.775  12.383  0.2891 -0.0547 -0.1815
12109W        W21802  15.374   5.246  12.134  0.2775  0.0643  0.1597
12110W        W21803   8.488   2.893   3.344 -0.0850  0.0579  0.4188
12111W        W21804   9.261   0.234  14.680  0.0743  0.2288  0.2171
12112W        W21805   4.510  16.533   3.589 -0.0133  0.2442 -0.1738
12113W        W21806  17.535   1.430  16.578  0.0977  0.1062  0.1385
12114W        W21807   4.433   2.163  13.549 -0.2577 -0.2515 -0.0305
12115W        W21808   9.932   1.436  17.584  0.0576  0.1074  0.3361
12116W        W21809  11.527  16.148  12.417  0.1759 -0.1142  0.0511
12117W        W21810   1.476  16.348   2.373 -0.1157 -0.0966 -0.3540
12118W        W21811   6.252   7.297  16.676  0.1894 -0.2003  0.0865
12119W        W21812   0.245  12.499   6.129 -0.0541 -0.2356  0.1187
12120W        W21813  10.371   5.788  16.817  0.2520  0.2131  0.4109
12121W        W21814   0.985  15.241   5.885  0.0590  0.0536  0.0662
12122W        W21815   3.626   2.228  14.689 -0.1601  0.2084  0.2845
12123W        W21816  17.540  14.649   3.355  0.1756  0.2774  0.3440
12124W        W21817  11.094  11.749  16.187  0.1296  0.2536 -0.2402
12125W        W21818   9.643   4.636   3.322  0.4795 -0.0254  0.2234
12126W        W21819   7.435   7.860  14.384  0.0839 -0.0147  0.0910
12127W        W21820   2.767  17.543  10.567 -0.2348 -0.1799  0.1769
12128W        W21821  16.916  10.303   3.890  0.0183 -0.2087  0.0059
12129W        W21822   9.806  15.935  12.181  0.0932 -0.0223  0.3360
12130W        W21823  13.867   3.480  16.594 -0.1545  0.0894 -0.0886
12131W        W21824  16.983  13.688  12.865 -0.3767  0.2278 -0.1682
12132W        W21825  10.597   2.127   3.043 -0.1612 -0.0873 -0.1906
12133W        W21826  13.384  13.941   3.083 -0.1846  0.3822  0.2839
12134W        W21827   1.397   2.335   0.204  0.2387 -0.0233 -0.0081
12135W        W21828   0.609  17.098  12.697  0.0648 -0.1614 -0.1173
12136W        W21829   0.502   5.525  17.319 -0.0368 -0.3120 -0.1390
12137W        W21830   5.150   5.681  15.235  0.1750 -0.2494 -0.2116
12138W        W21831   2.885   6.582  14.925 -0.1239 -0.1127  0.0341
12139W        W21832   8.841  15.562   3.085 -0.1655  0.0592 -0.1270
12140W        W21833   3.650  14.277   6.494 -0.1113 -0.1262  0.1377
12141W        W21834  16.354  15.878  14.793  0.1109  0.3436  0.0486
12142W        W21835  16.003  11.657   1.011  0.3104 -0.2618  0.0225
12143W        W21836  14.778  13.912   3.021  0.1030 -0.1747 -0.1289
12144W        W21837  16.273  12.696   0.512 -0.3528  0.0577  0.1134
12145W        W21838  11.542   8.488  13.676 -0.0600  0.1543 -0.1662
12146W        W21839   0.815   5.520   1.815  0.2934  0.1224 -0.1914
12147W        W21840  11.379   1.368   5.946  0.0175 -0.1813  0.0347
12148W        W21841  17.089   5.246   1.182  0.1573  0.3158  0.4533
12149W        W21842   8.992   4.589  17.329 -0.0984 -0.1657 -0.2858
12150W        W21843   7.306   7.700  14.916  0.2420  0.0590  0.1840
12151W        W21844   9.892   0.122  17.636 -0.0016 -0.3181  0.0962
12152W        W21845  13.197   2.481  16.818  0.0941 -0.1677  0.1857
12153W        W21846   2.249   7.410   2.293 -0.1874 -0.4768  0.1438
12154W        W21847   8.086   6.126  17.630  0.1224  0.1477 -0.0801
12155W        W21848  14.881  10.657  15.286  0.2045 -0.0772  0.0454
12156W        W21849  13.903   2.280  14.484 -0.3922  0.0561 -0.0124
12157W        W21850   7.895   7.540  16.355  0.1516 -0.0916 -0.1287
12158W        W21851   5.274  15.258  17.332 -0.0586 -0.0910  0.0547
12159W        W21852  15.206   1.110  12.319 -0.0346  0.2310 -0.2627
12160W        W21853  16.198   1.212  17.307  0.2350 -0.0329  0.2877
12161W        W21854   3.560  12.469  16.753  0.1556  0.0960  0.1894
12162W        W21855  13.726  11.844   5.283  0.1442 -0.1113  0.2998
12163W        W21856   1.151  13.724  14.224 -0.3254 -0.0896  0.2800
12164W        W21857  12.218   4.850  17.322 -0.0638 -0.1663 -0.3186
12165W        W21858  14.788   3.387   0.047 -0.1864 -0.0986  0.1208
12166W        W21859   8.473   1.696   3.060 -0.0414 -0.3311 -0.0154
12167W        W21860   0.923  15.977   0.337 -0.3088 -0.0349 -0.0626
12168W        W21861   4.143   2.919   4.050  0.0255  0.0538 -0.1459
12169W        W21862  10.420  10.818  17.124 -0.2309 -0.0332 -0.0946
12170W        W21863  10.347   5.775  11.975  0.1267  0.0882 -0.0311
12171W        W21864  14.733   8.340  16.569  0.2400 -0.0146 -0.1049
12172W        W21865   3.651   2.945   6.031 -0.1766  0.0734 -0.1324
12173W        W21866   3.244  17.044   1.981  0.0422 -0.1368  0.0160
12174W        W21867   7.880   4.854  13.466  0.0287 -0.0405  0.1675
12175W        W21868   3.218  14.526  15.901 -0.1419  0.1654  0.0226
12176W        W21869   5.281   7.761  16.008  0.0273  0.0490  0.3370
12177W        W21870   1.761   9.477  14.899 -0.1493  0.0553  0.0899
12178W        W21871   4.937  14.521   3.313 -0.1100 -0.4106  0.2091
12179W        W21872   9.591   5.662   4.420 -0.1201 -0.1438  0.3589
12180W        W21873  16.051   9.750   4.053  0.1277 -0.0654 -0.1013
12181W        W21874   8.657   8.770  17.184  0.0363  0.1730  0.0530
12182W        W21875  16.439  10.249   5.195  0.3250  0.0310 -0.2250
12183W        W21876  15.315   6.084  16.607 -0.0469  0.0125  0.2665
12184W        W21877   6.013   7.670  13.287  0.0938  0.1169 -0.0393
12185W        W21878   2.419   3.774   1.886 -0.3568  0.0038  0.1653
12186W        W21879   2.756  14.597  16.077 -0.3546  0.1091  0.1086
12187W        W21880  14.234  13.854  15.561  0.0962  0.0598  0.0932
12188W        W21881  13.839  15.149  12.506  0.2100 -0.1056  0.1672
12189W        W21882   1.511   7.822  12.606 -0.1712 -0.2393 -0.1900
12190W        W21883   5.972  12.402  16.890  0.2437 -0.0412  0.1816
12191W        W21884  14.552  14.253   2.685 -0.2694 -0.4585 -0.1713
12192W        W21885  17.580   9.387  13.580  0.0819 -0.0953 -0.1806
12193W        W21886  12.427   0.312  17.630 -0.0956 -0.1563  0.2819
12194W        W21887  11.341   8.377   1.123  0.2886 -0.2763  0.2591
12195W        W21888   9.718  10.682  15.842  0.1481 -0.0361  0.0826
12196W        W21889   2.546   4.061   4.054  0.1463 -0.0468 -0.2360
12197W        W21890   3.356  11.578  16.472  0.4212  0.1718 -0.0900
12198W        W21891  17.221   6.275   4.042 -0.1991 -0.2645  0.0281
12199W        W21892  14.170   2.495  13.221  0.1835  0.3942 -0.1531
12200W        W21893  14.450  16.533   5.206 -0.0993 -0.0073  0.1655
12201W        W21894   7.432   4.366  15.803 -0.0837 -0.1788  0.0077
12202W        W21895   0.766   3.553  16.863  0.0783  0.1225  0.4194
12203W        W21896   6.068  13.370  14.479 -0.0209 -0.0825 -0.0223
12204W        W21897   5.043   3.411  17.534 -0.3144 -0.0720 -0.1148
12205W        W21898   4.348  13.317   5.326  0.1305 -0.1066  0.0772
12206W        W21899  12.270   9.826  17.674 -0.0199  0.2396  0.0947
12207W        W21900   0.210  15.982   2.795 -0.0497 -0.0108 -0.2579
12208W        W21901  14.294  15.381  13.766 -0.0827 -0.1428  0.0010
12209W        W21902   2.913  12.230   6.615  0.3688 -0.0196 -0.1598
12210W        W21903  14.811   9.787   6.912 -0.4338 -0.2545 -0.0666
12211W        W21904   3.762  13.668  12.426  0.0327 -0.3912  0.0560
12212W        W21905   4.961   1.304  13.787 -0.2274 -0.0983  0.1162
12213W        W21906   2.850   2.851   5.647 -0.0073 -0.1212  0.0911
12214W        W21907  12.633  14.984   6.899 -0.0896 -0.0189 -0.3219
12215W        W21908  10.964  14.309   4.976 -0.0308  0.1965 -0.0074
12216W        W21909  15.405  11.951   6.131  0.0270  0.2124  0.0193
12217W        W21910  15.519   3.975  12.485  0.0068  0.3238 -0.0773
12218W        W21911   0.041  14.752   6.626  0.2315  0.1255  0.3655
12219W        W21912   5.975   3.107  12.128  0.2461 -0.6419  0.2077
12220W        W21913  13.247   7.940  11.227 -0.2883 -0.1033 -0.3412
12221W        W21914   7.598   9.463   4.839 -0.1704  0.0239 -0.1975
12222W        W21915   5.572   7.050  17.639  0.1086 -0.3223 -0.1694
12223W        W21916  16.998  17.373  14.081  0.3025 -0.0034  0.1021
12224W        W21917  16.252  16.310   3.224 -0.1212 -0.2251  0.2104
12225W        W21918  11.908   6.698   6.169 -0.2573 -0.1473  0.2249
12226W        W21919  14.959  17.566   1.092  0.3271  0.0251 -0.2218
12227W        W21920   5.758   4.980   1.975 -0.1751  0.3432  0.1959
12228W        W21921   8.879  11.754  12.621 -0.0941 -0.0868  0.0640
12229W        W21922  15.292  12.905  16.716 -0.2202  0.2103  0.3330
12230W        W21923  17.004   7.802   0.151 -0.4264 -0.1555  0.0691
12231W        W21924  11.468   5.818  17.564  0.2326  0.3045 -0.1013
12232W        W21925   1.188   9.727   3.379 -0.1888 -0.2710  0.0726
12233W        W21926   4.628   6.273  12.157 -0.0148 -0.0780  0.1716
12234W        W21927   7.814   8.438  12.139 -0.1958 -0.2549  0.0266
12235W        W21928   2.908  13.298   5.783 -0.1962 -0.2005 -0.1346
12236W        W21929  13.267   0.755   0.560  0.0777 -0.3007  0.2099
12237W        W21930  11.896   5.023   0.869 -0.1098 -0.3025  0.1206
12238W        W21931  17.482   3.260  17.654 -0.3524  0.1512 -0.0873
12239W        W21932   9.695   1.395  14.136  0.0190  0.1829  0.1959
12240W        W21933   6.452   0.244  16.893  0.1441  0.1200  0.0958
12241W        W21934   6.835   1.675  13.999 -0.0518 -0.3442 -0.2650
12242W        W21935  10.132  14.855  16.934 -0.1169 -0.3115  0.0516
12243W        W21936  16.681  15.170   1.332  0.1784  0.3151 -0.2006
12244W        W21937  14.651   7.538  13.424  0.0784  0.0901 -0.0229
12245W        W21938   0.989  11.986  15.670  0.0260 -0.0977  0.0653
12246W        W21939  11.693   1.620  16.580 -0.1473  0.2799  0.1190
12247W        W21940   3.551  12.599   2.377  0.0746  0.0049 -0.1311
12248W        W21941   0.578  17.231   3.472  0.0646  0.1803  0.2188
12249W        W21942   6.182  15.483   6.692  0.0890  0.2665 -0.4173
12250W        W21943   1.267  10.588   5.735  0.0748  0.1939  0.0838
12251W        W21944   0.148  13.076   0.776  0.1713  0.2214 -0.0712
12252W        W21945   7.537  12.739  15.355 -0.4869  0.0324 -0.0348
12253W        W21946   2.046   4.936  10.367 -0.1406 -0.0175  0.2294
12254W        W21947   1.185   7.178   2.539  0.0019 -0.1783  0.2348
12255W        W21948  11.720   6.071   1.854 -0.1475 -0.1554  0.1737
12256W        W21949   5.003  14.659   0.465 -0.0800  0.0473  0.0787
12257W        W21950   6.594  10.731   3.989 -0.0229 -0.1797 -0.1661
12258W        W21951   4.689   3.221   5.784  0.0139 -0.1840 -0.0569
12259W        W21952   3.821  11.239  15.707 -0.2663 -0.2380 -0.0147
12260W        W21953   7.260   0.613  11.956  0.1420  0.0832  0.0012
12261W        W21954  14.642   9.766  16.431 -0.1194  0.0053  0.0963
12262W        W21955  10.534   8.942  11.189  0.0308  0.2540 -0.3521
12263W        W21956   0.275  11.262   5.641  0.1613 -0.1549  0.0242
12264W        W21957   0.190  14.826  14.995 -0.0867  0.0625 -0.1133
12265W        W21958   6.546   0.139  14.810  0.1478  0.3019  0.1311
12266W        W21959  13.683   1.916  12.208 -0.1055  0.3200 -0.1973
12267W        W21960   9.056   6.603   1.555  0.1400 -0.0608  0.0414
12268W        W21961   8.240  15.563   1.371  0.1339  0.1435  0.1174
12269W        W21962  10.553   4.401  15.614  0.0484  0.2493  0.1022
12270W        W21963  16.716   9.113  16.778  0.0507 -0.0408  0.1442
12271W        W21964   6.592   8.981   1.186  0.1400  0.1881  0.2454
12272W        W21965   3.751  11.833  15.576 -0.0401  0.4395  0.1145
12273W        W21966  11.885   4.068   0.656  0.0452  0.2281 -0.2494
12274W        W21967   3.001   7.640   5.170 -0.0979  0.3187 -0.2486
12275W        W21968   9.452   2.581  14.272 -0.0035 -0.2955 -0.0548
12276W        W21969   6.657   9.283   0.333 -0.0400 -0.0984  0.1016
12277W        W21970   9.979   8.509   2.624 -0.0396  0.0084  0.3230
12278W        W21971   4.779  14.543  11.988  0.0862 -0.1349  0.2277
12279W        W21972  14.838   6.917  17.660 -0.4083  0.2016 -0.2263
12280W        W21973  15.927   1.875  13.264 -0.0448  0.2061  0.0108
12281W        W21974   4.326   5.665  14.281 -0.2561  0.0507 -0.0423
12282W        W21975   2.983  14.325   0.106 -0.0559 -0.1998 -0.1371
12283W        W21976  12.200  16.620   0.909  0.1612  0.0268 -0.0789
12284W        W21977  15.483   4.852   4.701  0.2322  0.2276 -0.1461
12285W        W21978  14.279   0.100   5.734  0.1734  0.1676  0.0991
12286W        W21979   0.505  12.547   3.763 -0.0086 -0.1487 -0.2025
12287W        W21980   0.407   8.027  12.991 -0.1428 -0.1721 -0.0161
12288W        W21981  11.217  14.687   5.254 -0.3018  0.0852  0.1545
12289W        W21982  15.578   4.238  12.093 -0.1088 -0.3454 -0.1180
12290W        W21983  14.703   0.619   0.500  0.3162  0.1598 -0.3217
12291W        W21984   4.199   3.650  17.185 -0.2552  0.0038 -0.0907
12292W        W21985   6.595  15.826   4.174  0.0367 -0.0019 -0.3043
12293W        W21986  13.147  12.846  15.777  0.0537 -0.0794 -0.1087
12294W        W21987   4.580   0.463   5.437 -0.0271 -0.0205 -0.0047
12295W        W21988  10.121   6.292   1.071  0.0174 -0.0763 -0.3925
12296W        W21989  14.353   3.134   1.799  0.0313  0.0879  0.2375
12297W        W21990  17.637  16.704  17.428  0.0836  0.2764  0.1748
12298W        W21991  16.109   3.221   3.257  0.2217 -0.0352  0.2629
12299W        W21992   8.385  11.922   0.717 -0.3120  0.2251 -0.0012
12300W        W21993  16.385   8.701   2.379  0.1221 -0.0606  0.0397
12301W        W21994  10.718  15.646   4.903  0.1948  0.0170  0.1580
12302W        W21995  12.338   1.144   6.575  0.2787  0.1012 -0.0488
12303W        W21996  15.903   9.357  17.385 -0.1805  0.0647  0.0843
12304W        W21997   6.727   7.844   4.017 -0.2717 -0.3547 -0.1064
12305W        W21998   7.016   8.596   6.485 -0.1230 -0.3597 -0.2588
12306W        W21999  15.271   5.206  15.108 -0.0222 -0.0382 -0.1358
12307W        W22000   5.259  11.078  14.729 -0.4784 -0.1483 -0.0896
12308W        W22001   3.054  10.587  16.838  0.3061  0.0301  0.3290
12309W        W22002  13.607  10.715   3.804 -0.1375  0.0535 -0.1430
12310W        W22003   5.748   6.684   6.733 -0.0507  0.2183  0.2410
12311W        W22004   3.166  10.673   1.537 -0.1003  0.0640  0.1348
12312W        W22005   2.093   3.536  14.597 -0.0006  0.1043  0.2764
12313W        W22006   6.860  16.454   5.629  0.0860  0.1459 -0.4466
12314W        W22007   9.160  15.760  15.256 -0.0722 -0.0565  0.1665
12315W        W22008   7.399   8.776  14.222  0.0258  0.1197  0.2304
12316W        W22009  12.381   5.805  14.287  0.0318 -0.0766  0.2004
12317W        W22010   5.690   6.149  12.413 -0.0313 -0.2322  0.1107
12318W        W22011  17.274   9.745   0.687  0.2382 -0.2632 -0.1725
12319W        W22012  10.094  11.667   3.551  0.2458 -0.3421  0.1808
12320W        W22013   8.743   4.989   3.213 -0.3573  0.0000  0.1271
12321W        W22014   8.620   2.304   1.898  0.1402 -0.0460  0.0973
12322W        W22015  11.136   7.264  17.004 -0.1252  0.1200 -0.0881
12323W        W22016  13.609   6.470   3.002  0.0716  0.1962 -0.0543
12324W        W22017  12.503  17.485   2.984 -0.0476 -0.1308 -0.0465
12325W        W22018  17.453   8.374   5.832 -0.4936 -0.0500 -0.0650
12326W        W22019   0.515   0.386  17.269  0.0893 -0.1448 -0.0330
12327W        W22020   8.491   7.957  15.520 -0.2529  0.0203 -0.2386
12328W        W22021   5.576   9.968  12.876  0.0995  0.5271 -0.0804
12329W        W22022   4.407   8.493  17.463 -0.1182  0.1385 -0.1051
12330W        W22023  17.022   9.536  15.409 -0.2841 -0.2695  0.1365
12331W        W22024   8.281  17.518  16.794 -0.0671  0.0024  0.2646
12332W        W22025   4.567   5.052  13.412  0.1809 -0.3774  0.1111
12333W        W22026   7.969  15.769   1.828 -0.0041  0.3153  0.0948
12334W        W22027   7.543   1.484  16.588 -0.1878  0.0509  0.2439
12335W        W22028  13.891   7.039  16.228  0.1266  0.0074 -0.1437
12336W        W22029  11.130   8.946   1.497  0.0827  0.1500 -0.2649
12337W        W22030   6.992   4.824   5.436  0.0756  0.1019 -0.3258
12338W        W22031   5.447   6.441   4.046 -0.0581 -0.2433  0.1347
12339W        W22032   7.635  14.492  14.590  0.0126  0.0277 -0.3410
12340W        W22033   4.071   6.736   3.549 -0.0027  0.0474  0.0066
12341W        W22034  13.743   4.295   3.786  0.2744 -0.0591 -0.0066
12342W        W22035   2.940  13.571  13.713  0.0635  0.1024  0.1489
12343W        W22036   6.597   1.126  16.837  0.0785 -0.2316 -0.0206
12344W        W22037  10.021  12.697   1.306 -0.1052  0.4092 -0.3957
12345W        W22038   1.339   9.182   2.719  0.2514  0.1407  0.1768
12346W        W22039  10.216   6.918   4.645 -0.0167  0.0614  0.2116
12347W        W22040   0.388  16.104  11.681 -0.0455 -0.0707 -0.1268
12348W        W22041   1.078  12.264  16.653 -0.0630 -0.6040 -0.0209
12349W        W22042  10.459  15.264  16.860  0.2487 -0.1307  0.2927
12350W        W22043   6.561   6.601  12.646  0.0059  0.2309  0.1115
12351W        W22044  12.263   2.711   0.695  0.3245  0.3900 -0.0592
12352W        W22045  10.309   5.478  14.958 -0.0612  0.0211  0.0746
12353W        W22046   5.742  13.781  16.780 -0.1206 -0.1207 -0.2175
12354W        W22047   2.116  16.951   6.769 -0.0932 -0.4501  0.0213
12355W        W22048   4.188  12.069  14.866  0.0737  0.0920 -0.0596
12356W        W22049  15.967   8.116   1.538 -0.0961 -0.1311  0.2213
12357W        W22050   8.905   2.307   0.342  0.1665  0.2946 -0.1287
12358W        W22051   8.637   9.628  12.757  0.0967  0.4070  0.2506
12359W        W22052  17.272   2.228   0.474  0.1150 -0.2074  0.2349
12360W        W22053  16.705   3.029  13.557 -0.2614 -0.2312 -0.0696
12361W        W22054   3.623   4.523  14.368 -0.1010  0.3477  0.0415
12362W        W22055  14.620   6.787   5.979 -0.4437  0.0302 -0.0483
12363W        W22056  12.204  10.872   0.564  0.1440  0.3038  0.0585
12364W        W22057   1.383   3.094   2.587 -0.1233  0.1156  0.1229
12365W        W22058   0.790  12.888   2.845  0.0679 -0.0408 -0.0778
12366W        W22059   5.098   6.976  13.230 -0.1076 -0.1612 -0.0582
12367W        W22060   1.379  15.410  15.334  0.3370 -0.0280  0.1985
12368W        W22061   0.099  12.137  12.170 -0.1203 -0.2596 -0.1403
12369W        W22062   1.662   5.698  17.466  0.0583  0.0620  0.1329
12370W        W22063  16.199   6.590  17.370 -0.0194 -0.1063 -0.0590
12371W        W22064  14.763   5.599  13.882 -0.0105  0.0299 -0.0189
12372W        W22065  15.176  12.654   4.386  0.1063  0.2617 -0.2626
12373W        W22066  14.299   7.857   2.995 -0.2533  0.0750 -0.1337
12374W        W22067  17.256  14.559   3.799  0.0208 -0.0548  0.0923
12375W        W22068  15.843   2.152   0.652 -0.3852 -0.0628 -0.1196
12376W        W22069   1.796   9.890  12.977 -0.1171  0.0663  0.5245
12377W        W22070   8.131   0.428   4.958  0.1104  0.0720  0.0658
12378W        W22071  10.421  13.913  15.257 -0.1245 -0.4719 -0.1791
12379W        W22072   0.387   8.725  15.810  0.1126  0.2078 -0.2361
12380W        W22073  16.871   6.338  12.628  0.1189  0.1674  0.2891
12381W        W22074   8.782  10.352   3.791  0.0760  0.3154 -0.0999
12382W        W22075  14.436  15.032  16.891  0.1789  0.0993  0.0787
12383W        W22076  10.346   1.567   2.436  0.0732 -0.0848  0.0468
12384W        W22077  15.185  16.619   4.629 -0.0606  0.0955  0.1913
12385W        W22078  15.624  15.098  13.136  0.1402 -0.2301  0.0710
12386W        W22079  12.546   7.056  17.331  0.1167 -0.2236 -0.3709
12387W        W22080  15.644   1.681   5.499  0.0479  0.2733  0.1412
12388W        W22081   9.410   6.260  14.952  0.1734  0.0590  0.0098
12389W        W22082   2.779  15.013  16.518  0.0098 -0.1806  0.0797
12390W        W22083  12.226   3.604   3.326 -0.0669 -0.4904 -0.4161
12391W        W22084   0.553   7.867  13.902  0.0902 -0.0228  0.0307
12392W        W22085  12.466   4.332  13.197  0.0432  0.0818 -0.0260
12393W        W22086  10.648   4.113   2.425  0.1151 -0.1275 -0.0062
12394W        W22087   7.435  15.923  15.727  0.3874 -0.2336  0.0224
12395W        W22088   1.524   5.962  12.653  0.0701  0.0410  0.0030
12396W        W22089  11.199  11.390   3.367 -0.2331 -0.0973 -0.0908
12397W        W22090   1.146   2.199  14.743  0.1985 -0.2010  0.1089
12398W        W22091   8.830   6.927   3.252 -0.0552  0.0948  0.1763
12399W        W22092   5.044   4.402  11.720 -0.0022 -0.0347  0.1028
12400W        W22093   7.711  15.136  16.239  0.1288 -0.1740  0.0027
12401W        W22094   9.689   7.312   2.037 -0.1549 -0.0992  0.2028
12402W        W22095   1.175  15.988  16.526  0.2875  0.1259 -0.1213
12403W        W22096  14.929   9.674   0.652  0.0119 -0.2811 -0.1199
12404W        W22097  14.782  10.714   5.268 -0.0023 -0.1621  0.0753
12405W        W22098   3.173   0.111   1.279  0.1519  0.0507 -0.1610
12406W        W22099  11.456  10.487   3.209 -0.1570  0.1169  0.1123
12407W        W22100  14.013   0.081  16.828  0.1714  0.3261  0.0496
12408W        W22101   4.542  14.025   5.839  0.0572 -0.1095 -0.0341
12409W        W22102  12.708  14.411   1.995  0.1327 -0.1052  0.3789
12410W        W22103  12.670  17.169   3.400  0.1091 -0.1016  0.1466
12411W        W22104   0.774  15.691   3.830  0.0097  0.3015 -0.2385
12412W        W22105  16.980  16.814  12.479  0.3950 -0.3560  0.1123
12413W        W22106   6.940   6.959   5.178 -0.4733  0.0273  0.1102
12414W        W22107  16.406   9.560  13.535 -0.0171 -0.0027  0.2357
12415W        W22108   0.253   0.706   1.922 -0.0666  0.2002 -0.1720
12416W        W22109   2.949   0.534  17.479  0.2554  0.2241  0.0252
12417W        W22110   0.851  10.258   4.039  0.0839  0.0360 -0.0150
12418W        W22111   4.819  11.867   0.592  0.0965  0.2383 -0.2458
12419W        W22112   5.697  15.848   5.403  0.0524  0.3668  0.3054
12420W        W22113   0.614   5.850   1.519 -0.1139 -0.2637 -0.0027
12421W        W22114   2.469   5.655   3.088  0.0022  0.1895  0.0142
12422W        W22115   5.678   3.266   0.383  0.3095 -0.0232 -0.0919
12423W        W22116   6.065   8.715   3.779  0.1724  0.1465 -0.2967
12424W        W22117  11.906   1.621   0.650  0.0338 -0.0732 -0.1261
12425W        W22118  15.268  17.046   3.716  0.1638  0.1409 -0.0949
12426W        W22119   4.326   8.073  12.511 -0.3569  0.2611  0.1616
12427W        W22120  11.032  11.601  15.698  0.0568 -0.0979 -0.4283
12428W        W22121  17.254   6.531  15.102 -0.1167 -0.0853 -0.0758
12429W        W22122   4.889  10.114   0.261 -0.1262  0.0310 -0.0895
12430W        W22123   6.772   0.443  12.712 -0.2090  0.6792 -0.1200
12431W        W22124   4.489  17.037  17.331  0.2262 -0.0088 -0.0618
12432W        W22125  17.563   7.779   0.865  0.0208  0.0282 -0.0589
12433W        W22126  16.029  14.019   0.054 -0.1803  0.0879  0.1115
12434W        W22127   7.651   0.544  17.117 -0.0036  0.2474 -0.2625
12435W        W22128   0.148  10.589   3.684  0.2315 -0.0212 -0.2317
12436W        W22129   2.536   2.095   5.275  0.0708  0.1539 -0.1148
12437W        W22130  12.854   1.210   3.011  0.1153 -0.0057  0.2894
12438W        W22131   3.512   3.685   4.506 -0.2322 -0.0093  0.0629
12439W        W22132  11.098   2.765   5.115  0.4450 -0.0165  0.2065
12440W        W22133   1.577   3.185  15.400  0.0466  0.4356  0.0219
12441W        W22134  11.886  12.566  12.423  0.0887  0.0965  0.0539
12442W        W22135   6.595  13.710  13.911 -0.0982  0.1382  0.3364
12443W        W22136   8.233  11.011  15.911 -0.2401 -0.2119 -0.1924
12444W        W22137  16.483   8.750  14.982 -0.1474  0.0172  0.0038
12445W        W22138   4.450  10.675  14.283  0.1262 -0.0699  0.0288
12446W        W22139  13.763   6.552  12.735 -0.1013 -0.1187 -0.3889
12447W        W22140  12.205   8.881   5.740  0.1149 -0.3272  0.0757
12448W        W22141  11.086   2.593  11.049  0.1717  0.1213  0.0405
12449W        W22142  11.238  12.695   6.665 -0.0218 -0.1048 -0.2543
12450W        W22143  12.774   4.848   3.454  0.0547 -0.1119  0.1995
12451W        W22144  15.594  17.417  16.127  0.0938  0.0044  0.0975
12452W        W22145   5.428  17.231   4.646 -0.3739  0.5015  0.3088
12453W        W22146  16.232   9.165   0.092  0.1946  0.1182  0.0741
12454W        W22147   9.094  15.022  17.064  0.2195  0.1281  0.1139
12455W        W22148   3.350  14.626   1.915 -0.1836 -0.0757 -0.0561
12456W        W22149   8.096   7.649  15.446  0.1316 -0.1888 -0.2589
12457W        W22150  11.036   3.215   5.774  0.1282 -0.0758  0.1651
12458W        W22151  13.727  13.529   4.703  0.2429  0.3750  0.0246
12459W        W22152  15.908   3.027   4.958 -0.2219  0.1293 -0.2988
12460W        W22153  10.590  10.198   1.004  0.1915  0.1509  0.1987
12461W        W22154   3.956  15.434   2.899 -0.0654  0.5132 -0.2633
12462W        W22155  12.520   4.762   6.039  0.2382 -0.4079  0.2490
12463W        W22156   0.447  10.707  14.408  0.0695 -0.0945  0.1772
12464W        W22157   9.087  10.264  15.622 -0.1589  0.1811 -0.0520
12465W        W22158  16.164   6.060  13.283  0.2898 -0.1502  0.0588
12466W        W22159  15.855   8.506   5.530  0.4840 -0.1491 -0.1441
12467W        W22160   1.863  16.148  12.762  0.2253  0.0928 -0.0056
12468W        W22161   6.938  15.034  16.189  0.0664  0.0722 -0.0956
12469W        W22162   6.245   8.316  17.292  0.0172  0.0951  0.1502
12470W        W22163   1.409  15.491   5.869  0.1527 -0.0116 -0.2470
12471W        W22164   1.060  16.823  16.413 -0.0725 -0.0717  0.2198
12472W        W22165  14.121  14.274  15.917 -0.2533 -0.2977 -0.0155
12473W        W22166  12.730   5.559   3.099 -0.1556 -0.3386 -0.1756
12474W        W22167  14.558   5.668  15.180  0.0091 -0.0819 -0.0410
12475W        W22168  13.086   4.381   2.429 -0.1101  0.2179  0.2026
12476W        W22169  17.658   3.325   6.129  0.0388 -0.2855 -0.1512
12477W        W22170   4.134  17.615   6.603  0.1221 -0.2746 -0.0271
12478W        W22171   1.579   9.627  15.812  0.1323  0.0967 -0.0500
12479W        W22172   1.177   1.617  13.052  0.3184  0.0787 -0.1489
12480W        W22173  14.738  16.440  12.244 -0.0316 -0.0072  0.6153
12481W        W22174   1.828   3.452  16.120 -0.1241 -0.1878  0.0220
12482W        W22175  10.516   4.088  11.716 -0.1416  0.0922  0.0236
12483W        W22176   3.073   3.536  16.050  0.2791  0.0471 -0.1542
12484W        W22177  10.659  10.748  16.209 -0.0234  0.0844  0.2709
12485W        W22178   2.855   7.274   2.961 -0.3438  0.1496 -0.1843
12486W        W22179  10.665  16.479   5.260 -0.0463 -0.1331  0.1823
12487W        W22180   1.518  17.496   0.998  0.3133 -0.0252  0.0324
12488W        W22181   9.540   5.800  14.067 -0.2110 -0.1098  0.1886
12489W        W22182   6.717  17.624   0.102 -0.0191 -0.1228 -0.2446
12490W        W22183   6.504   3.722  15.001  0.2975  0.2364  0.0904
12491W        W22184  12.067   3.593   0.509  0.0961 -0.0004 -0.3646
12492W        W22185   9.323  12.354  17.000  0.3176  0.1096  0.4928
12493W        W22186   5.078   3.930  14.032  0.3433  0.0858 -0.2040
12494W        W22187  15.541   4.383   4.833  0.1080  0.3796 -0.0599
12495W        W22188   2.854   7.747  15.475  0.2842 -0.1204 -0.0485
12496W        W22189   6.879  15.134   5.582 -0.3096 -0.0148  0.1198
12497W        W22190   0.007   7.250  14.718  0.3404  0.0827 -0.1263
12498W        W22191  17.302   1.911  15.310  0.1677 -0.1886 -0.0145
12499W        W22192  11.603   7.558  17.183 -0.0065 -0.0952 -0.0781
12500W        W22193  10.266  15.361   2.858 -0.0540 -0.1860  0.1707
12501W        W22194   8.929   7.030  11.687  0.0689 -0.1683 -0.0062
12502W        W22195   4.022  14.180   3.879  0.2188 -0.2226 -0.2648
12503W        W22196  14.178   3.406  14.270 -0.0926 -0.3527 -0.0454
12504W        W22197   9.806  15.436   6.231 -0.1850  0.0069  0.2724
12505W        W22198   2.782  11.946  15.690 -0.1361  0.3935  0.0353
12506W        W22199   1.053   2.383   0.533 -0.0245  0.0397  0.0528
12507W        W22200  10.403  14.462   5.519  0.1782  0.0650  0.0644
12508W        W22201  10.563  15.503  14.943 -0.0459 -0.2546 -0.1346
12509W        W22202   2.143  10.415  14.262 -0.0202  0.2590  0.3118
12510W        W22203  14.427  17.426  13.898 -0.0137 -0.0722 -0.1364
12511W        W22204   6.965  16.076  15.614 -0.5165  0.0259 -0.1026
12512W        W22205   3.298   3.207   1.131  0.1186  0.0320 -0.2380
12513W        W22206   6.529  15.570   2.752  0.3057 -0.1322  0.1209
12514W        W22207   1.799  16.443  17.686  0.2046  0.1092  0.1659
12515W        W22208   7.796   6.792  13.330 -0.1559 -0.1396 -0.1008
12516W        W22209   5.076   9.326  14.594 -0.1151  0.0509  0.1298
12517W        W22210   9.847  17.195   2.256 -0.2221  0.2395  0.0867
12518W        W22211  16.577   5.639   1.614  0.0835 -0.0680  0.0881
12519W        W22212  10.593   0.746   3.924  0.0783 -0.5331  0.3079
12520W        W22213   3.218  17.675   0.275 -0.0625 -0.3409  0.0400
12521W        W22214   1.642  11.154  12.661 -0.0869  0.0791 -0.0193
12522W        W22215   2.386  11.865   0.988 -0.0108 -0.0766 -0.0134
12523W        W22216  12.458   2.194   6.477 -0.2079 -0.0189 -0.2053
12524W        W22217   2.003   3.509  12.273  0.2340 -0.4288 -0.0406
12525W        W22218  12.708   9.514  14.021 -0.0195  0.1207  0.0698
12526W        W22219  11.108  13.132   2.548 -0.1619  0.4041  0.1257
12527W        W22220  10.062   2.606   0.696  0.1207 -0.1596 -0.2827
12528W        W22221   3.223   4.386  15.716 -0.0110 -0.3225 -0.3714
12529W        W22222   3.878  14.708  11.811 -0.3058 -0.0461 -0.0387
12530W        W22223  10.782   0.791   6.642  0.2315 -0.0137  0.0040
12531W        W22224  17.258   5.120   2.008 -0.0323 -0.3766  0.2373
12532W        W22225  11.972  10.947  15.878  0.0655  0.1260  0.1652
12533W        W22226   5.764   9.461  13.812 -0.0602  0.3574  0.2706
12534W        W22227   7.201   9.678   5.305 -0.0083 -0.3167  0.0978
12535W        W22228  11.791   4.649   4.083 -0.0045 -0.0599  0.1230
12536W        W22229   0.805  14.096   0.320 -0.1771  0.0157  0.1398
12537W        W22230   3.111   0.010   5.848 -0.0735  0.0785 -0.0805
12538W        W22231   6.545   2.222  13.816 -0.0288  0.1976 -0.2003
12539W        W22232  12.568   7.704   6.012 -0.0214  0.0652  0.2904
12540W        W22233   3.472   6.072   0.858  0.1191 -0.1314  0.0594
12541W        W22234  11.423   1.622  14.249 -0.4003  0.0879  0.2145
12542W        W22235  11.689   3.626  15.380  0.0009 -0.2579  0.0517
12543W        W22236  17.547   7.941  17.029 -0.0246  0.1789 -0.0300
12544W        W22237   4.476  17.363   5.871 -0.1501  0.2529 -0.1076
12545W        W22238   8.455   2.761   2.662  0.0571  0.2110 -0.2675
12546W        W22239   5.065  13.171   0.072  0.1434 -0.1219 -0.0424
12547W        W22240   0.471   9.318   5.417  0.1520  0.2615 -0.2038
12548W        W22241   4.388   5.812   3.445 -0.0722 -0.1706  0.1585
12549W        W22242  14.774   9.368   5.055  0.0195 -0.1296  0.1333
12550W        W22243   4.687  14.914   0.689  0.0989 -0.0664 -0.0524
12551W        W22244  10.968   8.776   5.034 -0.1240  0.1159 -0.1679
12552W        W22245   8.199   3.787   2.234 -0.1440  0.1509  0.2612
12553W        W22246  12.440   1.175  15.133 -0.1176  0.0880 -0.1872
12554W        W22247  17.563   7.511   4.812 -0.0077 -0.0574  0.2014
12555W        W22248  13.846   7.989   5.502 -0.0348 -0.1178 -0.1922
12556W        W22249   7.598   0.548  13.702 -0.0633  0.0458  0.1493
12557W        W22250  16.601   8.933  17.538 -0.0770 -0.0355 -0.3221
12558W        W22251  10.580  17.264   5.561  0.1823  0.1458  0.0210
12559W        W22252   4.670   0.851  14.092  0.0632  0.1990 -0.0303
12560W        W22253   7.141   0.825   2.944  0.0569 -0.1879  0.0252
12561W        W22254  10.720   6.318   2.131 -0.0059 -0.4117 -0.3027
12562W        W22255  16.918   5.269  14.772 -0.3534 -0.2774 -0.1766
12563W        W22256  12.827  13.752  16.109  0.0544  0.1563  0.2535
12564W        W22257  15.821   8.833   2.593  0.0555  0.4475 -0.1375
12565W        W22258   2.851   2.259  13.537  0.2745 -0.1649  0.0641
12566W        W22259   1.622   1.206  14.714 -0.0454 -0.1472 -0.0317
12567W        W22260   3.324  15.218  16.463 -0.0564 -0.0104 -0.0041
12568W        W22261   2.421   3.104   1.195  0.1032  0.0652  0.1162
12569W        W22262   7.311  11.140  17.602 -0.0608 -0.1437 -0.0617
12570W        W22263   8.955   4.090   5.738  0.3376 -0.2549  0.0051
12571W        W22264  16.856  11.081  13.527  0.1929  0.2753  0.0262
12572W        W22265   1.123  16.326   1.705  0.1037 -0.1222  0.2741
12573W        W22266   9.001  12.137   3.577 -0.1136 -0.0998  0.4202
12574W        W22267   1.449   7.286  17.201  0.1014 -0.1993  0.2330
12575W        W22268   5.415  13.599   3.487 -0.0891 -0.1133  0.0437
12576W        W22269  16.820  11.570   4.581 -0.0755  0.2487  0.1528
12577W        W22270   1.477  17.529  15.337 -0.0501 -0.0811  0.1816
12578W        W22271   5.319   2.763   1.388  0.1095  0.0453 -0.0536
12579W        W22272   2.647  15.240  16.079  0.1170  0.2479  0.5328
12580W        W22273  14.501   2.404   5.969 -0.0162 -0.1018 -0.0293
12581W        W22274  12.375   9.971  15.332 -0.2014 -0.1946 -0.1774
12582W        W22275   7.051  15.452   3.925  0.2119 -0.1671 -0.1946
12583W        W22276  10.373   6.686   5.265  0.0399  0.0397  0.0810
12584W        W22277   5.163  15.638   1.534  0.1611 -0.3593  0.0187
12585W        W22278  16.518   8.456  17.271  0.1809  0.0560  0.2509
12586W        W22279   9.728   9.582   4.309 -0.1402  0.2148  0.2894
12587W        W22280  15.640  11.237   0.749 -0.1461 -0.1980 -0.1331
12588W        W22281   6.030   9.940  17.535 -0.1647  0.3113 -0.1708
12589W        W22282   0.263   9.761  12.010 -0.0294 -0.2691 -0.1665
12590W        W22283  17.083   1.527   0.243  0.2486 -0.0913  0.1674
12591W        W22284  13.089  13.358  17.376 -0.0583 -0.0028  0.5499
12592W        W22285  12.560   2.845  14.243 -0.1588  0.0737 -0.1116
12593W        W22286   3.018   3.253  13.099  0.1834  0.0034  0.0333
12594W        W22287  14.065   3.579   3.610  0.0760  0.2335 -0.2534
12595W        W22288  11.695   4.645  16.719  0.0139  0.2216 -0.1984
12596W        W22289  17.485   3.890  14.023 -0.1215 -0.3856  0.0581
12597W        W22290   0.381  14.089  13.721 -0.1103  0.0685 -0.0854
12598W        W22291   8.940   8.450  12.525  0.2990 -0.0709 -0.0440
12599W        W22292  10.468  16.678  15.031  0.2112 -0.0847  0.0332
12600W        W22293   3.143  10.501  15.063  0.2084  0.1669  0.2626
12601W        W22294   8.482   1.579  11.537  0.0474 -0.2631  0.3855
12602W        W22295  11.677   7.467  17.667  0.0560  0.0224  0.2517
12603W        W22296   2.340   6.703  14.736  0.0515  0.0978 -0.0632
12604W        W22297   3.892  13.523  12.870 -0.3357  0.3392 -0.1739
12605W        W22298   2.058  11.467   6.545 -0.1654  0.0861  0.0754
12606W        W22299   6.436   9.287   1.577  0.2922 -0.0690  0.0987
12607W        W22300  17.094   4.565   4.771 -0.0582 -0.2131 -0.1343
12608W        W22301  14.447  13.663   5.510  0.0632 -0.0538  0.0258
12609W        W22302  16.992  12.666  14.564  0.1582 -0.2383  0.3661
12610W        W22303  15.479  14.889   1.010  0.1039 -0.2863 -0.1378
12611W        W22304   2.858   0.339  16.038  0.2365  0.1383  0.0241
12612W        W22305   2.069   9.929   0.250 -0.0429  0.0276  0.0399
12613W        W22306  16.867   2.255   1.420 -0.1438 -0.1771 -0.0888
12614W        W22307  16.051  14.543   7.009 -0.2701  0.1410  0.2532
12615W        W22308  11.008   6.380  14.735  0.3490  0.0409 -0.1111
12616W        W22309   4.037  16.437  16.728 -0.4058 -0.2495  0.0178
12617W        W22310   9.318  14.892  13.405  0.2184 -0.5190 -0.0930
12618W        W22311   0.993   7.342  17.513 -0.2097 -0.0683 -0.3984
12619W        W22312  16.406  16.176  12.982  0.0645  0.2283  0.2599
12620W        W22313  11.727  14.777   5.115  0.1500 -0.5175 -0.2626
12621W        W22314   0.124   1.247  12.027  0.2476 -0.2213  0.3623
12622W        W22315   5.780  12.023  13.673 -0.0171 -0.0387  0.3750
12623W        W22316   3.016   4.374   1.593  0.0915 -0.1147 -0.0121
12624W        W22317   2.709   9.050  14.223  0.1338  0.0288 -0.1670
12625W        W22318  13.843  14.702  14.112  0.0057 -0.1488  0.0363
12626W        W22319  10.010   9.992  13.800  0.1975  0.0589 -0.1493
12627W        W22320   0.722  10.883   2.335 -0.1418  0.3003  0.0530
12628W        W22321   1.180  12.305   0.921 -0.1145  0.1259 -0.0202
12629W        W22322   5.184   3.428   2.297  0.1550  0.0911 -0.0126
12630W        W22323  10.499   5.370  15.894  0.1418 -0.0858 -0.4168
12631W        W22324   9.117   2.791   3.933  0.0378 -0.0380 -0.1452
12632W        W22325   0.762   4.157  14.197  0.2610 -0.1318 -0.1503
12633W        W22326   5.771   8.335   0.763  0.0919  0.0867  0.1112
12634W        W22327  12.045   3.636   2.520 -0.1885  0.1150  0.2065
12635W        W22328  10.306   5.909  13.374  0.1615  0.3458  0.1299
12636W        W22329   7.233   7.000   4.682 -0.3741 -0.0198  0.2148
12637W        W22330  12.303   8.093   5.043  0.4611 -0.0122  0.2039
12638W        W22331   9.551   2.446  16.188  0.1361 -0.2251 -0.1819
12639W        W22332   5.183   8.428  12.517  0.1668 -0.3337 -0.3864
12640W        W22333   7.860  10.667  17.124 -0.2145 -0.0441 -0.4043
12641W        W22334   3.540  13.410  14.351 -0.1412 -0.1306  0.1494
12642W        W22335   8.666   5.962   5.921  0.1351  0.1435 -0.0594
12643W        W22336  14.471  12.855  17.500  0.2620 -0.2163  0.1371
12644W        W22337   1.872   1.149   5.427  0.1194 -0.1099  0.1674
12645W        W22338   1.284   5.237   2.012  0.0084 -0.5381  0.0502
12646W        W22339   2.557   9.989   2.770  0.1613 -0.1776 -0.3483
12647W        W22340  11.377   9.445   1.632  0.2771 -0.0499 -0.0600
12648W        W22341   0.361  12.876  13.473  0.1005  0.1840 -0.0398
12649W        W22342   3.410   2.757   1.412 -0.0455  0.1531 -0.1097
12650W        W22343   3.013   2.034   6.265  0.1876  0.0386  0.1134
12651W        W22344  12.855   5.263   6.147 -0.1226  0.1310 -0.0976
12652W        W22345   5.135   1.743   5.575  0.2973 -0.0138 -0.1084
12653W        W22346  15.042   7.644  16.056 -0.0095 -0.1979  0.1420
12654W        W22347   6.376   4.195  13.680 -0.2295 -0.0299 -0.0853
12655W        W22348   3.547   7.455   0.247 -0.0004  0.0198 -0.1044
12656W        W22349  16.082  13.476   5.851  0.0747  0.2945  0.1442
12657W        W22350   2.403   9.533  15.589 -0.3873  0.1151  0.1736
12658W        W22351  17.342  12.384  12.264  0.2739  0.0680 -0.0387
12659W        W22352   0.005  12.984  15.190 -0.2473 -0.0654  0.1135
12660W        W22353   6.781  11.461   2.408  0.1116  0.0236  0.3136
12661W        W22354   0.163  15.874   6.708 -0.0158  0.0509 -0.0253
12662W        W22355  10.037  12.931   6.110 -0.2370  0.2664 -0.1374
12663W        W22356   8.062  14.574  13.100 -0.0355  0.0885 -0.1414
12664W        W22357   4.278   5.155  17.289 -0.1974 -0.3398 -0.0110
12665W        W22358  10.699  11.890  16.557  0.2853  0.3159  0.2069
12666W        W22359   7.073  11.442  15.681 -0.1735  0.2326 -0.2855
12667W        W22360  14.829  14.864   1.229  0.0306 -0.0861 -0.1592
12668W        W22361   9.440  10.698   0.352  0.3186 -0.1577  0.5646
12669W        W22362   1.563  15.124  14.017 -0.0349 -0.0165  0.1209
12670W        W22363  17.433  11.529  16.050  0.2143  0.0792  0.0680
12671W        W22364   0.355   7.575  14.881 -0.0162 -0.0999 -0.1514
12672W        W22365  16.666  16.273  14.675 -0.1749 -0.2212 -0.2498
12673W        W22366   8.670   4.067  10.785 -0.0264  0.2001  0.2277
12674W        W22367  16.534   2.156   0.584 -0.0905 -0.2592  0.0193
12675W        W22368   1.317   5.330  12.392  0.3193  0.4103 -0.2615
12676W        W22369   1.507  16.526   3.914  0.2108 -0.0555  0.1914
12677W        W22370  16.059   5.570   6.535 -0.1766 -0.2840 -0.0746
12678W        W22371   6.121   0.258   0.145  0.0440 -0.2333  0.1353
12679W        W22372  14.844  11.842   1.373  0.0979 -0.0087 -0.2973
12680W        W22373  12.597   4.884   5.208 -0.3588  0.0347  0.1715
12681W        W22374   3.053  11.856   3.297 -0.1927  0.0280 -0.0790
12682W        W22375   2.523  16.513  16.622  0.0107  0.2507 -0.0243
12683W        W22376   8.842   5.943   1.351  0.0613  0.0770 -0.0251
12684W        W22377  16.698   7.356   5.290  0.1342  0.1163  0.0982
12685W        W22378   2.837   0.448   4.152  0.3158  0.2136 -0.0724
12686W        W22379  15.891  11.810  17.191 -0.2247 -0.0672  0.2902
12687W        W22380  15.378   8.706   0.203  0.3614  0.1357 -0.3193
12688W        W22381  14.627   6.658   4.497 -0.2735 -0.3135 -0.0461
12689W        W22382   0.165   2.405  17.226  0.0490 -0.1308 -0.1768
12690W        W22383   9.125   5.231   5.811  0.2040 -0.0737  0.1055
12691W        W22384  11.872  10.407  16.438  0.2280 -0.2112  0.0559
12692W        W22385   0.255  15.292  16.060 -0.2136 -0.2819 -0.2999
12693W        W22386   6.552   7.700  13.366 -0.0567  0.4426  0.0436
12694W        W22387  16.942   8.182  17.141 -0.1037 -0.3116  0.1834
12695W        W22388  15.616  13.572   5.165 -0.4478 -0.2599  0.2331
12696W        W22389  12.787  10.220  13.586  0.1242 -0.0512 -0.0281
12697W        W22390   4.803   5.291   2.279 -0.1043  0.1672  0.2775
12698W        W22391  14.256  13.508   0.381  0.0554  0.0858  0.0132
12699W        W22392  11.462   2.468  15.560 -0.1287 -0.2849 -0.3132
12700W        W22393   8.925   4.601  11.892 -0.1305 -0.2541 -0.2190
12701W        W22394   1.242   8.024  15.592 -0.0695  0.1777 -0.0279
12702W        W22395  10.215   4.896  17.460  0.0491 -0.2662  0.0409
12703W        W22396  12.500  11.863  14.112  0.0477  0.3539  0.0741
12704W        W22397  15.055  11.128  13.514 -0.0129 -0.0041 -0.0721
12705W        W22398  10.887   9.123   6.320  0.0239  0.0011  0.3238
12706W        W22399   0.470   3.438   2.070  0.1689 -0.0695 -0.0655
12707W        W22400  14.050  17.093  14.013 -0.0242 -0.1999  0.2614
12708W        W22401   5.758   1.500  11.927  0.0316  0.1013 -0.1080
12709W        W22402   5.255   3.027  16.021  0.0840 -0.0735  0.2077
12710W        W22403  12.531   0.052  11.090 -0.3676 -0.1587  0.0037
12711W        W22404  10.220  17.573  11.538  0.0878  0.2219  0.3298
12712W        W22405  14.943   3.171  12.619  0.1671 -0.1291  0.2717
12713W        W22406   7.309   7.620  16.220 -0.0339  0.0348 -0.0511
12714W        W22407   3.731   6.759  14.864  0.2685 -0.1127  0.3309
12715W        W22408  12.093   5.295   1.942  0.0602  0.0350 -0.0620
12716W        W22409   0.007   0.099   4.174  0.0168 -0.2986 -0.1067
12717W        W22410   1.745   2.924   3.418 -0.2181 -0.0950  0.4790
12718W        W22411  13.211   9.072   2.799 -0.2052 -0.1171  0.3236
12719W        W22412  12.324   1.065   2.514 -0.1864 -0.1712 -0.0704
12720W        W22413  15.103   8.994  13.280  0.1235  0.3327 -0.2351
12721W        W22414  15.666   6.119   0.149  0.2303  0.1227  0.3739
12722W        W22415   5.488  15.886  11.686 -0.0289  0.0602  0.0743
12723W        W22416   4.170  17.025  15.822  0.1820  0.0671  0.1294
12724W        W22417   9.677  14.795  15.239  0.1920  0.1414 -0.2661
12725W        W22418   5.155  10.011  15.212  0.1377 -0.2677  0.0885
12726W        W22419   2.902   5.851   3.217  0.2198 -0.0759 -0.0295
12727W        W22420   2.206  11.761  17.456  0.1724  0.0756  0.0314
12728W        W22421  13.845  13.011   1.816  0.4665 -0.0900  0.2255
12729W        W22422   0.617   8.466   3.329 -0.1971 -0.2272  0.0038
12730W        W22423   8.220   5.779   0.270  0.0090  0.2071  0.1154
12731W        W22424   8.403  17.178  12.991  0.1110 -0.3084 -0.1129
12732W        W22425  10.915  11.133  15.442  0.1632  0.0710 -0.2694
12733W        W22426  17.360   2.490   1.007 -0.1879  0.0980  0.3722
12734W        W22427  15.365   3.038  17.599 -0.2361  0.1046  0.0743
12735W        W22428  15.511  10.229  12.489  0.1003  0.1901  0.0721
12736W        W22429  12.390  13.520   4.156 -0.2783  0.0422  0.0862
12737W        W22430  11.200  12.295   6.269  0.1750  0.0944 -0.3008
12738W        W22431   3.667   7.943  13.398  0.0632  0.2556 -0.0977
12739W        W22432  10.562   0.693   5.701 -0.2412  0.0189 -0.2700
12740W        W22433  13.530  12.572  13.675  0.4136  0.1520  0.1596
12741W        W22434  13.282   0.112   5.611 -0.0117  0.2055  0.2871
12742W        W22435   4.383   7.414  15.739  0.0780  0.3344 -0.0834
12743W        W22436   2.130   6.978  14.347 -0.2273 -0.0787 -0.1605
12744W        W22437   0.718   4.335  15.279 -0.2980  0.0835  0.2045
12745W        W22438  12.060  10.193   3.891 -0.2266 -0.0917 -0.1356
12746W        W22439  11.324   3.385   4.472 -0.2371  0.3133 -0.0350
12747W        W22440   3.696  14.251   4.500  0.0025  0.2170  0.1052
12748W        W22441  16.480   0.384  16.646 -0.1742 -0.1082  0.0330
12749W        W22442  11.813   0.837  13.827 -0.1422 -0.0406 -0.3465
12750W        W22443   6.620   1.011  13.249 -0.1497  0.2906  0.0485
12751W        W22444   4.856   0.947   1.659  0.0969 -0.0285 -0.1970
12752W        W22445   3.453  14.230  14.586 -0.0758 -0.3956 -0.2202
12753W        W22446  10.697   4.429   1.257 -0.0503 -0.1030 -0.0360
12754W        W22447   6.339  15.332   4.963  0.1198  0.2935  0.3064
12755W        W22448   6.649  10.549  11.967  0.0734  0.0585  0.1230
12756W        W22449  14.516   1.358   3.498 -0.1642 -0.0965  0.2002
12757W        W22450  13.600  16.740  12.619 -0.2211  0.1488 -0.1568
12758W        W22451   3.191  12.308   1.430  0.1695  0.2240 -0.0222
12759W        W22452  13.657  17.223  13.733  0.1464  0.2681  0.1672
12760W        W22453   9.453   8.664  12.816 -0.0535 -0.0069  0.1019
12761W        W22454   9.923  12.515   4.447 -0.0956 -0.0132  0.5065
12762W        W22455   9.602   9.403   2.587  0.0638  0.0649 -0.2146
12763W        W22456   3.963   9.465  13.084 -0.0137 -0.1058  0.2875
12764W        W22457   4.981   8.775  13.402 -0.1135  0.1165 -0.0404
12765W        W22458   0.920  15.105  13.842  0.1136  0.2759 -0.2711
12766W        W22459  14.458   9.787   0.553  0.1070 -0.1215  0.0066
12767W        W22460  12.476  15.539  13.661 -0.1167  0.0382  0.1022
12768W        W22461  12.975  14.770   0.500  0.0644 -0.2803  0.0475
12769W        W22462  11.175   9.240   3.309 -0.0802 -0.1233 -0.0005
12770W        W22463  10.987   0.761   0.367  0.0573 -0.2139  0.1296
12771W        W22464   4.480   4.181   2.920  0.2070 -0.2135 -0.0878
12772W        W22465  12.396   7.366  11.870  0.1720  0.0797 -0.1696
12773W        W22466   7.356   3.497   3.525  0.0190 -0.1601 -0.0393
12774W        W22467  17.425  10.330  13.515  0.1514 -0.1220 -0.3758
12775W        W22468  10.309  13.998   1.738  0.1887  0.1326 -0.1122
12776W        W22469  11.877   6.221   6.826  0.2674 -0.1310  0.0572
12777W        W22470   2.923  11.896   5.619 -0.2833  0.0892  0.2090
12778W        W22471  13.181   7.025   1.205  0.0422  0.3965 -0.0883
12779W        W22472  10.403   2.702  13.656 -0.0529  0.2054 -0.0190
12780W        W22473  12.340   0.875   1.179 -0.0629 -0.2890 -0.0969
12781W        W22474   9.817   8.765   4.230 -0.0119  0.0277 -0.2653
12782W        W22475  10.132   8.076  12.576  0.0835 -0.1068 -0.1634
12783W        W22476   7.512   2.497  15.617 -0.2373 -0.0869  0.1738
12784W        W22477   0.777   8.839  16.062 -0.0064  0.2578  0.0864
12785W        W22478   2.814   9.795   2.332 -0.0242  0.1946 -0.1568
12786W        W22479  17.155  11.864   5.892 -0.1198  0.2708  0.3029
12787W        W22480   8.957  14.606  17.381 -0.3137 -0.3157  0.2543
12788W        W22481   7.108   2.464   5.491  0.0970 -0.1245  0.1946
12789W        W22482   7.982  10.430  12.202 -0.1345  0.0007  0.1723
12790W        W22483   7.181   3.067  13.737 -0.0555  0.1461 -0.1240
12791W        W22484   9.491  14.657   5.837  0.2486 -0.2022 -0.0622
12792W        W22485  12.003  12.514  16.861 -0.0795 -0.0923 -0.0814
12793W        W22486   3.950   2.223  13.584  0.1473  0.0404 -0.0974
12794W        W22487  12.512  15.262   4.495  0.0910 -0.0752 -0.0717
12795W        W22488   3.509   0.738  11.137  0.1805 -0.0583 -0.1834
12796W        W22489   1.128   7.518   2.190  0.0087  0.1629 -0.0795
12797W        W22490  10.750   3.672  15.271 -0.1175  0.2720 -0.2881
12798W        W22491   2.911   8.611   4.247  0.0067  0.0658  0.0891
12799W        W22492   0.947   5.883  14.699 -0.1340 -0.1262  0.0052
12800W        W22493   0.716  16.395  15.277  0.1038  0.0399  0.0845
12801W        W22494   0.570  11.084  15.892 -0.0724 -0.0955  0.2992
12802W        W22495  10.563   2.208   3.554  0.2449  0.3024 -0.3999
12803W        W22496   7.534   4.871   3.798 -0.1166 -0.0772  0.2192
12804W        W22497   4.235   4.617  17.458  0.2164 -0.3259 -0.0139
12805W        W22498   1.065   1.055  14.795 -0.0480 -0.1138 -0.2483
12806W        W22499   8.305   6.729   5.821  0.1675 -0.1557 -0.1058
12807W        W22500  10.823   3.948   5.374  0.0875  0.0122 -0.1457
12808W        W22501   7.353  11.175  11.748  0.6215  0.1102  0.0827
12809W        W22502   7.468  17.446  15.347  0.0665 -0.4325  0.1287
12810W        W22503  10.516   3.384  12.663  0.2006 -0.3637 -0.0217
12811W        W22504   4.394  10.488   2.301  0.1518 -0.0642  0.0487
12812W        W22505  16.035  16.512  13.910 -0.3718  0.0911  0.2079
12813W        W22506   0.198  13.510   2.754  0.1483  0.2135 -0.2253
12814W        W22507  13.934   0.089   2.389  0.2172  0.1275  0.0071
12815W        W22508  11.655   7.845   6.288  0.1291 -0.0065 -0.2824
12816W        W22509  13.725   5.685   2.386  0.2350 -0.1857  0.0023
12817W        W22510   3.325   9.275   6.065 -0.4509  0.0019  0.0872
12818W        W22511  15.539   3.306   5.564  0.0177  0.1073 -0.1090
12819W        W22512  14.638  17.620  14.692  0.1863 -0.1980  0.1641
12820W        W22513   6.148   4.946   2.963 -0.2583  0.2283 -0.0716
12821W        W22514   0.727  15.784   2.153  0.0608 -0.0402  0.3642
12822W        W22515  12.517   5.992  15.222 -0.2302 -0.0490 -0.1112
12823W        W22516   1.727   5.303  12.040  0.0938 -0.1965  0.0004
12824W        W22517  16.079  15.365  17.513 -0.0828 -0.0527 -0.0926
12825W        W22518   0.233  16.519  16.006  0.0133 -0.1425 -0.0099
12826W        W22519   2.088  16.900   6.208  0.0293 -0.2198  0.3468
12827W        W22520   5.519   4.616  13.407  0.0019 -0.0556 -0.2564
12828W        W22521   8.139   8.713  16.766 -0.0389  0.0610 -0.0145
12829W        W22522  10.630  16.824   2.423 -0.0551  0.0902 -0.1504
12830W        W22523   4.483   0.166  11.983 -0.0040  0.2861 -0.1870
12831W        W22524  14.761  16.382   4.723  0.0432 -0.1146 -0.0213
12832W        W22525  12.435  14.998   2.627 -0.1624  0.0615  0.2359
12833W        W22526  16.255  17.085   1.211  0.0522  0.0764  0.0655
12834W        W22527  12.149   3.945   0.158 -0.1416 -0.0832  0.0772
12835W        W22528  16.630  11.285   2.962 -0.0393  0.1771  0.0979
12836W        W22529  12.582  14.915   0.193  0.1600  0.2507  0.4432
12837W        W22530   1.876  14.752  15.263 -0.0620 -0.0243 -0.1820
12838W        W22531  15.477   9.163  15.999  0.0311 -0.1208  0.3778
12839W        W22532   2.684   9.131  12.925  0.3465  0.0480  0.0828
12840W        W22533  14.816   7.605   3.950  0.0038 -0.4493  0.2721
12841W        W22534   0.641   4.747   0.670  0.1576 -0.0439  0.0056
12842W        W22535  12.369   5.047   0.683  0.5498  0.0195  0.1138
12843W        W22536  15.318   3.280   1.747 -0.2026  0.1678 -0.1090
12844W        W22537  13.112  11.041   1.901 -0.3103 -0.2869  0.1150
12845W        W22538  17.020   4.386   4.239  0.1205 -0.2558 -0.1654
12846W        W22539   8.559  16.873   6.255  0.0627  0.0973  0.1192
12847W        W22540  17.100  17.341   5.320 -0.0437  0.3539  0.2691
12848W        W22541   9.050   5.617   1.713  0.0932  0.0927  0.0417
12849W        W22542   3.824  12.962   4.491 -0.0225 -0.0702 -0.0115
12850W        W22543  10.930   6.364  15.673  0.1142  0.2392  0.2689
12851W        W22544  17.396   0.548  12.759 -0.0994 -0.0114  0.0288
12852W        W22545   3.701   9.865   5.552  0.3268  0.0990  0.1795
12853W        W22546  10.742  14.345   1.542  0.0699 -0.0891 -0.0727
12854W        W22547   1.312   2.639   6.610  0.0337 -0.1391  0.0501
12855W        W22548  16.221  12.782  17.168  0.0457  0.1786 -0.1104
12856W        W22549   4.389   7.790  11.835 -0.0734  0.0171 -0.0573
12857W        W22550  11.273   5.094   5.195  0.0959 -0.3011 -0.1903
12858W        W22551   3.295   9.760  11.290 -0.3229 -0.1416 -0.0784
12859W        W22552  13.956   7.716   2.610 -0.0790 -0.1593  0.0686
12860W        W22553   8.622   5.372  16.037  0.1252 -0.2995  0.0758
12861W        W22554   4.804   0.053   1.818 -0.1462  0.3604 -0.2705
12862W        W22555   1.293   2.603   2.607 -0.1976 -0.1492 -0.1669
12863W        W22556   8.526   2.685  17.020  0.0496 -0.2244  0.1053
12864W        W22557  15.103   1.076   1.911  0.2074  0.0891  0.0622
12865W        W22558  11.113   9.541   0.646 -0.0591 -0.0290  0.0193
12866W        W22559  11.843  17.129  16.121 -0.1798  0.2662 -0.0668
12867W        W22560  16.902  14.509  14.438  0.1382  0.0765 -0.1163
12868W        W22561   3.418  10.720   5.684 -0.1220  0.1546  0.0931
12869W        W22562  11.852  16.872  13.334 -0.1529 -0.4526  0.1059
12870W        W22563  12.747  12.413   3.203  0.2987  0.1511 -0.1710
12871W        W22564  15.252  16.620  15.711 -0.2723  0.0428  0.5008
12872W        W22565   3.843   1.930  12.342  0.0227  0.0917 -0.0099
12873W        W22566   1.959  12.237   6.787  0.0797  0.1074  0.2519
12874W        W22567   6.642  12.646  15.559 -0.0812 -0.1802  0.1149
12875W        W22568  10.878   7.391   2.003 -0.0934  0.0921  0.0216
12876W        W22569  10.976  16.766  12.984  0.3797 -0.0896  0.2225
12877W        W22570  14.898  12.919   4.080 -0.1660  0.1830  0.2562
12878W        W22571   6.187  11.387  12.000  0.3644 -0.1445 -0.1116
12879W        W22572   3.124  12.501  17.434 -0.2151 -0.0634 -0.1101
12880W        W22573   5.508  15.079   5.914  0.0710 -0.0389  0.1015
12881W        W22574   0.956   3.134   3.660 -0.1658 -0.0800  0.0292
12882W        W22575  17.633  11.686   4.902  0.0027 -0.1811 -0.0966
12883W        W22576  15.079   8.063  16.324  0.2574 -0.1517 -0.2654
12884W        W22577   8.159   5.808  13.770 -0.0461  0.0277  0.0353
12885W        W22578   9.545   7.338   4.553 -0.0347 -0.0878  0.2614
12886W        W22579   3.238   1.099   5.916 -0.0440 -0.1264 -0.0839
12887W        W22580   8.547   0.363  13.097  0.0419 -0.2923 -0.0905
12888W        W22581   8.587  16.851   0.466  0.0960 -0.0004 -0.1550
12889W        W22582   6.238  10.594   0.094 -0.1499 -0.0628  0.0104
12890W        W22583  17.603   3.873  12.105 -0.1505  0.3069 -0.2270
12891W        W22584   4.403  10.074   1.343 -0.2135  0.0679  0.0518
12892W        W22585  12.207  12.736  15.981  0.0823 -0.1117  0.0305
12893W        W22586  16.592   8.853   6.138 -0.2551  0.0548 -0.2187
12894W        W22587  16.408   7.771   5.357 -0.2018  0.0287  0.0960
12895W        W22588   4.032   4.045  15.982  0.3102  0.0295  0.3427
12896W        W22589  10.041  16.949  12.785  0.0053  0.0413  0.0483
12897W        W22590   5.499   0.498  13.882 -0.2204 -0.1626 -0.1266
12898W        W22591  13.471   8.728   0.853 -0.2030 -0.0719  0.2227
12899W        W22592  15.373   5.116  11.237 -0.1014 -0.2140  0.0012
12900W        W22593   2.423   1.263  11.864  0.1008 -0.0296 -0.1867
12901W        W22594   7.087   6.318   1.221 -0.1909 -0.4142 -0.2135
12902W        W22595  12.671  12.002   0.373  0.2230 -0.3649  0.2137
12903W        W22596   0.669  14.350  12.839 -0.2060  0.2746 -0.2746
12904W        W22597   2.879  13.326  16.175  0.0766 -0.1842  0.1007
12905W        W22598  13.236   2.651  12.857  0.1543 -0.4046  0.1771
12906W        W22599   1.835  14.267   4.958 -0.0854  0.1641  0.3415
12907W        W22600  11.644  14.455   0.351  0.0310  0.0188  0.1208
12908W        W22601  16.899  13.688  12.054  0.1201  0.1754  0.1473
12909W        W22602  14.502  12.054  16.920  0.1604 -0.3574 -0.1752
12910W        W22603  17.266  11.579  15.559  0.1816 -0.1886 -0.5174
12911W        W22604   4.354  15.395   6.746  0.0312 -0.0477  0.0796
12912W        W22605  15.256   6.321   2.365  0.0391  0.0153 -0.1944
12913W        W22606   5.580   8.528  13.924  0.0639 -0.0267  0.1252
12914W        W22607   8.875   5.343  15.045  0.0308  0.3223  0.0610
12915W        W22608  16.066  11.372   0.564  0.3010  0.1721  0.0074
12916W        W22609  11.965   2.522   3.756  0.1445  0.0756  0.0876
12917W        W22610  14.686   9.095   3.553  0.0515 -0.0255 -0.0155
12918W        W22611   1.256   6.845  12.232 -0.3473  0.0437  0.1917
12919W        W22612  14.014   6.969  13.968  0.1060  0.0837  0.1927
12920W        W22613  17.364   7.553   1.479  0.0389  0.1194  0.1541
12921W        W22614  14.063   2.357   0.721  0.3130  0.0910 -0.0690
12922W        W22615   8.402   2.091  17.355  0.2271  0.2495 -0.0929
12923W        W22616  15.542   7.790  16.118 -0.0093  0.3453  0.1045
12924W        W22617  14.058   5.931  14.590 -0.0026 -0.0744 -0.2484
12925W        W22618  16.762   8.326   3.335  0.1145  0.2117 -0.2194
12926W        W22619   8.987  17.579  12.236 -0.1340 -0.1282 -0.0571
12927W        W22620  13.099   8.197   4.010  0.0204  0.0216 -0.2313
12928W        W22621  11.395   8.084   4.890 -0.0195  0.1665  0.1221
12929W        W22622   1.439   1.312  13.406 -0.1191 -0.3599  0.1056
12930W        W22623   8.121  11.359  14.222  0.1883  0.0637  0.0145
12931W        W22624   2.320   8.874  17.189 -0.1454 -0.0735 -0.0585
12932W        W22625  12.678   1.386  14.752  0.0911  0.1416 -0.2489
12933W        W22626  14.367  10.393   0.976 -0.0664  0.0699  0.0969
12934W        W22627   9.247   4.962   1.055  0.0504 -0.0869 -0.0695
12935W        W22628   4.910   0.353   2.807  0.0999 -0.0697  0.1799
12936W        W22629  10.626   8.093   1.470 -0.3377  0.0192 -0.1600
12937W        W22630  12.943  13.936  15.488  0.0048 -0.4101  0.2527
12938W        W22631  13.371  16.380  14.926  0.1088  0.0024 -0.1635
12939W        W22632  16.765   0.644   3.737 -0.1536 -0.5476 -0.1881
12940W        W22633  14.969   1.912   5.410 -0.0887  0.2967 -0.1115
12941W        W22634   3.414   3.430  13.362 -0.0297  0.0299  0.1594
12942W        W22635  12.373   9.192  16.875  0.0257 -0.2302 -0.2302
12943W        W22636   9.599   5.572   2.175  0.1474 -0.1635  0.1701
12944W        W22637   3.285   7.459  11.285  0.2054 -0.0311 -0.0577
12945W        W22638   0.460   8.459   0.696 -0.2859  0.2380  0.1159
12946W        W22639  17.114  16.080  12.612  0.0462  0.2595 -0.0817
12947W        W22640  10.247   4.793   3.620  0.0681  0.0417 -0.2864
12948W        W22641  16.914   7.422  15.126  0.1516  0.1904 -0.1277
12949W        W22642   7.118  16.080   5.291  0.0370 -0.1381 -0.0286
12950W        W22643   1.228   0.213  12.614 -0.1862  0.1285 -0.2876
12951W        W22644   5.498   8.765   5.804  0.2595  0.0202  0.2738
12952W        W22645  12.861   0.903  17.383  0.3591  0.0726 -0.1656
12953W        W22646   8.371  17.671  14.958  0.1729 -0.1038  0.1497
12954W        W22647  14.997   0.778   2.362  0.2207  0.2050 -0.0747
12955W        W22648  11.229   1.993   1.115  0.1380 -0.1453  0.1135
12956W        W22649   4.537   5.277  15.726 -0.1996 -0.1669  0.2731
12957W        W22650   0.951   4.240   3.451 -0.1375  0.1932  0.2316
12958W        W22651   8.648  15.761   0.571  0.1652 -0.2170  0.2476
12959W        W22652   0.096   1.337   1.780  0.1782  0.2692 -0.0584
12960W        W22653   4.770  14.540  13.875  0.0785  0.0907 -0.4208
12961W        W22654   5.077   3.560   0.929  0.0079  0.3018  0.0504
12962W        W22655   3.162   9.475   0.932 -0.0540 -0.0408  0.0177
12963W        W22656  16.574  13.322  15.854  0.2818 -0.0208  0.2018
12964W        W22657   4.782   0.721   0.169  0.2397 -0.0546 -0.0625
12965W        W22658  16.817  16.278  16.495 -0.2180  0.1941 -0.2181
12966W        W22659   9.724  16.598   1.490  0.0431 -0.2523 -0.2639
12967W        W22660   6.727   3.427   3.422  0.1184  0.0107 -0.0186
12968W        W22661  15.362   2.549  17.346 -0.1016  0.1117 -0.2834
12969W        W22662  15.566   5.787   1.424 -0.1736  0.2118  0.0174
12970W        W22663  14.364  12.966  16.215 -0.2375 -0.0222 -0.2757
12971W        W22664  11.202  12.360   5.780  0.0985 -0.1403  0.1254
12972W        W22665   9.625   4.222   4.021  0.1395 -0.2364 -0.4178
12973W        W22666  16.005  17.329  12.796 -0.0330  0.3778 -0.1745
12974W        W22667   3.514   2.814  14.936 -0.0773 -0.0647  0.1963
12975W        W22668  15.110  13.908   4.388 -0.0985 -0.1904 -0.0016
12976W        W22669  10.056   3.139  12.325 -0.0969  0.0147  0.0645
12977W        W22670   9.742   5.758  16.322  0.0924  0.2499  0.0588
12978W        W22671  12.193  12.825   2.936  0.2694 -0.2662 -0.1136
12979W        W22672  16.151   6.807   3.230  0.3617 -0.1001  0.2633
12980W        W22673  13.714  11.896  12.382  0.0433  0.1321  0.0439
12981W        W22674   4.515   2.840   4.798  0.0193  0.1514 -0.0836
12982W        W22675   0.666   7.101   3.064  0.1993 -0.0713  0.3366
12983W        W22676   0.169   7.661   2.224 -0.0495  0.0802  0.0790
12984W        W22677   7.173   7.231  14.902  0.1072 -0.1088  0.1373
12985W        W22678   9.963   8.212   4.890 -0.0432  0.1751  0.0327
12986W        W22679  12.874  15.122   2.441  0.0818  0.3401  0.2125
12987W        W22680   6.979   5.562   4.011 -0.1236 -0.0132 -0.0280
12988W        W22681   6.575   6.107  11.716  0.0137 -0.1083 -0.1432
12989W        W22682  15.482  16.208  16.595  0.3380 -0.2208  0.1932
12990W        W22683  14.185   9.408   3.811  0.1312 -0.3132 -0.0218
12991W        W22684   0.257  15.670   1.373 -0.0831  0.1943 -0.0863
12992W        W22685   1.959  15.695   2.459 -0.1262  0.1645 -0.0779
12993W        W22686  15.343   9.448   5.993 -0.0277  0.1979  0.0644
12994W        W22687  17.018  13.089   2.106  0.0297  0.2295 -0.2121
12995W        W22688   7.473   7.797   3.649  0.2827 -0.2759  0.3740
12996W        W22689  13.247  11.068  17.178 -0.1203  0.0721 -0.0690
12997W        W22690  11.308  14.157   0.588  0.1128  0.0315  0.0272
12998W        W22691   4.302  16.833   1.793 -0.0401 -0.1029  0.1977
12999W        W22692   4.725   5.196  16.289  0.2491  0.1961  0.1061
13000W        W22693  11.067   5.183  17.160 -0.0216  0.0196 -0.2323
13001W        W22694   8.491  16.108  12.303  0.1809  0.2146 -0.0830
13002W        W22695  12.145   5.809   2.125  0.3677  0.2434  0.0618
13003W        W22696  13.477  11.471   2.302  0.1249 -0.3206  0.3652
13004W        W22697   1.451  17.278   2.388 -0.3409  0.0032  0.0942
13005W        W22698  14.162   2.950   5.130  0.1331  0.0920  0.4133
13006W        W22699   9.323   9.251  15.695 -0.1434  0.1278 -0.0533
13007W        W22700   6.350   4.935  16.832 -0.2143  0.0213  0.1086
13008W        W22701   0.038   9.399  13.040  0.0516  0.0286 -0.1930
13009W        W22702  10.086   0.994  17.014 -0.0015  0.2728  0.2844
13010W        W22703   0.811  14.836   3.213  0.1040 -0.1394 -0.0014
13011W        W22704   3.054  12.844   0.722  0.1183 -0.1405  0.0654
13012W        W22705   2.513   7.905   2.260  0.2507  0.2178 -0.1554
13013W        W22706  14.774  12.047   4.156 -0.1185  0.1580  0.1346
13014W        W22707   5.817   7.578  16.710  0.0391 -0.0894  0.0763
13015W        W22708  15.904   7.480  13.001  0.3742  0.0609  0.2722
13016W        W22709  11.451  13.337  14.479  0.3448 -0.2084 -0.1116
13017W        W22710   1.115   7.700  13.734 -0.0033 -0.2946 -0.0672
13018W        W22711   6.707   2.747   0.448 -0.3143 -0.1306 -0.2859
13019W        W22712   2.970  10.852   5.860  0.2359 -0.1696 -0.0448
13020W        W22713  15.035  10.617  14.723  0.0306  0.0583 -0.1447
13021W        W22714   7.762  16.843   0.805  0.1105  0.0876 -0.1461
13022W        W22715  12.513   4.629   6.591 -0.1414 -0.3060 -0.0834
13023W        W22716   2.915  17.555   4.920 -0.0602 -0.0282 -0.0788
13024W        W22717   9.723  15.698  13.111 -0.0593 -0.3371  0.1583
13025W        W22718  14.206  15.747  16.544  0.0335 -0.0885  0.2497
13026W        W22719   0.379  12.874   1.304  0.0967 -0.0744  0.3680
13027W        W22720   5.058   5.014  12.182 -0.0755 -0.0842  0.2361
13028W        W22721  16.999   4.615   0.726  0.1908  0.1214 -0.4565
13029W        W22722   9.759   6.086   1.722  0.0647  0.1002  0.0268
13030W        W22723   1.975  15.479   5.747 -0.1224  0.2059 -0.1442
13031W        W22724  12.491   0.535  14.604 -0.0046 -0.1691 -0.2756
13032W        W22725   7.368  10.101   3.795  0.2321 -0.0723 -0.1998
13033W        W22726  10.127   0.726   2.213 -0.4414  0.0712  0.2861
13034W        W22727   5.589  13.315  12.407 -0.3953  0.1905  0.0193
13035W        W22728  12.099  11.078  16.588 -0.1744  0.1895 -0.1695
13036W        W22729  15.693  11.059  15.072 -0.0093  0.0259  0.1440
13037W        W22730  10.232   9.790  12.225  0.3324 -0.0950 -0.1345
13038W        W22731   8.177  12.784  15.426 -0.1653  0.2664 -0.0452
13039W        W22732   0.233   2.619  12.155 -0.0362 -0.1199  0.0505
13040W        W22733   9.213  14.212  14.445  0.1500 -0.0589  0.2285
13041W        W22734   0.107  11.194   6.154  0.1508 -0.0484  0.0117
13042W        W22735   6.443  12.153   0.150  0.2494 -0.2479  0.1163
13043W        W22736   2.670   7.196  16.535 -0.0097  0.0874  0.1844
13044W        W22737   3.594  15.672  14.275 -0.1357  0.0520  0.0873
13045W        W22738  16.845   6.347   4.903  0.2827 -0.0700 -0.0232
13046W        W22739   3.964   3.509   2.794 -0.0552  0.3989 -0.1400
13047W        W22740   0.236   8.625  11.344  0.3725 -0.0144  0.3464
13048W        W22741   4.610  13.231   3.545  0.4865 -0.4412  0.0880
13049W        W22742  15.273  13.103  13.610  0.2319 -0.2832 -0.0284
13050W        W22743   4.447  13.858  16.802  0.0807  0.2813 -0.0458
13051W        W22744  16.371  14.367  12.867 -0.0168  0.1491  0.3686
13052W        W22745   8.669  14.103  14.691  0.0204  0.0361 -0.0809
13053W        W22746   2.627  13.370  14.075 -0.3411 -0.0871  0.1396
13054W        W22747   8.090  10.027   3.565 -0.1955 -0.1705  0.0119
13055W        W22748   0.090  11.428  12.768  0.1787 -0.1743  0.0503
13056W        W22749   0.657   6.844  15.387 -0.1146 -0.5032 -0.1241
13057W        W22750   2.405   7.458  13.527 -0.2307 -0.1722 -0.3651
13058W        W22751   8.731   7.505  11.549  0.0420  0.0808 -0.0893
13059W        W22752   2.425  13.927   4.191 -0.3029 -0.0887  0.0510
13060W        W22753   4.510  13.462  17.154 -0.0171 -0.0684 -0.4520
13061W        W22754   0.936   4.024  15.672 -0.1383  0.0013  0.1506
13062W        W22755  16.991  13.577   4.304 -0.1356  0.0699 -0.1766
13063W        W22756  12.643   4.030  14.868  0.1961  0.1208 -0.2022
13064W        W22757  15.553  13.619   4.475  0.2771 -0.0628 -0.1733
13065W        W22758   5.088   5.558  11.135 -0.0031  0.0274  0.2024
13066W        W22759   8.488   1.475   2.596  0.0075  0.0228 -0.2723
13067W        W22760   4.291   3.713   1.846  0.0127  0.1176 -0.1007
13068W        W22761   0.912   0.191  15.059 -0.4872 -0.4654 -0.1606
13069W        W22762  14.917  16.633   5.099  0.2896 -0.3508 -0.2160
13070W        W22763   3.685   2.283  15.223  0.0153  0.2134 -0.4142
13071W        W22764   4.316  14.311  16.548 -0.1124  0.2318  0.2513
13072W        W22765   8.809   3.587   0.515  0.1142  0.1240 -0.1293
13073W        W22766   7.681  15.350  13.047 -0.2475 -0.0538  0.0383
13074W        W22767  17.635   0.883  14.359 -0.2761  0.1723  0.1891
13075W        W22768   3.120  14.212   6.204 -0.2538  0.0029  0.3786
13076W        W22769   8.877   2.803  15.515  0.0935  0.3122  0.1412
13077W        W22770  13.027   5.481   4.941  0.0402  0.0782 -0.0788
13078W        W22771  16.985  10.499  15.461  0.2314 -0.0720 -0.3511
13079W        W22772   1.862   7.616  12.278  0.0606 -0.3771 -0.1107
13080W        W22773   9.701   2.078   2.550  0.1507 -0.0537 -0.0342
13081W        W22774   2.697  13.057   4.126  0.2235 -0.0646 -0.1049
13082W        W22775  15.625   5.794  14.299  0.1744  0.5408 -0.1959
13083W        W22776   2.120   5.735   1.044 -0.0175 -0.4001 -0.1091
13084W        W22777  12.374   6.871   3.439  0.1715  0.0333  0.3314
13085W        W22778   5.981   0.890   5.487 -0.3089  0.0008  0.1323
13086W        W22779   8.876   3.711   2.313  0.0769  0.2660  0.2227
13087W        W22780   9.488  13.444   5.439 -0.2319 -0.0954  0.0922
13088W        W22781   3.957   3.657  12.565 -0.0546 -0.2711 -0.1949
13089W        W22782  12.816  16.181   1.883  0.0500  0.1738  0.0643
13090W        W22783  14.120   2.050   2.760 -0.2135 -0.4064  0.1581
13091W        W22784  14.904  17.208  14.897 -0.2570  0.3593  0.4019
13092W        W22785  15.636   1.997   5.147 -0.1572  0.2118  0.0505
13093W        W22786  17.565  14.569   0.189 -0.0206  0.3136 -0.2451
13094W        W22787   1.263   0.453  11.671  0.0791  0.0464 -0.0255
13095W        W22788   9.500   8.852   2.757 -0.2319 -0.1898 -0.0456
13096W        W22789   4.081  11.371  12.337 -0.2262 -0.2175  0.1169
13097W        W22790   5.319  16.939  12.246  0.2576  0.3557 -0.1845
13098W        W22791   0.083  10.758   4.872  0.2451 -0.0000  0.0786
13099W        W22792  11.500   9.992  17.509  0.0470 -0.2767  0.1610
13100W        W22793  16.385   7.384  12.893 -0.1002 -0.1164 -0.0304
13101W        W22794   9.709   0.736   6.786  0.0762 -0.2034  0.1140
13102W        W22795   5.862   6.831  16.060  0.1779 -0.2212 -0.0402
13103W        W22796   8.944   7.845   0.042 -0.0826  0.0620 -0.0893
13104W        W22797  12.371   4.806   1.670  0.1368 -0.0976  0.0600
13105W        W22798   7.643  12.476  11.879  0.0397  0.0915 -0.1487
13106W        W22799  16.510   4.514  17.662 -0.0334  0.1114  0.0065
13107W        W22800   8.253   8.855  14.716 -0.2196  0.4340 -0.0106
13108W        W22801   2.983  11.535  16.906 -0.1741 -0.3265 -0.1740
13109W        W22802  12.451  16.449   2.188  0.0776 -0.3232 -0.1505
13110W        W22803  12.987   0.615  12.247 -0.0344 -0.1604 -0.2298
13111W        W22804   4.950  12.796  15.718  0.3664  0.0295 -0.0162
13112W        W22805   8.339   3.014  15.350  0.0394 -0.3954 -0.3396
13113W        W22806  11.446   9.466  15.554 -0.1330  0.2131  0.4391
13114W        W22807  16.468   8.162  12.385  0.1623  0.3606 -0.3059
13115W        W22808   8.120   3.086   1.895  0.0216 -0.0461  0.0704
13116W        W22809   5.567  13.456   5.419  0.1598 -0.1635  0.1477
13117W        W22810   5.927   1.885  12.252 -0.3058 -0.1203  0.0113
13118W        W22811   9.817  10.594   1.572  0.2759  0.2503 -0.1959
13119W        W22812  13.648  13.443   1.586  0.0267 -0.2792  0.0564
13120W        W22813   4.472   4.546  14.608 -0.2221  0.1103 -0.1903
13121W        W22814  10.618   8.672   0.793 -0.1659  0.0899 -0.1602
13122W        W22815   7.716   3.170  16.586  0.0288  0.1906  0.0240
13123W        W22816  15.611  16.505   5.744 -0.0444  0.4968 -0.1421
13124W        W22817   8.043   1.328   4.382 -0.0822  0.1412  0.2985
13125W        W22818   9.666   9.068  16.027  0.2199 -0.3129 -0.1690
13126W        W22819  16.388  11.210  12.839  0.0419 -0.1811  0.1543
13127W        W22820  12.943  10.784   5.824 -0.0671 -0.2547  0.0906
13128W        W22821   5.153  15.867  17.056  0.0274  0.1442 -0.2886
13129W        W22822  15.058   4.482   3.856  0.0569  0.0780  0.0187
13130W        W22823  12.361   1.526  12.201  0.0026 -0.1099 -0.1825
13131W        W22824   8.023   4.859  17.451  0.1973  0.2043  0.3489
13132W        W22825  13.625  16.744   4.603  0.2645  0.0161  0.0754
13133W        W22826   2.601  14.071   0.894  0.2627  0.0054  0.1187
13134W        W22827  13.351  15.165  14.857 -0.0018 -0.0605  0.1170
13135W        W22828   1.993   6.976   2.938 -0.2409 -0.0503 -0.1754
13136W        W22829   0.905   2.901   2.693 -0.0970 -0.0961 -0.0385
13137W        W22830  10.877  17.083   2.080  0.2532 -0.1354 -0.0463
13138W        W22831  15.302  14.267   6.073 -0.1506 -0.0702  0.3465
13139W        W22832   9.862  12.803  13.649  0.1190 -0.2944 -0.0389
13140W        W22833  17.441  15.299  17.050  0.0637  0.0906 -0.2374
13141W        W22834   0.371   5.751  13.928 -0.1000 -0.0609  0.1240
13142W        W22835   9.840  14.404  17.024  0.0417 -0.1394  0.1259
13143W        W22836   4.290   1.993   5.844 -0.0456 -0.1499  0.0435
13144W        W22837   4.677   0.544   1.408  0.2330  0.3777  0.0412
13145W        W22838  17.188  12.406  15.062 -0.1511  0.1318  0.1743
13146W        W22839   4.945   1.491   1.456  0.0189  0.2255  0.3544
13147W        W22840   0.719   7.298   4.321 -0.0720  0.1083 -0.1008
13148W        W22841  13.092   7.894   2.735 -0.1552  0.3084  0.1582
13149W        W22842  13.582   2.678  16.124  0.1556 -0.1226  0.1125
13150W        W22843  10.498  11.643   1.733  0.0145 -0.2536 -0.0477
13151W        W22844  16.539   5.585   2.131 -0.1932 -0.3074 -0.0374
13152W        W22845   4.501   6.010  16.293 -0.1157 -0.2937  0.2622
13153W        W22846  15.851   5.024   2.585 -0.0876  0.1783 -0.1865
13154W        W22847   7.268  12.324   3.358 -0.0344 -0.0914 -0.2620
13155W        W22848  14.447   6.559   0.494 -0.1152 -0.2954 -0.2794
13156W        W22849   5.464   8.197   4.908 -0.0717 -0.4515 -0.1659
13157W        W22850   7.754   8.691   3.771 -0.2419  0.2499 -0.0930
13158W        W22851   6.935   2.492   3.553  0.2249  0.0006  0.2561
13159W        W22852  11.798   2.534  16.821 -0.1804  0.2997  0.0257
13160W        W22853   6.262   9.451  12.798 -0.0384 -0.0446 -0.1603
13161W        W22854   4.328   6.697   2.981 -0.0431 -0.1396 -0.1151
13162W        W22855   8.143   5.763   2.132 -0.0371  0.0046 -0.1904
13163W        W22856  13.829   2.120  14.997 -0.1871 -0.0568 -0.1555
13164W        W22857   2.291   7.558  16.469 -0.3822  0.0849 -0.2590
13165W        W22858   8.068  11.090  12.445 -0.2659  0.0991  0.2899
13166W        W22859  14.385   4.027   0.033  0.1305  0.0025 -0.0928
13167W        W22860   0.359   4.805   5.573  0.0311 -0.1210 -0.2548
13168W        W22861  17.085  17.654   0.554  0.1380 -0.3165 -0.1519
13169W        W22862  10.659   8.588  17.471  0.1369 -0.2110 -0.3407
13170W        W22863   1.843   2.202  17.414 -0.2480  0.1167  0.2095
13171W        W22864   0.024   1.376  12.712  0.1333  0.4248  0.2484
13172W        W22865   5.720  12.230   2.421  0.1140 -0.0484 -0.0125
13173W        W22866   6.900   0.005  12.510 -0.0111 -0.0708  0.2699
13174W        W22867  11.413  15.017   1.505 -0.0918 -0.1102  0.0640
13175W        W22868  14.231  17.435  11.852  0.1087  0.1393 -0.0963
13176W        W22869  14.497   8.011  13.224  0.2799 -0.2575  0.0173
13177W        W22870  16.750  12.544  15.095  0.0101  0.0123  0.2053
13178W        W22871  14.355  11.264   0.511 -0.0981  0.1176 -0.0534
13179W        W22872   8.983  13.257   6.912 -0.1193  0.0380 -0.4007
13180W        W22873   8.740   0.725   0.403 -0.0393 -0.1654 -0.0987
13181W        W22874   0.151  15.829   4.070 -0.0476  0.3306 -0.1119
13182W        W22875   2.577   1.520  16.127  0.3098  0.2232 -0.0719
13183W        W22876   4.854  11.383   6.400  0.0678  0.1740  0.0516
13184W        W22877  11.478  16.022   3.672 -0.0470 -0.2206  0.1992
13185W        W22878  11.933  16.108   3.953  0.0629  0.1871 -0.2397
13186W        W22879  14.945   2.407  17.582 -0.2658 -0.1511 -0.1689
13187W        W22880  10.093   4.407  12.997  0.3512 -0.3247  0.0594
13188W        W22881   6.562   2.232   3.757  0.0771 -0.2633 -0.1258
13189W        W22882   3.673   9.802  15.384 -0.1768 -0.0021  0.2380
13190W        W22883   5.889   8.808   5.459 -0.1262 -0.1167  0.0336
13191W        W22884   0.892   8.060   5.580  0.0522  0.1259 -0.3607
13192W        W22885   9.776   6.126  12.402 -0.0724 -0.1686 -0.1056
13193W        W22886   6.128  13.726  14.050  0.0984 -0.0779 -0.0382
13194W        W22887   4.329  14.692   3.940  0.1712 -0.1239  0.1308
13195W        W22888  10.965   9.977   0.438 -0.0466  0.0934  0.1481
13196W        W22889   3.910  14.495  16.936  0.3574 -0.0306  0.1472
13197W        W22890   9.841   3.825  14.501 -0.1687  0.2025 -0.2397
13198W        W22891   0.021  15.157  13.677  0.2788 -0.1501 -0.4368
13199W        W22892   9.484   6.530   4.769  0.0196  0.2117  0.4166
13200W        W22893  17.228   1.537  12.500 -0.0682 -0.0318 -0.2034
13201W        W22894  12.249   6.224  17.560  0.2192  0.1248 -0.3470
13202W        W22895  14.763   4.788  14.543 -0.0948 -0.1689  0.0316
13203W        W22896   9.329   7.899  13.838 -0.2968 -0.2135  0.0142
13204W        W22897  17.675  13.593   0.102 -0.0038 -0.2875 -0.1607
13205W        W22898   3.259  16.747  13.267 -0.1292 -0.0407 -0.0203
13206W        W22899   6.837  13.668  10.860 -0.0166  0.2873 -0.0821
13207W        W22900   0.203   1.494   2.643  0.0508  0.0315 -0.2880
13208W        W22901   4.387   7.251   4.227  0.1479 -0.1360  0.2561
13209W        W22902   3.114  11.289   4.070 -0.1475  0.3382 -0.2943
13210W        W22903   5.021   1.224   3.337 -0.0077 -0.2841 -0.1302
13211W        W22904   1.933   8.116  12.371  0.2999 -0.0372 -0.0238
13212W        W22905   0.287   8.660   3.678 -0.2653  0.0830 -0.2007
13213W        W22906   4.188   0.567   0.834  0.0809  0.2304  0.0468
13214W        W22907   1.090   6.722  11.760  0.3709 -0.2190  0.1203
13215W        W22908  11.142  10.219  13.077  0.1260  0.0728 -0.0684
13216W        W22909   2.740  15.851  13.632 -0.0917 -0.2231 -0.2754
13217W        W22910   2.560   7.606   2.706 -0.1537  0.1251  0.0027
13218W        W22911  11.739  16.323  12.952 -0.1518  0.0242  0.0162
13219W        W22912   0.832  13.953  16.469  0.4957  0.0757 -0.3109
13220W        W22913  13.293   3.426  15.085  0.0663 -0.1678 -0.5377
13221W        W22914   9.970   3.960  12.929  0.0428 -0.1581  0.2303
13222W        W22915   4.307   0.849   3.337  0.0965 -0.1340  0.2493
13223W        W22916   6.230  15.952   2.777  0.1545  0.0826 -0.0790
13224W        W22917   9.072   1.283  11.809 -0.0699  0.1841  0.1210
13225W        W22918   8.824   5.134  16.442  0.0990 -0.0339 -0.4027
13226W        W22919  16.375  11.039   1.996 -0.4005  0.1592 -0.0771
13227W        W22920   5.861  13.427   2.043 -0.0702  0.0162  0.1230
13228W        W22921   9.099   4.340   3.318  0.3352  0.3095 -0.2332
13229W        W22922   1.465   1.751  15.586 -0.1698 -0.2442  0.0350
13230W        W22923  16.586  14.069  16.404 -0.0235 -0.1248  0.4341
13231W        W22924  11.891  10.123  13.209 -0.0322  0.0203  0.1373
13232W        W22925   9.548   9.012   0.679  0.1037  0.2063 -0.2231
13233W        W22926   4.868  10.315   1.583 -0.0174  0.1519  0.0218
13234W        W22927  14.536   7.313  15.481  0.1985 -0.1497  0.3347
13235W        W22928  14.623  12.925   4.527  0.1924  0.1678 -0.0864
13236W        W22929   6.722   1.599  16.916  0.0166  0.2080  0.2519
13237W        W22930  14.329  14.998   1.293 -0.3833  0.0610 -0.5607
13238W        W22931   2.981  15.019   5.320 -0.3934  0.0371  0.1655
13239W        W22932  11.303   6.322   4.907 -0.0110  0.2685 -0.1157
13240W        W22933   1.430   6.183   3.632 -0.0112  0.0429  0.4807
13241W        W22934  14.300  13.843   4.016  0.2560 -0.0512 -0.0437
13242W        W22935   3.744   5.621   4.386 -0.1490 -0.1778  0.1894
13243W        W22936   1.314  11.254   2.808  0.0169  0.0977 -0.1355
13244W        W22937   7.936  17.582  15.205  0.3288 -0.2718  0.2071
13245W        W22938  13.243  14.251   1.803 -0.0672 -0.0716 -0.0563
13246W        W22939  15.742   6.488   0.437 -0.2432  0.3384 -0.0894
13247W        W22940   1.663   5.240  12.854 -0.0496 -0.0970 -0.2983
13248W        W22941  13.785   5.364   3.624 -0.2165 -0.1219  0.1389
13249W        W22942  14.345  16.320   2.776  0.0735  0.2348 -0.0120
13250W        W22943  15.058   0.333  12.781  0.1653 -0.0330  0.2884
13251W        W22944  14.931   5.149  14.033 -0.0718 -0.1217  0.0609
13252W        W22945   3.307   4.579   1.926  0.1257  0.0901 -0.2743
13253W        W22946  10.536   6.393  14.859 -0.3628 -0.0552  0.0068
13254W        W22947   6.697   5.570  12.604  0.2052 -0.1878 -0.1870
13255W        W22948   2.319   9.750   5.467  0.3911 -0.0997  0.0071
13256W        W22949  16.467  14.029   6.701  0.0562 -0.3109  0.1457
13257W        W22950   1.048   4.232  13.379 -0.0320  0.2061  0.1641
13258W        W22951   0.283   7.069  17.689  0.0695  0.0402 -0.1494
13259W        W22952   4.335  16.497  14.927 -0.0880  0.0375  0.3691
13260W        W22953   1.770  14.781   1.730  0.0082  0.3002  0.1296
13261W        W22954   6.543   9.547  14.994  0.0953  0.0841  0.1846
13262W        W22955  10.910   6.398  17.689  0.2017 -0.0764 -0.2166
13263W        W22956  17.190   2.310   4.497 -0.0002  0.1256 -0.3314
13264W        W22957   9.520   7.133  13.170 -0.0075 -0.0185 -0.2347
13265W        W22958  16.551   2.097   1.794  0.0520 -0.0470  0.2973
13266W        W22959   4.602   4.769  13.029  0.0367 -0.1241  0.2052
13267W        W22960   6.753  14.109   2.701  0.1910  0.1355 -0.1226
13268W        W22961  14.277  11.760   4.526  0.3398 -0.0600 -0.0296
13269W        W22962   4.775  14.520  11.053 -0.0843 -0.1785 -0.2965
13270W        W22963   4.466   5.742   5.976 -0.2552 -0.0790  0.0721
13271W        W22964  10.193   6.660  15.130 -0.0566  0.2971 -0.0438
13272W        W22965   5.702  10.335   1.283 -0.2243  0.1424  0.0824
13273W        W22966   7.273   9.851   2.772  0.0092  0.1649 -0.0495
13274W        W22967   5.270   4.963  11.740 -0.2977  0.0225  0.2511
13275W        W22968   0.277   7.854   0.528  0.2189  0.1772  0.4196
13276W        W22969   5.205   0.372   3.315 -0.1027 -0.2119 -0.0547
13277W        W22970  13.241  10.581  16.877  0.1938 -0.1485  0.0521
13278W        W22971   6.631   8.658  14.893  0.4550 -0.0274  0.1310
13279W        W22972   5.357   5.235   1.210  0.0744  0.0492  0.0307
13280W        W22973   9.447   7.869   0.918  0.3277 -0.0267 -0.3596
13281W        W22974   5.842   8.556   1.285  0.1744 -0.1613  0.1489
13282W        W22975   2.519  16.353   0.638  0.2281 -0.0618  0.0235
13283W        W22976   7.418   8.902   3.252  0.3527  0.1492  0.0221
13284W        W22977  14.611  15.743   5.044 -0.2709 -0.1033 -0.1107
13285W        W22978   7.345  14.511   6.424  0.0799 -0.4074 -0.1880
13286W        W22979  16.283  13.438   3.237 -0.1442 -0.3603 -0.2053
13287W        W22980   2.210   1.269   0.189  0.1661  0.1991  0.0664
13288W        W22981   8.067  12.441   5.950 -0.1226  0.1158  0.2853
13289W        W22982   0.688  13.325   6.214  0.1810  0.1903  0.0080
13290W        W22983   1.511  14.332   2.604 -0.1194 -0.0212  0.2445
13291W        W22984   0.624  15.182   4.007 -0.1408  0.1565 -0.0346
13292W        W22985   5.834   9.465  14.939 -0.0365  0.2236  0.2578
13293W        W22986   7.861   4.035  12.364 -0.2150 -0.0628  0.1834
13294W        W22987   9.171   1.407   4.404  0.0992  0.0226 -0.0275
13295W        W22988  10.777   0.322   1.708  0.0260  0.0307 -0.0265
13296W        W22989   8.255  14.554   0.535  0.2308  0.1568 -0.2726
13297W        W22990  15.857  12.240  12.971  0.1116 -0.0169  0.1983
13298W        W22991  10.591   9.457  14.209  0.2252  0.2326  0.1200
13299W        W22992   9.941  16.540  16.106  0.1026  0.2048  0.0649
13300W        W22993   7.566   3.989  14.723  0.1580  0.2740  0.0046
13301W        W22994  11.667   4.823  14.966 -0.0431  0.1095  0.1441
13302W        W22995   8.635   1.126  11.918  0.3543  0.5612 -0.1201
13303W        W22996   6.553   6.572  16.149  0.1219 -0.0822  0.1192
13304W        W22997   9.404  16.080   4.020  0.0562 -0.0536  0.0951
13305W        W22998   3.147   9.583   2.016 -0.2442 -0.0547  0.2744
13306W        W22999  13.928  10.117  13.274 -0.0805  0.1329  0.0946
13307W        W23000  14.849   0.344  12.318 -0.1071  0.0457  0.2794
13308W        W23001   7.238  15.828  14.751 -0.2991  0.1944  0.2690
13309W        W23002  16.170   8.942   1.990 -0.1628  0.1088  0.0302
13310W        W23003  10.382   8.551  12.632 -0.0664  0.1147 -0.2292
13311W        W23004   8.395   8.345   5.192  0.3328  0.0370  0.0395
13312W        W23005   9.778   1.415   6.173 -0.0708  0.0908 -0.0946
13313W        W23006   7.478   2.256  16.760 -0.1754  0.2896  0.1201
13314W        W23007   1.881  15.159   6.446  0.2928 -0.3193 -0.4102
13315W        W23008  15.013  11.165   5.885  0.0602  0.1686 -0.1979
13316W        W23009   2.080  12.017   5.052  0.0808  0.1503 -0.1213
13317W        W23010   5.480  13.366  17.510 -0.0470 -0.0403 -0.1359
13318W        W23011  17.535   6.178  13.211  0.1580 -0.0466 -0.0046
13319W        W23012   0.475  11.073  12.919  0.1099  0.2591 -0.1177
13320W        W23013   0.915  17.467   3.702  0.0589  0.0199  0.0966
13321W        W23014  16.299   7.464   5.714 -0.2126  0.1489  0.0120
13322W        W23015   7.101   7.589  13.267  0.1995  0.2617  0.0929
13323W        W23016  16.425  15.280  11.947  0.1391  0.3387 -0.0388
13324W        W23017   0.453  13.636  12.005  0.0256  0.2172 -0.2650
13325W        W23018   0.477  14.535   0.550 -0.2215  0.2356  0.1345
13326W        W23019  15.964  15.101   3.617 -0.0190 -0.0619  0.1167
13327W        W23020  13.673  11.789  15.057 -0.3369 -0.0331 -0.1883
13328W        W23021   5.769  17.505   4.868 -0.2807 -0.2351  0.1056
13329W        W23022   7.620   4.476  13.807  0.0105  0.1382  0.0802
13330W        W23023   8.466  12.247   1.524  0.0097 -0.0637  0.0656
13331W        W23024   9.080  16.812  14.794 -0.0377 -0.0502  0.1595
13332W        W23025   9.375  11.172   2.186 -0.0130 -0.2056 -0.0122
13333W        W23026   1.435   3.553   2.968  0.1307 -0.0491  0.1003
13334W        W23027   1.002   0.279   3.692  0.2062 -0.1638 -0.2562
13335W        W23028   1.752   0.221  16.757  0.1304 -0.0986  0.0424
13336W        W23029   3.506  11.597  14.798 -0.4346  0.1241 -0.0409
13337W        W23030  11.290   7.116   1.768 -0.3224 -0.0672 -0.2057
13338W        W23031  13.849   1.780   5.594 -0.0950 -0.0595 -0.1684
13339W        W23032   8.528   1.530   5.559 -0.0686  0.1003 -0.1173
13340W        W23033   7.162   3.602   5.509  0.1951 -0.0699  0.0513
13341W        W23034   3.884   5.239   2.322  0.1082 -0.1436 -0.1395
13342W        W23035   7.746   3.226  14.196 -0.1881  0.1279 -0.0344
13343W        W23036   9.125   7.426   4.367  0.1087  0.3870 -0.1856
13344W        W23037  12.581   5.295   1.609  0.2068 -0.1201 -0.2541
13345W        W23038   9.538   2.884  12.430 -0.0829 -0.1002  0.3534
13346W        W23039   6.677  10.638   0.602 -0.1410  0.0988 -0.3891
13347W        W23040   6.210  11.333   2.518  0.1459  0.0038  0.1542
13348W        W23041  12.979  16.417   4.306  0.2385 -0.0032 -0.4485
13349W        W23042  15.184   3.572   4.126  0.2511  0.0355 -0.1337
13350W        W23043  10.356   5.355   3.574  0.1403  0.2077 -0.0681
13351W        W23044  10.210   0.959   3.071 -0.0405 -0.1505 -0.1255
13352W        W23045   7.756  13.969  13.652 -0.0341  0.2009 -0.1918
13353W        W23046   0.780   2.324   3.739 -0.0402 -0.0686  0.1634
13354W        W23047  11.441   6.217  15.984 -0.0586 -0.2483 -0.1287
13355W        W23048   2.163   0.330  10.801 -0.4563  0.0704  0.2140
13356W        W23049  15.590  10.875  13.127  0.1480  0.1255 -0.0957
13357W        W23050   7.660  15.816   2.552 -0.2916  0.0639 -0.3701
13358W        W23051   8.521  14.883   0.249  0.1454  0.2539  0.0292
13359W        W23052   3.892   5.582  14.044  0.0487 -0.4241 -0.1794
13360W        W23053  10.728  13.827  14.645  0.1563  0.3746  0.0318
13361W        W23054   6.837   3.789  14.113 -0.0745 -0.2890 -0.2508
13362W        W23055  10.544   1.276   3.811  0.2204 -0.2564 -0.0787
13363W        W23056   7.464  17.171  13.916 -0.1978 -0.1398 -0.1769
13364W        W23057  10.116  14.980  15.203 -0.1558  0.0991  0.2434
13365W        W23058  12.744   6.478   1.242  0.1028  0.1902 -0.1681
13366W        W23059   9.658   3.399  16.729 -0.2276  0.1730  0.0351
13367W        W23060   3.521  12.861  12.509  0.0065 -0.2537 -0.0216
13368W        W23061   1.129  11.111   5.744 -0.0237  0.1087 -0.1139
13369W        W23062  11.269  17.126   1.773 -0.0330 -0.0880  0.0135
13370W        W23063  13.038  13.375  16.380  0.2171  0.0957 -0.2643
13371W        W23064  14.789  14.544  13.179  0.2714 -0.3493 -0.0409
13372W        W23065  11.547  17.197   4.446 -0.0288 -0.1575  0.3992
13373W        W23066   6.691  14.954  17.183  0.2903  0.1470 -0.3472
13374W        W23067   3.693   5.832  12.803  0.1777 -0.0978  0.0162
13375W        W23068   1.506  11.090   3.234  0.0558  0.2186  0.2433
13376W        W23069   3.653  12.560   2.913 -0.1412  0.0189 -0.0159
13377W        W23070  16.901  10.152   2.005 -0.0802 -0.2209 -0.3124
13378W        W23071  14.517  14.967   0.833  0.1237 -0.0882  0.3474
13379W        W23072   3.661  10.830   3.396 -0.4866 -0.0125 -0.2310
13380W        W23073  16.091   3.505  13.214  0.0525  0.1666 -0.0050
13381W        W23074   3.895   6.589   5.343  0.0862 -0.0544  0.1288
13382W        W23075   9.184   3.613  13.424  0.1651  0.1539  0.1021
13383W        W23076   2.073   3.204  15.647 -0.2872 -0.0722 -0.1065
13384W        W23077   1.151   5.300   0.356 -0.1702  0.0861  0.2639
13385W        W23078  13.877  11.578  16.917  0.0293  0.0542 -0.2903
13386W        W23079   0.393   3.067   6.843  0.0930 -0.3402 -0.2872
13387W        W23080  13.722   0.132   3.868 -0.1551  0.1317 -0.3244
13388W        W23081  15.289   1.378  13.459 -0.1832 -0.0449 -0.1478
13389W        W23082  17.295   1.393  11.997  0.0988  0.1888 -0.0290
13390W        W23083  14.527   1.862  16.534 -0.0459  0.1027  0.0314
13391W        W23084  16.066   1.579  13.977  0.0745  0.0501  0.0360
13392W        W23085  14.650   5.307   0.157 -0.3168  0.2192  0.0306
13393W        W23086   1.121  16.028  12.073 -0.2361  0.1109 -0.1834
13394W        W23087   3.076   7.464  14.540  0.1443  0.0255 -0.2151
13395W        W23088  17.567   8.731  15.683 -0.3243  0.0807 -0.0965
13396W        W23089  11.194  14.624  16.861 -0.0298 -0.3485 -0.2188
13397W        W23090  12.019   9.058   2.561 -0.0208 -0.0221 -0.1876
13398W        W23091   3.076  13.493   4.900 -0.1818  0.3213 -0.1295
13399W        W23092   2.838   6.089  17.190 -0.1240  0.0910 -0.0519
13400W        W23093   4.183  16.667  15.397 -0.2630 -0.0365 -0.1942
13401W        W23094   8.898  11.165  16.791 -0.0196  0.1883  0.0241
13402W        W23095  10.644  13.269  13.139 -0.1821  0.3630 -0.1927
13403W        W23096   2.651   4.071   1.456 -0.1418 -0.0562  0.2325
13404W        W23097   6.960  10.645  17.382  0.0227  0.0622 -0.1729
13405W        W23098  12.128   4.349  16.746  0.6426 -0.0910  0.0248
13406W        W23099   7.222  11.663  11.856  0.2989 -0.1472 -0.1925
13407W        W23100   8.746  17.259  14.865 -0.1680  0.3535  0.0184
13408W        W23101  16.341   4.356   5.874 -0.1706 -0.3049  0.1724
13409W        W23102  10.838  10.988   0.477 -0.0612  0.3397 -0.0933
13410W        W23103   5.609  14.906   2.981  0.0268 -0.1426  0.2253
13411W        W23104   5.074   4.643  16.116 -0.2322 -0.3176  0.1900
13412W        W23105   9.365   1.677   1.015 -0.1110 -0.0440  0.0244
13413W        W23106   7.690   9.254  16.130  0.3914  0.1781  0.1152
13414W        W23107  14.977   9.033  12.609  0.1212  0.6475  0.2611
13415W        W23108   5.494   7.283  14.182  0.1178  0.1106 -0.0255
13416W        W23109  10.934   5.161   2.435  0.3130 -0.1727 -0.1063
13417W        W23110  15.069  16.378  12.778  0.3511 -0.2460  0.1474
13418W        W23111   0.755  17.122  16.109 -0.0659 -0.2308  0.2561
13419W        W23112  11.823   2.078   0.419  0.2960 -0.2823  0.4812
13420W        W23113  17.014   6.564   2.713 -0.0386  0.1695 -0.1287
13421W        W23114   7.439   5.697  17.589  0.1678  0.0179 -0.4164
13422W        W23115   7.645   6.567  11.787  0.0232  0.3939  0.0745
13423W        W23116  11.341  16.691   5.237  0.3180 -0.0098  0.3442
13424W        W23117  14.759  15.683   2.671 -0.3859  0.1725  0.1511
13425W        W23118  10.203  14.031   4.492  0.1593 -0.2114 -0.1270
13426W        W23119  12.142   0.308  12.299 -0.0395 -0.0732  0.2755
13427W        W23120   5.301  12.498   5.252 -0.2155  0.3845 -0.0186
13428W        W23121   9.796   7.510   6.611 -0.3133 -0.1343  0.1138
13429W        W23122  13.182   1.942   0.013 -0.1008  0.0484  0.1274
13430W        W23123  15.119  15.389  16.911  0.1827  0.1699 -0.3367
13431W        W23124  12.876  15.055   2.952  0.3838  0.1168 -0.1336
13432W        W23125   9.259  15.648   3.910 -0.0162  0.1962  0.0983
13433W        W23126   6.193   1.990   2.540 -0.0902 -0.1650 -0.3427
13434W        W23127  12.864  13.509   3.850  0.0088  0.1115  0.1913
13435W        W23128   9.349  17.435   4.206 -0.0894  0.1612 -0.3709
13436W        W23129  17.179  15.862   3.398  0.1325 -0.1149 -0.1311
13437W        W23130   7.127  15.087   5.148 -0.2181  0.0597  0.0017
13438W        W23131  10.556   8.125  14.258  0.0529 -0.2974 -0.4104
13439W        W23132  16.979  16.288   1.857 -0.1617 -0.1515  0.0139
13440W        W23133   7.802  14.516  12.647 -0.0753  0.1812 -0.3542
13441W        W23134   9.546  17.324  12.120  0.1126  0.2360 -0.1542
13442W        W23135  12.920  15.589   5.135 -0.0277  0.0340 -0.0115
13443W        W23136   4.779   5.397   5.825  0.3134 -0.0385 -0.1935
13444W        W23137   0.690  16.388  12.035 -0.1496 -0.1493 -0.0528
13445W        W23138   4.594  16.898  12.230 -0.0402  0.0046  0.0388
13446W        W23139   7.029   8.383  13.687  0.3893 -0.1508  0.0606
13447W        W23140   8.182   5.268  13.008  0.2017  0.2385 -0.1433
13448W        W23141   3.965   2.478   2.045  0.0040 -0.1445 -0.0634
13449W        W23142  15.136   1.794  13.870  0.6128  0.1433  0.0861
13450W        W23143   3.642  12.790  11.893 -0.0112 -0.2827 -0.0099
13451W        W23144   8.701  17.194   6.600  0.0570 -0.3202 -0.2198
13452W        W23145  11.135   1.635  15.119 -0.0517 -0.1178 -0.1270
13453W        W23146  10.812  15.106   4.974  0.4002 -0.1643  0.0689
13454W        W23147  12.278  10.407  17.395  0.0749 -0.1840 -0.1276
13455W        W23148  12.422   9.530   4.442 -0.0202 -0.1080  0.4565
13456W        W23149  13.286  11.477   1.583 -0.0163  0.1536 -0.2606
13457W        W23150   6.295  11.845   4.118  0.2628  0.3367  0.0923
13458W        W23151   3.796   1.833   6.069 -0.0739  0.6006  0.3871
13459W        W23152   3.565   3.974  15.626  0.0328 -0.0338 -0.0818
13460W        W23153  14.122   7.762   5.125 -0.0613 -0.0377 -0.4082
13461W        W23154  11.937   2.184   4.159 -0.0866 -0.0459 -0.0149
13462W        W23155  14.522   2.291   0.521  0.3757  0.1342 -0.2755
13463W        W23156  15.834  10.500  14.943 -0.1618  0.0583  0.1150
13464W        W23157  16.806   6.405   1.036 -0.3979 -0.2414 -0.0931
13465W        W23158   0.843   7.478  14.054  0.1424 -0.3046  0.4800
13466W        W23159  16.934   5.843   4.840  0.0211 -0.1257  0.2484
13467W        W23160  17.113  10.141   2.621  0.2108  0.0846 -0.3750
13468W        W23161  11.100   2.611   1.514  0.3239  0.0696 -0.0263
13469W        W23162   0.382   2.095  13.034 -0.3456 -0.2240 -0.3351
13470W        W23163   2.504  12.360  15.269 -0.0065 -0.3023  0.0971
13471W        W23164  16.621  16.767  14.531  0.1939 -0.2410  0.0142
13472W        W23165   8.973  11.398   1.839 -0.3684  0.1735  0.0341
13473W        W23166   9.063   6.924  15.328 -0.1922  0.2199 -0.4495
13474W        W23167  11.623   0.305   1.415  0.1443 -0.3373 -0.0554
13475W        W23168   5.190   9.197   5.819 -0.0169 -0.0807  0.0652
13476W        W23169   8.305   3.292   0.952  0.0684  0.0937 -0.0648
13477W        W23170   1.410   0.684   4.530  0.0239  0.0474  0.2099
13478W        W23171  16.579   4.198  14.517 -0.2102 -0.2318 -0.0834
13479W        W23172   4.034  12.979   6.664  0.0645 -0.1677 -0.0858
13480W        W23173  11.555   3.415   5.698  0.0621 -0.2518 -0.0304
13481W        W23174  14.093   8.338  12.989 -0.2053  0.2874 -0.0440
13482W        W23175   1.213   3.168   6.222 -0.3439  0.0463 -0.1472
13483W        W23176   5.305  11.999  11.775 -0.0906 -0.1216 -0.1644
13484W        W23177   9.626   5.489   0.964 -0.0573 -0.1801 -0.0272
13485W        W23178  12.190   0.187  15.607  0.2604  0.0820 -0.0848
13486W        W23179  15.961  17.564  15.071 -0.0944 -0.2105  0.2068
13487W        W23180  15.620  17.043   5.583  0.2229 -0.2043  0.1089
13488W        W23181  11.009   3.225   2.495 -0.0141  0.0541  0.1098
13489W        W23182   6.892   3.636   2.922 -0.0916 -0.1854  0.0777
13490W        W23183  14.858  10.914   4.238  0.1455 -0.5376  0.3077
13491W        W23184  10.192  16.269   3.997 -0.4759 -0.1772 -0.1781
13492W        W23185   1.244  14.779  14.438  0.2392  0.0392 -0.2142
13493W        W23186   2.233   1.605  12.236  0.0711 -0.0705 -0.1111
13494W        W23187   9.049  15.229   6.433 -0.1047 -0.1361 -0.2905
13495W        W23188   3.925  11.277   4.245 -0.0524  0.2029 -0.3317
13496W        W23189  10.445  13.493  17.010 -0.0717  0.0878  0.0864
13497W        W23190   2.622   6.620   5.384  0.0677 -0.2428  0.0363
13498W        W23191   6.716  12.082  12.863  0.2570  0.1774  0.0545
13499W        W23192   7.777  12.728   1.756  0.0221  0.2158 -0.0019
13500W        W23193  13.780   9.884   3.443  0.2588 -0.2786  0.1247
13501W        W23194  11.008   0.343   0.141 -0.2361 -0.0499  0.1941
13502W        W23195  10.142   5.078   3.217 -0.1807  0.1718 -0.0703
13503W        W23196  10.026   6.401   5.962 -0.1060  0.1422 -0.0255
13504W        W23197   5.458   1.733  14.305  0.0779 -0.1419  0.1131
13505W        W23198  16.249  15.185   4.496 -0.2680  0.1026  0.2897
13506W        W23199   3.475   8.450   4.918 -0.0151 -0.2197 -0.1140
13507W        W23200  13.055   6.116  17.604 -0.0218 -0.2862 -0.0763
13508W        W23201   2.454   8.619  14.395 -0.0254  0.2918  0.0114
13509W        W23202   9.057  11.636  13.688 -0.1364  0.1314  0.2267
13510W        W23203   5.978   1.790  13.787 -0.0157  0.0504  0.0427
13511W        W23204  16.961   4.347   1.569  0.0426 -0.0074  0.1441
13512W        W23205   1.638   3.677  11.896  0.0275 -0.1828 -0.1265
13513W        W23206   3.956  17.121   6.654 -0.2707 -0.0507 -0.0149
13514W        W23207   7.348  13.900  16.772  0.0235  0.2589 -0.3373
13515W        W23208   6.821   6.096  12.844  0.0005  0.0181  0.0372
13516W        W23209   5.080  17.597   3.111 -0.0044  0.0251  0.0935
13517W        W23210  13.576  15.193   3.922  0.3507  0.4076 -0.0236
13518W        W23211  10.032  12.236  16.574  0.0212  0.3160 -0.4188
13519W        W23212   8.561   3.678   6.231  0.1589  0.1784 -0.0378
13520W        W23213  12.831  10.679   6.853  0.2523 -0.0557  0.2113
13521W        W23214   4.376  12.535   3.556 -0.0902 -0.2405 -0.1562
13522W        W23215  14.920   3.106  15.142  0.1256  0.1543 -0.1097
13523W        W23216   6.702  16.401   1.875 -0.1771  0.0348 -0.0541
13524W        W23217  10.789   3.093  17.421  0.0854  0.1013  0.0763
13525W        W23218   6.216  16.063   5.347  0.0286 -0.1730  0.0913
13526W        W23219   1.734  17.497   1.711  0.2030 -0.0932  0.1621
13527W        W23220   4.925   4.119  12.915 -0.1633  0.0616  0.0417
13528W        W23221  12.617   0.947   4.244  0.1475  0.0406 -0.2047
13529W        W23222  10.689   7.163   5.747 -0.0966 -0.2861 -0.0115
13530W        W23223   8.983  16.234  13.836  0.1759 -0.0905  0.1098
13531W        W23224  16.253   2.970  15.853 -0.0340  0.1118 -0.0118
13532W        W23225  14.949   2.653  15.300  0.3368 -0.0596  0.2902
13533W        W23226   2.374  14.989   5.088  0.1107 -0.1573 -0.1687
13534W        W23227   4.428   8.344  16.927 -0.3731  0.0594  0.0714
13535W        W23228  17.597  17.197  17.143 -0.3739  0.1179  0.2958
13536W        W23229   8.616   9.263  12.385 -0.0571  0.0654  0.2251
13537W        W23230   6.362  16.289   0.629  0.1812  0.1006  0.1970
13538W        W23231   6.291  10.190  14.258  0.4957  0.0190  0.4138
13539W        W23232   1.059  10.549  16.545  0.1555  0.1130  0.0493
13540W        W23233   5.251  16.348  15.141 -0.1409 -0.0833 -0.0550
13541W        W23234   6.014  10.094  14.684 -0.0242  0.0462 -0.0109
13542W        W23235   0.534   0.752   0.496  0.1368 -0.1754 -0.1287
13543W        W23236   8.919  11.214  12.525  0.0821 -0.0452 -0.0744
13544W        W23237   3.742  13.312   4.074 -0.0068 -0.0215 -0.1942
13545W        W23238   4.670   5.318  16.993 -0.1534 -0.0955 -0.0783
13546W        W23239  10.817   8.588  14.308  0.0273  0.0145 -0.0861
13547W        W23240   5.263  14.141   1.086  0.0092  0.0326  0.1292
13548W        W23241  15.775   0.603  14.913  0.1700 -0.3425  0.1151
13549W        W23242  15.143   7.206   0.312  0.0389 -0.1442 -0.0961
13550W        W23243  12.920   7.524   4.494  0.2032  0.0774  0.1238
13551W        W23244   8.822   3.755  17.688  0.2402  0.3344  0.1619
13552W        W23245   7.401  15.532  17.060  0.0711  0.1688  0.2451
13553W        W23246   6.123  10.509   0.564  0.0525 -0.0674  0.1075
13554W        W23247   9.533   6.497   5.750  0.1468  0.1573 -0.0135
13555W        W23248   7.652  15.461   5.663 -0.3403 -0.0275  0.0841
13556W        W23249  15.245  16.252   4.231  0.1795  0.1814  0.0620
13557W        W23250  12.205  14.102  17.186  0.5238 -0.3172 -0.2179
13558W        W23251  17.192   3.097   1.083 -0.3898  0.2686 -0.0017
13559W        W23252  16.749   4.272   5.603  0.1574  0.3345  0.1510
13560W        W23253   0.144   0.130  13.662 -0.0999  0.1256  0.0554
13561W        W23254   2.540   0.478   0.758  0.2381 -0.1244 -0.4086
13562W        W23255   3.729   7.673  14.325  0.1341 -0.1401  0.0216
13563W        W23256   0.639  12.319   4.155  0.0941 -0.0243 -0.0565
13564W        W23257  15.173  14.267   1.789  0.0032 -0.2687  0.1238
13565W        W23258   7.644   2.489  14.285  0.0688 -0.1208  0.3186
13566W        W23259  15.109  15.754  12.706  0.1233 -0.0431  0.0538
13567W        W23260   8.253  17.137  17.070 -0.1825  0.2594  0.1725
13568W        W23261  15.952   0.490  16.663 -0.0938  0.0546  0.0663
13569W        W23262  14.353  13.382   4.273 -0.2165  0.0317 -0.2958
13570W        W23263  17.532  14.255   4.119 -0.1803  0.0259  0.1697
13571W        W23264   4.812  13.884  17.139  0.1649  0.1599 -0.0798
13572W        W23265  15.303  10.215   4.645  0.1130 -0.0421 -0.1637
13573W        W23266   4.923  14.171   2.825 -0.1088  0.0733 -0.1535
13574W        W23267  12.892  12.192  13.949  0.3508 -0.1142  0.0888
13575W        W23268  14.978  16.472  13.308  0.1075  0.3384  0.1250
13576W        W23269   8.146  13.101  16.001 -0.0895  0.0312  0.0391
13577W        W23270  14.402   8.825   0.485 -0.0815 -0.3413 -0.2050
13578W        W23271   0.925  10.953  16.219 -0.2166 -0.2257 -0.0706
13579W        W23272   5.827  17.657   1.892  0.0750  0.0512 -0.0821
13580W        W23273  13.122   6.299   4.582  0.3376  0.3825  0.0977
13581W        W23274   9.600   6.294   2.988  0.1374  0.0648  0.1614
13582W        W23275   8.409   7.168  14.355  0.0926 -0.2595 -0.1024
13583W        W23276   2.813  14.503  14.271  0.0754  0.1145 -0.1063
13584W        W23277   2.820   9.015  12.409  0.0873 -0.0493  0.1184
13585W        W23278   4.354  11.543  11.248 -0.0660  0.0956  0.0925
13586W        W23279   8.158  15.534  16.846 -0.1466 -0.3833 -0.2360
13587W        W23280  15.890  15.597  14.220 -0.1113  0.3592  0.0060
13588W        W23281   4.324   4.054   0.537  0.0249  0.0396 -0.0535
13589W        W23282   0.547   6.897   1.768 -0.0573  0.0945 -0.2059
13590W        W23283  13.479   5.311  17.208 -0.2745 -0.0329  0.0126
13591W        W23284   0.983   8.474  12.398  0.1003  0.1461 -0.0541
13592W        W23285   9.699   1.053  17.382  0.1936 -0.4517 -0.0312
13593W        W23286  10.907  14.672   2.917  0.3752 -0.0075 -0.0443
13594W        W23287   0.214   3.978   4.621 -0.2597 -0.1278  0.1281
13595W        W23288  12.311  12.416  16.378 -0.2640  0.1914 -0.1054
13596W        W23289  13.094   2.848   0.419  0.0790 -0.1080 -0.2706
13597W        W23290   2.289   9.389   0.615  0.0098 -0.1251 -0.1567
13598W        W23291  13.277   2.405   2.591  0.2203  0.1945  0.1750
13599W        W23292  17.194  10.534   1.795  0.3404  0.0112  0.0082
13600W        W23293   1.045  12.381   3.389 -0.0563 -0.0615 -0.1542
13601W        W23294  17.583  15.192  15.630 -0.0532 -0.2370 -0.2229
13602W        W23295   2.607   7.389   1.856  0.0398 -0.3345  0.1569
13603W        W23296   0.941   0.683  16.671 -0.0481 -0.1260 -0.1689
13604W        W23297   6.193   3.265   1.593  0.3498 -0.0459 -0.1206
13605W        W23298   1.540  15.519   1.585 -0.1180  0.0982  0.0625
13606W        W23299  15.592   6.471   3.719 -0.1716  0.0994 -0.0705
13607W        W23300   7.875   0.823  15.300  0.1132 -0.1902 -0.1030
13608W        W23301   0.707   3.241  17.259  0.1135  0.1060  0.1427
13609W        W23302  14.201  13.494   6.299  0.0713 -0.5494  0.0119
13610W        W23303  12.852   2.429  12.650 -0.1276  0.0816 -0.0500
13611W        W23304  17.165   3.658   2.558 -0.1335  0.1719 -0.3174
13612W        W23305  11.849   4.921   1.743 -0.1829  0.0493 -0.2601
13613W        W23306  11.900   9.525   2.437  0.1504 -0.2228 -0.2047
13614W        W23307  16.792  10.133   3.036  0.0606 -0.4525  0.0642
13615W        W23308   4.071   9.139   5.011 -0.2778 -0.0696 -0.2158
13616W        W23309   7.242   0.079   0.188 -0.2221 -0.4343  0.0829
13617W        W23310   7.610   6.709  13.776 -0.0341  0.5494 -0.1246
13618W        W23311   7.913  17.207   5.283  0.1568  0.5854 -0.1193
13619W        W23312  10.038   5.762   5.196 -0.2357  0.2369 -0.0821
13620W        W23313   8.792   0.624  17.159  0.2552  0.0033  0.0103
13621W        W23314   5.350  14.986   0.119 -0.1159 -0.0072 -0.2080
13622W        W23315   2.506   9.439  12.481  0.0317  0.2035 -0.1199
13623W        W23316   7.852  12.494  12.929  0.3415 -0.0115 -0.2390
13624W        W23317   4.390  14.910   1.705  0.0748 -0.1293 -0.0643
13625W        W23318  15.574   9.033  14.202 -0.2371 -0.1441  0.0588
13626W        W23319   3.665   0.344   4.570 -0.2238 -0.3557  0.1752
13627W        W23320  15.984   5.379   5.567 -0.5353  0.0809 -0.3461
13628W        W23321   0.229  14.208   5.152 -0.0470 -0.0155 -0.0035
13629W        W23322   2.011   2.875   4.934 -0.0406  0.3734 -0.0701
13630W        W23323   4.728   7.336   5.077 -0.0362 -0.0175  0.0706
13631W        W23324   0.949  15.277   3.637 -0.2265 -0.1673  0.1193
13632W        W23325  16.439   8.397  15.443  0.0742  0.1121  0.0262
13633W        W23326   3.308   4.865   5.969  0.2057  0.0522 -0.3057
13634W        W23327  12.850   9.512  14.456  0.0192 -0.0998 -0.1578
13635W        W23328  15.971  10.456   5.246  0.5230  0.4436 -0.0582
13636W        W23329  10.331   7.034  16.279  0.0588 -0.1375 -0.1066
13637W        W23330   6.961  17.061   4.325 -0.1560  0.1281  0.1910
13638W        W23331  14.965  14.742  13.676  0.0860  0.2394  0.0965
13639W        W23332  10.830  13.906   1.901 -0.1601  0.2450  0.1959
13640W        W23333  14.784   0.980  16.085 -0.1039  0.0190  0.0797
13641W        W23334  16.871  10.665  12.289  0.0388  0.0119 -0.0131
13642W        W23335   4.033  10.398   1.355  0.0469  0.1902  0.2305
13643W        W23336   2.762   4.587   6.243 -0.2778  0.0301 -0.0728
13644W        W23337   1.608  15.475   2.834 -0.0413 -0.0954  0.0190
13645W        W23338   3.292   2.564   5.658 -0.0696  0.0912 -0.2518
13646W        W23339   3.157   6.524   1.699 -0.2544 -0.1457  0.0576
13647W        W23340   0.759  13.490   2.056  0.0115 -0.2965  0.0048
13648W        W23341  13.987   6.290   4.028  0.1263 -0.1198  0.0878
13649W        W23342  13.974   6.147  12.613  0.0296  0.2860 -0.1922
13650W        W23343  15.080  11.090  16.030  0.1357 -0.0598 -0.1083
13651W        W23344  11.359   7.261  13.240  0.1465 -0.3326  0.0569
13652W        W23345  13.568   1.263  11.864 -0.0228  0.1990  0.1349
13653W        W23346  12.069  10.903   3.881 -0.1233 -0.0818 -0.1331
13654W        W23347  11.698   2.960   1.685 -0.0668  0.0598 -0.3669
13655W        W23348  14.598  12.197   3.569  0.3911 -0.2891  0.3697
13656W        W23349   1.068  15.463  15.761  0.1178  0.0201  0.0855
13657W        W23350  15.745   3.992  15.432  0.3210  0.0555 -0.1264
13658W        W23351  17.190  13.698   3.373  0.0883 -0.2214  0.0365
13659W        W23352   3.285   4.627   5.408  0.0562 -0.3030  0.1452
13660W        W23353  13.192  15.351   3.211 -0.0073  0.3130 -0.1129
13661W        W23354   6.087   7.778  15.429 -0.0701 -0.0212  0.3507
13662W        W23355   3.286   1.844   3.792  0.4232  0.0422 -0.0388
13663W        W23356  11.845   9.670  15.805  0.1234  0.0262 -0.1579
13664W        W23357   7.432   0.079   1.627 -0.1759 -0.0941  0.2928
13665W        W23358   9.174   3.315  16.403  0.1476  0.0382  0.2503
13666W        W23359   4.483  16.761  11.758 -0.1986 -0.0895  0.1896
13667W        W23360   9.548   8.671  17.420  0.2691 -0.0343 -0.2976
13668W        W23361   9.903   1.740  14.412 -0.0140  0.1258  0.1511
13669W        W23362   1.682   0.665   2.306  0.0188  0.0298 -0.4100
13670W        W23363   1.704  11.877   1.679 -0.0679 -0.2463 -0.1306
13671W        W23364   6.436   8.337   4.797 -0.0899 -0.0895  0.1730
13672W        W23365   2.461   4.797  17.093  0.1382 -0.1732  0.1465
13673W        W23366   7.661   8.895   2.813 -0.1491  0.0557  0.0522
13674W        W23367   5.748  11.524  15.942 -0.3076  0.1187  0.1819
13675W        W23368  16.875   3.255   2.599  0.0007 -0.0241 -0.1371
13676W        W23369   7.439  12.087  16.384 -0.0267 -0.0044  0.1697
13677W        W23370   7.884   3.537  11.593 -0.1253 -0.1285  0.0251
13678W        W23371  10.672  12.316   5.775  0.2088 -0.3213  0.1961
13679W        W23372   1.713  10.682   5.047  0.0266 -0.1163 -0.1481
13680W        W23373   6.905   0.973  16.525  0.0448 -0.3233  0.1201
13681W        W23374   5.977  17.521   1.398  0.2247 -0.4260  0.0327
13682W        W23375   5.001  10.838   1.426  0.1306  0.1220  0.1900
13683W        W23376   8.774  11.864  14.021  0.0258 -0.0867  0.1220
13684W        W23377  10.048   8.768  12.950  0.4972 -0.1347  0.0283
13685W        W23378   6.748  12.069   6.043 -0.2312  0.1794  0.2870
13686W        W23379   6.642  17.505   1.470 -0.0054 -0.2425 -0.2057
13687W        W23380  16.713  15.302  13.482 -0.2506  0.0731  0.0853
13688W        W23381   6.613  16.963  15.328 -0.2539 -0.1868 -0.0817
13689W        W23382  16.530   6.850   2.797 -0.0506 -0.0200  0.0966
13690W        W23383   0.703  12.364   5.864  0.3109 -0.0288  0.1530
13691W        W23384   0.922   5.465  12.030 -0.1902 -0.1115 -0.0398
13692W        W23385   6.704   9.557  14.474  0.1575  0.2208  0.2254
13693W        W23386   1.055  16.115   2.706 -0.2869  0.0129  0.1775
13694W        W23387   4.417   0.407  14.029  0.0199  0.1889 -0.1482
13695W        W23388   2.110  14.134   3.365 -0.1460 -0.2055  0.0583
13696W        W23389  17.484  15.356   2.181  0.2773 -0.0964  0.0477
13697W        W23390   8.170   8.141   1.699 -0.0503  0.2225 -0.2614
13698W        W23391  15.993   2.830   6.715 -0.1373 -0.0591 -0.0726
13699W        W23392  15.135   5.558  14.334  0.3097 -0.0431  0.1868
13700W        W23393   4.492   9.650  16.247  0.2446  0.3779 -0.1500
13701W        W23394   9.075  11.645   5.348 -0.0613  0.0372 -0.0921
13702W        W23395  12.914   5.412  16.582 -0.1443  0.2121 -0.1437
13703W        W23396  12.406   9.588   2.562 -0.0455  0.1529  0.3834
13704W        W23397   7.001  16.229  14.864 -0.1269 -0.3733 -0.0975
13705W        W23398   2.879   9.400   0.496  0.2279 -0.1060  0.0398
13706W        W23399   1.214   0.709  12.790 -0.1159 -0.1182  0.1655
13707W        W23400   6.913   0.813   1.836 -0.0173  0.0668  0.2627
13708W        W23401   1.698  12.460   0.895 -0.0358  0.1492 -0.1946
13709W        W23402   8.181   7.795  15.932 -0.2922  0.0115 -0.5312
13710W        W23403   6.457   8.707  11.768 -0.0525  0.0839 -0.2306
13711W        W23404   4.301  12.332  10.567  0.0296 -0.1783  0.0498
13712W        W23405  16.731  10.298   5.666  0.3961  0.1139  0.1371
13713W        W23406   3.767  14.965  16.471  0.0432  0.1407  0.1541
13714W        W23407   3.364   3.430   0.058  0.0918  0.3024 -0.0724
13715W        W23408  10.372  17.065   6.882  0.1032 -0.0832  0.3286
13716W        W23409  15.657   5.349  17.011  0.0227 -0.0789  0.2109
13717W        W23410  14.180  11.755  14.869  0.1377 -0.2066  0.2527
13718W        W23411   9.447  11.103   5.521  0.0444 -0.0407  0.1183
13719W        W23412  15.181   3.079   4.256 -0.2954 -0.0411  0.1437
13720W        W23413   2.442   4.251  17.013 -0.1093  0.0114 -0.3413
13721W        W23414   9.144  13.954   6.379  0.0217 -0.4038 -0.0766
13722W        W23415   1.668  15.836   5.072  0.0334 -0.1194 -0.1692
13723W        W23416   4.342  12.388  15.206  0.1463 -0.0267 -0.0273
13724W        W23417   0.454   3.467   1.565 -0.0565 -0.0778  0.0340
13725W        W23418  15.047  14.499  17.605 -0.1212  0.2122 -0.1658
13726W        W23419   4.970  16.149  12.559  0.1092 -0.1071  0.0144
13727W        W23420  10.268  10.312  16.701  0.0386 -0.1649 -0.0515
13728W        W23421  10.499   5.710   6.213  0.0620  0.1649  0.2443
13729W        W23422  10.434   3.568   1.623 -0.0614 -0.1510  0.1181
13730W        W23423   1.763   4.095  14.727  0.2364 -0.2134 -0.3194
13731W        W23424   0.200  10.068   4.428 -0.1009  0.1758  0.1672
13732W        W23425   1.496  11.711  14.492 -0.1129 -0.5144  0.2972
13733W        W23426   0.957  10.290   3.541 -0.1741  0.0694 -0.0692
13734W        W23427   2.508   8.522   3.024  0.1113 -0.0461  0.1169
13735W        W23428  11.948  16.515  14.745 -0.0075 -0.0155  0.0259
13736W        W23429   8.875  16.484   3.107 -0.1464 -0.1231 -0.0226
13737W        W23430   1.566  12.085   5.102  0.1909  0.0353  0.0707
13738W        W23431  11.558  14.854  17.155 -0.3233  0.1111 -0.4061
13739W        W23432  10.096  15.303  17.249 -0.0329  0.0038 -0.2169
13740W        W23433   5.731  14.939   2.078 -0.4872 -0.0214 -0.1360
13741W        W23434  11.653   7.560  14.562 -0.2947 -0.1240 -0.1692
13742W        W23435  13.665  17.455  14.376 -0.0158  0.0115 -0.2584
13743W        W23436   9.715  16.270   1.965  0.1744 -0.0847 -0.0952
13744W        W23437   1.600   9.994   4.483  0.0648  0.0226 -0.2180
13745W        W23438  10.349   1.025  17.484  0.2872 -0.0032 -0.0018
13746W        W23439  10.566  10.310   0.425  0.0854 -0.0450  0.1605
13747W        W23440   4.010   7.686   1.230  0.0893 -0.0998  0.1606
13748W        W23441   3.031   0.305   3.000 -0.0734  0.2399 -0.1677
13749W        W23442  11.969   8.157  14.967 -0.2728 -0.0231 -0.0210
13750W        W23443  13.129  14.828  15.875  0.1210  0.1714  0.1992
13751W        W23444  11.228   6.773   5.999 -0.0518  0.2656 -0.0347
13752W        W23445   0.272   5.600   3.534 -0.0367 -0.2249 -0.0848
13753W        W23446   1.177  17.182   6.459 -0.0840 -0.2795  0.0028
13754W        W23447   0.596   1.793  14.273  0.2583 -0.1380  0.1123
13755W        W23448   2.058  17.555   1.223 -0.3449  0.0718 -0.0013
13756W        W23449   8.924   1.396   2.847 -0.3765  0.0834 -0.0120
13757W        W23450  11.004  13.439  12.668  0.2568  0.0797  0.4427
13758W        W23451  14.852   2.203   4.538  0.1710 -0.0135 -0.2957
13759W        W23452   5.415   4.878  13.023 -0.0915 -0.1168  0.1665
13760W        W23453   0.452  13.627  16.526 -0.1209  0.1861  0.0305
13761W        W23454  11.049  11.470  16.883 -0.0511  0.1512  0.2526
13762W        W23455   5.621   5.784   4.705 -0.2748 -0.1559  0.1082
13763W        W23456   4.947   8.211   2.650  0.1947  0.0675 -0.2825
13764W        W23457  12.341  17.657  14.560 -0.4440  0.0816 -0.0704
13765W        W23458  13.325   1.000   1.046 -0.0407  0.3162 -0.3401
13766W        W23459   7.017  11.711   6.340 -0.3273 -0.3548 -0.0395
13767W        W23460  16.919   1.764  13.553  0.3824 -0.2032 -0.2892
13768W        W23461   7.643   8.466   1.870 -0.3338 -0.1623  0.2221
13769W        W23462   5.792   6.382  13.699  0.0904 -0.0459  0.0678
13770W        W23463  17.311  14.098   2.393 -0.2077  0.1327  0.0187
13771W        W23464   2.668   7.616  16.803 -0.1953  0.1498  0.2768
13772W        W23465  13.847  15.834   0.589 -0.1410 -0.4799  0.2645
13773W        W23466   7.365  15.320   4.321  0.0146  0.1321 -0.1771
13774W        W23467   6.668   7.970   3.084 -0.0954  0.1556 -0.2465
13775W        W23468  12.000   1.171  12.171  0.2313  0.0663 -0.1402
13776W        W23469   6.942   6.309   5.165  0.0735 -0.2219  0.2168
13777W        W23470   9.120   2.694  12.502  0.1435  0.1591  0.1871
13778W        W23471   5.535  14.670   4.557  0.1755  0.0711  0.1494
13779W        W23472   9.241  17.552   4.711 -0.0657 -0.0008  0.0892
13780W        W23473  16.649  13.501   1.983 -0.2889  0.1079 -0.2015
13781W        W23474   9.596  14.036   2.592  0.3718  0.3617 -0.1491
13782W        W23475   1.322   3.216  16.352 -0.2227  0.1721  0.3585
13783W        W23476   7.374  10.511   1.160  0.0957 -0.0430 -0.0751
13784W        W23477  10.055   7.220  13.729  0.3681  0.1836  0.0627
13785W        W23478  12.452  14.620  17.457  0.0891 -0.0091  0.0714
13786W        W23479   6.267   6.840  13.088  0.0880  0.1081 -0.0444
13787W        W23480  11.120   8.548   3.400 -0.0902  0.0948 -0.0168
13788W        W23481   6.825  11.713  14.350 -0.1776 -0.1483  0.0292
13789W        W23482   4.994   8.045   4.746  0.0661  0.0022  0.1336
13790W        W23483  11.102  16.552   0.458  0.1114 -0.1218 -0.1148
13791W        W23484  14.028  13.300   6.788 -0.0853  0.0307 -0.0379
13792W        W23485  14.874   1.822  16.864 -0.0711 -0.2425  0.1811
13793W        W23486  16.596   5.245   3.992  0.0880 -0.2060  0.1245
13794W        W23487   5.180   8.790  12.912  0.3997  0.2568 -0.3180
13795W        W23488   5.464   1.290  14.053  0.0465  0.0973 -0.0893
13796W        W23489   3.468  12.295  16.105 -0.2974  0.1369  0.0620
13797W        W23490   6.677  16.520   0.932  0.1706  0.1554  0.1941
13798W        W23491  17.542  17.405   5.052 -0.3588  0.4572 -0.2916
13799W        W23492  13.300   7.229  17.683  0.0109 -0.0412  0.0937
13800W        W23493   2.870  13.637  15.004  0.1050 -0.0959  0.3382
13801W        W23494   4.053   3.991   2.761  0.2293 -0.2485 -0.2632
13802W        W23495   0.314   6.731   6.102  0.2834 -0.0584  0.1140
13803W        W23496   9.719  12.915  14.077  0.0207  0.0448 -0.0114
13804W        W23497  17.023  13.225   0.592 -0.2891 -0.2240  0.1725
13805W        W23498   5.058   8.647  13.927  0.1240 -0.0875  0.3682
13806W        W23499  17.637  10.494  12.390 -0.0882 -0.0603  0.2302
13807W        W23500   5.462   7.439   4.529 -0.1962  0.0118 -0.0868
13808W        W23501  14.326   2.605  12.387 -0.0926 -0.0444 -0.2553
13809W        W23502   8.997   2.357  13.774 -0.2358  0.0529  0.0242
13810W        W23503   6.465   6.165  15.728  0.1466 -0.2298  0.1576
13811W        W23504   5.305  14.546   3.837  0.3315 -0.1524 -0.0842
13812W        W23505   8.615   6.570   0.377 -0.2186  0.3444  0.1849
13813W        W23506  15.478  10.835  14.655 -0.0958  0.2674  0.0712
13814W        W23507   7.598  10.710  11.972 -0.1848 -0.0352  0.1564
13815W        W23508   3.703  14.515   5.979  0.0561 -0.0710 -0.0501
13816W        W23509   1.819  12.420  15.997  0.0241 -0.0414  0.1521
13817W        W23510   2.123   0.428  14.841  0.0780 -0.1443  0.2304
13818W        W23511   4.850  15.047  13.592 -0.2074  0.2079 -0.1061
13819W        W23512  16.393   9.861   7.275  0.0119  0.0704  0.0586
13820W        W23513   5.722  10.308   4.097  0.0881 -0.0344 -0.2295
13821W        W23514  17.106   7.266  13.591  0.0196  0.1206  0.2487
13822W        W23515  14.940  13.586  14.214 -0.2497 -0.0313  0.1267
13823W        W23516  11.927   6.533   1.972 -0.0400 -0.0480  0.1947
13824W        W23517   8.504  13.823   3.087 -0.2317 -0.1652  0.0596
13825W        W23518   7.866   7.150  16.892  0.0197 -0.1233 -0.1472
13826W        W23519   4.936   6.408   2.375  0.1100  0.0143 -0.1092
13827W        W23520  15.818  17.554   0.625 -0.2675 -0.1482  0.0574
13828W        W23521  13.243   0.413  14.083 -0.2375 -0.0853 -0.1503
13829W        W23522   2.197   0.946  17.182 -0.1581 -0.3524 -0.0738
13830W        W23523   9.566  14.429   4.857  0.2397 -0.4966  0.0265
13831W        W23524   6.531   5.199   5.508  0.0188 -0.0603 -0.0842
13832W        W23525   1.048   3.286   1.473 -0.0369  0.1560 -0.0044
13833W        W23526  14.357   7.633   4.061  0.2284  0.0805 -0.0135
13834W        W23527  10.120  13.519  16.593 -0.3655  0.2403  0.3124
13835W        W23528   0.440   7.423   1.638 -0.1964  0.0845 -0.0440
13836W        W23529   7.039   8.362  16.625 -0.1364  0.1472  0.0258
13837W        W23530   2.711  11.574   4.207  0.0293  0.0745  0.1138
13838W        W23531   0.363   1.450   1.220 -0.2287 -0.2230  0.1730
13839W        W23532   1.206   1.080  17.566  0.1009  0.0761  0.0797
13840W        W23533  12.385   3.248   4.338  0.0883  0.0589  0.0552
13841W        W23534   9.510   4.100   3.533  0.3367  0.0324  0.2853
13842W        W23535  16.080  12.550  13.279 -0.1938 -0.2235 -0.1286
13843W        W23536   5.613   7.624   4.082 -0.1658 -0.1599  0.2448
13844W        W23537  10.322  11.642   5.417  0.1602 -0.0868  0.2886
13845W        W23538   5.807  16.051   4.623 -0.1400 -0.0943  0.0640
13846W        W23539   6.910   8.634   5.956  0.0005  0.2773 -0.3897
13847W        W23540   8.587   9.065  16.072  0.0283  0.0398 -0.0902
13848W        W23541   6.421   7.663   3.567 -0.1339  0.0399 -0.0424
13849W        W23542   1.476   7.573   1.207  0.1905  0.0630  0.4284
13850W        W23543   5.694   8.106   1.226  0.1292 -0.3821  0.2096
13851W        W23544   2.719   7.345  14.211  0.0267  0.2747 -0.0100
13852W        W23545   0.205   9.244  14.480 -0.1847  0.0872 -0.0300
13853W        W23546  12.212   5.411   2.417  0.1118 -0.1458 -0.1469
13854W        W23547  14.146  16.465  17.403 -0.1987 -0.0155  0.3259
13855W        W23548  10.218  13.609   1.240  0.0270 -0.0430 -0.5846
13856W        W23549   0.237   0.400  14.536  0.0147  0.0810 -0.0213
13857W        W23550   3.253  17.551   2.227  0.1510  0.2489  0.0065
13858W        W23551  13.531  12.783   6.256  0.3770  0.1642 -0.1199
13859W        W23552   2.174   1.842  17.159 -0.2938  0.0285  0.1438
13860W        W23553   8.078  12.744  13.681  0.1163 -0.3701 -0.0668
13861W        W23554   5.201   1.604  16.024  0.0380  0.1034 -0.1385
13862W        W23555  11.661   2.038  12.637  0.1049  0.3441  0.1965
13863W        W23556  11.678  14.005   4.650  0.0686 -0.0681 -0.0498
13864W        W23557   2.165  10.285   2.588 -0.1400 -0.4736 -0.0204
13865W        W23558  15.097  12.891  12.610  0.3109 -0.0599  0.2345
13866W        W23559   7.352   6.306  15.308 -0.1867  0.0865 -0.0854
13867W        W23560   2.363   9.961   2.205  0.0771 -0.0343  0.2585
13868W        W23561  10.022   2.650  12.286  0.4773  0.1475 -0.3151
13869W        W23562  13.938   4.707   5.501 -0.1161  0.3558 -0.2481
13870W        W23563   5.110   4.568   0.088  0.1190 -0.3142  0.0351
13871W        W23564  12.049  13.198   6.141 -0.3107 -0.0590 -0.2324
13872W        W23565  14.520   4.839  17.643 -0.1280 -0.0155  0.0971
13873W        W23566  12.904  10.134   3.710 -0.1116  0.1528  0.0987
13874W        W23567   7.077  14.816  11.955 -0.1242 -0.0891  0.1169
13875W        W23568   9.235   2.829  11.940 -0.0347 -0.0444 -0.2946
13876W        W23569   8.777  17.350  16.907 -0.1241  0.1088 -0.3035
13877W        W23570   9.278   9.567  14.829  0.1195 -0.3459 -0.1530
13878W        W23571   8.067   8.815   4.926 -0.0407  0.3767  0.1464
13879W        W23572  16.268  10.197   6.798  0.1937  0.0045  0.1421
13880W        W23573   6.943   4.831  16.787 -0.3149 -0.1817  0.3007
13881W        W23574   0.869   0.326  12.930  0.0211 -0.0642  0.1481
13882W        W23575   2.979   3.020  15.981  0.1308 -0.0264  0.2268
13883W        W23576  10.950   6.863   1.306  0.0209  0.3667  0.0949
13884W        W23577   6.865   7.837   1.851  0.1698 -0.0404 -0.2976
13885W        W23578  11.518  10.968  17.219  0.0093  0.0360 -0.0704
13886W        W23579   1.667   6.975   4.896  0.2305 -0.0580 -0.1049
13887W        W23580  17.596   6.787  15.784  0.1104  0.2075 -0.0663
13888W        W23581  17.160  11.041   1.136  0.0557 -0.0316  0.2404
13889W        W23582  15.076  16.417  17.494 -0.1562 -0.2073 -0.0610
13890W        W23583  14.440   6.783  14.118  0.0695 -0.0363 -0.0540
13891W        W23584   0.783  14.970  12.157 -0.0473 -0.0290  0.0841
13892W        W23585   0.603  16.465  14.724  0.1219 -0.2674 -0.0293
13893W        W23586   8.860  16.157   5.778 -0.1814  0.0220  0.2331
13894W        W23587   3.392  17.617  14.807  0.1535 -0.1880 -0.0991
13895W        W23588  14.472   8.444   4.808  0.0180  0.2598 -0.0335
13896W        W23589   2.906  16.004   1.090 -0.0348  0.1541  0.0276
13897W        W23590  14.964  16.004   6.553  0.2821 -0.0687  0.0827
13898W        W23591  17.651   3.589   4.171  0.0530 -0.1939 -0.0743
13899W        W23592  12.687   5.600  16.164 -0.3290 -0.1169 -0.1899
13900W        W23593  10.808  11.654   0.131 -0.1840  0.0922  0.0749
13901W        W23594  13.296  16.281  12.427 -0.1498 -0.2202 -0.2192
13902W        W23595   5.672   8.022   3.169 -0.0046  0.0065 -0.1049
13903W        W23596   2.200   1.562  12.835  0.2988  0.2049  0.1504
13904W        W23597   4.011  11.077  16.131  0.1914 -0.2352  0.1583
13905W        W23598   1.353   8.865   1.282 -0.0468 -0.0074  0.0795
13906W        W23599  14.253   7.206   1.533 -0.3919  0.0928  0.1518
13907W        W23600  16.719   0.964  13.869  0.0140 -0.0455  0.1256
13908W        W23601   1.318  13.799   3.452  0.1423 -0.1370  0.2338
13909W        W23602  16.103   6.607  15.870 -0.1388 -0.2465  0.3133
13910W        W23603   1.212   7.403  12.266 -0.4157 -0.1553  0.0584
13911W        W23604  13.245   4.545   1.497 -0.1501 -0.1008  0.2149
13912W        W23605  15.251   3.281   2.645  0.3460  0.0723  0.0020
13913W        W23606   7.724   9.815   2.963  0.0947  0.0041 -0.5595
13914W        W23607  15.760  12.217   4.024  0.3268  0.2315 -0.2565
13915W        W23608   6.437  12.641   2.824 -0.1912  0.0188  0.2189
13916W        W23609  15.979   3.700  15.753 -0.2782  0.4105  0.1543
13917W        W23610  10.055   6.169  16.066 -0.0652  0.0514  0.1521
13918W        W23611   8.291  14.451  15.724 -0.0584 -0.1299  0.2402
13919W        W23612   7.106   2.314  14.971 -0.0633 -0.1209  0.0428
13920W        W23613   0.696  17.580  16.062 -0.3497 -0.2129  0.2451
13921W        W23614   8.919  14.549   5.115 -0.1567  0.0673 -0.1554
13922W        W23615  16.288   3.966   3.673 -0.2871  0.2280  0.1657
13923W        W23616  13.650   8.797  16.987  0.1472  0.1100 -0.1345
13924W        W23617   2.368  13.037   6.303 -0.1058  0.2021 -0.1339
13925W        W23618   3.448   1.089   3.119  0.2118 -0.1875  0.0516
13926W        W23619   1.362   1.444  10.750  0.2980  0.2125  0.6285
13927W        W23620  15.593  10.528   4.890  0.1760 -0.2057  0.2821
13928W        W23621  15.061  17.180  16.819 -0.2511 -0.0773 -0.1761
13929W        W23622  12.215  15.240   4.903 -0.0076 -0.4070 -0.0966
13930W        W23623   3.943  16.629   1.415 -0.2317 -0.1937 -0.2420
13931W        W23624  16.043   9.046   5.755 -0.1041  0.0978  0.1889
13932W        W23625  13.144  17.390  14.489 -0.2127 -0.1450 -0.0155
13933W        W23626   5.433   9.243  15.917 -0.1030 -0.1534  0.1569
13934W        W23627  15.582   3.279   3.426  0.0428  0.4220 -0.2242
13935W        W23628  10.038   5.473  13.316 -0.2105 -0.1014 -0.2809
13936W        W23629   6.108   4.436   4.727  0.2146  0.0663  0.2827
13937W        W23630   4.534   1.285   6.314  0.0505 -0.1885  0.1991
13938W        W23631   6.577   7.220   2.206 -0.5773 -0.0440  0.4269
13939W        W23632  15.021  15.000  15.000  0.0094 -0.0448  0.0453
13940W        W23633   0.630   3.181  15.730  0.2660  0.1063  0.1646
13941W        W23634   3.010  12.400  15.346  0.0399  0.3559  0.1271
13942W        W23635   2.440  15.575  13.290 -0.1705 -0.1783 -0.1056
13943W        W23636   1.375   5.256  17.329  0.0230 -0.0018  0.0076
13944W        W23637   2.798   6.078  14.786  0.1148 -0.1866  0.3637
13945W        W23638  14.492  13.954  16.666  0.3365 -0.0040  0.0107
13946W        W23639   6.305   3.326  13.677  0.1120  0.1292 -0.2361
13947W        W23640  11.795  10.626   4.815 -0.1298  0.0700 -0.0723
13948W        W23641  10.858   9.919  15.666 -0.3891  0.2521 -0.1034
13949W        W23642  14.254   1.643  13.849  0.0020 -0.0996 -0.0274
13950W        W23643   7.050   3.429  11.921 -0.2124 -0.1476 -0.0305
13951W        W23644  14.263   0.691   0.769 -0.2632  0.0163 -0.1756
13952W        W23645  12.925   5.617   4.116  0.1055 -0.3172  0.0950
13953W        W23646  13.522  15.232  15.708  0.2844  0.0278  0.1538
13954W        W23647   2.361   9.405   4.213 -0.3831 -0.0681 -0.1407
13955W        W23648   2.778   1.698  12.240 -0.1583  0.2972 -0.0746
13956W        W23649  16.852   2.150  12.301 -0.1735 -0.0460  0.1275
13957W        W23650   4.473  13.157   0.338 -0.1869 -0.2833 -0.2873
13958W        W23651   5.458   7.991  16.778 -0.0046 -0.2347  0.0205
13959W        W23652   8.931  13.433   2.917  0.1690 -0.1101 -0.3197
13960W        W23653   8.335   7.783  17.304 -0.0956 -0.1323  0.0331
13961W        W23654   3.468   2.356   5.177  0.1970 -0.3096  0.1090
13962W        W23655  11.038   5.258  15.859  0.2405  0.1601  0.0334
13963W        W23656  17.453   9.771   4.523 -0.2832  0.0437  0.0649
13964W        W23657   8.737   3.115   0.699 -0.1212  0.2665 -0.0139
13965W        W23658   8.776   6.746   1.154  0.0986 -0.0859  0.1320
13966W        W23659   3.157  16.975   3.164 -0.0031 -0.0226 -0.3240
13967W        W23660   8.442   0.286  16.396  0.0212 -0.0067 -0.1231
13968W        W23661  11.039   4.901   2.001 -0.2307 -0.1985  0.4585
13969W        W23662   8.155  12.889  17.350  0.2659  0.1599  0.0387
13970W        W23663   5.461   1.169   4.821  0.0830 -0.1224 -0.2127
13971W        W23664   1.481   2.029  15.062 -0.2415 -0.3737  0.3753
13972W        W23665   1.730  14.204   5.605 -0.5473  0.0337  0.3517
13973W        W23666  12.034   0.384  13.727  0.1676 -0.1020 -0.0833
13974W        W23667  10.487   7.803   0.271  0.2464 -0.1231 -0.0518
13975W        W23668  13.131   6.606  16.583  0.1579  0.0504 -0.2148
13976W        W23669  17.413  10.678   3.482  0.3431  0.0524  0.1218
13977W        W23670  14.368   0.640   4.493 -0.1324 -0.4340  0.2380
13978W        W23671  15.098   3.381  13.775  0.0395 -0.2403 -0.3265
13979W        W23672   5.532  12.457   5.741 -0.5009  0.1563 -0.0276
13980W        W23673  11.420   3.637  12.987 -0.2013  0.0361 -0.1725
13981W        W23674   1.669   2.659  14.395  0.0293 -0.1941  0.0275
13982W        W23675   9.590   2.363  12.674  0.3777 -0.0442  0.1077
13983W        W23676   1.748  17.559   4.656 -0.2983 -0.3455 -0.0753
13984W        W23677   3.806   7.403   2.764 -0.2886 -0.3279 -0.0410
13985W        W23678   3.005   3.167  13.640  0.0350  0.0803  0.0125
13986W        W23679   7.228   3.499  14.014 -0.1534  0.0322 -0.0165
13987W        W23680  13.461  16.866   5.828 -0.2330  0.2086 -0.0349
13988W        W23681   2.605   1.381   1.466  0.0744 -0.0261 -0.0192
13989W        W23682   5.031  11.293   1.454  0.0264  0.1085 -0.1784
13990W        W23683  10.684   7.630  11.893  0.1770  0.3069  0.0507
13991W        W23684  15.624   5.504   3.507  0.0339  0.0386 -0.1466
13992W        W23685  13.966  14.723  16.208 -0.5284 -0.0694  0.2561
13993W        W23686   0.268   8.782   6.729  0.3240  0.0589 -0.1950
13994W        W23687  15.735  11.344  16.533  0.0304 -0.0490  0.0012
13995W        W23688   9.810   4.948  16.567  0.1823 -0.0742 -0.2923
13996W        W23689   2.878  13.689   0.991  0.1558  0.3851  0.1441
13997W        W23690  12.477   8.556   3.115 -0.2594  0.1716 -0.1807
13998W        W23691   8.597   9.705   2.963  0.0547 -0.3729  0.1204
13999W        W23692   7.365  12.719   5.498 -0.1453 -0.0346 -0.0896
14000W        W23693  14.929   8.490   6.143  0.1478  0.4358 -0.1250
14001W        W23694  13.624   5.856   6.213  0.0213 -0.2109 -0.0826
14002W        W23695   0.644  11.207   3.777  0.3022  0.1387  0.1128
14003W        W23696   0.033  11.545  16.615  0.2025  0.2173  0.0123
14004W        W23697   1.615  11.812   5.769  0.1077 -0.0015  0.1667
14005W        W23698   4.938   4.793   4.340 -0.2008 -0.1645 -0.0714
14006W        W23699   3.192  17.096  12.889 -0.3103  0.0584 -0.0006
14007W        W23700  16.639   7.775   7.252  0.1166  0.0320 -0.1445
14008W        W23701  13.614   3.377  15.513  0.0862 -0.0898  0.0863
14009W        W23702  16.228   5.204   5.090  0.0476 -0.2445 -0.1831
14010W        W23703   5.435  11.613   4.103 -0.0362  0.3117 -0.0328
14011W        W23704   1.750  11.255  15.919  0.2803  0.5472  0.1110
14012W        W23705  10.131   8.432   5.362 -0.1240  0.2563  0.1004
14013W        W23706   8.187   8.383   3.458  0.3604  0.1968 -0.1674
14014W        W23707   5.883   4.533  15.615  0.1925 -0.1743 -0.1385
14015W        W23708   6.653  17.547   2.421 -0.0864  0.0459  0.0059
14016W        W23709   2.330  16.187  15.296  0.0904 -0.2417  0.1160
14017W        W23710  10.737   4.024   3.899 -0.0850  0.3047 -0.1939
14018W        W23711  11.205   3.379  16.705 -0.0962  0.0937 -0.1738
14019W        W23712   5.955   8.075   4.212 -0.0123  0.0399 -0.1541
14020W        W23713   9.034  12.923   1.192 -0.2849  0.3561 -0.2876
14021W        W23714   8.422   7.471  14.718  0.0936  0.1270 -0.0324
14022W        W23715   0.355   0.250   0.041  0.0547  0.2435 -0.3159
14023W        W23716  11.646   8.915  17.401 -0.0177 -0.0292  0.3164
14024W        W23717   7.508   3.795  12.639  0.1224  0.1703 -0.2492
14025W        W23718  14.966   3.150  16.262 -0.0476  0.0227 -0.0866
14026W        W23719  16.614  17.529   5.502  0.0076  0.1818 -0.0711
14027W        W23720   7.395   5.482   1.673 -0.2490  0.3041 -0.3716
14028W        W23721   8.820   8.152  15.831 -0.0206  0.1064  0.1022
14029W        W23722   2.391  11.788  12.705  0.0598 -0.1841 -0.4287
14030W        W23723   8.898   0.950  15.620 -0.2991 -0.2796 -0.0279
14031W        W23724  11.519  13.067   4.961  0.0963 -0.1522  0.1028
14032W        W23725  16.256   2.639   4.907  0.1312 -0.3989  0.1336
14033W        W23726  13.104  12.386   0.239 -0.3421 -0.1096 -0.2022
14034W        W23727  16.799   1.361   2.624 -0.0301  0.0999 -0.0389
14035W        W23728   5.396   6.355  17.325 -0.2244  0.1171 -0.0647
14036W        W23729   3.586  14.733  14.533 -0.0282  0.1353  0.2662
14037W        W23730   9.865  10.734   2.156  0.1330  0.0771  0.2406
14038W        W23731   6.355   5.459  16.730 -0.2483  0.2725  0.0902
14039W        W23732  14.547   2.883   4.849 -0.0537 -0.0257 -0.1849
14040W        W23733   6.243  14.300   0.922 -0.0705 -0.1286 -0.1205
14041W        W23734   6.691  17.579   4.258 -0.2255 -0.1542 -0.4163
14042W        W23735   7.392  13.229   6.237 -0.2950  0.2088 -0.0935
14043W        W23736   7.914   0.956   0.466 -0.1811 -0.1780  0.0915
14044W        W23737   8.751  11.405  12.966  0.1129 -0.0585  0.0563
14045W        W23738   3.462   4.728   0.689  0.1280  0.2573 -0.2026
14046W        W23739  10.591   6.111  17.071 -0.0509  0.0459 -0.2161
14047W        W23740   4.202  14.255   2.565  0.0298  0.2206  0.0130
14048W        W23741   8.921  17.358  12.947  0.1119 -0.0920 -0.1894
14049W        W23742   5.385   8.888   3.215 -0.3386  0.2384 -0.2809
14050W        W23743   0.075   5.445   2.845  0.0127 -0.0409 -0.0398
14051W        W23744  12.696   6.716  13.593  0.1479 -0.1406 -0.0255
14052W        W23745  15.588   1.562  17.682 -0.1983 -0.0022 -0.0323
14053W        W23746   9.812   5.822  15.034 -0.0101 -0.0605 -0.1645
14054W        W23747   8.644  10.958   4.972  0.3795 -0.2775  0.3337
14055W        W23748   9.601  12.858   4.547  0.1950 -0.0769  0.4793
14056W        W23749  13.968   1.096   0.668  0.1852 -0.3633  0.0283
14057W        W23750   5.868  13.001  15.552  0.1600 -0.2847 -0.3766
14058W        W23751   4.306   2.344   4.772  0.0631  0.2053 -0.0365
14059W        W23752  15.803  13.797  13.213 -0.0449 -0.1794 -0.1161
14060W        W23753  17.471   6.732   0.594  0.1845  0.1308 -0.1425
14061W        W23754  13.287   3.571  13.374 -0.1884 -0.0744  0.1049
14062W        W23755   8.395   9.919  15.966 -0.3182  0.1252  0.3371
14063W        W23756   4.768  16.826  11.331  0.1701  0.0271  0.0949
14064W        W23757   6.190  10.526   4.786 -0.0747  0.1099  0.1809
14065W        W23758  15.013   8.311   1.689 -0.2389  0.1105  0.1786
14066W        W23759   7.405  15.078   6.521  0.1321 -0.2271  0.1478
14067W        W23760   9.687  15.510  17.525  0.2006  0.0965 -0.3830
14068W        W23761  11.552   6.011   3.416 -0.0169 -0.0948  0.0193
14069W        W23762  11.838  12.363   1.363  0.1484  0.0801  0.1517
14070W        W23763  13.265   1.133   3.687 -0.0862 -0.1569 -0.2695
14071W        W23764   0.278   3.933   2.325  0.2256 -0.0688  0.2035
14072W        W23765   0.549  13.523  12.598 -0.1247  0.0597  0.1793
14073W        W23766   1.747   9.114   1.463  0.1493 -0.5835 -0.2375
14074W        W23767   0.286  11.438  16.121 -0.0481 -0.1847 -0.2213
14075W        W23768   1.100  12.227  13.058 -0.1851  0.3284  0.1765
14076W        W23769  12.892  11.675  13.285 -0.1782 -0.2066 -0.0295
14077W        W23770   4.605   8.665  15.900 -0.2502  0.1506 -0.1509
14078W        W23771   2.937   8.374   5.581 -0.1637 -0.1322 -0.0575
14079W        W23772   4.736   3.717   0.482  0.2394  0.1224  0.1203
14080W        W23773   8.737  10.209   5.909 -0.0914 -0.1659  0.0998
14081W        W23774  17.198  12.194   1.770  0.0525  0.3783 -0.1046
14082W        W23775   2.487   1.821   4.809  0.2004 -0.0385  0.1268
14083W        W23776   0.799   5.116  16.489  0.2578 -0.1654 -0.1671
14084W        W23777   2.763   3.849  15.665  0.2070  0.1256 -0.1660
14085W        W23778   2.905   8.687  17.565 -0.1745 -0.0570  0.0540
14086W        W23779   3.456   0.382  15.322 -0.1006 -0.0748  0.0705
14087W        W23780  15.925  16.041  14.482 -0.2243  0.3579 -0.1358
14088W        W23781   2.668   0.285   4.668 -0.0775 -0.0210  0.0850
14089W        W23782   5.349  12.211   1.658 -0.1849  0.3296  0.0913
14090W        W23783   8.059   2.864   0.784 -0.4481 -0.0407  0.2393
14091W        W23784  15.093  14.911   5.234 -0.0121  0.2429  0.1222
14092W        W23785  17.614   1.944   5.295  0.0469 -0.1729 -0.0818
14093W        W23786   2.224   5.839  17.348 -0.0408  0.0029  0.0859
14094W        W23787   9.163  13.630  17.106 -0.1376 -0.2665 -0.1952
14095W        W23788   7.862  16.929  14.035 -0.2048  0.0193 -0.1658
14096W        W23789  17.020  16.659   2.285 -0.5552  0.2615 -0.1954
14097W        W23790  14.706   9.278   0.530 -0.1715  0.1943 -0.4579
14098W        W23791  12.375  11.741  16.271 -0.1542 -0.2559  0.0327
14099W        W23792  13.044  14.361  14.295 -0.0745  0.1493  0.2465
14100W        W23793  11.148  12.496   4.774  0.2485  0.2059 -0.0169
14101W        W23794  10.949   6.351   3.049 -0.0936  0.0116  0.1851
14102W        W23795   0.559  15.719   0.539 -0.2809 -0.0271  0.0556
14103W        W23796   8.957  16.448  17.152  0.0555 -0.0337 -0.1196
14104W        W23797  14.361   2.848   0.882  0.2272  0.1754  0.2676
14105W        W23798  15.634   8.144   5.815  0.1084 -0.3174 -0.2340
14106W        W23799   0.841  13.832   7.115 -0.0686  0.1359 -0.0776
14107W        W23800  14.943   5.441   5.841  0.1887 -0.0090  0.1981
14108W        W23801   0.141   2.068   1.361  0.1412  0.2288 -0.0400
14109W        W23802   7.545  10.750   1.636 -0.2357  0.3967  0.0187
14110W        W23803   8.442   4.035  14.474  0.0733 -0.1284  0.2046
14111W        W23804  13.478   4.690   2.424  0.1517  0.3050 -0.3030
14112W        W23805   3.404  10.113   0.204  0.5022 -0.1612  0.0882
14113W        W23806   7.069  12.143   1.102 -0.0868 -0.1911 -0.1245
14114W        W23807   8.743   0.064   1.060  0.1974  0.0498  0.0008
14115W        W23808  15.812   1.924  12.388 -0.0494 -0.2223  0.0185
14116W        W23809  11.880  11.180   4.985 -0.3739 -0.0010  0.1523
14117W        W23810  13.094   1.867  14.400  0.0605 -0.0645  0.0285
14118W        W23811  10.691   5.405   5.832 -0.0248  0.2372  0.2972
14119W        W23812   8.763   5.187  13.081  0.1548 -0.1247  0.1798
14120W        W23813   3.279  14.207   5.751  0.0829 -0.0718  0.3293
14121W        W23814  14.116   8.132   4.663 -0.1797  0.1996  0.0529
14122W        W23815   5.109   0.614  15.963 -0.1099  0.0621  0.1157
14123W        W23816  16.154   3.038   7.206 -0.2790 -0.1097  0.2239
14124W        W23817   5.711  14.599   0.384  0.3006 -0.1395 -0.1353
14125W        W23818   2.034   4.251  16.667  0.0758 -0.2635  0.0832
14126W        W23819  10.978   3.554  14.460 -0.0862  0.0738  0.0421
14127W        W23820   8.162   3.331  13.938  0.0474  0.1032  0.0165
14128W        W23821   4.680   1.985   1.046 -0.1219  0.3459 -0.1257
14129W        W23822  12.491   5.550   4.318  0.2555 -0.1452 -0.1172
14130W        W23823  11.792   2.591   0.581 -0.3404 -0.1722  0.2371
14131W        W23824   4.033  12.112  14.347  0.1093  0.0737  0.4143
14132W        W23825  10.215  11.884  14.738 -0.1869  0.0767 -0.1973
14133W        W23826  13.718   7.245   4.453 -0.1965  0.1357  0.0784
14134W        W23827   6.336   2.044   1.079  0.0765  0.2505 -0.2913
14135W        W23828   1.443  10.100  13.806 -0.2405  0.0469 -0.3375
14136W        W23829  14.492  15.362   5.784 -0.0354 -0.0811 -0.1200
14137W        W23830   7.453   7.090  14.069  0.1067  0.2471 -0.3001
14138W        W23831  14.026   4.594   0.150 -0.0458 -0.2279  0.0649
14139W        W23832   3.595   7.038   5.570 -0.6834  0.1033  0.2005
14140W        W23833   5.642   3.593  15.328  0.0921  0.0773  0.2835
14141W        W23834   2.771   5.529  13.163  0.1491 -0.0768  0.2249
14142W        W23835   9.933   2.196  11.464  0.1524  0.2454  0.2805
14143W        W23836   8.295  10.320   5.694  0.0106 -0.0643 -0.2824
14144W        W23837   8.706   6.142  11.288  0.1378 -0.0692 -0.1853
14145W        W23838   1.372  11.315   3.701 -0.0495 -0.0612  0.1612
14146W        W23839   6.454  14.018  13.124  0.1192 -0.0479 -0.1412
14147W        W23840  17.273  14.153   1.491  0.0883 -0.1295  0.2885
14148W        W23841   6.542  17.287  14.725  0.0725 -0.2222  0.1574
14149W        W23842   7.345   5.344  15.664 -0.1827  0.0553  0.5049
14150W        W23843  13.676   5.794   4.893 -0.1190 -0.2219 -0.0261
14151W        W23844   7.282  14.720   3.299  0.0176  0.0079  0.0314
14152W        W23845  12.356  10.212  11.740 -0.4627 -0.3067 -0.0784
14153W        W23846   8.741   4.087  16.841  0.0148 -0.4773  0.1967
14154W        W23847   7.491   3.956   4.762  0.0085 -0.1006  0.1244
14155W        W23848  16.875  10.133   0.948  0.3499 -0.1200 -0.0958
14156W        W23849   6.222  14.454   4.152  0.0706  0.0241 -0.2079
14157W        W23850   4.247   9.836  12.844  0.0514 -0.1819  0.2186
14158W        W23851   6.067  15.491   2.567 -0.0860  0.0685  0.1454
14159W        W23852  13.157   7.574  13.451  0.0172 -0.4921 -0.0111
14160W        W23853  15.202   0.906  13.260  0.0666 -0.2543  0.0514
14161W        W23854  10.854   1.187  16.256 -0.1053  0.0439  0.3223
14162W        W23855  10.334   0.447   0.848 -0.3206 -0.1026 -0.0708
14163W        W23856   7.898   0.740   5.648  0.0274 -0.0127 -0.0954
14164W        W23857   6.801  11.842   1.348  0.0554  0.0947 -0.2407
14165W        W23858  13.284  12.494  14.119  0.0267  0.0303  0.1769
14166W        W23859   0.490   0.481   0.995  0.0985 -0.2044 -0.2614
14167W        W23860  14.201  12.082  13.701 -0.0146  0.1225  0.0137
14168W        W23861   6.495  14.502  13.171 -0.1912  0.1501  0.1604
14169W        W23862   7.495  10.518   0.259  0.1659  0.0562  0.0347
14170W        W23863  17.475  14.594   1.300 -0.0315  0.1975  0.2254
14171W        W23864   3.051  17.005  12.108  0.2652 -0.2804 -0.1591
14172W        W23865   9.142   5.386   4.286 -0.1631  0.2272 -0.0531
14173W        W23866  11.717   9.492   0.615  0.0247 -0.0499 -0.0386
14174W        W23867   0.730  10.107  16.692 -0.0678  0.1049  0.0067
14175W        W23868   9.099   2.459  14.734  0.2836  0.0531  0.0504
14176W        W23869   7.591   4.328   1.252  0.2358  0.4098 -0.0566
14177W        W23870   2.302   4.169   6.322 -0.1951  0.0573 -0.0116
14178W        W23871  13.232  15.802  15.594  0.3891 -0.1336  0.0234
14179W        W23872   9.269   6.910   4.539 -0.2634 -0.1096  0.3645
14180W        W23873   7.431   5.362   1.158  0.0628  0.0628 -0.2418
14181W        W23874  13.712  10.739  16.517  0.1239  0.1765 -0.0190
14182W        W23875  11.381  14.971  15.581  0.2062 -0.2135 -0.0834
14183W        W23876  10.049   4.394   4.443 -0.1519  0.2290 -0.0055
14184W        W23877  15.690   7.512  17.431 -0.4407  0.0997  0.0782
14185W        W23878  16.172   3.729   5.122  0.1413  0.1505 -0.3203
14186W        W23879   8.182  11.398  16.596  0.1121 -0.0256  0.3790
14187W        W23880  13.610   0.568   2.560  0.2157 -0.0328  0.2585
14188W        W23881   8.235   4.063   5.362  0.2781 -0.3196  0.1181
14189W        W23882  13.584   9.944  13.864  0.2476  0.0568  0.0716
14190W        W23883  14.013   0.985  14.237 -0.1970  0.2694  0.1561
14191W        W23884   4.901   5.417  13.617 -0.0230  0.0750  0.2770
14192W        W23885   0.370  10.701  14.925  0.1930  0.1183  0.6744
14193W        W23886   2.572   3.198   0.618  0.0546  0.0173  0.1076
14194W        W23887   6.647   5.983   3.841  0.0582  0.2144  0.0358
14195W        W23888   6.541   8.208   5.876  0.0216 -0.1989 -0.6516
14196W        W23889  16.833  14.460   3.105 -0.0011 -0.1862 -0.2206
14197W        W23890   8.937  16.651   2.659  0.1048 -0.2734  0.0016
14198W        W23891  15.646  14.212  14.671  0.2222 -0.1742  0.0416
14199W        W23892   5.694   9.652   2.569  0.3219 -0.0336  0.0049
14200W        W23893  15.865  17.197  14.748  0.1107 -0.1133  0.2058
14201W        W23894  10.432  10.113  17.618 -0.2044  0.0674 -0.2416
14202W        W23895   2.533   2.651   6.117 -0.2016 -0.0352  0.0879
14203W        W23896  12.412   9.651  17.117 -0.0857  0.1685  0.0273
14204W        W23897  14.528   7.187   3.800  0.1646 -0.1297 -0.2506
14205W        W23898  12.967   2.376   4.192  0.4198  0.2700  0.2620
14206W        W23899   4.147   4.341  11.857  0.1841  0.2927  0.0309
14207W        W23900  11.435  17.416  17.004 -0.3634 -0.0221 -0.1387
14208W        W23901   7.599   2.194   5.226  0.1402 -0.1037 -0.0603
14209W        W23902   2.839  14.960  17.465  0.1473  0.1315 -0.0976
14210W        W23903   4.850  16.379  13.181 -0.1425 -0.3610  0.0264
14211W        W23904   4.116  14.688  17.355  0.1504 -0.1265  0.0240
14212W        W23905  15.544   5.550  14.777  0.0219  0.0988  0.3400
14213W        W23906   1.692   1.746   0.527  0.2064  0.0597 -0.0143
14214W        W23907   4.550  12.184   5.740 -0.2137  0.0684 -0.1113
14215W        W23908   9.762  17.248  15.298 -0.0524  0.0230 -0.0093
14216W        W23909   4.809   7.737  12.172 -0.3057  0.3322  0.2140
14217W        W23910  10.588   8.116   4.585  0.0178  0.4107 -0.1396
14218W        W23911  10.810  16.267  13.976 -0.0426  0.1318  0.1915
14219W        W23912   5.824   0.323   4.981  0.0538 -0.0875 -0.0788
14220W        W23913   7.172   9.904   4.203 -0.3560 -0.0896 -0.1175
14221W        W23914   9.660   0.231  12.728  0.2680  0.2867 -0.2200
14222W        W23915  16.090  12.013   3.173 -0.1796 -0.1188  0.0256
14223W        W23916   5.472  16.199   4.925  0.2657 -0.2650 -0.0172
14224W        W23917   9.857   0.647   3.668  0.0109  0.1107  0.2498
14225W        W23918   2.822   5.001   1.336  0.1055  0.4257 -0.3224
14226W        W23919   1.793   8.031  17.318  0.1414 -0.0920 -0.0130
14227W        W23920  15.030  16.457  13.793  0.0658 -0.1325 -0.0060
14228W        W23921   2.172  17.310  13.690  0.2106  0.1065  0.1044
14229W        W23922   9.759  16.919   0.670  0.0543  0.1465 -0.1546
14230W        W23923   2.875   9.205  15.537  0.1458  0.1052 -0.2041
14231W        W23924   9.674  15.903   4.398  0.1905 -0.1088  0.1232
14232W        W23925  14.474   2.856  12.796  0.0010 -0.0459  0.0952
14233W        W23926   2.170   7.060   4.843 -0.1483  0.1716 -0.0990
14234W        W23927   5.701  12.292  13.209 -0.1437  0.0216  0.2458
14235W        W23928  10.139   9.655  13.372 -0.2950 -0.1265  0.0386
14236W        W23929  15.185  12.250  13.673 -0.2399 -0.2331  0.0560
14237W        W23930  10.917   0.100  16.360 -0.0933 -0.0785 -0.1399
14238W        W23931   3.685   2.119  17.284 -0.1266  0.0193 -0.3667
14239W        W23932   4.639   4.104   2.034  0.1061 -0.1277  0.0156
14240W        W23933   4.453   1.926   1.946 -0.0508 -0.1234  0.1071
14241W        W23934   0.305   0.154  12.124 -0.2835  0.1862 -0.1142
14242W        W23935   2.473  13.191  16.488 -0.1188 -0.2164  0.3028
14243W        W23936  17.629  14.807   2.800 -0.0524  0.0314  0.0364
14244W        W23937   2.971   7.859  17.474  0.1210 -0.2481 -0.0640
14245W        W23938   7.779  16.720   2.154 -0.0994 -0.1208 -0.0196
14246W        W23939   4.765  17.045   4.410 -0.1554  0.0913  0.1524
14247W        W23940  16.513  17.373  15.631  0.0408  0.1243 -0.0190
14248W        W23941   8.936   6.065  14.709  0.3617 -0.0618  0.2533
14249W        W23942  11.482   2.184   0.774 -0.0822 -0.2833 -0.0716
14250W        W23943   7.565   6.710  16.689 -0.2382 -0.1202 -0.1455
14251W        W23944   8.705   6.634   1.915 -0.0410 -0.3133 -0.0052
14252W        W23945   9.509  14.479   3.838 -0.3549  0.0350 -0.0222
14253W        W23946  11.148  12.698  14.574 -0.0098 -0.1553  0.1919
14254W        W23947   0.052   3.029  15.593  0.1690  0.2104  0.0890
14255W        W23948  15.315   3.522  16.345 -0.2783 -0.0579  0.2393
14256W        W23949   7.481   5.995  11.632  0.0528  0.0511  0.1910
14257W        W23950  15.433   4.512  15.571  0.0275 -0.0937 -0.1428
14258W        W23951   6.963   5.380  11.934  0.3777  0.0305  0.0294
14259W        W23952   7.544  11.773  10.937 -0.0468 -0.0960 -0.0702
14260W        W23953   6.362  11.717   2.265  0.2403 -0.1253  0.2246
14261W        W23954   0.124  14.487  14.015 -0.0386  0.0385 -0.4857
14262W        W23955  10.678  15.046  15.087  0.0557  0.0431 -0.1589
14263W        W23956   9.941  16.902   4.496 -0.0277  0.5343  0.1256
14264W        W23957  13.514   0.303   0.406 -0.2051 -0.0677 -0.1387
14265W        W23958  10.637   3.366   0.235  0.2876  0.3349 -0.4045
14266W        W23959   9.221  14.356   5.505 -0.3511 -0.3112 -0.0035
14267W        W23960  10.041  11.264   6.154 -0.0073 -0.0523  0.2702
14268W        W23961  11.122  15.456  17.237 -0.0223  0.0320  0.1275
14269W        W23962   7.247  11.217   5.420 -0.2812  0.1159  0.0580
14270W        W23963   6.354   5.267  14.700  0.3374  0.2022  0.3954
14271W        W23964   4.459  10.675  15.188  0.1059 -0.1475  0.1109
14272W        W23965   1.954   4.108  11.508 -0.0063 -0.1922  0.0380
14273W        W23966   2.479   6.988   0.634  0.0301 -0.0306 -0.1945
14274W        W23967   4.777  13.512  17.581  0.1112 -0.0332 -0.1384
14275W        W23968  12.159  11.128  13.373 -0.0082 -0.2441  0.0282
14276W        W23969   8.875   3.783   4.014 -0.0799 -0.0589 -0.0767
14277W        W23970   4.278  14.210  17.129  0.2134  0.1130 -0.2527
14278W        W23971  11.267  17.551  12.617  0.2876 -0.0706  0.0921
14279W        W23972  16.025   7.911  17.244  0.0968 -0.1180  0.1715
14280W        W23973   4.813  10.382  15.831  0.0557  0.1612  0.2526
14281W        W23974   2.133   2.067   3.486  0.0517  0.0530 -0.1841
14282W        W23975  15.788  16.854   1.369 -0.0076 -0.1048  0.3428
14283W        W23976   5.258  10.856  13.146 -0.1155  0.3055 -0.2955
14284W        W23977   4.352  14.378  15.765  0.0780 -0.0359 -0.3159
14285W        W23978   3.780   5.521   1.359 -0.0661  0.2107 -0.0161
14286W        W23979  12.107   9.762   6.039  0.0060 -0.0715  0.0145
14287W        W23980   6.135   8.956   4.634 -0.1492  0.1580 -0.2117
14288W        W23981  11.198   9.106   5.822 -0.1828 -0.0671 -0.0648
14289W        W23982   9.383   5.446  14.881  0.2114  0.1863 -0.1455
14290W        W23983  11.125  10.123   2.296  0.1376 -0.2027 -0.0127
14291W        W23984   6.120   2.641  14.372  0.2244  0.1519 -0.1402
14292W        W23985   8.551   8.193   2.573  0.0124  0.0200  0.2087
14293W        W23986   4.921   0.126   0.706  0.0126  0.3456  0.0050
14294W        W23987  16.393   5.071  13.102  0.2357 -0.1699  0.0311
14295W        W23988  16.426   8.269  15.932 -0.0447 -0.1900 -0.1649
14296W        W23989  17.416  16.854  11.372 -0.1719 -0.0340 -0.0029
14297W        W23990   6.858  15.214   6.046 -0.2805 -0.0502 -0.2611
14298W        W23991   1.762  11.067  16.408 -0.1233 -0.0868  0.0980
14299W        W23992  11.533   2.957   0.895 -0.3081 -0.0920 -0.0076
14300W        W23993  17.037  10.066  13.492  0.0562  0.1402  0.0097
14301W        W23994  14.351   3.043   1.313  0.1161 -0.1564  0.2583
14302W        W23995  15.419  12.582  12.915 -0.0296  0.2112 -0.0301
14303W        W23996  12.576  13.522  16.577  0.3826  0.3486  0.0671
14304W        W23997  17.440  14.999   3.660 -0.0945 -0.0228 -0.0907
14305W        W23998   5.459   6.896  14.596  0.1235 -0.1903  0.0769
14306W        W23999   9.428   2.443  12.180  0.1139 -0.1411 -0.1235
14307W        W24000  16.717   6.864  14.436 -0.0598  0.5569 -0.0295
14308W        W24001   5.566  15.787  16.297  0.2754  0.0134  0.2101
14309W        W24002  14.359   8.415  13.637  0.2322  0.0276 -0.3227
14310W        W24003  11.269   8.943  15.123 -0.2139 -0.0645  0.1070
14311W        W24004   6.330  13.416   3.845  0.1957 -0.0633 -0.0736
14312W        W24005  15.115   2.864   0.319  0.2002 -0.2024  0.0929
14313W        W24006   9.713   7.715   4.893 -0.1508 -0.1550 -0.6329
14314W        W24007   2.958  10.596  10.664  0.0835  0.1334  0.0227
14315W        W24008   4.210  10.300   0.697  0.2459  0.1405  0.1256
14316W        W24009  17.018  10.583   1.300 -0.1913  0.1264  0.0299
14317W        W24010   5.386   6.103  13.377  0.0483  0.0191 -0.1439
14318W        W24011  15.355   8.368  12.164  0.0796 -0.0341 -0.0532
14319W        W24012   6.155   1.353  16.817 -0.0632  0.1923  0.0551
14320W        W24013   0.234   5.103   0.533 -0.1018 -0.1558  0.3029
14321W        W24014   6.765   9.116  12.021  0.0330 -0.0628  0.0431
14322W        W24015   5.105  15.179  15.913 -0.0187  0.2124 -0.2749
14323W        W24016   8.040  16.102  14.388 -0.0445 -0.0336  0.2056
14324W        W24017  10.572   5.934  14.640 -0.1763 -0.0693 -0.0456
14325W        W24018  10.045  13.296   2.901  0.1214  0.0645  0.0056
14326W        W24019  15.139  14.441   4.558  0.1009 -0.1782 -0.0103
14327W        W24020  14.427  10.422   3.503  0.2208  0.1840  0.0470
14328W        W24021  16.287  12.167  15.762 -0.2402 -0.2944 -0.1008
14329W        W24022  12.555  10.057  15.776 -0.1195  0.0487 -0.1220
14330W        W24023   7.282   8.155   1.654  0.0396  0.0804 -0.2077
14331W        W24024   0.520   3.330   3.425 -0.1805 -0.1424 -0.2078
14332W        W24025   7.636   1.006  14.860 -0.0982 -0.2204 -0.0965
14333W        W24026   0.080  13.228  16.595  0.1874 -0.2122  0.1846
14334W        W24027   6.600   3.489  13.201 -0.1297 -0.0042 -0.1013
14335W        W24028   0.204   6.390  12.651  0.3143 -0.0793 -0.2372
14336W        W24029  14.696  11.601   0.564 -0.2164  0.0031  0.2027
14337W        W24030   9.771  13.318  13.820 -0.0352 -0.1742  0.0055
14338W        W24031   1.255   2.289   3.908  0.1306 -0.0209 -0.0677
14339W        W24032   0.425   3.705   5.506 -0.0107 -0.1143  0.4495
14340W        W24033  11.508   2.324   2.448  0.2710 -0.1028  0.1572
14341W        W24034   2.314  10.879  11.747  0.0005  0.2020  0.1293
14342W        W24035   2.593  11.962  11.809 -0.0244 -0.5034  0.1551
14343W        W24036   0.123  11.181   0.995  0.0165 -0.1343  0.0183
14344W        W24037  15.221  11.435   0.502  0.0886  0.3839 -0.0824
14345W        W24038   0.144  14.778   1.013 -0.0269  0.4258 -0.4502
14346W        W24039   2.586   2.337  11.366  0.2559 -0.2372  0.1386
14347W        W24040  16.750  10.540  12.741 -0.0236 -0.0919 -0.2254
14348W        W24041  16.677   6.879   4.897  0.0310  0.2609  0.0168
14349W        W24042   2.906   5.530   1.492  0.1549  0.0786  0.1804
14350W        W24043   6.247   4.786   5.621  0.1993 -0.2160 -0.0232
14351W        W24044   4.170  15.312  12.014 -0.1005  0.0194  0.1744
14352W        W24045  10.763  12.920   6.932  0.1332 -0.0413 -0.2455
14353W        W24046  17.632   7.233   1.877 -0.0670 -0.1863  0.0891
14354W        W24047   2.885   0.498   2.531  0.1998  0.1528 -0.1461
14355W        W24048  13.926   6.615   2.647 -0.1736  0.1257  0.4774
14356W        W24049   1.164   7.526  14.445 -0.2731  0.0828  0.2388
14357W        W24050   3.705   4.390   1.086 -0.0138  0.0048 -0.3306
14358W        W24051   6.245  14.085   2.849  0.1030  0.1075 -0.1217
14359W        W24052  12.432   1.660  16.926 -0.2362 -0.0170  0.2201
14360W        W24053  15.380   8.465   3.953  0.1437 -0.0795 -0.1153
14361W        W24054   6.924  10.157  15.609 -0.0725 -0.0398 -0.1236
14362W        W24055   0.100  11.705  11.704  0.2028 -0.1477  0.2396
14363W        W24056   6.977   3.080   0.217  0.1878  0.1069  0.2144
14364W        W24057  15.538   9.719   4.135  0.0247 -0.3300  0.0029
14365W        W24058   3.304  15.609  12.447  0.2638 -0.0778  0.1972
14366W        W24059   9.737   4.197   1.231  0.0884  0.1399 -0.2401
14367W        W24060   6.878   4.416   0.995 -0.1550 -0.1670  0.0486
14368W        W24061  13.312  12.633   4.055 -0.1096  0.0693  0.0092
14369W        W24062   5.270  13.946   3.914  0.1545 -0.1288 -0.1200
14370W        W24063   9.758   5.714  12.843 -0.2037  0.2179  0.1456
14371W        W24064   1.384  14.098  15.018 -0.0968 -0.0173  0.1019
14372W        W24065  11.309   5.280   2.138 -0.2784  0.1081  0.0292
14373W        W24066   1.355   0.099   1.476 -0.1328 -0.0078 -0.1108
14374W        W24067   5.974   9.816  14.181  0.1060 -0.1270  0.3081
14375W        W24068  10.985  10.694   5.869 -0.2730 -0.0649  0.4171
14376W        W24069   4.559   1.823  17.472  0.3917 -0.0842  0.0560
14377W        W24070   3.789   8.107   0.969  0.1232 -0.0756 -0.0958
14378W        W24071   5.293  16.093  10.674 -0.1244  0.0728 -0.0630
14379W        W24072   0.008  14.073   0.516 -0.0890 -0.0461  0.1643
14380W        W24073  15.235   6.608   2.905  0.0196  0.0666 -0.0981
14381W        W24074  15.654   6.221  13.279  0.0901 -0.2386 -0.0981
14382W        W24075  16.904  12.794   2.675  0.2667 -0.0637 -0.1433
14383W        W24076   3.192  17.502  16.765  0.0890 -0.0255 -0.0110
14384W        W24077  13.853   1.637   3.444  0.1589  0.1850  0.1850
14385W        W24078   9.319   5.837  15.188 -0.3121  0.0317 -0.2923
14386W        W24079  13.483  10.592   1.238  0.0631  0.2803  0.0564
14387W        W24080   8.272   2.784   0.170 -0.0201 -0.0349  0.0305
14388W        W24081   7.697  17.429   6.233 -0.0181  0.0222 -0.0274
14389W        W24082   2.096  12.255   6.005 -0.1907  0.3123 -0.0312
14390W        W24083   0.035   7.037  13.923  0.2651  0.2008 -0.0620
14391W        W24084  14.844  11.686  17.239 -0.1972 -0.0084  0.2996
14392W        W24085  11.729   4.285  13.763 -0.1170 -0.0152 -0.0379
14393W        W24086   8.443   6.205  16.181 -0.1419  0.2077 -0.1521
14394W        W24087   0.816  16.232   0.858 -0.0442 -0.0377 -0.1028
14395W        W24088  15.152   1.823   1.229 -0.1758  0.1959 -0.4080
14396W        W24089   5.130  13.191  13.037 -0.0161  0.0875 -0.1155
14397W        W24090  13.018  15.361  12.421 -0.1163 -0.1777 -0.1937
14398W        W24091   1.607  14.723  13.747  0.0762  0.2611 -0.1470
14399W        W24092   0.392  13.505  13.745  0.0699  0.3118  0.0963
14400W        W24093   1.784   6.626   5.612  0.3348 -0.2334 -0.1263
14401W        W24094   3.587  16.795  12.822 -0.0316  0.0007 -0.3024
14402W        W24095   0.849   0.926   2.897 -0.0148 -0.1976 -0.2023
14403W        W24096   7.178  15.210  12.872  0.1492 -0.2337 -0.0175
14404W        W24097   2.406  10.358  16.134 -0.0019  0.1567  0.1533
14405W        W24098   2.349  16.034   1.113  0.2269  0.1035 -0.1218
14406W        W24099   9.552  16.812   5.893  0.2225 -0.2112 -0.0440
14407W        W24100  13.811  12.993  16.304  0.2982  0.2591  0.1415
14408W        W24101   0.474   6.747  12.304  0.2603 -0.3668 -0.2263
14409W        W24102  13.416   6.881  14.974  0.1147  0.0794 -0.2028
14410W        W24103   3.019   1.620   1.716 -0.1766 -0.0210 -0.1032
14411W        W24104   1.579   3.745  16.434  0.1914  0.2650  0.0875
14412W        W24105  14.847  14.566  15.214  0.2596  0.0481 -0.3616
14413W        W24106   4.695  13.488   1.483  0.0866  0.3974  0.1438
14414W        W24107  10.099   4.166  15.798 -0.1239  0.0174  0.1255
14415W        W24108   2.566  17.653   0.268 -0.4012  0.3591  0.0902
14416W        W24109  16.247   3.194  14.476  0.2156 -0.3501 -0.1861
14417W        W24110  17.280  16.890   1.327  0.0904  0.1732 -0.1519
14418W        W24111   3.367  11.662   1.904 -0.1820  0.2872  0.1530
14419W        W24112  17.436   5.003   4.465 -0.1908  0.1304 -0.0497
14420W        W24113   2.496  11.461  17.135  0.2607  0.4249 -0.1077
14421W        W24114   8.185   4.219   6.237 -0.2161  0.0921 -0.0433
14422W        W24115   5.140   0.971  14.290 -0.0325  0.0502  0.0853
14423W        W24116   1.238   4.924  14.574 -0.0507  0.1590  0.2379
14424W        W24117   5.850   1.355  12.487 -0.0140 -0.3233 -0.0524
14425W        W24118   3.634   8.375   2.794  0.1940 -0.2032 -0.0461
14426W        W24119  16.830   7.209  12.632  0.0499 -0.0784  0.2530
14427W        W24120   6.637   7.979   0.659 -0.4667 -0.1906  0.0502
14428W        W24121   5.652   3.594  13.391  0.2444 -0.0419 -0.0550
14429W        W24122   3.616   8.206   2.320 -0.3843  0.1042  0.0195
14430W        W24123  13.002  11.535  12.309  0.0252 -0.0166 -0.1204
14431W        W24124   1.426  10.761   0.001  0.3649  0.0766 -0.1661
14432W        W24125   3.709  13.308   0.175 -0.1440  0.1326 -0.2081
14433W        W24126   6.176  15.645  13.784  0.2363  0.0031  0.2853
14434W        W24127   5.454   2.055   5.421 -0.0758  0.0773  0.1629
14435W        W24128  17.132   8.644  14.144 -0.1969 -0.1640  0.1821
14436W        W24129  16.612   1.747   0.847  0.2493 -0.3803 -0.2018
14437W        W24130  16.678   7.922  11.941 -0.0004  0.0409 -0.1408
14438W        W24131   7.237   6.554  17.062  0.2337 -0.0984 -0.0674
14439W        W24132  10.743   6.819  12.465 -0.2422 -0.1138  0.3998
14440W        W24133  13.906   0.308  14.310  0.2584  0.1697  0.2350
14441W        W24134  16.181  10.366  13.385 -0.0245 -0.0340 -0.0250
14442W        W24135   7.025   3.658  12.433 -0.0850  0.0527  0.1566
14443W        W24136   6.077  12.074   2.097 -0.0208 -0.2730 -0.0790
14444W        W24137   8.966  16.480  14.374 -0.0213 -0.0801  0.1313
14445W        W24138  12.925   4.840   5.799 -0.3168  0.1657 -0.0519
14446W        W24139  12.181  13.574  17.276  0.3082 -0.2396 -0.4088
14447W        W24140   4.138   6.212   5.127 -0.0954  0.0813 -0.1650
14448W        W24141  13.286   1.320  13.937 -0.0704 -0.2763  0.3164
14449W        W24142   7.120  16.103   3.969 -0.2894  0.0158  0.0280
14450W        W24143   0.824  16.968   5.972 -0.1005 -0.0754  0.1065
14451W        W24144   6.394   9.967   2.055 -0.1661  0.0083  0.4744
14452W        W24145   9.728   6.293  16.957 -0.5366  0.0475  0.1899
14453W        W24146  10.541  10.503   5.974 -0.1010 -0.0875 -0.1506
14454W        W24147   6.466   1.866  12.075  0.2453  0.0200  0.0311
14455W        W24148  13.641   8.606  14.704  0.0380 -0.1258 -0.1634
14456W        W24149   9.902   9.446  12.513  0.0909  0.2698 -0.0006
14457W        W24150   1.891  12.173  15.553  0.0612  0.2369 -0.1180
14458W        W24151  11.776   1.291  13.995 -0.0542 -0.0747  0.0832
14459W        W24152  15.236  10.842   5.146 -0.0390 -0.0288  0.0171
14460W        W24153   6.078   0.942   2.133 -0.1936 -0.3855  0.2760
14461W        W24154   0.750  14.655  14.653 -0.1903  0.2210  0.0249
14462W        W24155  13.088  12.005   1.640 -0.4262 -0.2561  0.0275
14463W        W24156  11.197   8.010   4.090 -0.1519 -0.0253  0.1794
14464W        W24157   1.965   4.543   4.354 -0.1231 -0.2339  0.0956
14465W        W24158  15.701  15.530  13.435  0.2094 -0.3264 -0.1040
14466W        W24159  11.462   8.772   2.980  0.3607  0.0456 -0.0269
14467W        W24160   8.582   5.532   1.937 -0.0005  0.0653 -0.0988
14468W        W24161   2.011  12.379   0.505  0.1289  0.0924  0.1326
14469W        W24162   4.855   5.878  13.736 -0.0073 -0.1333 -0.0387
14470W        W24163  17.678  11.531  12.203  0.0422  0.2016  0.1723
14471W        W24164   0.017  12.072   1.233  0.1727  0.0807 -0.0999
14472W        W24165  10.289   6.882   5.787 -0.0856  0.1716  0.0730
14473W        W24166  11.982   3.772  16.140  0.0338  0.0372  0.0901
14474W        W24167  15.618   8.301   1.031  0.4186 -0.0070 -0.1174
14475W        W24168   3.899  15.210   6.567  0.4437 -0.2147 -0.1977
14476W        W24169   1.220   4.413  14.086  0.2624 -0.0617  0.0902
14477W        W24170   8.976  15.628   2.634  0.2323  0.1306 -0.0197
14478W        W24171   6.697   1.750   5.976 -0.1555 -0.1549  0.1497
14479W        W24172   7.256   3.403   6.001 -0.2461  0.0279  0.3074
14480W        W24173   3.950   2.604   3.678  0.0261  0.0331  0.0106
14481W        W24174   1.579   8.806   2.966 -0.2547 -0.0634 -0.0304
14482W        W24175   2.774   6.347   1.319  0.1480  0.2338 -0.1309
14483W        W24176  15.207  11.877   4.119 -0.1894 -0.1444  0.0526
14484W        W24177   1.127  15.239  12.538  0.3441  0.2968 -0.0463
14485W        W24178  16.343   9.949   3.031  0.0678 -0.1915 -0.1135
14486W        W24179  13.359  13.651  15.624 -0.0069  0.0964  0.2351
14487W        W24180  15.394   2.560   0.710 -0.1898 -0.0090 -0.0404
14488W        W24181  16.119  13.948   3.180  0.3177  0.0015 -0.0478
14489W        W24182   9.727   7.267   0.205 -0.0689  0.1565  0.0867
14490W        W24183  11.778   1.224  14.568  0.0318  0.3266  0.2628
14491W        W24184   5.762   4.612   0.676  0.2811  0.0007  0.1267
14492W        W24185   2.847   5.064   5.922 -0.1631  0.0676  0.1370
14493W        W24186   0.656  15.797  12.058 -0.3401  0.0658  0.0774
14494W        W24187   0.081  15.212  14.649  0.2668  0.1219  0.0747
14495W        W24188  10.535   7.650   1.260  0.3576  0.1900  0.3985
14496W        W24189  11.505   3.699   1.243 -0.0222  0.0601 -0.0059
14497W        W24190   2.999   6.787  16.536  0.0280  0.0184  0.1535
14498W        W24191   4.719   5.835  11.961 -0.5551  0.3479 -0.0118
14499W        W24192   4.258  13.866   1.258 -0.1415 -0.3588  0.3268
14500W        W24193  10.334  12.986  15.675 -0.1062  0.2875 -0.0607
14501W        W24194  14.521   0.870   3.181  0.0660  0.1457 -0.0580
14502W        W24195   0.826   9.372  13.841 -0.2220 -0.0963  0.7043
14503W        W24196   5.657  16.722  15.180 -0.1485  0.0891  0.2632
14504W        W24197  17.559   5.309   3.290 -0.0746  0.4757 -0.0009
14505W        W24198   8.907   2.303   2.407  0.0552 -0.0881 -0.4726
14506W        W24199  14.900  16.907  13.585  0.0231 -0.0971  0.0163
14507W        W24200   4.441  16.032  17.306 -0.0153  0.0559 -0.0776
14508W        W24201  12.852  17.114  13.347  0.0381 -0.2676  0.2947
14509W        W24202   1.337  14.639   3.113 -0.2025 -0.1533  0.2604
14510W        W24203  17.506  13.229   0.421 -0.1254  0.0709 -0.0621
14511W        W24204   7.662   3.684  15.162 -0.0074  0.3083 -0.0129
14512W        W24205   5.772   0.796   5.003  0.1499  0.0410 -0.0649
14513W        W24206  17.317  10.237   3.645  0.3542  0.0134 -0.0203
14514W        W24207   8.894   3.749  14.576 -0.4161 -0.0251  0.0937
14515W        W24208  12.126   2.668   0.188  0.0066 -0.0997  0.0485
14516W        W24209  11.471   3.173   2.264  0.1659  0.0148  0.0596
14517W        W24210   5.933   0.518  16.370  0.0244 -0.1024  0.0885
14518W        W24211  14.563  14.222  16.221  0.0749  0.2218  0.0173
14519W        W24212   3.907   5.745   0.111 -0.1154  0.4147 -0.0133
14520W        W24213   8.303  15.364   1.813  0.0599  0.1928 -0.2599
14521W        W24214  10.000  17.227   5.607  0.0397 -0.1875  0.2418
14522W        W24215   4.631   2.438  17.128  0.0820  0.0509 -0.1787
14523W        W24216  16.601   4.470   6.703 -0.1441 -0.1339  0.0236
14524W        W24217   5.478   5.249  12.704 -0.1041  0.0665 -0.4826
14525W        W24218   3.745   9.389   5.799 -0.0606  0.1523  0.0276
14526W        W24219   2.137   0.089   0.748 -0.0688 -0.0531  0.0983
14527W        W24220   5.662  15.311   3.326  0.2667  0.0579  0.3093
14528W        W24221  11.408  14.508   3.802  0.1550 -0.2927  0.2321
14529W        W24222  14.905  15.942  17.686  0.1647 -0.2166  0.3576
14530W        W24223  15.859  14.726   1.252  0.2710  0.2541  0.1625
14531W        W24224   7.244   9.243  16.481 -0.2283  0.5586  0.1636
14532W        W24225   5.925   8.634  17.520  0.0019  0.1411 -0.0091
14533W        W24226  10.399   8.405  17.118 -0.1065 -0.0228 -0.2849
14534W        W24227   2.220  12.937   2.881  0.0284 -0.0620 -0.0220
14535W        W24228   0.477   5.370   0.864  0.1955 -0.1368 -0.1053
14536W        W24229  11.788   3.512  13.307 -0.0261  0.1657 -0.3674
14537W        W24230   8.288  11.918  15.704 -0.3093  0.1618  0.1240
14538W        W24231   9.884   1.960   4.273  0.0402 -0.0395  0.0316
14539W        W24232  11.030  13.056  17.634 -0.4345  0.1499 -0.0333
14540W        W24233   7.228   6.766  15.149 -0.1447  0.2248 -0.2372
14541W        W24234  15.706  16.986  17.199 -0.1374  0.0972  0.2764
14542W        W24235  16.286   8.298  13.097 -0.0786 -0.0160 -0.1206
14543W        W24236  13.562   2.479   5.820 -0.1843 -0.1166 -0.0235
14544W        W24237   7.430   5.065   5.354  0.1932 -0.0147 -0.2411
14545W        W24238   6.729  13.311  13.584  0.1789 -0.0768  0.0384
14546W        W24239   6.494   9.708  17.180  0.2820  0.1731  0.3520
14547W        W24240   8.526  11.579  11.661  0.1670 -0.2353 -0.0560
14548W        W24241   5.889   5.117  16.865 -0.0012  0.0635 -0.0894
14549W        W24242   7.496   4.473   4.896  0.2190 -0.1190  0.0964
14550W        W24243   6.278  16.520  13.068  0.0206  0.1068 -0.1764
14551W        W24244  17.575   9.264   3.236 -0.0714 -0.2214  0.2079
14552W        W24245   3.813  15.576   1.358 -0.0444  0.1009  0.0286
14553W        W24246  16.220   5.097  13.664  0.0876 -0.1000  0.2510
14554W        W24247   4.600  11.107   1.680  0.0364  0.0567 -0.0364
14555W        W24248   9.379   8.624  12.336  0.0915  0.2721 -0.3303
14556W        W24249   4.831   2.464  15.171 -0.0220  0.2588  0.3586
14557W        W24250  15.538   7.987  17.497  0.1803  0.3521 -0.0572
14558W        W24251   9.919  13.641   4.317 -0.2479 -0.1800  0.0510
14559W        W24252  15.559   1.985   3.959  0.0317  0.0218 -0.1891
14560W        W24253  10.620   1.970  15.493 -0.1074  0.1048 -0.2966
14561W        W24254  15.660   1.731  13.713 -0.1907  0.2077 -0.0288
14562W        W24255   9.039   1.432  12.283  0.1453  0.3572  0.0067
14563W        W24256   7.579   0.277  15.134  0.0258  0.0559  0.0023
14564W        W24257   1.175  11.767   2.138  0.0221 -0.1456 -0.0392
14565W        W24258  11.749  15.788   2.662 -0.1837 -0.0706 -0.1683
14566W        W24259  13.038   1.310   2.089  0.1356  0.0715 -0.1004
14567W        W24260   1.040  14.457  16.402 -0.4536 -0.1249 -0.0415
14568W        W24261  17.380  16.677   3.239  0.0951 -0.0280 -0.1304
14569W        W24262  13.369   5.389  16.297 -0.0711 -0.2314 -0.2580
14570W        W24263   1.659   3.447   2.461 -0.0304  0.0620  0.2111
14571W        W24264   6.067   7.359  17.632  0.0603  0.1697  0.1013
14572W        W24265  13.936   8.711  14.267  0.2072 -0.2209  0.2384
14573W        W24266  15.141   5.194   5.399  0.2456  0.1981  0.1604
14574W        W24267   8.468  14.005   3.572  0.4748  0.0952 -0.1540
14575W        W24268   9.346   0.556   3.568  0.3412 -0.1111 -0.0580
14576W        W24269   3.558   8.899  13.849 -0.1155  0.3097 -0.3952
14577W        W24270   1.152   6.279   2.721 -0.3044  0.1185 -0.3378
14578W        W24271  13.985   6.254  16.863  0.0151 -0.0813 -0.0160
14579W        W24272   7.991   4.626  16.243 -0.0528 -0.3843  0.3989
14580W        W24273   8.878   0.208  16.094 -0.2018  0.1463 -0.0844
14581W        W24274  16.083   6.155   3.022 -0.0715 -0.3004 -0.2575
14582W        W24275  11.244  17.233  13.096 -0.1241 -0.0206  0.0919
14583W        W24276   3.897   4.062  16.447  0.0543  0.1090  0.3737
14584W        W24277  10.745  12.650  17.543  0.0585 -0.3863 -0.0683
14585W        W24278   4.715   0.596   0.779  0.1666  0.0620  0.1106
14586W        W24279  16.248  16.325  13.479 -0.3418 -0.0461  0.0530
14587W        W24280   1.378   4.777   5.332  0.2339  0.0775 -0.2542
14588W        W24281   3.261  10.340   6.735  0.2779 -0.0123  0.3146
14589W        W24282   8.396   0.214  13.590 -0.0319  0.0313 -0.0774
14590W        W24283   2.609   6.388  16.139 -0.0270 -0.2219 -0.0885
14591W        W24284   2.254   0.427   2.980 -0.0392 -0.0226 -0.3814
14592W        W24285   3.736  15.576  12.782  0.1525  0.2345  0.0699
14593W        W24286  12.601  14.611  12.362 -0.1109 -0.0414  0.3115
14594W        W24287   7.725   3.610   5.859  0.3114  0.0592 -0.1188
14595W        W24288  12.834   3.566   3.490  0.2338 -0.0910 -0.0318
14596W        W24289   7.455   1.091   0.637  0.0683  0.0046 -0.2027
14597W        W24290  17.349   1.867  16.754 -0.3764 -0.2504  0.1085
14598W        W24291   9.366   2.680  15.166  0.1445 -0.1856  0.1584
14599W        W24292   7.995   4.607  12.511 -0.0595  0.0409  0.1453
14600W        W24293   7.647   0.680  12.680  0.2549  0.0878  0.4043
14601W        W24294  15.990   3.976   0.061 -0.2416 -0.0691 -0.0980
14602W        W24295   6.735   2.486  14.662 -0.1410 -0.0136 -0.2303
14603W        W24296  17.462   3.603   4.661 -0.0302  0.0958  0.0896
14604W        W24297  16.609   4.085   7.013 -0.0951 -0.0402  0.0797
14605W        W24298  16.718  12.426   1.271  0.1378  0.0059 -0.1774
14606W        W24299  13.746   6.554  13.556 -0.0486 -0.0434 -0.2124
14607W        W24300   3.556  17.558  12.093  0.0745 -0.0552 -0.1736
14608W        W24301   2.810  14.978  14.374 -0.0805 -0.1019  0.1257
14609W        W24302  11.731   7.398   1.966  0.2253  0.0042 -0.3776
14610W        W24303   9.744  14.842  12.589 -0.1932 -0.0749  0.1320
14611W        W24304  11.634   0.287   4.861  0.1411  0.1597  0.1327
14612W        W24305   8.529  12.835  13.842 -0.1748 -0.2033 -0.0549
14613W        W24306   5.455  12.300  13.962  0.1258  0.0190  0.2756
14614W        W24307  17.124   2.339  15.060 -0.3869  0.0782 -0.2589
14615W        W24308   2.927   2.008  13.967 -0.3360 -0.1988  0.2793
14616W        W24309   3.706   7.124   3.280  0.6581  0.0260  0.0886
14617W        W24310  10.366  14.490  13.854 -0.0492  0.0155 -0.2439
14618W        W24311  16.926  12.613   4.091 -0.0842 -0.1795  0.0272
14619W        W24312   9.366   5.748   4.983  0.1599  0.0159  0.0923
14620W        W24313  16.990   1.261  14.190  0.1188  0.2750 -0.0852
14621W        W24314  13.449  11.397   0.954  0.1004  0.3304 -0.0092
14622W        W24315   7.011  12.207   6.410 -0.2989 -0.1751  0.1504
14623W        W24316  16.348   8.581   0.169 -0.1348  0.1128 -0.2009
14624W        W24317  13.747  17.310   2.621 -0.3353  0.1793  0.0454
14625W        W24318  12.387   6.429   0.921  0.1171  0.2061 -0.0069
14626W        W24319  13.648   6.094  12.218 -0.0772 -0.1354  0.1677
14627W        W24320  10.772   4.322  13.880  0.0765 -0.0695 -0.0611
14628W        W24321   5.172  11.073  17.494 -0.1269 -0.1574 -0.0074
14629W        W24322  17.463   1.071  12.392  0.0053 -0.0617  0.1691
14630W        W24323   8.530  13.498  13.011  0.1796  0.1092 -0.0252
14631W        W24324   5.629   5.658   5.213 -0.1541  0.0911  0.0618
14632W        W24325   1.879  11.916   4.547 -0.1362  0.1796  0.0896
14633W        W24326   6.157   0.147   3.422 -0.0782 -0.2435  0.0034
14634W        W24327   9.115   3.649  15.855 -0.2033  0.1179 -0.0782
14635W        W24328  16.720   1.842   4.482  0.2341 -0.0268  0.1189
14636W        W24329   3.839  17.030   1.147 -0.1136  0.0049  0.1287
14637W        W24330   6.780   3.077   2.860 -0.2475 -0.0768  0.0381
14638W        W24331   9.464   2.100   5.058  0.0678  0.1166  0.1265
14639W        W24332  13.703  11.266   5.467  0.1352 -0.0447  0.0052
14640W        W24333   3.851  15.039   2.528  0.1318  0.0472  0.0253
14641W        W24334   4.024  15.831  16.317  0.1523  0.0911 -0.0651
14642W        W24335   6.226   5.697  13.453  0.0205 -0.0180 -0.2919
14643W        W24336   4.143   2.874  12.022  0.1327  0.0060  0.1532
14644W        W24337   2.736  11.623  13.657  0.0531 -0.0267 -0.0007
14645W        W24338   6.164   9.660   6.815  0.2550  0.1363  0.0642
14646W        W24339  11.734   8.616  14.732  0.1015 -0.0677 -0.0767
14647W        W24340  15.839   0.905  13.284 -0.1448 -0.0591  0.1207
14648W        W24341  16.104   3.073  16.430 -0.0264 -0.0372  0.0635
14649W        W24342   5.811   8.913   4.272  0.1775  0.0800  0.3054
14650W        W24343  12.227  13.516   1.872  0.1084  0.0319  0.0947
14651W        W24344   1.324   2.900   0.358 -0.0249  0.3124 -0.2853
14652W        W24345  10.693  13.167   4.161 -0.0982 -0.0385  0.1837
14653W        W24346  13.659   4.335   4.287 -0.2224 -0.0453  0.0589
14654W        W24347  10.089   7.162  12.871 -0.1236 -0.0274  0.0682
14655W        W24348  10.958  15.798   2.983 -0.1641 -0.0177 -0.1259
14656W        W24349   6.147  12.110   2.620  0.1710 -0.0105  0.1658
14657W        W24350   6.585  13.953  15.648  0.1550  0.2556  0.3046
14658W        W24351  11.647   0.422   5.540 -0.0255  0.2226  0.0524
14659W        W24352   3.662   3.223  14.252 -0.2390  0.0950  0.1909
14660W        W24353   3.871  11.110   5.452  0.2194 -0.0648 -0.1315
14661W        W24354   1.232   7.267  16.029 -0.1642 -0.1135 -0.0283
14662W        W24355  14.751  12.790   1.789  0.2461  0.3025  0.0716
14663W        W24356  12.672  15.728  15.542  0.2945  0.1878  0.2714
14664W        W24357  13.667   5.801  13.145 -0.1346  0.0289 -0.1701
14665W        W24358   4.124   4.397  14.229  0.0730 -0.1147 -0.0259
14666W        W24359  13.521  15.587  13.151  0.3334 -0.2267 -0.0613
14667W        W24360   5.075  16.065  13.935  0.3600  0.0349 -0.0027
14668W        W24361   7.626   8.727  13.249 -0.2058  0.0953 -0.1970
14669W        W24362   1.059   4.490   1.364  0.1908 -0.1680 -0.1377
14670W        W24363  13.543  10.257   6.287  0.1130  0.0147 -0.1429
14671W        W24364  11.935  11.335  13.800  0.0114 -0.2825 -0.1002
14672W        W24365  13.510  14.349  13.982 -0.0504 -0.2990  0.0565
14673W        W24366   6.644   3.822   0.278 -0.0111  0.1909  0.3761
14674W        W24367  10.427   4.232   5.738 -0.0435  0.0051 -0.2311
14675W        W24368  15.851  12.558  14.705  0.1191  0.0932  0.1102
14676W        W24369   7.150  13.197  17.300  0.0464 -0.1964  0.1368
14677W        W24370  13.024  11.404   1.166  0.0272 -0.0389 -0.1415
14678W        W24371   5.415  13.599   6.194  0.1281  0.2341  0.0016
14679W        W24372   1.284  13.765   6.304  0.1866  0.2821 -0.1763
14680W        W24373   9.948   0.543  14.191  0.0393 -0.1266 -0.1860
14681W        W24374   5.001  17.334  14.894  0.0438  0.4376 -0.3370
14682W        W24375  15.196  12.624  13.363  0.0406  0.0177  0.0059
14683W        W24376   1.824   5.919   2.355  0.3300 -0.0951  0.0675
14684W        W24377   6.826  15.381  14.730  0.2368 -0.2626  0.3840
14685W        W24378   3.455   6.253   6.240 -0.3899  0.0023  0.1661
14686W        W24379  11.016   7.926  12.602 -0.2388  0.3999  0.1152
14687W        W24380   5.274   8.949  14.286 -0.3596 -0.3411 -0.1274
14688W        W24381  11.505   7.101   2.568 -0.1820 -0.2878 -0.3477
14689W        W24382   5.872   2.740   5.856  0.0159 -0.1121  0.3148
14690W        W24383  12.393  14.617   5.810 -0.1238 -0.0447 -0.0420
14691W        W24384   2.136   7.489  15.307 -0.1280  0.0706 -0.2274
14692W        W24385   9.965  12.173  14.191  0.0007 -0.0008  0.1102
14693W        W24386   5.895   0.074  14.238 -0.1352  0.1664 -0.1379
14694W        W24387   7.752   8.554   0.468  0.1762  0.1463 -0.2158
14695W        W24388   4.575   3.153  14.140  0.0654  0.1869 -0.1960
14696W        W24389   3.242  10.746  12.869  0.1037  0.0603 -0.3066
14697W        W24390   5.581   6.787   4.381  0.0028  0.1605  0.1729
14698W        W24391   7.509   2.370  11.842 -0.0440  0.4944 -0.0333
14699W        W24392  12.954   7.452  12.317  0.0890  0.0608 -0.1172
14700W        W24393   5.546  11.862   6.886 -0.0393 -0.3278  0.2185
14701W        W24394  13.835  15.277  13.001  0.0089  0.1386  0.1677
14702W        W24395   7.390   1.184   2.736 -0.5068 -0.2119  0.1885
14703W        W24396  12.414  13.451   3.652  0.4344  0.0186  0.3397
14704W        W24397   0.271  17.457  15.615 -0.1112  0.2349  0.0870
14705W        W24398   1.190   7.323   6.119  0.0371  0.2493 -0.2461
14706W        W24399  11.548  11.343   2.828 -0.1312  0.0850 -0.0646
14707W        W24400  17.012  11.905  17.047 -0.1319  0.0897 -0.1332
14708W        W24401   4.333  15.440  16.694 -0.2274 -0.0755  0.0777
14709W        W24402   4.045   9.670  15.756  0.0143  0.1196  0.4565
14710W        W24403  16.429   1.959   4.000 -0.0737 -0.0418  0.0856
14711W        W24404   9.867   5.429   3.452 -0.0950  0.3078  0.0128
14712W        W24405   7.857  12.777   0.837 -0.1948  0.1306 -0.0439
14713W        W24406  12.792   9.814  12.352 -0.1668  0.0363 -0.1749
14714W        W24407   8.535  12.509  12.357  0.4086  0.1392 -0.1164
14715W        W24408   8.869   7.979   5.985 -0.1962 -0.0446 -0.3228
14716W        W24409  16.104   3.926   6.053  0.0137  0.2445 -0.1764
14717W        W24410  11.658  10.171   2.293  0.0296 -0.1213  0.1730
14718W        W24411   3.543   9.702  13.322 -0.0684  0.1295  0.2317
14719W        W24412  11.198  17.401  16.561  0.1061  0.0371  0.0751
14720W        W24413   6.526   3.724  12.346  0.1618  0.1455 -0.0129
14721W        W24414   0.441   2.752  15.500  0.0098 -0.1252  0.1478
14722W        W24415  16.755   4.999  12.298  0.1647 -0.0418  0.0135
14723W        W24416  13.022   3.519   5.666 -0.3016  0.0366  0.2065
14724W        W24417  17.550   2.093  15.799 -0.2238  0.2792  0.0257
14725W        W24418  13.639  17.428  15.921 -0.3395 -0.0440  0.1782
14726W        W24419   5.459  12.626  12.405  0.1477 -0.2866 -0.0166
14727W        W24420   5.068  16.674   2.934  0.1813  0.2396  0.1517
14728W        W24421  14.462  10.586  13.738 -0.4102 -0.0109 -0.1962
14729W        W24422  10.777   3.432  16.436 -0.4113 -0.0566 -0.2182
14730W        W24423   7.816   6.582   5.683  0.0022  0.2876 -0.2301
14731W        W24424  15.667   3.627   0.954  0.0722  0.1165 -0.2049
14732W        W24425   8.382   4.503  14.165  0.1977 -0.1209 -0.1123
14733W        W24426   8.762   1.709   0.418 -0.0677 -0.0461  0.1939
14734W        W24427   2.138   8.544  14.818 -0.2391 -0.1923  0.2536
14735W        W24428   5.057   9.824   5.472  0.3954 -0.1751 -0.0747
14736W        W24429  13.253   9.732   0.619 -0.0216 -0.1727 -0.4402
14737W        W24430  15.553  11.721  14.895 -0.2026  0.1934 -0.1207
14738W        W24431   9.775   7.981   2.839  0.2409  0.0042  0.0322
14739W        W24432   1.728   5.224  16.056  0.2298 -0.2203  0.0055
14740W        W24433   1.210   3.310  13.791  0.0967  0.2918 -0.0915
14741W        W24434  12.846  13.541   6.441  0.1906  0.0438 -0.1529
14742W        W24435  13.403  11.833   0.677  0.1421 -0.0363  0.0559
14743W        W24436  11.005   4.244  15.975  0.0031  0.1751 -0.1782
14744W        W24437  17.006   8.519   1.819  0.0429 -0.2361 -0.2674
14745W        W24438   4.394  11.661  12.622  0.3487  0.3450  0.2142
14746W        W24439  13.500  16.123   6.463  0.1483  0.0689 -0.2366
14747W        W24440  16.106   4.594   2.522 -0.1359  0.1588  0.1287
14748W        W24441   7.335   5.640  11.142  0.3455 -0.0771  0.0201
14749W        W24442   0.139  10.580  16.067  0.1563  0.1668 -0.1409
14750W        W24443   2.778   3.297   0.126 -0.5099 -0.1713 -0.0349
14751W        W24444   7.315   5.135  11.115  0.0432  0.0601 -0.0902
14752W        W24445   7.726   9.822   1.946  0.2537  0.0435 -0.0041
14753W        W24446  10.422   6.928   6.692 -0.1090  0.1537  0.0353
14754W        W24447   2.292  10.958  17.042  0.1050 -0.1610  0.1867
14755W        W24448   3.256  15.412  11.892  0.0775  0.0183 -0.2239
14756W        W24449  16.300   0.806   3.679  0.0873 -0.0435 -0.0428
14757W        W24450   5.297  12.156  12.817 -0.0584 -0.1572 -0.0905
14758W        W24451  11.606  11.974  13.597  0.0519 -0.1470  0.1077
14759W        W24452   9.369  16.734   1.996 -0.0117 -0.3685 -0.3019
14760W        W24453   3.275  15.698   1.250 -0.0903  0.2249 -0.0165
14761W        W24454   4.531   3.663   4.459 -0.1381  0.1269 -0.3568
14762W        W24455   8.208  15.324  13.368 -0.2228  0.4068 -0.0847
14763W        W24456   3.355   5.219  17.252  0.0632  0.2255  0.0065
14764W        W24457   8.761  14.352   6.351 -0.1451 -0.0489 -0.2704
14765W        W24458   0.077   2.389  15.449 -0.0992 -0.0221 -0.2451
14766W        W24459   7.983   2.188  11.909  0.1764 -0.1936  0.2664
14767W        W24460   9.913   7.680  17.676 -0.1000  0.0903 -0.0318
14768W        W24461   6.027   4.171   0.596  0.0567  0.0966  0.0323
14769W        W24462  17.416  13.969   0.970 -0.1046 -0.2748 -0.2195
14770W        W24463   7.953  13.196  15.533  0.1194  0.2100 -0.3793
14771W        W24464   9.037  14.971  11.469 -0.1273  0.2269  0.4722
14772W        W24465  14.749   3.871  17.384 -0.2576  0.2133  0.2979
14773W        W24466  12.242  14.867   4.499 -0.1253  0.2861  0.2673
14774W        W24467   6.077   8.477  13.786  0.3956  0.0276 -0.5741
14775W        W24468  15.582  11.815  13.628  0.1171 -0.0180  0.4932
14776W        W24469   3.670  10.698  16.335 -0.3564  0.0608  0.1775
14777W        W24470  12.167   3.424  12.123  0.1689  0.0864 -0.3532
14778W        W24471   7.470   5.664  14.586 -0.1230 -0.1835 -0.4412
14779W        W24472   4.346   5.012   0.365  0.0258  0.0464 -0.0811
14780W        W24473  15.922   7.139  12.636  0.1723  0.1337 -0.0392
14781W        W24474   8.503  14.899   3.138  0.2129  0.3250  0.2875
14782W        W24475   9.353   0.145  16.245 -0.0541 -0.2381 -0.0204
14783W        W24476   8.455  11.482   4.768  0.0931  0.3479  0.0088
14784W        W24477  12.883   1.041  16.490  0.1156 -0.2424 -0.0903
14785W        W24478  15.356   4.076   1.376 -0.0365 -0.0076 -0.1124
14786W        W24479  15.972  15.446  12.324  0.0210  0.1970 -0.2503
14787W        W24480   0.647  15.404  12.381  0.1960 -0.1521  0.1110
14788W        W24481   1.180  11.371  12.801 -0.0451  0.0542  0.1869
14789W        W24482  13.818   8.637   6.409  0.2657  0.1944  0.1560
14790W        W24483   6.520  12.938   1.547 -0.0019  0.2525  0.0750
14791W        W24484   6.793   2.146  13.330 -0.2350 -0.1277 -0.1663
14792W        W24485   9.830  12.143  13.508 -0.0532 -0.0812  0.1210
14793W        W24486   5.921  10.509  16.879 -0.1887 -0.2498  0.2438
14794W        W24487  12.102  14.759  11.466  0.1030  0.2240  0.1159
14795W        W24488  13.418   2.862   0.055 -0.2010  0.1588 -0.0028
14796W        W24489   2.520   5.380   1.178  0.1249  0.0211 -0.1939
14797W        W24490  16.055  13.625  14.950  0.1633 -0.1364 -0.1269
14798W        W24491  16.723  14.439   0.711 -0.0129 -0.0766 -0.0188
14799W        W24492   2.056   2.517   1.705  0.0452  0.1119 -0.0082
14800W        W24493   4.904  12.624   0.065 -0.0232 -0.4612 -0.0987
14801W        W24494   1.540  15.238  16.156 -0.0545  0.0974 -0.1470
14802W        W24495  11.438   9.296   0.129 -0.2474 -0.0197  0.3352
14803W        W24496  11.193  11.394   5.243 -0.0802 -0.0144  0.0361
14804W        W24497  10.230   0.531  13.310 -0.0206 -0.0868  0.0318
14805W        W24498   7.750  15.256   4.681  0.0567  0.0002  0.1162
14806W        W24499  16.079  15.154  12.818  0.1897 -0.0091  0.0383
14807W        W24500   1.107   9.494  15.597  0.1251  0.2035  0.0274
14808W        W24501   3.686   0.668   4.145 -0.0936  0.1074 -0.0282
14809W        W24502  12.101  13.437  16.778  0.0630 -0.0116 -0.0871
14810W        W24503   0.287   5.982  15.925  0.0693  0.3941  0.0153
14811W        W24504  13.111  11.758   3.630  0.1161  0.1335 -0.0770
14812W        W24505  10.585  14.137  13.230  0.1143  0.0342 -0.5073
14813W        W24506   6.368   2.150   2.944  0.0660  0.1104 -0.3028
14814W        W24507   2.900  10.930   1.839 -0.0757  0.0500 -0.0052
14815W        W24508  10.191  15.106   3.369 -0.1446  0.0059 -0.3293
14816W        W24509  12.295  17.589  17.326  0.0355 -0.1199  0.3977
14817W        W24510   6.755   3.855   5.315  0.0161  0.1313  0.4559
14818W        W24511  15.333   5.689  15.275  0.0978 -0.0386  0.1027
14819W        W24512   5.836   4.930  17.326 -0.1813 -0.0637  0.1419
14820W        W24513   5.647   7.845  14.395  0.0721 -0.1029 -0.0418
14821W        W24514   5.028   3.890   2.244  0.1269  0.2495 -0.1302
14822W        W24515   1.596   1.388   0.023  0.0917  0.2005 -0.1229
14823W        W24516  10.989   9.295  13.768  0.1466 -0.0119  0.0350
14824W        W24517   0.487  12.322   0.265  0.1185  0.3579 -0.1054
14825W        W24518  14.087   6.474   0.184 -0.0565 -0.1943 -0.0262
14826W        W24519   1.625   5.704  13.123  0.0081 -0.0415 -0.1653
14827W        W24520   4.051  10.015   5.112  0.1054  0.1268 -0.0601
14828W        W24521  11.585   1.548  12.353 -0.5965 -0.0441 -0.2863
14829W        W24522  16.542  10.126  13.647 -0.0207 -0.0293  0.0840
14830W        W24523  16.183   9.155   2.479 -0.0079 -0.0034 -0.0485
14831W        W24524   2.242   6.864   3.704  0.0667 -0.0195  0.0552
14832W        W24525  16.664  11.209   5.405 -0.2489 -0.4093 -0.2440
14833W        W24526   2.260   2.395  10.984 -0.0527 -0.0660  0.1480
14834W        W24527   7.048  11.531   5.827 -0.2324  0.1137  0.0131
14835W        W24528   5.501   4.930  16.026 -0.0491  0.1475  0.0498
14836W        W24529  14.542  16.723  17.429 -0.1918  0.0607  0.2981
14837W        W24530  11.245   0.966   5.464  0.1182  0.1133  0.1527
14838W        W24531   3.841   8.689   6.810  0.2340  0.0157  0.0099
14839W        W24532   2.782  16.439  16.166  0.0107  0.0216  0.2218
14840W        W24533  10.835   1.331  16.851 -0.0585 -0.4324 -0.0490
14841W        W24534  16.885  14.181  12.869 -0.1059 -0.1147 -0.2301
14842W        W24535   8.673  15.855  14.001 -0.1231  0.2798  0.3522
14843W        W24536   3.263   2.490  15.349  0.0939  0.1156  0.1466
14844W        W24537   3.036   0.575   1.041 -0.3680  0.0839 -0.0880
14845W        W24538   4.682  16.357  14.098 -0.3809  0.3574  0.1146
14846W        W24539  12.147   2.900   2.039  0.0474 -0.2966 -0.2989
14847W        W24540   5.995   0.285  11.274  0.0301 -0.1893 -0.2071
14848W        W24541   3.237   8.388  12.739 -0.1995 -0.1612  0.1057
14849W        W24542   7.383   2.758  16.646 -0.1749 -0.2699 -0.0574
14850W        W24543   5.458   4.771  14.644 -0.1193 -0.0755 -0.0549
14851W        W24544  12.728   2.091   5.485  0.0648  0.0715  0.2911
14852W        W24545   0.992  14.334  17.363  0.1711  0.1514  0.0559
14853W        W24546   7.976   5.248   2.864  0.0934  0.0045 -0.2759
14854W        W24547  13.348   2.061  15.561  0.1928  0.0528 -0.1068
14855W        W24548  12.045   8.791  16.199 -0.1023 -0.0344  0.0239
14856W        W24549  14.635   5.885  16.012 -0.2927  0.2864 -0.2192
14857W        W24550  16.041   4.073  12.120 -0.1318 -0.0492  0.1882
14858W        W24551   7.633   8.088   0.817 -0.0822  0.0702  0.1285
14859W        W24552  14.867   4.518  14.966 -0.3039 -0.0965  0.1104
14860W        W24553   7.455  14.049  17.665  0.1137  0.1138 -0.2962
14861W        W24554   6.488   7.828   5.563  0.1672 -0.0257 -0.0222
14862W        W24555   5.731  11.441   0.367 -0.0475  0.1149 -0.0993
14863W        W24556  14.539  16.445  13.598 -0.4064 -0.3129 -0.1548
14864W        W24557  14.448   9.627   5.844 -0.1949 -0.0220 -0.1015
14865W        W24558   6.935  17.267   5.421  0.2130  0.3494 -0.0786
14866W        W24559   9.036  15.770   2.150 -0.0157  0.0500 -0.3151
14867W        W24560   3.918  12.111   2.237 -0.4216  0.2853 -0.1916
14868W        W24561  15.912  16.462   0.980 -0.2824  0.2094 -0.2763
14869W        W24562  13.838   4.685   5.014  0.0391  0.0531  0.0235
14870W        W24563  10.442  14.849   5.781  0.2202 -0.1253 -0.0662
14871W        W24564   0.342   5.532  12.215  0.2527  0.1187  0.2060
14872W        W24565   2.828   4.621  12.939 -0.0598  0.3162  0.0305
14873W        W24566  16.509   6.103  12.310 -0.0910  0.0599 -0.0110
14874W        W24567  11.726  14.077   3.920 -0.2761 -0.2545 -0.1060
14875W        W24568  15.696   5.198  13.494  0.1473  0.0404 -0.2648
14876W        W24569  13.568   0.540   5.477  0.2992  0.0921 -0.2368
14877W        W24570   1.743   9.692  13.666 -0.2464  0.0179  0.1165
14878W        W24571   0.453   2.701   0.733 -0.1223 -0.2854  0.1399
14879W        W24572  12.195   5.313  16.406 -0.2155 -0.2905  0.2227
14880W        W24573   9.124   4.497   6.031 -0.1550  0.0241 -0.1840
14881W        W24574   2.794  14.689   4.975  0.0172  0.2848  0.1851
14882W        W24575   0.863   6.198   0.195 -0.2871 -0.1141 -0.0640
14883W        W24576   9.266   7.523  16.915  0.2319  0.0715  0.1026
14884W        W24577   1.115   2.698  14.512  0.2117  0.4755  0.1590
14885W        W24578   3.241   2.593   4.203  0.0791 -0.0236 -0.1729
14886W        W24579  16.089  16.745   4.365  0.1287 -0.2473 -0.0066
14887W        W24580  11.717   5.717   0.322  0.1275 -0.1222  0.0975
14888W        W24581   5.428  17.346   1.881 -0.1625 -0.1354 -0.2873
14889W        W24582  17.547   9.793  14.299  0.0281 -0.0435 -0.0985
14890W        W24583   0.003   8.303  14.327  0.0053  0.2426  0.1117
14891W        W24584  14.885  13.796  17.009 -0.1077  0.3733  0.0575
14892W        W24585  13.391   3.653   4.291 -0.1781  0.0067  0.2214
14893W        W24586   6.240   4.519   4.202 -0.0151 -0.0528  0.1150
14894W        W24587   6.605  15.213   0.973  0.2310 -0.0288 -0.1609
14895W        W24588   6.740   4.066   1.378 -0.0579 -0.1813  0.1218
14896W        W24589   9.979   8.553   1.475  0.1285  0.1779 -0.1295
14897W        W24590   8.587   7.069  15.296 -0.1182 -0.2793 -0.1635
14898W        W24591  13.802  15.405   4.841  0.0027  0.0213  0.1212
14899W        W24592   8.066   1.709  11.838 -0.1665 -0.2258  0.0129
14900W        W24593   0.407   4.974  13.184 -0.0036 -0.3157 -0.0570
14901W        W24594   5.555  16.958  12.649  0.2639 -0.2209  0.1101
14902W        W24595  17.032  15.216   1.911  0.2758  0.0292  0.0650
14903W        W24596  16.068  16.327  15.407  0.1112 -0.1025 -0.0423
14904W        W24597   9.509  17.062  15.749  0.2564  0.0394  0.4808
14905W        W24598  14.593   8.842  17.367  0.1462  0.0490  0.1532
14906W        W24599   0.873  14.005   5.573 -0.2599 -0.2309  0.1255
14907W        W24600   0.980  12.345  15.262 -0.0917  0.1561  0.0247
14908W        W24601  16.147  12.071   5.722 -0.2338  0.0794 -0.3814
14909W        W24602   5.311  17.553  15.184  0.0914 -0.1275 -0.1544
14910W        W24603   0.721   7.946  13.365 -0.1228  0.2491 -0.1518
14911W        W24604   9.580  13.500  17.367  0.0693  0.0423 -0.1196
14912W        W24605   7.414   6.365   4.041  0.2331 -0.0360  0.0059
14913W        W24606  11.556  13.667   0.620 -0.2451  0.0556 -0.0816
14914W        W24607  10.189   5.300   1.623  0.1706  0.0070  0.3763
14915W        W24608   2.385  15.804  12.616  0.1803 -0.0147  0.0394
14916W        W24609   2.827   0.862   0.687 -0.0321 -0.0780 -0.4456
14917W        W24610   4.295   8.268   5.448  0.2682  0.1449 -0.0054
14918W        W24611   8.752   3.758  15.452  0.1819 -0.3298 -0.2983
14919W        W24612   8.841  17.677   4.988  0.0680  0.1285  0.0696
14920W        W24613  10.041  16.743   5.939  0.1002  0.0848 -0.1858
14921W        W24614  15.133   7.385  13.558 -0.0350  0.0955  0.2793
14922W        W24615  11.567  12.092   5.958 -0.0210 -0.0776  0.1486
14923W        W24616   3.309   6.891  17.113 -0.1777  0.0708  0.1165
14924W        W24617  16.462  11.902  12.205  0.0677  0.0780 -0.2106
14925W        W24618  12.080  16.774  13.779  0.0274  0.3612 -0.2351
14926W        W24619  12.073   4.569  13.563  0.0585  0.0565 -0.3636
14927W        W24620  12.563   4.114   1.048  0.1579  0.3188  0.0298
14928W        W24621  15.880   0.237   1.618  0.1270 -0.0607  0.1637
14929W        W24622  17.026  14.123   4.256  0.1093  0.1231  0.1020
14930W        W24623   4.023   9.027  14.902 -0.2801  0.1465 -0.2520
14931W        W24624   2.855  14.594  12.318  0.0337 -0.0073 -0.1840
14932W        W24625   6.437   3.691  16.118  0.1418  0.3690  0.2724
14933W        W24626   9.319  12.298   3.107  0.1903 -0.0231 -0.1487
14934W        W24627  14.821  10.957   2.394  0.0596 -0.0560  0.1219
14935W        W24628  15.026   6.093  15.101  0.0061 -0.3381  0.0825
14936W        W24629  14.858   0.466  15.916 -0.2411 -0.0348 -0.4154
14937W        W24630  13.586   9.775   0.990  0.0837  0.1629  0.0686
14938W        W24631  15.871  11.129   2.863  0.2437 -0.0037  0.1185
14939W        W24632  11.587   5.375   0.670 -0.2221  0.0372 -0.0881
14940W        W24633  10.686  10.095   5.687  0.0582  0.2140  0.0566
14941W        W24634  11.885   6.201  15.415 -0.1666 -0.0940 -0.1045
14942W        W24635  13.770   2.969  13.940 -0.0074 -0.0691 -0.1383
14943W        W24636   4.030   4.828  14.623 -0.1953  0.1817  0.1925
14944W        W24637  12.886   6.580   2.161  0.2156  0.1653  0.0200
14945W        W24638  14.491  15.252   6.595  0.2059  0.1360 -0.1563
14946W        W24639   0.745  10.048  13.320 -0.4200  0.0052  0.3703
14947W        W24640  17.234  14.392   5.651  0.0192 -0.2159 -0.0046
14948W        W24641   5.043   3.310  14.114 -0.1606 -0.0689  0.1990
14949W        W24642   7.969  11.545   4.724 -0.0906 -0.0973  0.2854
14950W        W24643   8.499  10.453   1.759  0.1463  0.1084  0.2637
14951W        W24644   6.855   2.160  15.552 -0.0023 -0.0459 -0.0015
14952W        W24645   2.773   3.954   2.345 -0.0341 -0.3261  0.0319
14953W        W24646   9.709   3.288  14.209  0.2179  0.2146  0.1161
14954W        W24647   5.022   8.984  15.765  0.0431  0.0405  0.2385
14955W        W24648   8.409   7.698   2.464  0.2451 -0.1281 -0.0927
14956W        W24649   7.735   5.926   0.196  0.2200 -0.3281 -0.0056
14957W        W24650   6.191  17.196  15.547  0.1395  0.0799 -0.1308
14958W        W24651   7.892  11.470   3.758  0.0715  0.1279 -0.2477
14959W        W24652   2.818   9.225   4.919 -0.1471  0.0931  0.0835
14960W        W24653   6.743  12.801   4.418 -0.2545  0.0858 -0.3747
14961W        W24654  16.289   7.499  16.623 -0.1776 -0.2871  0.0778
14962W        W24655  10.140   0.461   3.070  0.2324 -0.1905  0.1543
14963W        W24656  13.399   3.438  12.509  0.0374 -0.1040  0.2243
14964W        W24657   6.580   5.833   4.325 -0.0795  0.1441  0.3273
14965W        W24658  14.356  17.431  16.527  0.2236  0.1197  0.2072
14966W        W24659   4.077  13.605   1.663  0.0993 -0.4109 -0.1599
14967W        W24660  10.294   3.514   1.091  0.0483  0.1062 -0.0442
14968W        W24661   5.867   0.381   4.412 -0.0439 -0.1599  0.0148
14969W        W24662  11.618   1.770  15.214 -0.0492  0.0622 -0.3932
14970W        W24663  10.078  12.547  13.221 -0.1521 -0.0052 -0.1021
14971W        W24664  12.357   0.451   0.863  0.0989 -0.0459  0.1702
14972W        W24665  12.110   1.220   2.987 -0.1456  0.0240 -0.0235
14973W        W24666   3.455  13.420  13.867  0.4450 -0.1932  0.0765
14974W        W24667   4.138  13.298   6.251 -0.0578  0.0162  0.1491
14975W        W24668   9.824  10.640  16.813 -0.0100 -0.0124  0.0818
14976W        W24669  16.766  11.612   6.101 -0.2409  0.2333  0.3290
14977W        W24670   7.372  15.684  13.230  0.1317 -0.1487 -0.3016
14978W        W24671   9.861   6.202  13.815  0.1061 -0.3173 -0.0909
14979W        W24672  11.800   4.589   2.490  0.2080 -0.3597 -0.1674
14980W        W24673  15.691   8.516   0.562 -0.2250 -0.2711 -0.2635
14981W        W24674   8.989   1.019   4.852 -0.0352  0.2555  0.2681
14982W        W24675  15.469   1.157  14.416 -0.0675 -0.0837  0.1693
14983W        W24676  11.219   5.698  13.938  0.2089 -0.0503 -0.1379
14984W        W24677   9.294  10.346  14.446 -0.3957  0.0972  0.1981
14985W        W24678   6.292  14.946  17.545 -0.1741  0.1498 -0.1202
14986W        W24679  14.718   1.980   3.827  0.0992 -0.4017  0.1412
14987W        W24680   5.383   7.395   2.623  0.0493  0.0575  0.0204
14988W        W24681  11.188   3.048  17.081 -0.3391 -0.0851 -0.0011
14989W        W24682  13.012   4.048  15.723  0.0803 -0.0295  0.0844
14990W        W24683   0.803   1.645   0.281  0.0583  0.2887  0.0047
14991W        W24684  14.809   2.855   5.337 -0.0774  0.6366  0.1325
14992W        W24685   2.545  11.075   5.650 -0.0923  0.0384  0.0712
14993W        W24686  16.660   7.851  11.388  0.2987  0.2870 -0.0181
14994W        W24687   1.011   5.984   1.867  0.2292  0.2542 -0.1685
14995W        W24688   0.558   7.198   3.586  0.1369  0.0884 -0.2564
14996W        W24689  14.002   1.720  12.507 -0.0552  0.0520 -0.1795
14997W        W24690   6.479   5.594   1.416  0.2138 -0.0740  0.0791
14998W        W24691   7.750   2.082  15.891 -0.1239  0.1749  0.0952
14999W        W24692   7.898  10.915   1.972  0.0943  0.0101 -0.2786
15000W        W24693   7.446   0.294   4.496 -0.1804 -0.2671 -0.1198
15001W        W24694   9.243  16.619  12.798  0.1447  0.3034 -0.1943
15002W        W24695   1.604   5.687   3.686  0.0234 -0.4031 -0.2858
15003W        W24696   2.182  16.817  17.625 -0.1881 -0.0797 -0.3090
15004W        W24697   5.431   2.233   2.576 -0.4060  0.0317  0.0911
15005W        W24698   0.913   6.469   4.681 -0.0812  0.2450 -0.2828
15006W        W24699  17.258  11.392   3.451 -0.0301 -0.1415 -0.1172
15007W        W24700   4.223   6.663  12.643 -0.1523 -0.1912 -0.3119
15008W        W24701  12.109  11.718   5.009 -0.1006 -0.0327  0.0708
15009W        W24702  16.545  13.513  13.000  0.1752 -0.0439  0.0423
15010W        W24703   2.733   6.644   3.503 -0.1887  0.0398 -0.2799
15011W        W24704   1.129   6.559  15.536 -0.0437 -0.0576 -0.0533
15012W        W24705  16.381   8.827  12.975  0.1178  0.2034  0.1534
15013W        W24706   6.303  12.226   0.827 -0.1190  0.6459  0.1083
15014W        W24707  14.949  17.116   5.307 -0.1471  0.3843 -0.1242
15015W        W24708  10.588  13.333   2.795  0.2049  0.2936 -0.0866
15016W        W24709  10.613  14.930   6.261 -0.0723 -0.4747 -0.0586
15017W        W24710  13.830  15.462  13.483  0.0713 -0.1574  0.1214
15018W        W24711  17.676  15.460   3.651  0.2377  0.2306  0.1274
15019W        W24712   0.004   0.705   0.392 -0.1567 -0.0731 -0.1153
15020W        W24713   2.221  11.280   5.325 -0.3778 -0.1257  0.0917
15021W        W24714  16.070   5.358   3.369  0.0067 -0.2579 -0.2619
15022W        W24715  13.169  17.121  13.738 -0.3285  0.0613  0.2033
15023W        W24716  14.122  15.628  17.018  0.1569 -0.5150  0.1635
15024W        W24717   4.804  13.136   2.460 -0.3130 -0.0296 -0.0942
15025W        W24718  11.499  10.270   1.057 -0.0004  0.0021  0.0985
15026W        W24719   0.039   5.793  15.179  0.3405 -0.1302 -0.1323
15027W        W24720   0.534  16.142  16.240  0.0733 -0.1127  0.0098
15028W        W24721  12.831   7.859   5.056  0.1842 -0.1201  0.2291
15029W        W24722   5.354  11.701  12.633 -0.2168 -0.1848 -0.2274
15030W        W24723   4.688   6.533   1.406  0.1413  0.0099  0.0270
15031W        W24724  10.865   9.851  14.298 -0.0608 -0.0589  0.1077
15032W        W24725  15.243   9.468  15.068  0.1019 -0.2442 -0.1787
15033W        W24726  14.804   8.143  13.798 -0.0410 -0.1050 -0.0874
15034W        W24727  14.589   7.244   4.358 -0.0895 -0.2204 -0.1578
15035W        W24728  15.897   4.284  16.885 -0.3352  0.0278 -0.1294
15036W        W24729  16.058   7.580   6.519  0.3218  0.3968 -0.3014
15037W        W24730  14.466  15.097  17.569  0.0832  0.0794 -0.1453
15038W        W24731  15.945  13.091  14.873 -0.3668  0.1791  0.0520
15039W        W24732   6.745   0.671   4.250  0.0915 -0.2354  0.0102
15040W        W24733   7.196   6.264   3.058 -0.0419  0.0998 -0.1609
15041W        W24734  11.150   7.493  16.190 -0.0719  0.1662 -0.0973
15042W        W24735   0.137   1.216  11.483 -0.1107  0.0053 -0.2980
15043W        W24736  13.862   1.789   2.483  0.2759  0.1197 -0.0061
15044W        W24737   5.419   2.198   3.895  0.1879  0.1746  0.0912
15045W        W24738   4.470   0.766  13.110  0.1728 -0.0579 -0.0863
15046W        W24739  15.402  16.472  16.159 -0.0457  0.1708 -0.0742
15047W        W24740  17.247  16.812  16.588 -0.1991 -0.1271  0.3069
15048W        W24741  11.842   8.579   2.623  0.0009 -0.0414 -0.1893
15049W        W24742  11.518   3.837   3.935 -0.0795  0.0654  0.1511
15050W        W24743  11.529   0.264   2.158 -0.2550  0.1233  0.0128
15051W        W24744   9.907  16.913  13.246  0.3506 -0.1615 -0.0130
15052W        W24745  11.385  13.306   4.060 -0.1193  0.4517  0.2024
15053W        W24746   8.249   1.654  17.167  0.1872 -0.0428 -0.2616
15054W        W24747   9.860   9.674   3.793 -0.1978 -0.1785  0.2273
15055W        W24748  16.576   8.680  13.493 -0.0677 -0.1360  0.1295
15056W        W24749  17.216   4.209   6.207  0.2961 -0.0400 -0.0980
15057W        W24750  15.322  15.023   6.502 -0.2008  0.1144  0.1020
15058W        W24751   4.229   1.203  13.355 -0.1629  0.2081  0.1815
15059W        W24752  15.550   2.039  15.517  0.1036  0.2476  0.0727
15060W        W24753  11.434   4.302   3.973  0.1478  0.0358  0.0130
15061W        W24754   3.290   4.219   3.801  0.1881 -0.0186 -0.2038
15062W        W24755   8.068   8.165   1.114  0.2895 -0.2757 -0.2165
15063W        W24756  11.890  12.975  12.864  0.1303  0.1548  0.2020
15064W        W24757  12.237   5.956   4.517 -0.0049 -0.0098 -0.0819
15065W        W24758   9.816  16.840  14.492  0.0130 -0.3831  0.1350
15066W        W24759  13.829   2.674  17.117  0.0749  0.1529  0.0539
15067W        W24760  15.925   2.580   0.958 -0.1738  0.0093  0.2901
15068W        W24761   6.490   7.591  15.143  0.0523 -0.0405  0.0799
15069W        W24762  14.286  16.838  13.587  0.0321  0.0626  0.3352
15070W        W24763   4.070   7.686   0.229 -0.1486 -0.1397 -0.1098
15071W        W24764   8.202   9.538   1.184 -0.0421 -0.2699 -0.0993
15072W        W24765  17.359   3.156   5.790  0.0877 -0.1369 -0.1545
15073W        W24766  11.575   9.192   6.362  0.0898  0.0419  0.3762
15074W        W24767   4.376   8.147  13.935 -0.0631 -0.0971 -0.1203
15075W        W24768   1.320   9.475   5.757  0.0034 -0.0130 -0.0472
15076W        W24769  10.916  16.291   1.785 -0.1331 -0.1328  0.2303
15077W        W24770  15.870   8.990  16.964  0.0823 -0.2537 -0.0447
15078W        W24771   3.591   7.549  11.675  0.2673  0.0386  0.3053
15079W        W24772  17.311   1.776  13.291 -0.0594  0.2055 -0.1778
15080W        W24773   6.463   1.494   6.435  0.0362  0.1135  0.0270
15081W        W24774   3.195  12.344   4.262  0.3952  0.0714  0.2262
15082W        W24775   1.436   4.908   2.401 -0.0196  0.3025 -0.0242
15083W        W24776  14.878   7.571   1.054 -0.2800 -0.1673  0.3536
15084W        W24777   8.360   9.327   2.448 -0.0236 -0.2924 -0.2202
15085W        W24778   5.145   6.464   3.591 -0.0871 -0.1739 -0.0489
15086W        W24779  14.729   1.467  15.980 -0.0130 -0.0652 -0.1053
15087W        W24780  14.284   0.188   4.778 -0.1641  0.1237 -0.0045
15088W        W24781  10.230  14.492   1.450  0.1287  0.0539  0.0198
15089W        W24782   0.722  12.453   5.177 -0.1403  0.4274 -0.1406
15090W        W24783   3.458   6.835   1.389  0.1288  0.0641  0.1921
15091W        W24784   1.122  15.242   0.834 -0.2419 -0.0054 -0.0079
15092W        W24785  15.843  13.775   6.705 -0.2492  0.1097 -0.3459
15093W        W24786   6.668  10.096  16.429 -0.0875  0.3128  0.0636
15094W        W24787   0.689   9.016   2.496 -0.4205  0.1393  0.3112
15095W        W24788   7.644  17.298  12.472 -0.0502 -0.4238  0.0501
15096W        W24789   9.357   0.011  11.822  0.1072 -0.3492  0.1860
15097W        W24790   7.011   0.448   4.717 -0.1595  0.0884  0.0037
15098W        W24791  14.193   4.724   1.931 -0.0448 -0.1806  0.0564
15099W        W24792  12.897   3.166  17.330 -0.1683 -0.1262  0.2437
15100W        W24793  12.613   6.687  16.702  0.2131 -0.1193 -0.3158
15101W        W24794  12.354   0.802  13.816 -0.1247  0.2511  0.0855
15102W        W24795   1.331  14.071   0.159  0.0948 -0.2018 -0.0163
15103W        W24796   9.699  11.223   4.183  0.2462  0.0831 -0.1537
15104W        W24797  12.530   9.022   4.318  0.1232  0.3075  0.1458
15105W        W24798   2.405   9.678  16.089  0.1791  0.0940  0.1872
15106W        W24799  14.529  12.106  12.259 -0.3578 -0.2105 -0.4007
15107W        W24800   4.369  10.452   4.530 -0.2154 -0.1301  0.0779
15108W        W24801   8.319  15.460  12.924  0.0943  0.0107  0.2879
15109W        W24802   1.112  11.430   3.213  0.1019 -0.0096 -0.0287
15110W        W24803  11.803  10.935   2.784  0.1142  0.1354 -0.1968
15111W        W24804   0.526   9.901   4.114  0.1905  0.0067 -0.1562
15112W        W24805   3.466   3.877   6.257 -0.2791  0.0875  0.0335
15113W        W24806  13.702   0.631   0.815  0.2175 -0.1138  0.2188
15114W        W24807   4.021   9.987   4.590  0.0168  0.0080 -0.0328
15115W        W24808   1.647  12.316  17.275  0.0912 -0.1005  0.1085
15116W        W24809   2.915   5.049  11.923 -0.2620 -0.0864  0.3127
15117W        W24810  15.837   7.000  13.430  0.0468 -0.5227  0.1989
15118W        W24811   8.740   1.144  14.326  0.1344 -0.0011  0.1806
15119W        W24812   4.808  12.607  15.225  0.1829 -0.1330 -0.0753
15120W        W24813   8.215  15.538  11.620  0.2529 -0.0834 -0.4468
15121W        W24814   7.825   2.199   4.391  0.4099  0.2618  0.1278
15122W        W24815  10.867   7.813  17.673 -0.0713  0.1106  0.0257
15123W        W24816  13.976  13.031   1.344 -0.1051 -0.3161 -0.0893
15124W        W24817   5.422  14.583   6.198  0.0311 -0.0375 -0.4424
15125W        W24818  17.453  10.275  17.540 -0.0640 -0.0901  0.0127
15126W        W24819   7.210  16.632   4.231 -0.3181  0.1477  0.0154
15127W        W24820   5.631  13.258   3.773  0.5046 -0.2423  0.2219
15128W        W24821   1.047   0.429  17.121 -0.0014  0.4151  0.0625
15129W        W24822   0.433   0.231   6.196 -0.2549  0.1766  0.2503
15130W        W24823  11.979   4.470   1.596 -0.1536  0.0664  0.0504
15131W        W24824   6.793   2.763   4.430 -0.0835 -0.1089 -0.3267
15132W        W24825   0.169   2.355   5.748  0.0430  0.1341 -0.0779
15133W        W24826  14.989   6.926   3.859 -0.2532  0.3023 -0.3457
15134W        W24827  11.274  17.034   2.398  0.0947  0.0195  0.1790
15135W        W24828   7.071  11.335  12.300  0.0428  0.0977 -0.1119
15136W        W24829  11.439   1.481  12.816  0.0447 -0.0196  0.0689
15137W        W24830   6.971   6.280  13.971 -0.1904  0.1233  0.1815
15138W        W24831  11.658   2.884   0.067  0.0316  0.0148 -0.1269
15139W        W24832  11.325   9.459   5.087  0.0275  0.1031  0.1384
15140W        W24833  16.439   3.452  12.659  0.0604  0.1082 -0.0711
15141W        W24834   3.906  14.902  12.234  0.0931  0.0825 -0.2729
15142W        W24835   2.330   7.755  12.497  0.2144 -0.3089  0.0774
15143W        W24836  10.246  11.731  14.305  0.0060  0.1576  0.3957
15144W        W24837  13.380   5.424   4.563 -0.0171  0.0835 -0.1612
15145W        W24838  16.817   2.909   5.610  0.1108  0.1624  0.1232
15146W        W24839  12.624   4.132   0.175  0.3338  0.0604 -0.2598
15147W        W24840   1.078  15.070   6.780 -0.0382 -0.0139 -0.1238
15148W        W24841   1.217  17.432  11.734  0.2202  0.1162  0.1333
15149W        W24842  10.486  10.901   3.723  0.0567  0.1368  0.0825
15150W        W24843   7.111   1.708  13.376 -0.0997  0.2743 -0.0646
15151W        W24844  11.576   6.880   5.312  0.0218 -0.0335  0.1431
15152W        W24845   8.150   0.662  13.876  0.2296  0.1473  0.1308
15153W        W24846  17.382   5.304  12.790 -0.1330  0.1890 -0.1198
15154W        W24847  15.317   7.639   4.373  0.0808  0.0069  0.1820
15155W        W24848   6.262   3.689   3.507 -0.0499  0.2826 -0.2543
15156W        W24849   1.095   7.771  16.065  0.2310 -0.0051  0.0635
15157W        W24850   8.362  17.649  17.267  0.0650 -0.1054 -0.0855
15158W        W24851   7.327   4.118  17.485  0.0560 -0.2138 -0.2944
15159W        W24852  10.331  15.055  17.652  0.0562  0.2038  0.0250
15160W        W24853  10.606  11.333  13.911  0.1074 -0.0638 -0.0432
15161W        W24854   3.472   6.024   3.882 -0.0239  0.2117  0.1248
15162W        W24855   4.594   1.710  13.994 -0.3140 -0.2267 -0.0007
15163W        W24856   6.313  10.125   0.298 -0.1735 -0.0392  0.0184
15164W        W24857  14.226   8.415   2.167  0.1448  0.0704  0.0866
15165W        W24858  15.382  10.961  16.834 -0.0821 -0.1057 -0.3370
15166W        W24859  10.720   9.295   5.659 -0.1604 -0.3474 -0.1664
15167W        W24860   8.767  14.146  14.172  0.2298 -0.1356  0.3037
15168W        W24861   7.850   6.284  15.328  0.0879 -0.0589 -0.2267
15169W        W24862  16.556  12.913   2.062 -0.1067  0.1907 -0.1861
15170W        W24863   5.158  16.044  14.692  0.0730  0.2479  0.1144
15171W        W24864   2.274  13.131   1.049  0.2166  0.3470  0.4062
15172W        W24865  10.005  13.178   4.650 -0.0847  0.0978 -0.0496
15173W        W24866  13.633  11.789   0.234 -0.3015  0.1619 -0.3043
15174W        W24867  13.589  16.681  15.554 -0.0827  0.0145  0.1977
15175W        W24868  14.707   1.220  12.828 -0.1207 -0.0833  0.0782
15176W        W24869   7.176  16.749   0.917 -0.1350 -0.3378 -0.2478
15177W        W24870  15.683   2.011   0.183  0.0218 -0.3001  0.1093
15178W        W24871   9.426  11.467   2.587  0.1350 -0.0124  0.2647
15179W        W24872  13.673   0.319   4.953  0.0020 -0.2031  0.1672
15180W        W24873   9.907  15.520   4.538 -0.0293  0.1970 -0.1589
15181W        W24874  16.107   4.446   3.077  0.2246  0.3015 -0.0379
15182W        W24875  13.611  11.689   1.874  0.0370 -0.1528  0.3408
15183W        W24876  16.279   7.409  14.819  0.0462 -0.0207  0.2964
15184W        W24877   4.818   7.242   2.811  0.0153 -0.3798 -0.3570
15185W        W24878  14.927  16.467   6.571 -0.3252  0.1444 -0.2506
15186W        W24879  15.354   9.293  14.534 -0.0473  0.3145 -0.0869
15187W        W24880   4.940   5.248   0.850  0.0610  0.0824  0.0214
15188W        W24881   0.331   9.542   3.211  0.3163 -0.1476  0.2259
15189W        W24882   6.923   8.524  15.999 -0.0074  0.3140 -0.0366
15190W        W24883   9.295  14.047  12.653 -0.1027 -0.0181 -0.0639
15191W        W24884  15.665  10.306   1.600  0.1876  0.3140  0.0633
15192W        W24885  11.157   8.420   2.096  0.0629 -0.1544 -0.2726
15193W        W24886  11.626  17.180   3.934  0.0395 -0.0126 -0.1283
15194W        W24887   0.913  12.793   6.108  0.0087  0.0302  0.0069
15195W        W24888   6.645   1.396  14.953 -0.0650 -0.1270  0.1362
15196W        W24889   2.604  14.092  16.284 -0.2298 -0.1246 -0.0465
15197W        W24890  11.166  12.023   1.338  0.1663 -0.0199  0.2427
15198W        W24891  14.586  14.570   7.016  0.1276 -0.0892 -0.5364
15199W        W24892   4.545  11.553   1.520 -0.1475 -0.0374  0.2753
15200W        W24893   4.308   5.604  16.123  0.1933 -0.0229 -0.1601
15201W        W24894   0.057  15.484  17.439  0.0221 -0.1262 -0.1086
15202W        W24895   5.168  10.814   0.674 -0.1863  0.3769  0.2218
15203W        W24896   2.938  12.137   2.845 -0.2181  0.0236  0.0897
15204W        W24897   9.148  13.016   2.654 -0.0449 -0.2195  0.1505
15205W        W24898  14.396   6.396   2.725  0.2760  0.1250  0.1264
15206W        W24899   7.820  10.754  15.736  0.0715 -0.3170  0.1198
15207W        W24900  12.890  16.754   0.357  0.3819  0.3303  0.1829
15208W        W24901   7.473  11.481   4.582 -0.2916 -0.3423  0.1086
15209W        W24902   9.329   9.431  16.171 -0.0109  0.0859 -0.0038
15210W        W24903   1.033  10.595  14.015  0.0767 -0.0380  0.0939
15211W        W24904  15.573   2.117  17.399  0.0326 -0.2390  0.0070
15212W        W24905   7.466   3.309   0.449  0.0642 -0.1101 -0.1556
15213W        W24906   4.864   6.413   5.678 -0.0579 -0.2581 -0.2366
15214W        W24907   1.256   3.818   2.567 -0.0862  0.1345  0.3492
15215W        W24908   5.654   7.410   1.258  0.0759  0.3050  0.0172
15216W        W24909  16.483  12.114   6.148  0.1624 -0.0404 -0.2513
15217W        W24910  13.177   7.361   3.615  0.2086 -0.0729  0.1562
15218W        W24911   2.177  14.447  15.005 -0.1849  0.0611  0.1122
15219W        W24912   8.844   9.052  14.104 -0.0372  0.3825  0.1677
15220W        W24913  13.131  11.030   0.895 -0.2739 -0.3140  0.1065
15221W        W24914   6.724  11.116   5.878 -0.1213 -0.0630  0.0584
15222W        W24915   1.462  17.659   5.060  0.1392 -0.3621  0.1807
15223W        W24916   5.472  14.198   2.952 -0.0738 -0.1474 -0.0601
15224W        W24917   0.268   9.916   6.233  0.3130 -0.1621  0.0672
15225W        W24918   4.979   0.029  16.365  0.0345  0.0421 -0.0535
15226W        W24919  15.606  11.219   1.820  0.0712 -0.0049 -0.4148
15227W        W24920  14.210  11.760   5.611  0.2372 -0.3275 -0.0806
15228W        W24921  13.913   4.010   0.833 -0.0659 -0.2109 -0.0657
15229W        W24922  11.113  10.718  12.959 -0.1014 -0.2337  0.4445
15230W        W24923  13.901   1.233   4.880 -0.0717  0.4368 -0.1466
15231W        W24924   5.061   4.523  12.254 -0.0265  0.1985  0.0248
15232W        W24925   9.205   7.188   2.639  0.2017 -0.0605  0.0260
15233W        W24926  15.272  13.077  15.702 -0.2340  0.1846  0.1153
15234W        W24927  11.941   3.980  12.449 -0.0513 -0.0698  0.0425
15235W        W24928  12.544   9.121   2.588 -0.0309 -0.1245  0.1280
15236W        W24929   9.610  12.622   6.158  0.0219  0.1092  0.2078
15237W        W24930  16.459   2.407   5.517  0.4333 -0.2139 -0.2851
15238W        W24931   8.295   8.374  14.815  0.2032  0.0094  0.0624
15239W        W24932   8.797   0.143  14.783  0.0835  0.1329 -0.0007
15240W        W24933   8.066   2.093  13.508 -0.0177 -0.0752  0.3259
15241W        W24934   6.212   6.256  16.595  0.0363  0.1818 -0.0559
15242W        W24935   5.445  10.578  12.367  0.1060 -0.1207 -0.1078
15243W        W24936   0.457  10.670   1.494 -0.0904 -0.1667 -0.0179
15244W        W24937   7.940   7.693  14.521  0.1114 -0.0305  0.2665
15245W        W24938   9.920  17.584  11.989  0.0664 -0.1031 -0.1147
15246W        W24939  15.628   3.333   2.204  0.0148  0.1282  0.3146
15247W        W24940  15.097  14.903  16.721 -0.0941 -0.0410 -0.3123
15248W        W24941   5.305   0.380   5.987 -0.0572 -0.0399  0.0173
15249W        W24942  10.883   7.700   3.293 -0.0241  0.1458 -0.1747
15250W        W24943   5.477   0.559  16.633  0.0372 -0.0366 -0.0230
15251W        W24944  14.334   2.150   3.429  0.1937  0.1554  0.2883
15252W        W24945   1.422   8.322  12.619 -0.0259  0.1397  0.0353
15253W        W24946  13.456  17.074  13.293 -0.2424  0.0167  0.1909
15254W        W24947  13.008   3.943   2.695 -0.0882 -0.0609 -0.1201
15255W        W24948   3.242   8.514  11.898 -0.0497  0.0283 -0.2247
15256W        W24949  14.794  14.996   5.664  0.2962 -0.0625  0.1076
15257W        W24950   0.532  16.807  16.438  0.0069 -0.2270 -0.1382
15258W        W24951  10.705   0.595  12.322 -0.1668 -0.2534  0.0393
15259W        W24952   0.605   2.224   0.415 -0.2384 -0.0763  0.0630
15260W        W24953   3.339   7.941   1.956 -0.1001 -0.2874  0.0566
15261W        W24954  17.334  14.409   6.651  0.0362  0.2681  0.0854
15262W        W24955  14.698  11.369   2.059  0.2240 -0.2999  0.0897
15263W        W24956  17.565   6.401  14.522 -0.0412  0.1708 -0.0418
15264W        W24957  13.651   6.318   3.572  0.1863 -0.0988 -0.0754
15265W        W24958   8.724   3.597  13.115  0.1375  0.2512 -0.2334
15266W        W24959   9.641  15.994  16.101  0.0436  0.0350 -0.0185
15267W        W24960  14.333  11.807  13.062  0.0544  0.2959  0.1270
15268W        W24961   9.072  10.971   4.683 -0.1363 -0.0179  0.1012
15269W        W24962   1.207   1.152  16.586  0.4668 -0.3339  0.0362
15270W        W24963  15.493  15.811  13.069 -0.1550 -0.3989  0.1589
15271W        W24964  11.407   6.681   1.436  0.2778  0.1974 -0.1896
15272W        W24965  15.003  12.105   5.209 -0.1014 -0.0590 -0.0218
15273W        W24966   8.058   2.227   5.520 -0.1393  0.0196  0.0587
15274W        W24967   2.398  16.330  11.779 -0.3397  0.2790 -0.2486
15275W        W24968  13.853   2.886   5.588  0.0602  0.1698  0.2228
15276W        W24969  12.732   1.873   4.999  0.0350 -0.1023  0.0742
15277W        W24970   6.262   9.885  11.595  0.1944  0.1567  0.1082
15278W        W24971   1.630   8.317   3.875  0.1926  0.3025  0.1678
15279W        W24972  13.750  13.940   1.406 -0.1784 -0.0313 -0.2804
15280W        W24973   5.797   3.586   4.902  0.1043  0.2109  0.0449
15281W        W24974  10.535   2.449  16.187 -0.0982  0.0384  0.1623
15282W        W24975   8.803   7.147   4.730  0.1142  0.1208 -0.0442
15283W        W24976   7.859   8.458   5.235  0.2116 -0.3316  0.2527
15284W        W24977  12.875   3.311  13.327 -0.0213 -0.0581 -0.2490
15285W        W24978   2.845  14.163   4.945  0.1283 -0.0382 -0.0030
15286W        W24979   4.368  17.178  13.847  0.0298  0.0186  0.0695
15287W        W24980   4.005  15.530   2.273 -0.0724  0.0857 -0.3368
15288W        W24981   6.602  16.948   2.237  0.3063 -0.1113 -0.1834
15289W        W24982  15.717   8.644  16.628  0.0433 -0.1897  0.1516
15290W        W24983   5.188  10.972   2.408 -0.1926 -0.0031  0.0428
15291W        W24984   7.782   1.465   1.709 -0.0714 -0.1496  0.3405
15292W        W24985   8.617  15.875  13.005 -0.1911 -0.1043  0.0015
15293W        W24986  14.774  12.592   7.191  0.2142  0.0903  0.1061
15294W        W24987  10.712  11.321  14.457  0.2357  0.1052  0.0279
15295W        W24988   0.627   4.384  15.751  0.1854 -0.4961  0.0712
15296W        W24989   7.795   4.320  12.851  0.0075 -0.0870 -0.4226
15297W        W24990  12.250  12.275   2.208  0.3313 -0.3833  0.1542
15298W        W24991   2.007  10.581  13.487  0.1150  0.0381 -0.0954
15299W        W24992  11.325  16.169   4.883 -0.0519 -0.0775 -0.1205
15300W        W24993  16.869   1.273   4.378 -0.1422 -0.0030  0.1050
15301W        W24994   1.812   7.482   2.149  0.2788  0.0949  0.1176
15302W        W24995   6.564  15.994  11.662  0.2549  0.1152 -0.2470
15303W        W24996   5.788  10.583   1.831  0.1322  0.2191 -0.0701
15304W        W24997   2.334   1.763   3.868 -0.0705  0.0602  0.1407
15305W        W24998   2.754  15.533   4.355 -0.3828  0.1016 -0.0196
15306W        W24999   4.633   3.169  14.985 -0.1258 -0.0755  0.1768
15307W        W25000   8.401  10.755  13.210 -0.0035 -0.4639  0.1514
15308W        W25001   4.512   1.291   3.562  0.0763  0.0642 -0.1077
15309W        W25002   3.255  14.817  14.188  0.1102  0.0444 -0.0605
15310W        W25003   4.057   3.090  12.476  0.1824 -0.1017 -0.1162
15311W        W25004  17.610  14.728  12.495 -0.1801 -0.0008  0.2571
15312W        W25005   2.954   4.696   2.324 -0.0321  0.1968  0.0472
15313W        W25006  15.532   7.976   4.082  0.2099 -0.0373  0.0382
15314W        W25007   4.193  13.280   1.326  0.1252  0.0216  0.1705
15315W        W25008  10.544   0.604  11.847  0.0311 -0.3150  0.0910
15316W        W25009   3.190  15.883  13.463  0.0380  0.0181 -0.1890
15317W        W25010  12.054  14.731   6.582  0.1007 -0.1701 -0.3096
15318W        W25011  12.947   9.174   6.170  0.0309  0.1439 -0.1158
15319W        W25012   3.476   6.899   1.869 -0.3216 -0.0751 -0.3554
15320W        W25013  16.077   4.699  16.534 -0.2523 -0.1650  0.0937
15321W        W25014   6.184  16.809   4.917  0.1947  0.1751  0.2349
15322W        W25015   1.751   5.808  13.592  0.0627  0.0547 -0.2746
15323W        W25016   0.308  12.585   3.079  0.0846  0.0675  0.0978
15324W        W25017  16.861   7.451  16.134  0.1030  0.2860 -0.2136
15325W        W25018   6.038  16.871  14.101 -0.0401 -0.3558 -0.1049
15326W        W25019   2.241  13.721   3.068 -0.0232  0.2067  0.1852
15327W        W25020  11.690   5.353   1.196  0.1339  0.0667 -0.2239
15328W        W25021  17.497   6.649   5.349  0.2125  0.0563 -0.0978
15329W        W25022  10.711   1.878   0.792  0.1590 -0.1340 -0.1910
15330W        W25023  11.658   3.818   0.269 -0.0873 -0.2484 -0.2865
15331W        W25024  10.981  17.530   1.602 -0.0311  0.1892 -0.1765
15332W        W25025   6.000  10.932   2.157  0.4221 -0.2808  0.2217
15333W        W25026   6.981   0.737   3.386  0.1097 -0.1334  0.0718
15334W        W25027   3.956   5.831   3.758  0.0497 -0.0053  0.2408
15335W        W25028   1.062   8.122   2.118  0.3375  0.0843 -0.3275
15336W        W25029   6.981   0.694  15.556  0.2572 -0.2594  0.0315
15337W        W25030   8.287   3.115  11.840 -0.0464  0.1408 -0.3460
15338W        W25031  14.627  10.989   5.660  0.3690  0.1218 -0.0810
15339W        W25032   9.303  14.565   0.472 -0.1412  0.3767 -0.0982
15340W        W25033   2.893  13.380   4.484  0.0211  0.0507  0.0846
15341W        W25034  12.013  14.386  15.313 -0.2262 -0.0400  0.1254
15342W        W25035  16.681   9.323   1.896  0.0266 -0.2277 -0.0551
15343W        W25036  11.083  10.176  12.574 -0.2980 -0.1934 -0.2681
15344W        W25037  10.886   6.015   6.414 -0.0451 -0.0688  0.0851
15345W        W25038   1.669  13.878   2.042 -0.0272  0.2677 -0.0517
15346W        W25039   2.856  15.680   5.029 -0.0632  0.1914  0.3314
15347W        W25040   8.265  15.521  15.037  0.0712 -0.0768  0.1486
15348W        W25041  15.540   1.609  15.268 -0.2507 -0.1765  0.0448
15349W        W25042   9.875   9.818  15.287 -0.4391 -0.0814  0.5404
15350W        W25043   2.564   9.759  14.751  0.1204  0.0265  0.1200
15351W        W25044  10.382   1.391  17.126 -0.0825  0.0512  0.1491
15352W        W25045  10.098   5.935   6.059 -0.0019  0.0443  0.0276
15353W        W25046   2.047  11.314  15.286 -0.1371 -0.0825 -0.0678
15354W        W25047   2.848  13.678  12.531 -0.2760 -0.0840  0.2008
15355W        W25048   3.752   8.865  16.001  0.0897  0.1497  0.2494
15356W        W25049   9.318  11.716   4.200  0.0012 -0.1975  0.2111
15357W        W25050  16.956  12.083   6.301 -0.0933  0.3726  0.1331
15358W        W25051   5.984  13.198   5.445 -0.0305 -0.0945 -0.1593
15359W        W25052   6.475   3.858   1.810 -0.2007  0.1324  0.5557
15360W        W25053   9.455   9.012   0.099  0.2984 -0.1350 -0.1752
15361W        W25054   8.912   3.075  13.791  0.2403  0.3452  0.0764
15362W        W25055  10.357   3.482  10.934 -0.4134  0.1386  0.1443
15363W        W25056   7.882   9.129   1.148  0.2219  0.0967 -0.0642
15364W        W25057   6.880  15.730   0.118 -0.3280  0.2423 -0.3775
15365W        W25058   0.839   0.797  16.137  0.2313  0.3420  0.2506
15366W        W25059   3.419   8.467   1.185  0.1524 -0.1594  0.1806
15367W        W25060   6.991   9.023   2.972  0.0052 -0.2354  0.0701
15368W        W25061   0.332  12.956   5.888  0.2651  0.1244  0.0631
15369W        W25062   5.421  14.276   1.522  0.3523 -0.2416 -0.1279
15370W        W25063   2.539  11.626   0.123 -0.1657 -0.0123 -0.0142
15371W        W25064  11.625   1.367   3.028  0.0030 -0.2456  0.2581
15372W        W25065   4.948   2.219  17.477  0.0166  0.0400 -0.1151
15373W        W25066   4.864   0.563   1.968  0.1452  0.0672 -0.4201
15374W        W25067   3.867   7.688  12.559  0.0990  0.1007  0.0177
15375W        W25068   7.518  16.845   5.033 -0.0617 -0.0616 -0.0369
15376W        W25069  11.528   6.942  12.807  0.0088 -0.0743  0.2703
15377W        W25070   6.519  15.937  15.425 -0.0623 -0.2181 -0.2511
15378W        W25071   9.401  13.645   0.702 -0.2468 -0.2459  0.1146
15379W        W25072  10.505  13.396  14.418 -0.0763  0.1656 -0.1203
15380W        W25073   2.204   2.223  16.217 -0.2491 -0.4678  0.0050
15381W        W25074   9.770   0.593   4.203 -0.1202  0.4207 -0.0243
15382W        W25075   3.529   2.822   2.425  0.3400 -0.5050 -0.0412
15383W        W25076   5.391   7.338  15.687  0.1149 -0.0229  0.1239
15384W        W25077   7.907   7.492   3.397  0.0478 -0.5239  0.0330
15385W        W25078   3.966   7.445   4.399  0.2918 -0.1169 -0.0593
15386W        W25079   1.459  10.035   5.791  0.2226  0.2198 -0.2372
15387W        W25080  11.110   5.863   4.561 -0.1673  0.3270 -0.0185
15388W        W25081   7.238  15.252  12.148  0.0761 -0.4458 -0.1424
15389W        W25082   0.456   1.251   2.958  0.1479  0.1618 -0.0870
15390W        W25083   8.165   0.608   1.353  0.2927 -0.2480 -0.0463
15391W        W25084   1.422  16.290  16.043 -0.2662  0.1690 -0.3830
15392W        W25085  11.524   6.543  16.552  0.1678 -0.2022  0.0142
15393W        W25086   6.302  16.382  14.162  0.2485 -0.1193 -0.1736
15394W        W25087   8.834  16.665  15.329 -0.0560  0.2556  0.0269
15395W        W25088   4.249   7.236  11.687 -0.3670 -0.3279 -0.3301
15396W        W25089   9.364   8.733  15.578 -0.0484  0.1665 -0.0315
15397W        W25090   2.439  16.621  15.538 -0.0118 -0.4016 -0.4647
15398W        W25091   2.942   2.671   7.427  0.0549  0.0507  0.3647
15399W        W25092   2.503   0.137  12.909  0.0354 -0.0944  0.0905
15400W        W25093   4.553  12.354  12.959 -0.1463  0.3150 -0.0621
15401W        W25094   7.397   9.863  17.646  0.1843 -0.0761  0.1520
15402W        W25095  16.697   5.871  14.603  0.0300  0.1268 -0.1185
15403W        W25096   4.827  13.578   3.107 -0.2387  0.3922  0.0528
15404W        W25097  14.667  10.876  13.293  0.2076  0.0399  0.0834
15405W        W25098   0.700   5.437  14.743 -0.2569  0.4947  0.2415
15406W        W25099   5.094   0.482  16.979 -0.0801 -0.1297 -0.2389
15407W        W25100   5.888  13.431   1.520 -0.1778 -0.0788  0.2350
15408W        W25101  12.125  17.103   1.123  0.3882  0.1866 -0.1406
15409W        W25102   6.707   2.698   3.927  0.1301 -0.0558  0.0031
15410W        W25103   8.045   1.234  14.719  0.0260  0.1038  0.2947
15411W        W25104  17.579  16.414   1.033  0.0095 -0.1081  0.0674
15412W        W25105   7.718   0.607   5.184  0.0501  0.0167  0.3162
15413W        W25106   3.345   3.943   1.953  0.2766 -0.0147 -0.0993
15414W        W25107   7.401  12.256   2.506  0.0624 -0.3997  0.1594
15415W        W25108   9.881   5.167  11.601 -0.1603  0.0295 -0.2233
15416W        W25109  12.923  10.867  14.616  0.2334  0.2309  0.1413
15417W        W25110  12.356   8.246  15.857 -0.3844 -0.0451 -0.1025
15418W        W25111   7.050   4.288  11.686  0.0263 -0.0865  0.0020
15419W        W25112   3.818   9.299   3.101  0.1580  0.1387 -0.5544
15420W        W25113   4.578  14.129  11.854  0.0416 -0.1048  0.1683
15421W        W25114   9.719  15.347   0.641  0.7351  0.0831 -0.0197
15422W        W25115  14.005   8.493  12.379  0.0439  0.3634  0.0746
15423W        W25116  11.527  10.438   4.197 -0.2876  0.0175  0.1810
15424W        W25117   6.814   0.856  15.109  0.1150 -0.1182 -0.1945
15425W        W25118  11.312   5.245  16.249 -0.0610 -0.0556  0.1414
15426W        W25119  10.656   3.125   2.893 -0.3459  0.1721 -0.1120
15427W        W25120   1.997   4.543   1.227 -0.1949 -0.3186  0.1730
15428W        W25121  13.997  11.798   2.849  0.1094 -0.0583  0.1116
15429W        W25122   5.037   1.996   5.159 -0.0478 -0.0008 -0.0662
15430W        W25123   6.709  16.440  15.294 -0.1905  0.0480  0.2545
15431W        W25124  16.995  14.148   5.306 -0.3394  0.1179  0.1493
15432W        W25125  10.458   9.378  17.092 -0.2136 -0.2451  0.0738
15433W        W25126   0.822  11.834  17.550  0.0655 -0.0266 -0.1045
15434W        W25127   7.480   8.025   4.518 -0.2121 -0.1142  0.1400
15435W        W25128  14.928  10.367   2.623  0.2400  0.0410  0.1092
15436W        W25129  16.387   4.331   4.081 -0.1960 -0.1320  0.3459
15437W        W25130   6.000  13.419  14.972 -0.3437 -0.0449  0.1608
15438W        W25131  15.877  14.512   2.311  0.0232  0.1428  0.0090
15439W        W25132  11.002   6.859  17.302 -0.3394 -0.0032 -0.4221
15440W        W25133  13.835  12.737   5.760  0.0207  0.0687  0.0314
15441W        W25134  13.646   6.928   5.412 -0.2158 -0.1953  0.2348
15442W        W25135  17.397   0.627   2.527 -0.1398 -0.0025  0.0740
15443W        W25136  13.968   4.505   0.745  0.1314 -0.1022 -0.0765
15444W        W25137  13.358  11.603   6.049  0.0436  0.0543  0.2333
15445W        W25138  16.385   0.096  14.615  0.1134  0.1097 -0.2143
15446W        W25139  14.294  14.867   5.556 -0.1474  0.2587  0.2350
15447W        W25140   4.874   9.805   1.378  0.0662 -0.0426  0.0250
15448W        W25141  17.343   2.168   1.472 -0.2220  0.0457  0.0563
15449W        W25142   3.203   6.837   5.679 -0.0157  0.1167 -0.2146
15450W        W25143   1.435  12.134  15.872  0.1039 -0.1297 -0.3254
15451W        W25144   5.578   9.750  14.507  0.0307 -0.3329 -0.2656
15452W        W25145   3.959   1.817  17.005  0.0105  0.0215 -0.0280
15453W        W25146   1.783  13.022   4.642  0.1248 -0.0879  0.0201
15454W        W25147  10.863   2.059  12.222  0.1980  0.0215  0.0863
15455W        W25148   0.621  16.148   6.252 -0.0260 -0.2033 -0.1807
15456W        W25149   5.447  14.521  17.648  0.1022  0.1551  0.2120
15457W        W25150  16.077  12.857   1.974  0.6793  0.1467  0.1294
15458W        W25151   8.948   8.135  16.831  0.1655  0.0898 -0.0064
15459W        W25152   8.817  15.209  17.588  0.1847 -0.2502 -0.2449
15460W        W25153   8.539  16.998   2.653  0.1675 -0.1012  0.1914
15461W        W25154   2.633  15.951   3.315 -0.1854 -0.1546  0.0996
15462W        W25155   8.165   5.175   3.920  0.2815 -0.0732 -0.0757
15463W        W25156   6.420   3.737   1.257 -0.1258 -0.0607 -0.0630
15464W        W25157  16.928   3.367   5.812 -0.2737 -0.5508 -0.0432
15465W        W25158  11.474  13.471   2.987 -0.3297 -0.0482  0.0478
15466W        W25159   8.697   1.965   1.123 -0.2151 -0.1181  0.3793
15467W        W25160   6.744  10.390  16.887 -0.2707  0.2114  0.0538
15468W        W25161  11.372   3.081  12.668  0.1343  0.0951 -0.1599
15469W        W25162   8.126   6.947   4.614  0.0905  0.3395  0.4069
15470W        W25163  17.166   9.161   3.701  0.1934  0.1073 -0.0060
15471W        W25164   5.856   4.019  12.054  0.0677  0.0953 -0.0672
15472W        W25165   0.858   4.726  17.327  0.2202  0.1306  0.0460
15473W        W25166   6.936   8.633  11.974 -0.1512  0.3293 -0.0754
15474W        W25167  11.147  16.682   2.015 -0.1257  0.1318 -0.2171
15475W        W25168   0.733   7.312  15.086  0.0187  0.1776 -0.0632
15476W        W25169   6.115  16.312   1.469  0.2186  0.0607 -0.0884
15477W        W25170   9.011  12.927  16.347  0.1070 -0.0170  0.1609
15478W        W25171  12.085   9.167   0.547 -0.3377 -0.4433 -0.3502
15479W        W25172   7.165   8.738  15.642 -0.0550  0.1304  0.1135
15480W        W25173   7.009   2.075   6.182 -0.1031  0.0757  0.1938
15481W        W25174   2.488   4.057  16.529  0.1877 -0.1818 -0.0831
15482W        W25175   4.274  10.051  14.756 -0.3484 -0.0530 -0.1560
15483W        W25176  16.896  16.693   5.006 -0.0106  0.0472  0.4532
15484W        W25177   5.294   1.727   4.215  0.2280 -0.0824  0.2008
15485W        W25178   6.828  13.259  12.112 -0.1219 -0.0256  0.5110
15486W        W25179  17.471   4.048   4.306  0.0178 -0.3643 -0.1535
15487W        W25180  15.729   3.581  11.528 -0.2057  0.4142 -0.2947
15488W        W25181  10.533   5.063   2.813  0.2898  0.0284  0.2762
15489W        W25182   4.034  16.729   0.050  0.1428  0.0641  0.0611
15490W        W25183   6.098  12.977   2.045  0.0683 -0.0785 -0.2714
15491W        W25184  12.155   8.131   4.482 -0.1185  0.2208 -0.2242
15492W        W25185  17.617   8.794  14.221 -0.0258  0.0865 -0.2324
15493W        W25186  14.241   1.565   5.872  0.0624  0.0724  0.3287
15494W        W25187  14.362   7.985  16.409  0.1695 -0.2149  0.0604
15495W        W25188   1.951   0.905  14.468  0.1070 -0.0185  0.1266
15496W        W25189   4.144  12.943  16.467  0.0663 -0.2394  0.1373
15497W        W25190   5.854   7.316   1.762 -0.2291  0.2519  0.1186
15498W        W25191  10.087   2.030   2.232 -0.1470  0.1488 -0.0007
15499W        W25192   1.764   8.300  13.716 -0.0119 -0.2116 -0.1465
15500W        W25193  10.188  11.287  17.276  0.2141  0.2133  0.1829
15501W        W25194  16.318  15.497   1.213 -0.2392 -0.0989 -0.0238
15502W        W25195  15.642  10.795   0.299 -0.0609  0.3141  0.0130
15503W        W25196   9.425  13.667   4.258 -0.0931  0.0292 -0.1057
15504W        W25197   2.083  17.367  11.295  0.3565 -0.0113 -0.0733
15505W        W25198   7.740   3.612  16.842  0.1929  0.2648 -0.1019
15506W        W25199  16.192  14.429   1.437  0.2787 -0.1655  0.2290
15507W        W25200  12.083   4.930   6.428 -0.0367  0.0603  0.1096
15508W        W25201  12.669  12.227   4.887  0.0469  0.1128  0.3327
15509W        W25202  11.031   9.101  14.204 -0.2278  0.1536 -0.0460
15510W        W25203   8.956   6.296  12.833 -0.0019  0.0516  0.2437
15511W        W25204   1.318   0.380   3.288 -0.1212 -0.2678 -0.0918
15512W        W25205  14.599  11.906   0.929  0.0060  0.2449  0.0243
15513W        W25206  14.698  11.063  15.731 -0.2409  0.2934 -0.2862
15514W        W25207  10.187  12.605  16.045  0.2302 -0.0564 -0.1334
15515W        W25208   0.860  11.414   5.460 -0.0881 -0.1161 -0.1432
15516W        W25209  10.430   6.260  11.762 -0.0472 -0.1044 -0.1195
15517W        W25210   7.172   9.951   3.272  0.0830  0.0384 -0.1057
15518W        W25211   4.238   5.761   5.064  0.2309  0.0438 -0.0593
15519W        W25212  12.182  16.896   4.030 -0.2484  0.2108  0.1664
15520W        W25213   1.400   0.215  14.906  0.0092  0.0792 -0.1946
15521W        W25214   7.346   8.183  12.030  0.2462 -0.2710 -0.1883
15522W        W25215   1.374   9.196   4.863 -0.0123 -0.2200  0.1590
15523W        W25216   2.161  17.190  11.803 -0.0525 -0.0973 -0.0420
15524W        W25217   2.484   2.896   4.692  0.1004  0.0120  0.2798
15525W        W25218  13.266  11.268   3.809 -0.0039 -0.0495 -0.0069
15526W        W25219  15.601   9.443  12.772 -0.0381  0.3070  0.1634
15527W        W25220   8.501  11.673   3.758 -0.0153  0.0286  0.1824
15528W        W25221   1.649   7.797  14.489  0.0342 -0.2283  0.0503
15529W        W25222   0.429  15.705  15.825  0.2614 -0.1933 -0.1836
15530W        W25223   5.486  17.598   5.636  0.4657 -0.1050  0.1557
15531W        W25224   7.454   4.864   1.966 -0.2225 -0.2709 -0.1729
15532W        W25225   1.666   0.741  11.888 -0.5350 -0.0507  0.1579
15533W        W25226  13.964   5.398  14.420  0.0176  0.2116  0.3338
15534W        W25227   9.893  12.853   5.378 -0.0618 -0.2061 -0.2070
15535W        W25228  15.048   8.846   0.544 -0.0209  0.0757  0.1346
15536W        W25229  13.067   2.299  14.120  0.0718 -0.0999 -0.1237
15537W        W25230   4.909   6.095  15.484  0.1618 -0.3708  0.0687
15538W        W25231   4.123   3.264   3.201  0.0824 -0.0287  0.1339
15539W        W25232  12.551  12.313  12.844 -0.1579 -0.2471 -0.0395
15540W        W25233  12.520  15.073  17.171  0.2084 -0.0927  0.0245
15541W        W25234  12.475   2.299   2.495  0.1908 -0.1151 -0.1181
15542W        W25235   3.762   1.537   2.270 -0.0909  0.0174  0.0800
15543W        W25236  10.255   0.551   4.456  0.0732 -0.1740  0.0602
15544W        W25237  16.150   8.176   5.801  0.2513 -0.1576  0.0995
15545W        W25238   4.719  16.475  16.461 -0.2186  0.0317  0.1297
15546W        W25239   5.591   4.738   3.689 -0.1804 -0.0255 -0.0954
15547W        W25240  16.771  10.175   0.177  0.3840 -0.1201  0.0104
15548W        W25241   2.713   5.872   2.666  0.1451  0.2337 -0.3309
15549W        W25242   4.192  17.604  16.789  0.0928  0.0042  0.1180
15550W        W25243   8.954  14.573   2.971  0.0982  0.0876  0.0516
15551W        W25244   0.534  15.630  14.793 -0.1551 -0.1901  0.0678
15552W        W25245  10.856   2.565  17.442 -0.0510 -0.0153  0.2473
15553W        W25246  12.778  17.608  17.512  0.4095 -0.0109  0.1781
15554W        W25247   8.295   5.023   4.958  0.1760 -0.2464 -0.0679
15555W        W25248   6.207   6.049   4.086 -0.1307 -0.1984  0.0164
15556W        W25249   8.225   7.666  14.119 -0.3044  0.4116 -0.1147
15557W        W25250   1.640  12.484   2.728  0.0161  0.3609 -0.1276
15558W        W25251   4.406   9.550  17.060  0.1059 -0.1839  0.0683
15559W        W25252   2.619   7.887   1.670  0.1715  0.0378  0.1387
15560W        W25253  16.402  17.160   4.372 -0.0244  0.0719 -0.0992
15561W        W25254  15.156  11.310   4.343  0.0526 -0.0277  0.0991
15562W        W25255  15.372  12.544   5.218 -0.0239  0.0673 -0.1258
15563W        W25256   4.520  15.974   3.082 -0.0897 -0.2456 -0.0332
15564W        W25257  13.708   1.173  11.370  0.1564  0.2222 -0.1934
15565W        W25258   3.924   2.976   2.207  0.0069 -0.0752  0.0538
15566W        W25259   9.954  14.883   2.794  0.2928 -0.1779 -0.0592
15567W        W25260  17.128   5.736   2.285 -0.1102  0.0782 -0.0945
15568W        W25261   3.198   1.606   5.207 -0.3062  0.5633 -0.1584
15569W        W25262   0.648  15.919   5.838  0.0974 -0.0137 -0.1585
15570W        W25263   0.728   0.698   3.847 -0.2536 -0.0301  0.0388
15571W        W25264   2.888   3.474  17.333  0.1106  0.0922  0.0267
15572W        W25265  16.121  15.080  16.006 -0.0859  0.1229  0.0915
15573W        W25266   5.766   3.643   4.317 -0.1281 -0.1304  0.0382
15574W        W25267   1.892   9.691   4.217  0.0435  0.1707 -0.0683
15575W        W25268   7.144  14.820   1.635  0.1966  0.0328 -0.3610
15576W        W25269  16.934   8.980   1.616  0.1286  0.3161  0.0201
15577W        W25270  16.765  10.710   2.911 -0.4661  0.1389  0.1938
15578W        W25271  16.257   5.729  17.189 -0.0804 -0.1819 -0.2034
15579W        W25272   5.943   6.115   4.444  0.2114  0.0432 -0.1848
15580W        W25273  17.381  12.846   1.796 -0.0168  0.0524  0.1412
15581W        W25274   7.448   7.422  11.331 -0.0678  0.0817 -0.0901
15582W        W25275   2.945  13.697  13.010 -0.0578 -0.0666  0.1774
15583W        W25276  15.900   1.391  14.400 -0.0454 -0.1327  0.0716
15584W        W25277  12.259  15.118   3.939  0.0662  0.0719 -0.0734
15585W        W25278   9.598  14.285  15.364 -0.0794 -0.0904 -0.3045
15586W        W25279  10.468   2.896   0.921  0.1531 -0.0253  0.1090
15587W        W25280   8.770  15.183   1.467  0.0642 -0.2453 -0.0806
15588W        W25281   8.066   0.817  12.970  0.2243 -0.2766 -0.1390
15589W        W25282   8.927   7.683   1.205  0.3708 -0.0665 -0.3655
15590W        W25283   7.288  13.507  14.576  0.1691 -0.1792  0.0559
15591W        W25284  12.451   8.172  14.930 -0.1214  0.1709 -0.0540
15592W        W25285  17.362   4.476  12.775 -0.0398  0.0125 -0.0531
15593W        W25286   4.726   9.551  11.822  0.0242  0.1982 -0.1185
15594W        W25287  11.658  14.246   6.155 -0.0056  0.0390  0.2422
15595W        W25288   4.052   9.584   3.722  0.0101 -0.1750 -0.2171
15596W        W25289   0.952  13.401  17.549 -0.1401 -0.2749  0.0020
15597W        W25290   9.037   1.257  14.780 -0.3679 -0.0296  0.0148
15598W        W25291  15.598  17.040  11.314  0.1681  0.0635 -0.0508
15599W        W25292   5.107   9.761   5.927 -0.2059 -0.0774  0.2185
15600W        W25293   8.936  17.044  13.937 -0.1199 -0.0974 -0.3706
15601W        W25294   5.538  16.779   3.075 -0.2671 -0.0988  0.0497
15602W        W25295  12.431   5.374  16.863  0.1103 -0.4268 -0.2564
15603W        W25296  11.826  12.198   5.125 -0.0416  0.2436  0.2508
15604W        W25297  16.468  11.983   2.303 -0.4245 -0.1651  0.0555
15605W        W25298   3.503  10.849  13.254 -0.1387  0.0520 -0.0578
15606W        W25299   2.443   8.349   1.464  0.0057  0.1951 -0.1499
15607W        W25300   8.338   1.593   4.082 -0.1901  0.0289  0.2416
15608W        W25301  16.075   3.847   1.061 -0.4462 -0.0093  0.2588
15609W        W25302  10.356   2.690  14.252  0.2662  0.0808 -0.1689
15610W        W25303  15.433  14.114   2.234  0.0161 -0.0381 -0.1506
15611W        W25304  16.472  10.809   5.648  0.0041  0.1211 -0.0724
15612W        W25305   9.034   9.308   1.438  0.1680 -0.2655  0.1708
15613W        W25306   9.915  13.442   0.890 -0.0300 -0.0058  0.1998
15614W        W25307   5.438   9.191   2.494 -0.0337  0.0691  0.1688
15615W        W25308  14.833   3.606  12.348  0.0707 -0.2200 -0.1564
15616W        W25309  14.446  14.793  13.480 -0.0533  0.0159 -0.1631
15617W        W25310  11.935  16.177   0.994 -0.0372  0.0209 -0.2227
15618W        W25311  13.944  15.670   1.750  0.0439 -0.3586  0.1892
15619W        W25312   9.420  11.736   6.799 -0.0249 -0.1829  0.1058
15620W        W25313   2.245   8.294  13.877 -0.0461 -0.1894  0.0683
15621W        W25314   7.890   0.434   0.818  0.2983 -0.0068 -0.1229
15622W        W25315   6.800  11.713   1.920  0.3966 -0.1204 -0.4319
15623W        W25316  14.277  15.137  12.779 -0.0410 -0.1087  0.3459
15624W        W25317  10.630  14.449  16.559 -0.1258 -0.0830 -0.0159
15625W        W25318   2.156  10.957   2.269 -0.1425 -0.0581 -0.0630
15626W        W25319  17.115   4.905  15.135 -0.0535  0.1610  0.0992
15627W        W25320  14.192   4.382   1.507  0.2328 -0.0550  0.0620
15628W        W25321  13.581  14.199   5.947 -0.2532 -0.0532  0.3265
15629W        W25322   0.340   6.048  17.345 -0.2441  0.1026  0.1981
15630W        W25323  13.692  10.716  13.067 -0.1546  0.1674 -0.2592
15631W        W25324   3.890  13.869   4.723 -0.0373 -0.2552 -0.1355
15632W        W25325  15.624  10.325   0.714  0.0854 -0.1353 -0.0271
15633W        W25326  10.901  12.919  17.071 -0.2130 -0.1050 -0.0621
15634W        W25327  17.166   2.459   2.254  0.0932  0.1925  0.1400
15635W        W25328  12.601  12.458   0.951 -0.2196  0.1810 -0.1107
15636W        W25329  10.471  12.849   0.230 -0.1501 -0.2038  0.2758
15637W        W25330   6.153  11.548  15.569  0.1210 -0.0652  0.0858
15638W        W25331   8.372   3.709  11.699 -0.1031 -0.0048 -0.0702
15639W        W25332  15.446  13.385   5.586 -0.0169 -0.2743  0.3858
15640W        W25333  14.593   4.753  14.049 -0.0727 -0.1458 -0.0162
15641W        W25334  15.008   6.286  16.193  0.0390 -0.2145  0.4288
15642W        W25335   4.172   6.551  15.795  0.0418 -0.0509  0.0727
15643W        W25336   8.813  15.328  12.934  0.1039 -0.3072  0.3447
15644W        W25337  16.618   1.936  11.853 -0.0051  0.2402 -0.0497
15645W        W25338   5.756  16.609   6.817 -0.0197  0.1497 -0.3739
15646W        W25339   3.560   5.815   1.697 -0.0219  0.0344 -0.1116
15647W        W25340   9.070  16.483  15.742 -0.1905  0.1452 -0.0849
15648W        W25341  12.255   7.863   2.611 -0.0032  0.3444  0.2977
15649W        W25342   2.567   6.191   3.140 -0.0588 -0.1278 -0.3754
15650W        W25343   3.817   5.837  14.481 -0.0249 -0.3306 -0.5013
15651W        W25344   7.771  10.840   0.005  0.2743 -0.0643  0.2046
15652W        W25345   7.782  13.522   6.453 -0.2481  0.3251 -0.0140
15653W        W25346  14.660   4.511  16.039  0.3251 -0.1025 -0.0629
15654W        W25347   2.482  10.382  13.896 -0.0337  0.0509 -0.1956
15655W        W25348  13.400   7.679   4.381 -0.1272 -0.0511  0.1160
15656W        W25349  15.812   1.269   0.807  0.3115  0.1740  0.2845
15657W        W25350  17.101   4.723  14.668  0.4283  0.1926  0.1635
15658W        W25351   7.500  16.634  13.170  0.3639 -0.0367  0.0010
15659W        W25352  15.772  14.646   0.720 -0.1798  0.0136 -0.5675
15660W        W25353   6.632   5.098  15.523 -0.1193  0.0031  0.1892
15661W        W25354   4.231  17.026   0.766 -0.3535  0.2210 -0.1846
15662W        W25355   9.098   9.336   2.650 -0.1974 -0.1420  0.3320
15663W        W25356  14.673  12.559  16.173 -0.5551  0.1143 -0.3252
15664W        W25357   1.379   0.534   5.043  0.0416 -0.0905  0.0031
15665W        W25358   8.753  16.625   4.069 -0.1109  0.0355  0.0222
15666W        W25359  14.256   9.407  13.739 -0.0825  0.3627  0.1702
15667W        W25360   3.934  16.486   2.135  0.1803 -0.1088  0.2408
15668W        W25361   7.183   0.248  13.498  0.0979 -0.0736 -0.1177
15669W        W25362   8.397   0.759   0.750  0.3139  0.1084  0.1892
15670W        W25363  11.127   7.394   5.681 -0.1001 -0.4496  0.3886
15671W        W25364  17.055   1.266  13.564  0.0273  0.1779  0.1070
15672W        W25365   9.881   1.532   2.685  0.0923 -0.4284  0.1034
15673W        W25366  13.856   2.971   4.727 -0.2989  0.1806  0.1352
15674W        W25367  14.164   8.053  12.524  0.0893  0.0892  0.3981
15675W        W25368   9.369   3.845   0.803  0.1160 -0.0534 -0.1878
15676W        W25369   1.633   4.486  15.688  0.3999 -0.0932  0.0210
15677W        W25370   6.242   7.071  11.173  0.1118  0.1793 -0.1278
15678W        W25371   5.622   0.460  14.642 -0.0498  0.2891 -0.1587
15679W        W25372  16.145  12.911   6.521  0.3886 -0.1988  0.0606
15680W        W25373  10.836  10.051   4.712  0.0393  0.2014 -0.1799
15681W        W25374   6.324  11.633   1.745  0.2164  0.0612 -0.1287
15682W        W25375  13.895  10.850  15.531  0.1530 -0.1440  0.1232
15683W        W25376   2.314   1.770   1.694  0.0535 -0.0640  0.1927
15684W        W25377  17.602  12.671  13.656 -0.1588 -0.0856  0.0051
15685W        W25378   0.027  11.996   2.494  0.2362 -0.1376  0.3291
15686W        W25379   4.202   7.672   4.785 -0.0811  0.2588  0.2295
15687W        W25380   4.150   1.492  14.112 -0.2355 -0.2056  0.1195
15688W        W25381   9.653   3.137  13.123 -0.1348  0.3048 -0.0105
15689W        W25382   5.028   9.505  15.506  0.4104  0.1175 -0.1593
15690W        W25383   6.151   6.537   5.749  0.0607  0.0543 -0.1892
15691W        W25384   5.648   1.660  13.293  0.1248  0.0669  0.2758
15692W        W25385  10.307   5.574  12.907 -0.1344  0.2045 -0.3399
15693W        W25386  14.576   8.874   3.005  0.1789  0.0238 -0.1456
15694W        W25387   9.075  15.474  14.734 -0.0774  0.1657  0.2796
15695W        W25388  13.218   3.906   2.075 -0.1296  0.0171  0.1244
15696W        W25389   4.884  11.482  12.666  0.0126  0.1452 -0.2564
15697W        W25390  16.987   7.809   1.180  0.0349 -0.0009 -0.0122
15698W        W25391   8.952   2.796   2.034 -0.2961 -0.2940  0.0503
15699W        W25392  17.299  11.365  13.427  0.0666  0.3124 -0.4132
15700W        W25393  16.962   3.197   0.209 -0.0045  0.2360 -0.0514
15701W        W25394   9.002   9.964   4.626 -0.1274  0.0997  0.1363
15702W        W25395  16.167   9.440   1.727  0.2274 -0.1337 -0.2350
15703W        W25396   7.582  12.907  13.699 -0.3474  0.1798  0.1938
15704W        W25397   3.024  12.418  15.855 -0.1170  0.1181 -0.4383
15705W        W25398   3.221   0.130  15.724 -0.2425  0.0857 -0.0352
15706W        W25399  13.762  11.378  12.346  0.0117  0.0545  0.1003
15707W        W25400   7.330  14.376  11.865  0.1271 -0.1864  0.1154
15708W        W25401   9.726   6.610   0.883  0.2958  0.2161 -0.0329
15709W        W25402  10.139  15.958   0.665  0.0707 -0.0744 -0.2549
15710W        W25403   1.724   1.376  16.322 -0.0365  0.0686  0.0572
15711W        W25404  11.261   2.296   5.843  0.0015 -0.3638  0.0735
15712W        W25405  12.501  11.071  17.424  0.1100 -0.3096 -0.0443
15713W        W25406   3.363   7.174   4.249  0.1302 -0.4549  0.0699
15714W        W25407  11.000   8.380   5.849  0.1721 -0.0860  0.5422
15715W        W25408   2.471  11.741   5.251  0.0878 -0.0955  0.0970
15716W        W25409  14.762  13.433   0.573 -0.2447  0.0056 -0.0499
15717W        W25410   4.660   4.795   0.003  0.0142 -0.0772 -0.1002
15718W        W25411   1.300  12.150  14.816  0.2615  0.2485 -0.1193
15719W        W25412   3.351  17.201   2.643 -0.0099  0.0477  0.0590
15720W        W25413  15.748  13.504  15.328  0.1523  0.0693  0.0753
15721W        W25414   7.497  11.090   3.960  0.2428 -0.1195  0.1288
15722W        W25415   8.689  16.779  12.337 -0.1690  0.1198  0.1240
15723W        W25416   9.692   5.190   1.837 -0.1154  0.1659  0.0376
15724W        W25417  10.470  13.356   3.637 -0.0696 -0.2029 -0.1722
15725W        W25418   8.490   2.830   1.073 -0.2342 -0.1680  0.1045
15726W        W25419  11.290   3.217   5.336  0.2853 -0.1882  0.0649
15727W        W25420  13.373  16.872   0.146  0.1597 -0.0218  0.2459
15728W        W25421  14.873  15.005  13.284 -0.0326  0.1155 -0.1158
15729W        W25422  17.512  11.036   4.300  0.0214 -0.5699 -0.0423
15730W        W25423   9.192  16.846  16.117  0.2147  0.2292 -0.0627
15731W        W25424   2.385   9.959  12.375 -0.2112  0.0045  0.0580
15732W        W25425   4.791   0.148   5.150 -0.1248 -0.2045 -0.0038
15733W        W25426  16.539   2.082  12.753 -0.0302  0.3487  0.1122
15734W        W25427   2.752   8.171  15.237  0.0574  0.1389  0.4039
15735W        W25428   2.948   2.718   6.830 -0.0347  0.0954 -0.1669
15736W        W25429  17.056  12.602   2.131 -0.3838 -0.1497  0.0482
15737W        W25430   3.936   8.369   3.402 -0.3798 -0.2142  0.1258
15738W        W25431   3.568   7.319  17.358  0.1423 -0.0458  0.1970
15739W        W25432   1.816   3.835   3.858 -0.2902  0.0127  0.0159
15740W        W25433  14.017   7.794  15.849 -0.1357  0.0487  0.2407
15741W        W25434   5.118  12.420   3.641 -0.0279 -0.0013  0.1291
15742W        W25435  10.323  13.100  15.202 -0.1679  0.0309  0.3433
15743W        W25436   8.624   5.461  13.808 -0.0854  0.3456  0.2679
15744W        W25437  11.158   8.476   1.558  0.1199 -0.2840 -0.0473
15745W        W25438  11.498   4.257  12.161  0.1101 -0.1644 -0.1838
15746W        W25439  15.039  16.241   0.406 -0.1826 -0.0162  0.1613
15747W        W25440  13.368   7.674   0.955  0.3202 -0.0805 -0.3362
15748W        W25441  14.756   8.079  14.709 -0.0570 -0.2814 -0.1343
15749W        W25442   7.217  16.006   6.271  0.0420  0.0113 -0.3797
15750W        W25443   2.201  17.115  15.131 -0.0982  0.3222 -0.0416
15751W        W25444  12.193   8.845   1.732 -0.1304  0.0291  0.1160
15752W        W25445   4.696   2.281  11.865 -0.0893 -0.0807 -0.0097
15753W        W25446  11.172  12.092  15.799  0.2083 -0.2190 -0.0358
15754W        W25447  14.791   1.046   5.311 -0.1052  0.3516 -0.1894
15755W        W25448   9.639   2.916   0.636  0.2656  0.1365 -0.1408
15756W        W25449   8.188  17.575   5.572 -0.0408 -0.3147 -0.3075
15757W        W25450  17.440  12.235   6.156  0.1920 -0.0638  0.1051
15758W        W25451   5.420   6.470   2.023  0.0047  0.0428  0.0438
15759W        W25452   4.609   2.069   0.313  0.2198  0.2106 -0.2952
15760W        W25453  15.527  15.234   2.803 -0.4581  0.2375  0.1936
15761W        W25454  12.659   7.155   1.527 -0.0811 -0.2912 -0.0283
15762W        W25455   0.360   5.695   4.457  0.3249 -0.2197 -0.1733
15763W        W25456  16.053  14.112   2.064 -0.0324  0.0616  0.3498
15764W        W25457  12.134  11.609   1.169  0.0863 -0.0919 -0.5975
15765W        W25458   7.344  10.714  11.566 -0.1666 -0.3305 -0.0065
15766W        W25459   2.963  13.748   6.911 -0.0792 -0.3752  0.0049
15767W        W25460   1.554  12.863  15.992  0.4059 -0.0626  0.4634
15768W        W25461  11.081   4.878  11.467 -0.0367  0.0368 -0.0500
15769W        W25462  10.629   1.020  14.561 -0.0736  0.0008 -0.0018
15770W        W25463  10.758  14.841  15.956  0.0970  0.2259  0.0760
15771W        W25464   9.723   5.054   1.229  0.1812 -0.1282  0.1113
15772W        W25465   7.410   0.131  16.320 -0.0883  0.0923  0.2143
15773W        W25466  12.519   9.236   3.477  0.2578 -0.0878  0.1173
15774W        W25467  16.842  11.713   2.549 -0.2991  0.0700 -0.1107
15775W        W25468   3.832  12.756   3.417  0.0648 -0.1902 -0.1490
15776W        W25469   5.550  12.480   4.015  0.2161  0.1658 -0.1489
15777W        W25470   5.428  15.083  13.592 -0.2777  0.3242 -0.1397
15778W        W25471   1.764   7.942   5.198  0.1916  0.2250 -0.0728
15779W        W25472   7.826   2.031  17.328 -0.1596  0.0638 -0.1470
15780W        W25473  16.139   0.840   3.104 -0.1135 -0.1798  0.1985
15781W        W25474   2.139   8.708   3.645 -0.0040  0.0551  0.1651
15782W        W25475   6.428  11.238   2.060 -0.0539  0.4327 -0.2385
15783W        W25476   9.540  10.047   4.548  0.0028 -0.1411  0.0087
15784W        W25477   1.904   1.242  12.030  0.4537  0.1502 -0.0712
15785W        W25478   1.952   0.015  17.141 -0.2572 -0.0445  0.0476
15786W        W25479  17.348   1.149   0.405 -0.1095 -0.1835 -0.0595
15787W        W25480   9.912   5.742  13.706 -0.0281  0.3049  0.1009
15788W        W25481   2.678   0.222  15.000 -0.0970 -0.2906  0.1065
15789W        W25482   4.730  12.144  13.388  0.1791  0.2740 -0.1720
15790W        W25483  10.787   5.938  14.175 -0.2487 -0.0554  0.0964
15791W        W25484  15.680  10.571  17.042  0.0908  0.1712 -0.0189
15792W        W25485   9.104  12.704   4.575  0.2422  0.0828  0.1889
15793W        W25486  10.760   5.616   5.407 -0.3198 -0.0784  0.3340
15794W        W25487   9.389  15.157  12.240  0.1653 -0.1540  0.2318
15795W        W25488   9.492  11.386  14.616 -0.1047  0.2611  0.0734
15796W        W25489  12.836  11.440  14.810 -0.0620 -0.1960 -0.0877
15797W        W25490   2.906  13.095   1.742  0.1246 -0.0151 -0.0330
15798W        W25491   4.179  12.394   4.101  0.0546  0.0390 -0.1062
15799W        W25492   6.357   8.203  15.519 -0.0050 -0.1101 -0.1933
15800W        W25493  11.028  14.237  14.488  0.0731  0.1635  0.1852
15801W        W25494   4.290  13.564   5.843 -0.3201  0.1986 -0.1456
15802W        W25495   1.685  11.098  13.740 -0.0124 -0.4048 -0.1112
15803W        W25496   4.963   1.373   4.431  0.0129 -0.2294 -0.0519
15804W        W25497  15.129   3.042   2.191  0.0906 -0.2124 -0.2103
15805W        W25498   0.032   1.012   2.705  0.1234  0.0170 -0.2372
15806W        W25499   7.784  16.325  13.860  0.1740 -0.0850  0.0146
15807W        W25500   1.468  10.181  13.325  0.0716  0.0830 -0.2386
15808W        W25501   5.181  11.892   2.494 -0.0734  0.1378  0.0625
15809W        W25502   2.428   0.798  11.950  0.0325  0.3182 -0.2453
15810W        W25503  12.076  14.311   3.600  0.1065  0.1387 -0.2084
15811W        W25504   8.583   1.491   0.002 -0.0113 -0.0478  0.1310
15812W        W25505  15.030   6.978  17.009 -0.0088 -0.0049 -0.0777
15813W        W25506   4.490  11.061  13.343 -0.1880 -0.1482  0.0107
15814W        W25507   9.344  15.325   0.223  0.2690  0.0077  0.1254
15815W        W25508   9.314  14.896  15.694 -0.2219 -0.0648 -0.0367
15816W        W25509   2.611  17.137  13.475 -0.1809  0.2342  0.2080
15817W        W25510  12.484   7.211   4.572 -0.4785  0.0437  0.2576
15818W        W25511   4.677  14.994   2.147 -0.1662 -0.0206  0.0109
15819W        W25512  17.171  17.653   1.941  0.2100 -0.2306 -0.4210
15820W        W25513   3.142  14.706   5.907  0.1053 -0.0060  0.0369
15821W        W25514  16.934   6.092   1.418 -0.0573 -0.2718 -0.2498
15822W        W25515  10.944  13.122  14.342 -0.1496  0.1041 -0.2053
15823W        W25516   7.956  16.093   2.867  0.1634  0.0912  0.2028
15824W        W25517   4.567  13.088  12.204  0.2943 -0.3161  0.0387
15825W        W25518  11.722   4.766   1.259 -0.0558  0.2180  0.2445
15826W        W25519   2.326   4.569   0.310  0.1699 -0.0952 -0.0389
15827W        W25520  16.966   0.963  12.012 -0.2083 -0.0427  0.1017
15828W        W25521   0.348   3.489  11.771  0.0296  0.0379  0.0828
15829W        W25522  17.253   1.361  15.065 -0.2512  0.1705 -0.0623
15830W        W25523   9.780   2.902  15.039 -0.2413  0.1129  0.0485
15831W        W25524   5.451   6.914   3.449 -0.0246 -0.2998  0.1989
15832W        W25525  16.654   8.379   6.076  0.0823 -0.0735 -0.1175
15833W        W25526  14.716   1.473   5.712  0.3077  0.0448  0.3614
15834W        W25527   8.978   1.270   5.253 -0.0968  0.1422 -0.2322
15835W        W25528   5.861  11.393  13.083  0.0424 -0.0003  0.2860
15836W        W25529  12.110   7.848   3.984  0.1196 -0.0047  0.0577
15837W        W25530  11.517   3.571  12.512 -0.2968  0.3740 -0.1679
15838W        W25531  15.456  16.312  13.101  0.1294 -0.0945  0.2060
15839W        W25532   0.892   7.129   1.158 -0.0760  0.1149  0.1782
15840W        W25533   8.159  10.491   2.772  0.2574  0.3971 -0.1081
15841W        W25534  15.133  10.247  15.445  0.3549  0.2992 -0.1161
15842W        W25535   4.429   6.567   5.331 -0.0424  0.2929  0.0579
15843W        W25536  13.665  17.602  16.524  0.0697  0.0464 -0.0271
15844W        W25537   3.908   5.134   4.175 -0.0571  0.2022 -0.3293
15845W        W25538   9.869   7.316   4.002 -0.2903  0.4915  0.0388
15846W        W25539   9.513   9.104   2.095  0.0154 -0.0378 -0.3982
15847W        W25540  15.748  10.918  12.092  0.1352  0.2308 -0.0818
15848W        W25541  12.471  15.971  11.623 -0.0821 -0.0123  0.1625
15849W        W25542   4.373  15.383  13.836  0.0092  0.1207  0.0285
15850W        W25543   3.741   8.720  14.366  0.1882  0.1089 -0.3115
15851W        W25544   3.165   0.353   5.404 -0.0915  0.0884  0.1466
15852W        W25545   7.038  12.482  16.454 -0.2619 -0.1983 -0.0003
15853W        W25546   6.727  10.404   0.219 -0.3779 -0.1421  0.0720
15854W        W25547   0.901   9.813   3.745  0.4339 -0.1851  0.1318
15855W        W25548   7.443   8.238  12.553  0.0857 -0.0079  0.1179
15856W        W25549   7.094   8.123   3.863  0.1207 -0.1239  0.0881
15857W        W25550   3.376  16.150   1.026 -0.2647 -0.1104  0.0525
15858W        W25551   2.862  15.621   0.337 -0.1244  0.1621 -0.2758
15859W        W25552   7.198   4.008   1.217 -0.2502 -0.3971  0.2539
15860W        W25553   1.516  10.037  17.006  0.0551 -0.0454 -0.1163
15861W        W25554   8.605   7.639   5.046 -0.1359 -0.3979  0.1256
15862W        W25555  13.524  12.842   2.826  0.0133  0.3315  0.1862
15863W        W25556  12.577  13.103   6.791 -0.0136  0.1214 -0.2147
15864W        W25557  15.816   1.924  14.482  0.0437  0.0587  0.1948
15865W        W25558  13.820   1.844   6.380  0.0741  0.0657 -0.0417
15866W        W25559  17.575   0.070  12.475 -0.0611 -0.0996  0.0456
15867W        W25560  17.399   2.790   1.899 -0.1438 -0.0942 -0.0878
15868W        W25561   2.486   0.981  12.960  0.2006 -0.2021 -0.1992
15869W        W25562   3.970   3.719   3.194  0.0852 -0.2068  0.0095
15870W        W25563  12.504   3.187   0.978 -0.0169  0.0065  0.2136
15871W        W25564   5.033   9.601   2.759  0.1913 -0.1072  0.1640
15872W        W25565  12.424   2.188  12.816  0.0151 -0.0924  0.4064
15873W        W25566   0.588   8.498  15.078  0.0001  0.1986 -0.0569
15874W        W25567   7.315  11.055   5.917 -0.1230 -0.1167  0.3037
15875W        W25568   5.618  11.519  14.485 -0.2503 -0.0894 -0.1859
15876W        W25569   0.752  12.758   3.299  0.2737  0.0482 -0.1333
15877W        W25570   8.190   9.951  15.496  0.2013  0.0908 -0.4012
15878W        W25571   2.017   1.799  14.471  0.0422  0.0128  0.2459
15879W        W25572  10.460   7.067   2.749  0.1763  0.0991  0.1875
15880W        W25573  11.151   1.926   2.316  0.2790 -0.2422  0.0066
15881W        W25574   9.691  16.865  11.921  0.1103 -0.2107 -0.3765
15882W        W25575   3.897   0.862   0.072 -0.3733 -0.1830  0.0762
15883W        W25576   8.409   4.596   2.419 -0.0548 -0.0225  0.0874
15884W        W25577  14.524   3.047  12.183  0.1977 -0.2009  0.1600
15885W        W25578  11.510  12.350  14.345 -0.0668 -0.1337  0.1443
15886W        W25579   3.280   5.934  12.451 -0.0904  0.0118 -0.0304
15887W        W25580   2.423   5.662   2.045  0.2216 -0.0795  0.2310
15888W        W25581  15.238   1.986  14.494 -0.3076 -0.2021  0.1614
15889W        W25582   7.647  17.600   5.363  0.0848  0.0906 -0.2216
15890W        W25583  11.144  16.703   1.542 -0.3203  0.2142 -0.0178
15891W        W25584   6.000  16.419  14.827 -0.1132 -0.1007 -0.1154
15892W        W25585  12.174   6.504  12.547  0.1593  0.2923 -0.1897
15893W        W25586  12.598  15.483   1.720  0.0388  0.0301 -0.1989
15894W        W25587  12.899   6.454   4.118 -0.0368  0.1726 -0.0490
15895W        W25588  15.349  16.317   3.281 -0.2063 -0.3530 -0.4513
15896W        W25589   6.945  13.263  15.001  0.2263  0.2900  0.2936
15897W        W25590   6.379  16.921   6.115  0.1770 -0.0800  0.0620
15898W        W25591   5.299  14.779  11.865 -0.0227 -0.0548  0.0917
15899W        W25592  15.728   0.987  12.221  0.1058  0.2426 -0.0832
15900W        W25593  10.024   7.423   4.461 -0.1063  0.0550  0.0101
15901W        W25594  13.845   1.820   3.963 -0.1666 -0.0909  0.2197
15902W        W25595   5.834   2.750   4.549  0.0139  0.3564  0.1286
15903W        W25596  14.175  13.792   4.551  0.0998  0.1512  0.1026
15904W        W25597   8.823   9.110   2.291  0.2927  0.0249  0.1126
15905W        W25598   6.699  16.793  16.289 -0.0987 -0.0701 -0.3355
15906W        W25599   3.578   5.212  11.315 -0.1203  0.0993 -0.2151
15907W        W25600  10.799   5.269  14.782 -0.0282 -0.0136 -0.0402
15908W        W25601  15.531  13.814   2.762  0.0496  0.0192 -0.1208
15909W        W25602   1.240   6.025  15.535 -0.2443 -0.0534 -0.1282
15910W        W25603  13.035  16.796   3.007  0.4336 -0.0011 -0.2922
15911W        W25604  16.766   4.066  13.219  0.2103 -0.1306 -0.0516
15912W        W25605  13.812  16.654   4.157 -0.1642 -0.0144 -0.2699
15913W        W25606  17.398   1.556  14.399  0.0885  0.2702  0.1322
15914W        W25607  11.870  15.521  13.305 -0.2806 -0.1371  0.2708
15915W        W25608  13.655   6.580   5.950  0.0499  0.1152  0.0648
15916W        W25609   2.258  14.655   1.503  0.2160 -0.2868  0.2282
15917W        W25610   8.706   3.321  11.616  0.0804  0.2455 -0.1742
15918W        W25611   4.406   2.509   3.858 -0.0755 -0.0027 -0.1509
15919W        W25612  16.258  16.011  16.039 -0.1504 -0.1398  0.0725
15920W        W25613  11.270  11.458   2.415  0.1172 -0.0546  0.0770
15921W        W25614  13.546  12.612   1.698 -0.0211 -0.3186 -0.2193
15922W        W25615  13.373   0.739  11.870 -0.1534  0.0246  0.1059
15923W        W25616  16.258   4.125  14.081  0.0391 -0.1912  0.0063
15924W        W25617  10.530   0.299   6.498  0.0428  0.0287  0.0743
15925W        W25618   2.614  12.146  16.173 -0.0422  0.0990  0.2609
15926W        W25619   8.685   4.991  11.669 -0.1659  0.0513  0.0106
15927W        W25620  12.421   2.332   3.455 -0.2552  0.0945 -0.1297
15928W        W25621   6.589  11.852  14.901 -0.1961 -0.3852 -0.0646
15929W        W25622  14.551   7.728  15.900  0.4172  0.1114 -0.1932
15930W        W25623  17.116   1.779  17.479  0.0278  0.0756  0.2283
15931W        W25624   4.462  12.104  14.039 -0.0745  0.1971 -0.2487
15932W        W25625  15.883  11.963   4.538  0.1521  0.0742 -0.0711
15933W        W25626   9.081  12.523  13.630 -0.2912  0.1131  0.0224
15934W        W25627   8.207  10.476  16.770 -0.0514  0.0559  0.0899
15935W        W25628  13.497   6.219  16.650  0.3121 -0.0127  0.1378
15936W        W25629  12.368  13.416   1.043 -0.3622 -0.0205  0.0417
15937W        W25630   5.156   4.301   4.418  0.1090  0.2095  0.0978
15938W        W25631   4.106   6.788  17.212 -0.2486 -0.2281 -0.0056
15939W        W25632   1.956   4.542  12.323 -0.1118 -0.2960  0.2798
15940W        W25633   3.575   8.374  13.671  0.2196 -0.2921  0.1470
15941W        W25634   8.118  12.171   2.478  0.0305  0.2504 -0.0869
15942W        W25635  15.946  15.796  15.572 -0.1309  0.0949  0.0316
15943W        W25636  17.356   6.418   1.058  0.2197  0.0250 -0.2445
15944W        W25637  13.741  14.698  12.272 -0.0868  0.1105  0.0086
15945W        W25638   7.381   8.707  12.255  0.2908 -0.2494 -0.0749
15946W        W25639   1.874  14.149  17.074 -0.2116 -0.0432  0.0007
15947W        W25640  15.031   1.293  14.691  0.0666 -0.1652  0.0511
15948W        W25641   4.744  12.474   4.851  0.2424 -0.0476  0.0794
15949W        W25642   6.211   9.325  14.069  0.0382  0.1228  0.2525
15950W        W25643   6.926  15.844  15.191  0.0319 -0.1229  0.1827
15951W        W25644   0.722   1.505   5.417  0.0843 -0.1371  0.1002
15952W        W25645   4.697   2.652  13.500 -0.1617  0.0219 -0.0198
15953W        W25646  16.650  16.656   1.965  0.1370 -0.0319 -0.0959
15954W        W25647  13.592  14.171  17.630 -0.2289 -0.5588 -0.0545
15955W        W25648   2.196   2.692  16.240 -0.2215  0.1013 -0.1916
15956W        W25649   1.173   8.151  13.433 -0.0597 -0.1797 -0.1400
15957W        W25650  10.927   8.030   1.937 -0.0218  0.3517  0.2080
15958W        W25651   6.223   6.653  13.557 -0.1765 -0.0677 -0.0841
15959W        W25652   5.043  12.883   3.890  0.4650  0.1290 -0.0426
15960W        W25653   4.280   9.593   3.276  0.2710 -0.1532 -0.2678
15961W        W25654  14.116   9.584   4.312 -0.1240  0.0986  0.0141
15962W        W25655  13.834   4.100  15.904  0.0318  0.2542 -0.1228
15963W        W25656   8.377   2.988  17.400 -0.0189  0.0433 -0.1497
15964W        W25657  11.901   7.922   0.392 -0.2162  0.0954  0.1101
15965W        W25658   6.310  10.790   1.718  0.1641  0.1492 -0.0766
15966W        W25659  12.294   8.792  16.623  0.0904 -0.3444 -0.1106
15967W        W25660  11.866   3.432   3.596 -0.1085 -0.1428  0.0432
15968W        W25661   7.741   0.947   1.037  0.0400 -0.2763 -0.3866
15969W        W25662   9.227  13.884  14.062  0.1042 -0.1186  0.0529
15970W        W25663   9.725   3.695  13.809  0.1533 -0.0185 -0.1051
15971W        W25664  17.524   4.718  17.333  0.1225  0.0337 -0.1670
15972W        W25665  15.619   3.638   1.478 -0.0742 -0.5257 -0.0160
15973W        W25666   0.719   5.817  15.589  0.1058  0.2208 -0.1838
15974W        W25667   0.243   4.135  16.412  0.1963  0.1935  0.1653
15975W        W25668   8.081   4.743   3.696  0.5176 -0.4348  0.0313
15976W        W25669   6.232  13.811   5.542 -0.1174 -0.2368  0.1202
15977W        W25670   5.863  10.101   4.744  0.0007  0.0996 -0.2629
15978W        W25671  11.581  14.458  14.437 -0.1151  0.1169  0.1566
15979W        W25672   4.620   0.699  14.618  0.0812 -0.1414 -0.0289
15980W        W25673  12.325   1.523  14.082  0.0327 -0.0074  0.2672
15981W        W25674   2.701   1.180  17.078 -0.0746  0.0810  0.1488
15982W        W25675   3.161   5.839  16.807  0.0699  0.2091 -0.0335
15983W        W25676  14.929   1.100   5.994  0.1601 -0.1082 -0.0534
15984W        W25677   0.381   4.248   5.214 -0.2057  0.2606 -0.3096
15985W        W25678  10.383   2.341   1.975  0.1245 -0.3791  0.0902
15986W        W25679  15.875  13.375   6.264 -0.0720 -0.4085 -0.1667
15987W        W25680   7.686   2.526  13.224 -0.4463  0.2579  0.0149
15988W        W25681   6.268   8.237   3.379  0.0625  0.0997 -0.1760
15989W        W25682   4.218  11.160   5.856 -0.2387 -0.0790 -0.0238
15990W        W25683   9.165   0.790  14.417 -0.1330  0.2489 -0.0157
15991W        W25684   3.293  11.176   1.631  0.1569  0.4055  0.0610
15992W        W25685  11.722   0.706   2.258  0.0120  0.0362 -0.1480
15993W        W25686  15.775   3.741   5.548  0.3099  0.1631 -0.3044
15994W        W25687   9.043   6.691   0.683  0.0251 -0.0449  0.1956
15995W        W25688   5.336   3.543   2.783  0.1875 -0.0720  0.3054
15996W        W25689   4.656  16.974   2.218 -0.1178  0.2543  0.0725
15997W        W25690   3.624  13.436   1.398 -0.0454 -0.2437 -0.0911
15998W        W25691   0.544   3.723   3.031 -0.0569  0.1875 -0.1850
15999W        W25692  12.330   1.094  12.555  0.0285  0.0122 -0.1588
16000W        W25693  16.890  14.207  15.626  0.0500  0.1547  0.1711
16001W        W25694  14.549   0.581  17.550 -0.0102  0.0591  0.0147
16002W        W25695  11.529   1.786   4.675 -0.1515 -0.1003 -0.3097
16003W        W25696   3.046   1.113   3.503  0.1667 -0.0155  0.0163
16004W        W25697  14.546  16.032  13.172 -0.3574  0.1992  0.2093
16005W        W25698  13.376  15.586   0.450 -0.0885 -0.1663 -0.0916
16006W        W25699  12.528   4.495   5.640  0.2960  0.0338 -0.1181
16007W        W25700   8.881  16.670   3.561 -0.2033 -0.0794  0.3218
16008W        W25701   5.215  15.800   5.348 -0.2191 -0.1100  0.3166
16009W        W25702   7.952   2.423   5.973 -0.1987  0.0422 -0.0483
16010W        W25703  12.367  10.050  14.799  0.0391 -0.2021  0.0232
16011W        W25704  10.186   4.403   1.094  0.2576  0.3213 -0.1874
16012W        W25705   0.626  11.423  17.409  0.0754  0.0309  0.2170
16013W        W25706   6.237   1.347  12.878  0.1057 -0.0517 -0.2243
16014W        W25707   1.444  12.875   5.421 -0.0128  0.3138  0.0381
16015W        W25708  11.699  12.112  12.566  0.0376  0.1438  0.1161
16016W        W25709   9.463   1.663   3.468  0.1541  0.0872  0.0360
16017W        W25710   9.333   8.034   4.071 -0.2367 -0.2592 -0.2832
16018W        W25711  15.125   1.306   2.444 -0.0808  0.1411 -0.0236
16019W        W25712   2.057  12.420  15.195 -0.0085  0.1604  0.0930
16020W        W25713   0.976  10.552  12.018 -0.2314  0.1602 -0.0551
16021W        W25714  16.616  16.547  16.073  0.0654  0.0006  0.0428
16022W        W25715  14.746  17.029   3.267 -0.2081  0.4458 -0.1693
16023W        W25716  16.948   8.663   5.793  0.3591  0.0325 -0.2394
16024W        W25717  10.153   5.837   1.425  0.1882 -0.0128 -0.0628
16025W        W25718   1.761  11.026   6.636  0.1874 -0.0032 -0.3031
16026W        W25719  15.638   9.308   1.010  0.0353  0.2720 -0.0375
16027W        W25720  10.351  17.129   4.335 -0.3186 -0.0195  0.4080
16028W        W25721   1.207   4.863  17.675 -0.1295  0.2384  0.0386
16029W        W25722   2.809  14.799   0.228 -0.0852 -0.1713 -0.1060
16030W        W25723   6.191   9.333  15.328  0.1050  0.0346  0.2281
16031W        W25724   4.099   0.366   3.293 -0.0147  0.1298  0.0772
16032W        W25725   9.843  15.704   1.004  0.2517  0.0387 -0.2203
16033W        W25726   2.528   2.443  16.632 -0.0655 -0.2105 -0.1545
16034W        W25727  16.219   1.940   2.161 -0.0327  0.0121 -0.2242
16035W        W25728  12.221   7.612   0.657  0.1956  0.0832  0.2658
16036W        W25729   4.208   2.078   2.381 -0.1616 -0.0234  0.0537
16037W        W25730   3.446  13.660  17.532 -0.1728 -0.1792 -0.2206
16038W        W25731  13.003  16.588  15.865 -0.3430 -0.2028  0.0411
16039W        W25732  12.300  11.743   0.272 -0.2404 -0.0275 -0.0495
16040W        W25733  17.226   0.514  14.994 -0.0397 -0.1635  0.3654
16041W        W25734  17.289  12.411   0.403 -0.2206 -0.1213  0.3696
16042W        W25735   8.156   0.505   0.308  0.1125  0.4566  0.0962
16043W        W25736   9.650  14.175  14.224  0.1534  0.0866 -0.0069
16044W        W25737  16.268   3.616   5.696  0.1603  0.1284 -0.1153
16045W        W25738   1.897   7.304   4.525 -0.0180  0.0562 -0.0718
16046W        W25739   3.370   4.733  12.078 -0.0928  0.1108  0.2527
16047W        W25740  16.696  10.267   4.365 -0.1487 -0.1307 -0.1944
16048W        W25741  14.879  16.735   2.394  0.1891 -0.0258  0.2118
16049W        W25742   5.463  14.051  14.896  0.1113 -0.2054 -0.1403
16050W        W25743  12.176   9.217   2.099 -0.2036  0.1327 -0.1748
16051W        W25744  10.776  17.435  14.785  0.1609  0.1155 -0.3158
16052W        W25745  16.137   8.042   6.758  0.0476 -0.0273 -0.2732
16053W        W25746  17.430  15.490   1.690 -0.0358  0.5412 -0.2496
16054W        W25747  10.272  11.972  12.533 -0.1347 -0.4165  0.2834
16055W        W25748   7.625  12.143  14.612  0.2551  0.3094  0.2530
16056W        W25749  13.036   6.603  11.916  0.0886  0.0232 -0.0008
16057W        W25750   6.298  16.025  12.106 -0.3945  0.1989 -0.3958
16058W        W25751   7.564  15.141   3.865 -0.3491 -0.1545 -0.0641
16059W        W25752  14.508  11.262  16.328  0.3169  0.1288 -0.1241
16060W        W25753  16.924  10.514  16.274  0.3063  0.1621  0.1966
16061W        W25754  12.183   0.126  16.105  0.1707  0.0853  0.0210
16062W        W25755   1.541   6.897  13.603  0.1085 -0.3505 -0.1447
16063W        W25756   2.176   1.061  14.026 -0.0821 -0.0203 -0.0400
16064W        W25757  11.208   7.265  14.544  0.1743  0.0348 -0.0138
16065W        W25758   6.097   7.948  12.296 -0.1052  0.0844 -0.1953
16066W        W25759   6.106   8.214   5.514  0.1827  0.0925 -0.1922
16067W        W25760   6.142   9.979  12.157 -0.4213  0.1808  0.0632
16068W        W25761   1.529  14.614  16.434  0.4013  0.0959  0.0472
16069W        W25762   2.745   3.293   4.804  0.0955 -0.3296  0.3767
16070W        W25763   3.459  15.981   3.307 -0.0254 -0.2297 -0.0291
16071W        W25764  11.728  13.613   1.766 -0.1760  0.1588  0.0067
16072W        W25765  13.705   8.688   2.982 -0.2068  0.0627  0.0530
16073W        W25766   9.183  15.454   1.375 -0.0410  0.0778 -0.2552
16074W        W25767   5.347   5.534   3.947 -0.1073  0.0739  0.1187
16075W        W25768   4.119   2.883   4.562 -0.2393 -0.1894  0.0679
16076W        W25769  12.918  14.119  13.313 -0.3077  0.2414 -0.1163
16077W        W25770  10.162   7.042  16.762  0.2523  0.0002  0.1454
16078W        W25771  15.399   6.795   4.998 -0.1787  0.1378  0.1043
16079W        W25772  10.875  13.631   2.298  0.2248  0.1466 -0.1425
16080W        W25773  11.308   0.638  15.140  0.2223  0.1184 -0.2343
16081W        W25774   5.890   0.526  15.573  0.1515  0.0530 -0.2954
16082W        W25775   4.221   1.659   3.883 -0.3240  0.2037  0.4637
16083W        W25776  13.869   1.611  17.483  0.1359  0.0224 -0.1216
16084W        W25777   8.180  11.749  13.455  0.1627  0.1904 -0.1211
16085W        W25778  14.007  13.881   2.234  0.0653 -0.1848  0.2054
16086W        W25779   9.186   1.789   2.889 -0.0993 -0.2085  0.1182
16087W        W25780  13.465   7.578   1.898  0.0405 -0.0164 -0.0917
16088W        W25781  13.693  15.802  12.726 -0.0572  0.1752  0.2346
16089W        W25782   6.872  12.208   0.539  0.1552 -0.1206  0.2346
16090W        W25783   0.544  16.156   3.733  0.0221 -0.1555 -0.0965
16091W        W25784  12.491   4.321  17.082 -0.0573 -0.0057 -0.2483
16092W        W25785   1.332  12.651   1.232 -0.1609  0.0318 -0.0920
16093W        W25786   7.269  12.933  15.727  0.0671 -0.1976 -0.2337
16094W        W25787   6.674   6.078   2.004 -0.1416 -0.1864 -0.1468
16095W        W25788  14.841   8.500   3.960 -0.1564  0.0102  0.0581
16096W        W25789  13.978  16.857   2.861  0.0775 -0.2348 -0.0637
16097W        W25790  17.542   2.273   6.135 -0.1409 -0.1145  0.1478
16098W        W25791   9.891  16.575  13.612 -0.3652 -0.1613  0.2949
16099W        W25792   9.660  13.241  16.534  0.1330  0.1157  0.1255
16100W        W25793   1.168   5.153   4.510  0.1615  0.1215  0.2687
16101W        W25794  15.798  12.529   6.093 -0.1926 -0.0966 -0.0656
16102W        W25795   4.519   7.237  13.088  0.2027  0.2827  0.4440
16103W        W25796  14.323  12.343   3.087 -0.2420  0.1650  0.1785
16104W        W25797   6.812   0.512  12.131 -0.1673 -0.3454 -0.1283
16105W        W25798  14.832   6.224   5.202  0.1792 -0.0287  0.0833
16106W        W25799   7.166  12.781  12.908  0.1573 -0.0338  0.0183
16107W        W25800  15.749  11.724  12.622 -0.1412  0.2216  0.1523
16108W        W25801   3.760  17.671   0.246  0.3686 -0.0343  0.1012
16109W        W25802   6.515   5.929  14.146 -0.2731  0.0791 -0.1747
16110W        W25803  13.931  11.207   4.971 -0.0824  0.1267  0.2646
16111W        W25804   7.091  11.949  14.748  0.1817  0.1377 -0.3072
16112W        W25805  14.606   6.764  16.734  0.3071 -0.2074  0.0897
16113W        W25806   0.862  14.681   0.073 -0.3028  0.3587 -0.0763
16114W        W25807  15.016  16.270  16.844  0.1933 -0.0372  0.1871
16115W        W25808   9.378  13.726   1.642 -0.0451  0.0107  0.1697
16116W        W25809   2.563   3.238  13.383 -0.1680 -0.1936 -0.0144
16117W        W25810  14.518  12.434   1.153 -0.1443 -0.0830 -0.1739
16118W        W25811   5.694   1.232   1.808  0.1036 -0.0257  0.0039
16119W        W25812   6.693   5.625  17.130  0.1237  0.2778  0.0143
16120W        W25813  15.181   6.696   1.090 -0.2032  0.1868  0.0411
16121W        W25814   0.466  10.430   5.672  0.2281  0.1488 -0.0377
16122W        W25815  12.847  11.081  16.061  0.2830 -0.1834  0.0883
16123W        W25816   3.251  15.748  16.583  0.0400 -0.1486 -0.0734
16124W        W25817   5.329   7.433  15.211 -0.0943 -0.0816  0.2646
16125W        W25818  10.524   4.554   2.770  0.0036  0.0722  0.1557
16126W        W25819  15.562  11.108  14.174 -0.0043  0.0855 -0.3211
16127W        W25820  16.878  13.983  14.338  0.0907  0.0412  0.2453
16128W        W25821   4.395   5.862   2.171  0.1592  0.1200  0.1071
16129W        W25822   4.381   3.394  12.734  0.1264 -0.1451 -0.0666
16130W        W25823  12.861   5.200   0.920  0.0778  0.3393 -0.0688
16131W        W25824   5.221   7.494  14.596 -0.3281 -0.1689  0.0957
16132W        W25825   7.883  13.659  13.273  0.0828 -0.0507  0.3007
16133W        W25826  14.337   4.874   0.468  0.1829  0.0839  0.0322
16134W        W25827   5.844   2.941   5.331  0.2257 -0.3110  0.1504
16135W        W25828   2.676   2.628   3.081  0.2054 -0.0602  0.0608
16136W        W25829  14.230   5.885  17.139 -0.0209 -0.0327 -0.3478
16137W        W25830  10.382  10.927  12.989  0.1994 -0.0183  0.1540
16138W        W25831  16.019   5.250   0.871  0.2265 -0.0897 -0.1106
16139W        W25832   9.375   7.518   3.444  0.2332  0.1032  0.3608
16140W        W25833   5.163  15.267   2.083  0.1220 -0.1345 -0.0066
16141W        W25834  16.816   2.623   0.895 -0.0821 -0.0250  0.1534
16142W        W25835   9.310  10.670  15.280 -0.0637  0.3074 -0.0648
16143W        W25836   7.288   9.216   5.151  0.4994 -0.0946 -0.0304
16144W        W25837   1.029   9.465   6.478  0.1834 -0.0764 -0.4008
16145W        W25838   1.307   7.303   4.663  0.2084  0.0633  0.2585
16146W        W25839   5.765  16.032   2.055  0.1820  0.2921 -0.0410
16147W        W25840  12.779   3.820  13.897  0.1213  0.0554 -0.1729
16148W        W25841   6.289   8.060  14.124 -0.3620 -0.1962  0.2547
16149W        W25842   1.626   1.771  17.268 -0.1091 -0.1362 -0.1925
16150W        W25843   0.396   3.247  16.772 -0.0456 -0.0515  0.0488
16151W        W25844   9.414   8.375   1.683  0.0124 -0.1064  0.0996
16152W        W25845   2.051   3.892  16.372  0.0214  0.0364  0.2387
16153W        W25846  16.324  17.221  14.872  0.1331 -0.3023 -0.0532
16154W        W25847   1.440   1.998   2.003  0.1688  0.0333  0.1206
16155W        W25848   1.777  11.381  17.073 -0.0554  0.2918  0.1397
16156W        W25849  16.730   9.555   5.638  0.0645 -0.0891  0.2546
16157W        W25850   8.690  11.773   3.314 -0.0956  0.1551 -0.2128
16158W        W25851   6.189   2.283  11.402 -0.2032 -0.0964 -0.1857
16159W        W25852   1.827   2.853   3.921 -0.0700  0.2360 -0.1416
16160W        W25853   9.438   3.704   1.607  0.0081 -0.0294  0.0408
16161W        W25854  14.239   1.482   2.683 -0.3400  0.3294 -0.4253
16162W        W25855   4.969   9.558   3.983  0.0126  0.1638  0.1427
16163W        W25856  12.295   4.815   4.785 -0.1437 -0.2721 -0.3275
16164W        W25857  13.967   7.176   1.882  0.0971 -0.0638 -0.0657
16165W        W25858   7.414   6.663  16.183 -0.1273  0.2333  0.4908
16166W        W25859  13.274  12.233   4.476  0.0973 -0.1817  0.0040
16167W        W25860   0.018  15.955   1.700  0.0999 -0.1440  0.1308
16168W        W25861   1.971   9.258   3.827  0.2059  0.0871  0.1050
16169W        W25862  15.109   3.638  11.866 -0.1659  0.3597 -0.2887
16170W        W25863  10.527   4.263  16.111 -0.0666 -0.0262 -0.1341
16171W        W25864  11.804  11.216   1.100  0.2201  0.0587  0.2209
16172W        W25865  13.378   3.790  16.836  0.1809 -0.0759  0.0549
16173W        W25866  12.661   0.202  16.597 -0.2746  0.2865 -0.3121
16174W        W25867   4.177  17.385   0.428  0.2359  0.1042  0.1684
16175W        W25868  11.772  10.551   3.666 -0.0966  0.0854  0.0352
16176W        W25869   4.393   1.810  11.815 -0.1076  0.2441  0.0661
16177W        W25870   5.342  11.809  13.893  0.0163  0.0826 -0.0050
16178W        W25871  16.049   2.291   3.994  0.0140  0.3355  0.0420
16179W        W25872   0.202  13.159  11.802  0.2675 -0.2418  0.1421
16180W        W25873   2.293  16.061  16.260  0.0370 -0.1312  0.1150
16181W        W25874   3.180  14.553  11.777 -0.0963 -0.0039  0.2193
16182W        W25875  12.847   3.474  14.905  0.0501  0.0101  0.1743
16183W        W25876   8.837   1.698  13.143  0.1058 -0.0294 -0.1590
16184W        W25877   2.091   2.622  12.965  0.0204  0.0872  0.1082
16185W        W25878   0.101  14.095   2.678  0.1018 -0.2471 -0.2062
16186W        W25879  14.401  13.902   6.008 -0.0158 -0.0893  0.5162
16187W        W25880   4.181   3.593   3.623  0.0063 -0.1288 -0.1951
16188W        W25881  10.894   0.401  15.305 -0.0993  0.2238 -0.2525
16189W        W25882   6.097   9.686   5.905  0.3010 -0.1363 -0.3128
16190W        W25883  10.079  16.138  16.656 -0.3182 -0.1065  0.0310
16191W        W25884  15.586   6.170   2.851  0.1759 -0.0963  0.0623
16192W        W25885  17.190   8.021  13.498  0.0637 -0.0552  0.2265
16193W        W25886   4.114  10.369  15.262 -0.2126  0.2162  0.0094
16194W        W25887   2.080  15.368   2.971  0.0479 -0.0689  0.1877
16195W        W25888  10.069   4.513   4.929 -0.0588 -0.2825  0.0795
16196W        W25889  13.141   9.205  13.159 -0.1734  0.1881  0.2806
16197W        W25890  11.523  10.000  12.747 -0.0524 -0.0422 -0.0967
16198W        W25891   6.793  13.673  12.303 -0.1375  0.0818 -0.1261
16199W        W25892   2.307   8.270   3.429 -0.2315  0.0539  0.1231
16200W        W25893  13.726   9.761  12.658  0.1922 -0.1207  0.2265
16201W        W25894  15.382   3.596  14.550 -0.1642 -0.3805 -0.1950
16202W        W25895   8.603   2.699  14.550 -0.0208  0.1358 -0.3824
16203W        W25896  13.361  16.054  14.099 -0.0767 -0.3743  0.2687
16204W        W25897  14.382   4.119  17.043  0.0935  0.0946  0.1144
16205W        W25898   8.372   6.611   0.820  0.0915 -0.2233 -0.2861
16206W        W25899   5.427   4.076  13.205  0.1829  0.0808 -0.2300
16207W        W25900   4.360  12.204  11.807 -0.0388 -0.1373  0.0702
16208W        W25901   9.243  11.367   7.354  0.3272 -0.0211  0.2054
16209W        W25902  12.684  14.679  16.027  0.0620  0.3582  0.0895
16210W        W25903   0.016  10.649  11.922 -0.6006  0.0852 -0.0164
16211W        W25904  13.323   6.402   1.844 -0.0558 -0.1973  0.0676
16212W        W25905   9.868  12.587  16.919 -0.0831 -0.1033 -0.2784
16213W        W25906  12.059   1.692  10.957 -0.0336  0.0845 -0.0328
16214W        W25907   1.625   8.734  16.613 -0.2321  0.2344  0.1145
16215W        W25908  10.715  11.362  17.295 -0.0008 -0.1223  0.1143
16216W        W25909  15.650  11.728   1.791  0.1453  0.0285 -0.0776
16217W        W25910   2.962   3.006   3.283  0.0806 -0.0902 -0.0196
16218W        W25911  14.128   5.995   4.792 -0.0152  0.0400 -0.3043
16219W        W25912  12.916  16.936   6.067 -0.0500 -0.1515 -0.1991
16220W        W25913  10.155  12.589  14.406 -0.3000  0.1469 -0.1050
16221W        W25914  13.952   9.910   6.212 -0.1076  0.1571 -0.0424
16222W        W25915  12.629  13.417  14.080 -0.0404 -0.1315  0.1178
16223W        W25916  12.304  10.483  13.653 -0.2482  0.3826  0.2963
16224W        W25917   8.265   4.285  16.664 -0.1690  0.1991  0.1251
16225W        W25918  13.751  12.874  12.434  0.2732  0.3009  0.2460
16226W        W25919   2.294  13.605  15.614  0.0259 -0.2857  0.1240
16227W        W25920  11.727   7.312   2.962  0.1168 -0.0460  0.1801
16228W        W25921  13.535  13.469  16.515  0.3669  0.3377  0.2233
16229W        W25922  16.497  16.797   4.023  0.3286  0.0488  0.1353
16230W        W25923   6.515   0.648  16.473  0.0045  0.2297 -0.2326
16231W        W25924  13.812   2.778  14.369  0.1624  0.0445 -0.0241
16232W        W25925  10.763   9.711  17.360 -0.2420 -0.1916  0.0512
16233W        W25926  12.796  11.849   1.305 -0.1989  0.2681 -0.3841
16234W        W25927   7.584  17.075  11.952  0.0264 -0.0293  0.3813
16235W        W25928   6.292   1.789  17.047  0.1861  0.2256  0.0366
16236W        W25929  11.935   6.925  17.300  0.0613  0.2147  0.1058
16237W        W25930  15.427  10.201  16.756  0.0390 -0.2964 -0.1255
16238W        W25931  12.482   3.055  13.801  0.0844 -0.4231  0.0277
16239W        W25932  10.087   8.563  15.670 -0.2502  0.1003 -0.0518
16240W        W25933  12.424   4.342   1.844  0.1028  0.3858  0.0053
16241W        W25934   2.608   6.765  11.580 -0.2390  0.2319 -0.4087
16242W        W25935  14.805   6.151   0.506  0.1511 -0.0434  0.2830
16243W        W25936  10.544  15.802   5.787 -0.1645 -0.0613 -0.2935
16244W        W25937  13.713   1.827  13.748  0.1596  0.0294 -0.5028
16245W        W25938  16.413   5.025   2.530  0.0104 -0.0523 -0.2042
16246W        W25939  15.801  17.162   5.171 -0.3729  0.0018  0.3321
16247W        W25940   2.119   6.225  16.015 -0.1721 -0.2440 -0.1363
16248W        W25941   9.272   9.827  16.962  0.3980 -0.0618 -0.2400
16249W        W25942   6.639  15.863  16.930  0.2467 -0.0591 -0.0159
16250W        W25943  15.634  10.385   2.188  0.1402 -0.0336  0.0735
16251W        W25944  13.220   8.749   5.807 -0.2330  0.0196 -0.0335
16252W        W25945  13.952  11.933   0.689  0.2357 -0.1720 -0.1280
16253W        W25946  11.281   4.470   1.127  0.1929 -0.4467 -0.1669
16254W        W25947   4.742   1.808   4.775  0.2163 -0.2323 -0.0005
16255W        W25948   3.867  16.062  17.226  0.1227 -0.2418 -0.2263
16256W        W25949   3.306   3.675   0.809  0.0308 -0.0873  0.1204
16257W        W25950  12.321   1.317  13.083 -0.1399  0.1224  0.0560
16258W        W25951   4.170  16.897   3.472  0.1021  0.1434  0.0753
16259W        W25952  15.761  17.209   0.943 -0.2578  0.0390  0.1492
16260W        W25953   7.289  11.950   5.982  0.2814 -0.0271  0.0281
16261W        W25954  13.107   0.461  15.752  0.1085  0.0579 -0.1080
16262W        W25955   2.695   4.329  15.497  0.0597 -0.0887  0.2035
16263W        W25956   0.072  17.331  12.818  0.2200 -0.2216  0.2198
16264W        W25957   9.190   9.902   1.795 -0.1506  0.2203 -0.0909
16265W        W25958   9.740  14.377   5.390  0.1617 -0.3190  0.0731
16266W        W25959   4.622  16.955  15.079  0.0606 -0.1404 -0.2787
16267W        W25960   3.636   9.951   3.635 -0.1972 -0.2276  0.1233
16268W        W25961  16.910   8.274  15.697 -0.0438 -0.1520  0.0283
16269W        W25962  16.373   9.407   6.004 -0.1324  0.0639  0.1745
16270W        W25963  14.059  17.394   5.207 -0.0561  0.0080 -0.2809
16271W        W25964   8.318   6.301   1.936  0.0631  0.3269 -0.0928
16272W        W25965   4.662  12.474   3.053  0.1465 -0.0234  0.1430
16273W        W25966  12.477  16.446  17.107  0.3681 -0.0015 -0.0501
16274W        W25967   7.234  11.181  16.206 -0.0580 -0.0466  0.0668
16275W        W25968   7.398   9.438  15.696 -0.4366 -0.1689 -0.3095
16276W        W25969  14.536  13.905  14.262  0.4072 -0.4723  0.0770
16277W        W25970   4.964  17.097   2.629  0.0402 -0.2341  0.3291
16278W        W25971   1.709  14.339   1.414  0.0483  0.0451  0.1059
16279W        W25972   1.693   9.633   6.055  0.0286 -0.1557  0.1891
16280W        W25973  14.556   5.994  14.773  0.0338  0.1325 -0.1549
16281W        W25974   3.308   2.520   6.112 -0.1032  0.1283 -0.4079
16282W        W25975   6.330   3.654  14.085  0.0811  0.0829  0.5901
16283W        W25976  14.867   5.238  11.937 -0.1640  0.1988 -0.0662
16284W        W25977  17.190   5.790   5.390 -0.0524 -0.1384 -0.1751
16285W        W25978   1.695  14.607  14.329 -0.2881  0.0601 -0.0063
16286W        W25979   2.365   1.626   3.363  0.0674  0.1877  0.1807
16287W        W25980   1.166   7.083  13.288 -0.0924  0.1363  0.1841
16288W        W25981   4.148   7.743  14.888 -0.0246  0.1253 -0.1416
16289W        W25982  11.797   8.345  16.024 -0.5388 -0.1607  0.0486
16290W        W25983   0.405   7.681  15.930 -0.3549  0.0350 -0.0752
16291W        W25984   7.650  16.294   3.821  0.2380  0.1027  0.2498
16292W        W25985   5.996   1.968  16.134 -0.3476  0.1287  0.0869
16293W        W25986  11.451  16.771  13.084  0.2454 -0.2767  0.0219
16294W        W25987  12.006   9.660   7.010  0.1445  0.1186  0.3968
16295W        W25988   7.778   2.940   0.319 -0.2664 -0.1344 -0.0988
16296W        W25989   0.715   1.978  14.733 -0.1704 -0.0733  0.0233
16297W        W25990   0.414   6.846  15.900  0.0745 -0.1401 -0.0156
16298W        W25991   4.127   8.139   2.195 -0.0187  0.1156 -0.1309
16299W        W25992  15.258   1.534   5.192 -0.0947  0.0696 -0.0155
16300W        W25993   9.211  17.452   1.132 -0.0835 -0.0717  0.1214
16301W        W25994   8.997  11.547  15.431  0.0499  0.0366 -0.0044
16302W        W25995   0.058   5.515  16.631  0.1796  0.2168  0.1224
16303W        W25996   3.651   0.838   4.640  0.0906  0.2528 -0.0537
16304W        W25997   5.161  12.951  14.980 -0.0385 -0.4028 -0.0684
16305W        W25998  12.008  13.000   5.667  0.1068 -0.1447  0.1711
16306W        W25999   3.575   7.468  16.193  0.1102  0.0857 -0.0401
16307W        W26000  11.289   3.890  13.535 -0.1236  0.2251 -0.1600
16308W        W26001   6.094  16.583   0.328 -0.1072 -0.2681 -0.0911
16309W        W26002  15.570  15.144  14.337 -0.2738 -0.0274  0.0744
16310W        W26003   2.080   1.723  17.660  0.1775 -0.1750 -0.0825
16311W        W26004   0.669  12.148  14.859 -0.0773  0.1129 -0.2661
16312W        W26005   1.540   4.837  12.287  0.0581  0.0170  0.1087
16313W        W26006   2.428   0.622   5.463 -0.1008 -0.0013  0.1504
16314W        W26007  15.938  10.947  13.437  0.1447 -0.0845 -0.0804
16315W        W26008  12.526   4.598  14.803 -0.2730 -0.1999  0.3142
16316W        W26009   2.417   9.223   5.477 -0.1325 -0.0359  0.2012
16317W        W26010  10.915   6.909   2.927  0.3748  0.0755 -0.4989
16318W        W26011   7.698   8.958  11.945  0.0338  0.1301  0.1759
16319W        W26012   3.673   6.667   2.276 -0.0106 -0.1213 -0.1976
16320W        W26013   6.407  16.978   3.249 -0.2844 -0.1344  0.0781
16321W        W26014  16.263  13.378  15.380 -0.1584 -0.1054 -0.0840
16322W        W26015   2.305   6.746  12.343  0.0365  0.1028  0.0395
16323W        W26016   5.047   8.767   2.454 -0.0632 -0.1522  0.0563
16324W        W26017  15.409  12.205  15.085  0.1586  0.2080 -0.0449
16325W        W26018   9.320  12.107  13.497  0.1203  0.3195 -0.0833
16326W        W26019   5.893   3.994  17.450  0.0154  0.1052 -0.2324
16327W        W26020   5.132  17.676  12.757 -0.2169 -0.5322  0.0065
16328W        W26021   2.100   4.318   3.879 -0.0470  0.2038 -0.2945
16329W        W26022   1.832   1.039   1.906  0.2108  0.1632  0.0875
16330W        W26023  10.981   6.945  12.919 -0.1725 -0.2003 -0.0365
16331W        W26024   1.108  17.167   3.327  0.1770 -0.4138 -0.0411
16332W        W26025   5.331  16.504  16.086 -0.3134  0.0872 -0.0568
16333W        W26026   2.001  11.307   3.269 -0.0250 -0.4274 -0.0061
16334W        W26027  11.545   1.575  11.166  0.0770  0.1466 -0.1195
16335W        W26028  17.223   6.460   0.198  0.0670  0.1398 -0.0262
16336W        W26029  12.062  16.144   2.036 -0.0956  0.2662 -0.1137
16337W        W26030   9.622  14.626   1.792  0.1430  0.2378 -0.2016
16338W        W26031   6.437  15.830   0.311 -0.2957  0.0528  0.0698
16339W        W26032  11.690  16.769   4.165 -0.3716 -0.1769 -0.0677
16340W        W26033   6.482  10.718  12.664  0.1160 -0.1396  0.1690
16341W        W26034   9.264  15.078   4.922 -0.1093 -0.1240 -0.0448
16342W        W26035   7.273  10.670   5.541 -0.3865  0.1068  0.0133
16343W        W26036  12.745  12.192  16.603  0.2178 -0.0968  0.0655
16344W        W26037  11.181   4.723   5.575 -0.0973 -0.2071  0.1290
16345W        W26038   1.008  12.890   3.675  0.0339 -0.2104 -0.0072
16346W        W26039   7.215  14.596  12.363 -0.0857  0.1832 -0.2867
16347W        W26040   6.217  14.178   4.946  0.3969  0.0701 -0.0746
16348W        W26041   9.487  16.525  14.580  0.0721 -0.0104  0.0222
16349W        W26042  13.926  13.795  16.737  0.0814 -0.2765  0.0699
16350W        W26043   0.020   1.121   0.790  0.1291 -0.1150 -0.1701
16351W        W26044  16.330   0.265   3.166  0.1688  0.2614 -0.1899
16352W        W26045  16.182  15.475   3.901  0.0846 -0.1209 -0.0985
16353W        W26046   4.040   1.354  14.596  0.2931  0.0187  0.1738
16354W        W26047   0.484   1.948  17.130 -0.4423  0.1129 -0.0336
16355W        W26048   7.188   4.777  14.783 -0.2918 -0.2435  0.2417
16356W        W26049  12.184   7.622  13.549 -0.1838  0.1523 -0.1532
16357W        W26050   5.780   9.253  12.953  0.0713  0.0714  0.0744
16358W        W26051  15.480  12.769   4.783  0.0893  0.2116  0.1559
16359W        W26052  12.682   8.803  16.983 -0.1664  0.0553  0.1193
16360W        W26053   6.652  14.615   1.707 -0.1098 -0.1933  0.0754
16361W        W26054   0.953  12.473  14.477 -0.0259  0.1593  0.3666
16362W        W26055  14.901   1.902  11.638  0.2022  0.1658  0.2843
16363W        W26056   7.984  14.821   3.009  0.1520 -0.0784 -0.0074
16364W        W26057   7.032  13.764  12.712  0.0803 -0.1476 -0.1030
16365W        W26058  15.886  10.025  14.732 -0.0042 -0.0125  0.2404
16366W        W26059  17.152  14.912  17.681  0.0702 -0.1522  0.1420
16367W        W26060  16.446  14.008  13.592 -0.0020 -0.2197 -0.2485
16368W        W26061  10.038   6.051  16.601  0.0395  0.0603  0.0409
16369W        W26062  15.503   0.822  11.773  0.2093 -0.1257  0.1063
16370W        W26063  12.217  13.339  12.724 -0.2527 -0.0761 -0.0062
16371W        W26064  16.259   6.704  14.173  0.2504  0.1179  0.0140
16372W        W26065  17.546  16.005   6.288  0.1606 -0.1428  0.3879
16373W        W26066   7.275   0.298   3.000 -0.0152 -0.2768  0.1209
16374W        W26067  15.707   1.421  13.128  0.0607 -0.0574 -0.1031
16375W        W26068   7.223   4.969   4.915 -0.0663  0.4487 -0.0639
16376W        W26069  12.417  16.713   3.540 -0.2254  0.0471  0.0049
16377W        W26070  10.770  10.565  16.863  0.2890  0.1132  0.0356
16378W        W26071   7.377   1.949  16.295 -0.1447 -0.2300 -0.0067
16379W        W26072   3.824   1.184  15.090  0.1029  0.0960  0.0776
16380W        W26073   5.663   2.377  15.521  0.1813  0.2572  0.3239
16381W        W26074   2.465  15.760   5.235  0.2112  0.2654 -0.2796
16382W        W26075  12.164   2.873   3.466  0.0121  0.0829  0.0215
16383W        W26076  13.043   1.365  17.301  0.2277 -0.2582 -0.0688
16384W        W26077   6.483  16.656  15.691  0.1238  0.0363  0.2468
16385W        W26078  10.128  16.951   0.378  0.1087 -0.1635  0.1478
16386W        W26079  16.350  16.814   4.977  0.1315 -0.1019  0.1322
16387W        W26080   2.024   4.885  13.110  0.1425  0.2357 -0.0167
16388W        W26081   0.225  10.892  15.566  0.1363  0.1725  0.1563
16389W        W26082  16.016  13.814   4.969  0.0530  0.0524  0.1183
16390W        W26083   6.875   7.520  13.720 -0.1525  0.0757 -0.1621
16391W        W26084  15.720  14.892   4.785 -0.1559 -0.0258 -0.1878
16392W        W26085   4.635   4.210  12.038 -0.1023 -0.0219 -0.2413
16393W        W26086   2.023   7.447  14.382  0.0683  0.1602  0.0947
16394W        W26087  14.797   7.444   1.678 -0.3613  0.0847 -0.0377
16395W        W26088  13.832  10.395   3.444  0.0519  0.0397 -0.0332
16396W        W26089  16.798   7.797   4.140  0.2778 -0.0822  0.2092
16397W        W26090   1.827   8.648  11.599 -0.1420 -0.1243 -0.2440
16398W        W26091   1.017  16.836  11.303  0.3609  0.1321 -0.0359
16399W        W26092   2.366   1.104  12.396  0.0526 -0.4546 -0.1121
16400W        W26093   8.940  17.071   1.800 -0.3510 -0.2251 -0.2640
16401W        W26094   6.169   0.242  12.711  0.2224  0.0267 -0.0189
16402W        W26095   8.811  14.599  16.158  0.5652  0.2628  0.2507
16403W        W26096  12.800   9.668   1.815  0.2534  0.0397  0.0158
16404W        W26097   5.065   0.888   2.363  0.3280  0.1834 -0.2440
16405W        W26098   6.763  13.440  16.365 -0.0795 -0.1957  0.2108
16406W        W26099   6.396  10.640  13.526  0.1913 -0.0409  0.2003
16407W        W26100   9.856   1.452  17.092  0.0689 -0.2079  0.2028
16408W        W26101  14.900  15.441  15.747 -0.0422  0.0764  0.1678
16409W        W26102   6.968   2.253   4.014  0.1374 -0.1970 -0.0093
16410W        W26103   2.182   5.312  15.889  0.0783  0.0723  0.0911
16411W        W26104   9.372  11.284  15.676 -0.1407  0.2780 -0.2936
16412W        W26105   0.012   7.589  12.240  0.0674  0.0675 -0.0666
16413W        W26106   3.532   9.664   4.077  0.3211  0.1410 -0.0600
16414W        W26107   1.262  10.983  12.221 -0.0261 -0.1016  0.1049
16415W        W26108   8.735   0.279   0.519  0.2058  0.2950 -0.4765
16416W        W26109  11.025   0.909  16.626 -0.1793 -0.1369 -0.0525
16417W        W26110   5.692   7.296   0.428  0.2030 -0.1770  0.1894
16418W        W26111   2.266   5.770   0.202  0.3009 -0.1057  0.0481
16419W        W26112   6.007  10.439  17.370 -0.0176  0.1453  0.1126
16420W        W26113   2.520  11.996   3.957 -0.2631  0.3442 -0.0842
16421W        W26114  11.988  13.928  16.289  0.0311 -0.0142  0.0255
16422W        W26115   7.529   2.187   5.723  0.1562 -0.1053  0.4473
16423W        W26116  11.624   2.695   2.145  0.1536  0.0339 -0.2185
16424W        W26117  10.314  16.267   3.045  0.1290 -0.1114  0.1103
16425W        W26118  11.057  10.087   2.829 -0.3603  0.3063 -0.0644
16426W        W26119   0.628  10.410  17.136  0.0098 -0.2065  0.0060
16427W        W26120   1.654   1.553   5.100 -0.0724 -0.1589 -0.4509
16428W        W26121   4.458   7.514  16.292 -0.0367  0.0162 -0.2760
16429W        W26122  13.443   0.035  11.641 -0.2629 -0.2539  0.1678
16430W        W26123   5.941  11.828  11.755  0.0452  0.4412  0.1468
16431W        W26124  11.091   5.187   0.501  0.0664  0.1426  0.2828
16432W        W26125   0.465  12.177   3.351 -0.2325  0.0151 -0.0192
16433W        W26126   9.532   9.852   2.816 -0.0542 -0.3166 -0.4622
16434W        W26127   0.223  11.114   1.439  0.1415  0.0786  0.0430
16435W        W26128  11.498  14.805  12.557 -0.1558  0.0970  0.1003
16436W        W26129  15.373   0.601  16.707 -0.1744 -0.0080  0.1130
16437W        W26130   6.314   6.826   3.084 -0.2230  0.1418 -0.0622
16438W        W26131  17.535  12.874   6.091 -0.0335  0.1089  0.3678
16439W        W26132   1.346  16.142   0.182 -0.0238  0.0700  0.0460
16440W        W26133   4.155   3.261  15.121 -0.0427  0.2399 -0.1348
16441W        W26134  15.052   0.619   5.134  0.0097 -0.1663 -0.2020
16442W        W26135   6.484  15.815   4.915 -0.0771 -0.0551 -0.1977
16443W        W26136  16.702   6.796  13.908 -0.2269  0.1932 -0.2383
16444W        W26137   6.020  12.461  15.866  0.2856 -0.1585  0.2945
16445W        W26138   2.680   5.582  14.536  0.0118  0.0143  0.1142
16446W        W26139   5.132  16.180   0.747 -0.1094 -0.2668 -0.3100
16447W        W26140   4.115  10.222   2.768  0.2955  0.1067 -0.0724
16448W        W26141   6.352  16.523  11.851  0.0429 -0.2022 -0.0507
16449W        W26142  17.064   3.665  13.302 -0.1239  0.3987  0.1305
16450W        W26143   8.607  12.177  11.136  0.1006 -0.2646  0.0414
16451W        W26144  16.177   5.628  16.264 -0.1553  0.5698  0.0329
16452W        W26145   6.330   2.842   2.984 -0.0505 -0.0474 -0.1674
16453W        W26146  15.691   6.687  12.484 -0.1214  0.1919  0.1908
16454W        W26147   5.628  10.992   5.648  0.1094 -0.2219  0.1986
16455W        W26148   3.471  12.822   4.132 -0.2165  0.2015  0.0980
16456W        W26149  15.508  10.279  15.727 -0.2088  0.0954  0.2576
16457W        W26150   4.290   5.876  12.174 -0.0081 -0.2436  0.0961
16458W        W26151   6.954  10.117  17.308  0.1400 -0.2417 -0.0549
16459W        W26152  14.908   7.306  14.773 -0.0503  0.0366  0.2262
16460W        W26153  13.468  11.725  13.616 -0.1201 -0.2702 -0.2786
16461W        W26154  16.209   8.295  11.148 -0.2414 -0.0963  0.0080
16462W        W26155  16.101  11.314   1.688 -0.0744 -0.1313  0.0206
16463W        W26156   6.939   0.191  14.395 -0.0048 -0.1884  0.1232
16464W        W26157   2.577   1.688  14.410  0.0222 -0.0960 -0.0651
16465W        W26158   9.041   4.177  17.659  0.2677 -0.2748 -0.1563
16466W        W26159   9.516   1.002  14.698 -0.0218  0.1914  0.0772
16467W        W26160   3.269   6.717  14.502  0.4655 -0.0070 -0.3676
16468W        W26161   9.237   0.179  15.716 -0.5930  0.2258  0.0926
16469W        W26162   4.870   9.835   0.879  0.2082  0.2290 -0.0791
16470W        W26163  15.913   8.014  14.550 -0.0724 -0.0316 -0.0114
16471W        W26164   5.057   3.196   1.369 -0.0137 -0.0776 -0.0822
16472W        W26165   2.332  16.594  15.005 -0.0651  0.0934  0.2606
16473W        W26166   7.922   0.217   6.618 -0.0319  0.0185 -0.1182
16474W        W26167  13.162   5.497  14.840  0.0687  0.3003  0.0693
16475W        W26168  16.660   2.941   4.752 -0.0759 -0.0010 -0.2569
16476W        W26169   9.848   0.873  13.377  0.1034  0.3094 -0.3019
16477W        W26170   3.166  12.835  10.947  0.0258 -0.0129 -0.0481
16478W        W26171  11.120   1.810  16.461 -0.1184 -0.1027 -0.0516
16479W        W26172  14.918  12.021   6.738  0.1736 -0.1671  0.0903
16480W        W26173   2.163   5.077  16.351  0.3118  0.0391  0.0064
16481W        W26174  13.221   5.562   3.273 -0.0143  0.0544  0.0702
16482W        W26175   0.727   9.849   4.650 -0.0165 -0.1263 -0.2951
16483W        W26176   9.510  10.503  17.537  0.0015  0.2331  0.2258
16484W        W26177  15.112   4.826  15.384 -0.1750  0.0101 -0.0859
16485W        W26178  13.208   1.116  14.793 -0.0720 -0.1368 -0.3131
16486W        W26179  14.900  11.305   6.573  0.2798 -0.0717 -0.0885
16487W        W26180   2.639   9.624  12.921  0.2069  0.0201 -0.1290
16488W        W26181  15.133  16.946  17.477  0.2692 -0.1444 -0.0545
16489W        W26182   1.030   5.511   4.235  0.0126 -0.0490 -0.1920
16490W        W26183   4.470  16.024   5.839 -0.0231 -0.1650  0.1480
16491W        W26184  13.112   5.991   5.016 -0.1887 -0.3846 -0.0688
16492W        W26185   6.323   8.316   3.980 -0.0491  0.1091 -0.1947
16493W        W26186  10.238  11.111   5.688 -0.0413  0.1052 -0.0760
16494W        W26187  13.820   7.044  17.098 -0.1746 -0.1020 -0.0265
16495W        W26188   7.496   6.262   3.472 -0.0032 -0.2116 -0.0443
16496W        W26189   6.816   6.525  17.681  0.1940 -0.1366  0.1030
16497W        W26190  15.368  16.157  17.237  0.2249 -0.1776  0.0949
16498W        W26191  17.472   5.795  16.102  0.1065 -0.1464 -0.0959
16499W        W26192  16.867  16.291   3.345  0.2576 -0.0782  0.2743
16500W        W26193   8.787   0.753  14.695 -0.0621  0.0514 -0.0665
16501W        W26194  10.504   4.679   0.780 -0.0651 -0.1728  0.0778
16502W        W26195   4.542   3.593  16.704  0.1239  0.0220  0.1019
16503W        W26196  16.185   6.702  12.266  0.0475 -0.1413  0.0050
16504W        W26197   1.608   3.006   5.173  0.1314  0.3722 -0.0274
16505W        W26198   6.759   7.547  11.831  0.1953 -0.2958  0.0428
16506W        W26199   6.971   0.867   2.473  0.3041  0.2107  0.0761
16507W        W26200   3.082  16.128   6.902 -0.1434 -0.1713  0.0740
16508W        W26201  12.228   5.445   2.961 -0.3085  0.1722  0.1161
16509W        W26202   9.076   5.466  13.966 -0.1044  0.2760 -0.3686
16510W        W26203  12.170  10.668   1.941 -0.0757 -0.1268  0.0570
16511W        W26204   1.011   8.703   2.044  0.3374 -0.1115  0.0143
16512W        W26205  14.983   0.845  17.329  0.1299 -0.1050  0.1096
16513W        W26206   3.864  17.453  15.034 -0.0934 -0.2201  0.2030
16514W        W26207  15.070   0.051   5.323 -0.2278  0.1537 -0.3088
16515W        W26208  11.607   1.716   1.516 -0.0793  0.2129 -0.0420
16516W        W26209  15.721   2.457  12.181  0.1148  0.0776 -0.1273
16517W        W26210  13.249  16.342  15.443  0.1471  0.1605 -0.2513
16518W        W26211  14.204  10.520  16.987 -0.1417  0.1396 -0.1484
16519W        W26212  15.461  15.168  14.851  0.2196 -0.0385  0.0430
16520W        W26213   1.660   5.996   3.216 -0.2674  0.3043 -0.0208
16521W        W26214   8.136  14.891   1.774 -0.1354  0.1347 -0.1213
16522W        W26215   5.185   8.485  15.520  0.0287  0.2409 -0.2762
16523W        W26216   2.548  14.010   0.127 -0.0931 -0.0553 -0.0841
16524W        W26217  16.175   4.141  15.685 -0.2860  0.0091  0.0373
16525W        W26218   5.998   1.958  15.574  0.1442  0.0145 -0.0169
16526W        W26219   1.144  17.666  17.474 -0.4456  0.1688 -0.2049
16527W        W26220   8.498   6.034   3.615  0.4246  0.0740  0.2070
16528W        W26221  17.372  12.263  13.871 -0.1068 -0.0600  0.1681
16529W        W26222   6.914   6.186   4.524  0.1447  0.1959  0.1631
16530W        W26223  11.444   7.088  17.410  0.1516  0.1899 -0.2706
16531W        W26224  15.176   1.332  16.178 -0.3992  0.0848 -0.3411
16532W        W26225  16.773  16.313   0.665 -0.1219 -0.0843 -0.1133
16533W        W26226  12.272   6.112  12.857  0.0420  0.0602  0.2963
16534W        W26227  13.357  17.492   3.875  0.0400 -0.0363 -0.1974
16535W        W26228  16.598  12.481   2.391 -0.1709 -0.1195  0.0402
16536W        W26229   7.429   6.097   1.605 -0.0469 -0.5720  0.3314
16537W        W26230   9.933   9.478   1.504  0.0751 -0.3311  0.1257
16538W        W26231   8.896   1.406  15.927  0.1892  0.2715 -0.0944
16539W        W26232   8.011  12.659   2.508  0.2714 -0.1029 -0.0615
16540W        W26233   3.793  12.468  12.687  0.4179 -0.0005 -0.0733
16541W        W26234   4.790   2.318  12.514  0.2609 -0.0476 -0.2411
16542W        W26235   6.453  11.329   4.032 -0.2232 -0.4246 -0.0218
16543W        W26236   5.285   5.199   1.755 -0.4551  0.0671  0.1638
16544W        W26237   5.381   8.607  15.061 -0.0202 -0.0179 -0.1451
16545W        W26238  11.474  13.040  13.109 -0.2294 -0.1362 -0.0965
16546W        W26239   7.159  13.065  13.952  0.0184  0.3090 -0.2671
16547W        W26240  13.765   7.368  15.746 -0.1487 -0.1443 -0.1730
16548W        W26241   7.891  15.499   3.708 -0.0531 -0.0710  0.0708
16549W        W26242  16.014  10.040   4.900 -0.2089 -0.0943  0.0764
16550W        W26243  12.785   7.152   0.152  0.2106  0.1388 -0.0926
16551W        W26244   8.940  13.778   4.305  0.1907  0.2071  0.2902
16552W        W26245   3.257   9.533  15.491 -0.1552 -0.3147  0.3825
16553W        W26246  16.759   5.593   2.625 -0.0192  0.0304 -0.0533
16554W        W26247   3.154  17.086  16.363 -0.0558  0.2093  0.0446
16555W        W26248   6.907  15.255   1.482 -0.0907  0.1014  0.0845
16556W        W26249   6.051  14.563   4.612  0.3292 -0.0908 -0.1054
16557W        W26250  16.619   3.762  14.206 -0.1922 -0.2016  0.3838
16558W        W26251  12.854   2.200  15.367 -0.0432  0.2475  0.1362
16559W        W26252   3.853  10.668  15.825  0.3099 -0.2320  0.1759
16560W        W26253  17.289  16.132  15.809 -0.2120 -0.0152 -0.0060
16561W        W26254   5.309   0.788   1.934 -0.0941 -0.1802  0.0502
16562W        W26255   3.869  11.974  11.725  0.1989 -0.2207 -0.1496
16563W        W26256  11.646  16.585  13.728  0.0144  0.1278  0.0575
16564W        W26257  11.992  16.596   5.958  0.3609 -0.0336 -0.0004
16565W        W26258   4.659   5.892   1.228  0.2393 -0.0199  0.1204
16566W        W26259  15.368   7.738  13.925 -0.1107 -0.0339  0.0243
16567W        W26260  14.926  17.632  15.920 -0.1435  0.0322  0.1306
16568W        W26261   4.330  14.390  12.203  0.3213  0.1736 -0.0192
16569W        W26262  11.015   2.203   0.509  0.0127 -0.2537 -0.0704
16570W        W26263  16.841   8.603   1.267 -0.1523  0.0209  0.0131
16571W        W26264  14.427   9.568  14.340 -0.1406 -0.2575 -0.1048
16572W        W26265  12.276   2.450  16.317  0.1284  0.2391  0.0838
16573W        W26266  15.155  12.504  16.052 -0.0765 -0.0744 -0.1983
16574W        W26267  13.668   9.670  14.395 -0.0424 -0.1059 -0.0269
16575W        W26268   5.117  11.914  15.246  0.1335  0.2555 -0.0299
16576W        W26269   7.561   6.993   5.644 -0.0320 -0.4526  0.0738
16577W        W26270   5.973   0.887  14.725 -0.1414  0.1475 -0.0443
16578W        W26271  16.076  13.149   2.838  0.3348  0.1220 -0.0809
16579W        W26272   2.772   0.262   6.262  0.0666  0.0668  0.3247
16580W        W26273   8.645  10.611  14.582  0.3848 -0.1451  0.1372
16581W        W26274  14.931   1.627   3.317  0.1563  0.2042  0.3809
16582W        W26275   3.103   8.696   2.073 -0.2742  0.0909 -0.0953
16583W        W26276  16.135   2.936   1.340 -0.0779  0.0336 -0.2444
16584W        W26277   0.723  12.159  12.744 -0.0535 -0.0089 -0.0414
16585W        W26278   8.700   2.557  15.080  0.3255 -0.2863 -0.1992
16586W        W26279   2.968   5.611   5.588 -0.3232  0.0176  0.3123
16587W        W26280   5.751   8.767  14.500  0.0993  0.3390  0.2961
16588W        W26281  14.996   0.538   1.407 -0.0667 -0.2365  0.3451
16589W        W26282   8.331  15.860  17.236 -0.0486  0.0153 -0.0928
16590W        W26283   0.137  14.280  13.155  0.1990 -0.0494 -0.4302
16591W        W26284  10.876  13.690   3.275 -0.2644 -0.2063 -0.2695
16592W        W26285   3.721   9.420   2.579 -0.1964  0.1621 -0.1332
16593W        W26286   4.373  15.719  15.881 -0.0240 -0.2541  0.0063
16594W        W26287  15.149   3.258   3.707  0.2306  0.0873 -0.0844
16595W        W26288   2.565  13.714   5.658  0.0592  0.0932 -0.2285
16596W        W26289   2.374  15.367  14.928  0.1358 -0.0970  0.1243
16597W        W26290   1.810   3.678   5.199 -0.3559  0.0401 -0.1066
16598W        W26291   8.596   3.319  15.677  0.4047 -0.0942  0.1427
16599W        W26292   9.499  11.126   5.050  0.3088  0.1855  0.1251
16600W        W26293   1.926   8.247   4.844  0.1292 -0.1564  0.3739
16601W        W26294   4.577   2.343   2.572 -0.1004  0.2475  0.2240
16602W        W26295   0.332  11.246   0.091  0.2150 -0.0136  0.0768
16603W        W26296   6.235   7.684  12.749  0.3837  0.2245 -0.4046
16604W        W26297  13.864   1.314  13.907 -0.0719 -0.0537  0.0613
16605W        W26298   7.880  16.431  17.569  0.2443 -0.0417 -0.0030
16606W        W26299   8.252  10.764  17.535 -0.0977  0.2871  0.2256
16607W        W26300  17.321  10.969   4.740 -0.0148 -0.4679  0.2140
16608W        W26301   1.672   3.058   5.763 -0.0562  0.0742 -0.1777
16609W        W26302  12.172  11.712   6.926 -0.1825  0.0952 -0.1492
16610W        W26303   6.110   1.048  15.944 -0.0166  0.0891 -0.3875
16611W        W26304   4.097   0.526   4.673  0.2383 -0.1193  0.0236
16612W        W26305  17.633  13.229  12.303 -0.0235  0.0778 -0.1122
16613W        W26306  16.106   6.774   0.189  0.1319  0.1919  0.4699
16614W        W26307   8.580   7.490   0.778  0.2222 -0.0299 -0.0732
16615W        W26308   6.741   3.443   1.555  0.0271 -0.1654 -0.2196
16616W        W26309  16.155   7.245   2.945  0.0922  0.3411  0.2366
16617W        W26310   5.877  11.621   1.468  0.1131 -0.3742 -0.1243
16618W        W26311   1.021   4.016   2.984 -0.0188 -0.1941 -0.1079
16619W        W26312   1.493  16.852   3.488  0.0242  0.1275  0.0411
16620W        W26313   6.417  11.237   5.512 -0.1402 -0.0641  0.2134
16621W        W26314  11.793  11.421   1.580  0.1398 -0.1270  0.0894
16622W        W26315   6.140   2.221   4.080 -0.1768 -0.1333 -0.0753
16623W        W26316   8.136   5.846  13.177  0.0212  0.4159 -0.3420
16624W        W26317  12.849   3.267   1.368  0.4473  0.0011  0.1886
16625W        W26318  12.304   1.269  11.750 -0.0365  0.0752 -0.2130
16626W        W26319  15.482   3.075  13.737  0.0020  0.0151  0.1431
16627W        W26320   9.409  15.587  12.597 -0.2345 -0.0405  0.1725
16628W        W26321  13.368   3.328   2.890  0.1469 -0.2646  0.0827
16629W        W26322   5.258  13.993  12.652 -0.1057 -0.1182 -0.0257
16630W        W26323   6.058   4.340   6.803 -0.5438 -0.2982 -0.5128
16631W        W26324  17.074   4.555   3.447 -0.2005  0.1113  0.2542
16632W        W26325   5.289  16.396  12.930  0.0170  0.3785 -0.1933
16633W        W26326   6.629  12.765  14.988 -0.0472  0.1274 -0.1983
16634W        W26327  12.678   5.244   2.666  0.2058 -0.0927 -0.0199
16635W        W26328   0.424   8.950   4.544  0.0013  0.1623 -0.0519
16636W        W26329   8.863   4.027  13.295 -0.2969  0.0344  0.1331
16637W        W26330  13.964   0.090   3.420 -0.1618 -0.0218  0.3985
16638W        W26331   0.540   5.014  14.938  0.2197 -0.2504 -0.1274
16639W        W26332   7.563  12.376   0.923  0.3663  0.1591 -0.1009
16640W        W26333   6.556   3.896   6.238 -0.1375  0.2536  0.0380
16641W        W26334   6.135   0.773   1.366 -0.0844  0.1304  0.0159
16642W        W26335   3.974   3.029  13.169  0.2191  0.1285  0.0558
16643W        W26336   6.193  16.291  17.143  0.0673 -0.0311  0.1495
16644W        W26337  13.950  13.138   3.019  0.1039 -0.0552  0.0054
16645W        W26338   1.033   7.760   6.028 -0.3169  0.1098 -0.1395
16646W        W26339  12.879   3.484   2.916  0.0120 -0.0713  0.0790
16647W        W26340   5.953   0.127   5.423 -0.1640 -0.0427  0.2218
16648W        W26341  17.215   4.340  17.109  0.0540 -0.0374 -0.1454
16649W        W26342   7.670   7.068  11.561 -0.0137 -0.1009 -0.0591
16650W        W26343   5.955   4.098   5.019 -0.2277  0.0098  0.2230
16651W        W26344   8.144  13.315   7.395 -0.2229 -0.1528  0.0899
16652W        W26345   9.543   6.937   2.353  0.2370 -0.1109  0.0934
16653W        W26346   2.727   5.320   3.363 -0.3241 -0.0411  0.0899
16654W        W26347  12.483  10.522   4.589 -0.2751  0.0823 -0.0054
16655W        W26348  11.831  14.074   0.707  0.1271 -0.3787  0.1246
16656W        W26349  14.959   8.474  12.429 -0.0789 -0.0203 -0.4450
16657W        W26350   9.798  11.520  15.372 -0.0280  0.0553  0.0586
16658W        W26351  14.066   4.051   1.846 -0.0991 -0.0912 -0.3735
16659W        W26352  15.447  13.965  17.068  0.1080  0.1602  0.0487
16660W        W26353  16.054   8.407   2.196  0.0800  0.0569 -0.0833
16661W        W26354   1.869   4.298   0.404 -0.1062  0.1549  0.0638
16662W        W26355  15.368   6.019   5.700 -0.1514 -0.0343 -0.1465
16663W        W26356  16.002  14.247   6.656  0.1969 -0.2748  0.0908
16664W        W26357   3.706   8.785   0.965 -0.0180 -0.2297  0.3228
16665W        W26358   2.883   4.548  16.081  0.0478 -0.0636 -0.2217
16666W        W26359   1.166   1.818   6.170  0.3407 -0.1227  0.1227
16667W        W26360   8.089   6.873   0.464  0.4019  0.1248 -0.1241
16668W        W26361  16.646  14.915   5.184 -0.1601 -0.0090  0.0939
16669W        W26362  16.919  15.371   5.212 -0.1203  0.0301  0.3318
16670W        W26363  17.384   1.424  11.489 -0.1009 -0.1295 -0.2713
16671W        W26364   0.862   4.849   5.436 -0.0581 -0.1498 -0.1657
16672W        W26365  16.624   8.020  12.852 -0.0989  0.2786  0.0392
16673W        W26366  15.956  15.974  13.337  0.2811 -0.1267  0.0658
16674W        W26367  15.587  16.219  15.373 -0.0849 -0.1262  0.0136
16675W        W26368   7.508   8.055   2.545 -0.5220  0.1745  0.2237
16676W        W26369   3.254   2.569  15.921 -0.2335  0.0014  0.0822
16677W        W26370   0.815   0.209   0.579  0.0068 -0.1821  0.0494
16678W        W26371   5.342   0.074  16.739 -0.0744 -0.0396 -0.0451
16679W        W26372   6.887  12.900   2.881  0.0234 -0.2313 -0.2424
16680W        W26373   5.886   0.535  11.911 -0.1242  0.0715  0.0618
16681W        W26374   8.287  11.271  13.286 -0.1437 -0.0448 -0.0129
16682W        W26375  11.477   0.754  16.372  0.1004  0.0166 -0.1525
16683W        W26376  10.290   1.187  13.286  0.1027  0.1395  0.0519
16684W        W26377   3.765   8.061   6.053  0.1487  0.1064  0.0256
16685W        W26378  14.105   2.666  11.907  0.0628  0.1779  0.1356
16686W        W26379   0.517  10.964  13.537 -0.1965 -0.0778 -0.0069
16687W        W26380   1.917   0.677   4.734  0.0075  0.5097  0.3226
16688W        W26381   1.824  16.945   4.082  0.2252 -0.2134 -0.0701
16689W        W26382   0.901   8.094  16.384 -0.1043 -0.1628  0.1761
16690W        W26383  10.035   0.948  13.872  0.2454  0.2658  0.0216
16691W        W26384   1.918   3.273   5.408 -0.0207  0.0795 -0.1721
16692W        W26385  12.127   6.999   2.002 -0.2315 -0.0684 -0.0617
16693W        W26386   3.498   4.351  11.060 -0.0794 -0.0119 -0.0105
16694W        W26387   7.058  12.347  12.554 -0.1597 -0.1487  0.1856
16695W        W26388   4.146  14.856   4.799 -0.2297  0.1830 -0.0988
16696W        W26389   7.027   4.468   5.067 -0.0326  0.0997 -0.0736
16697W        W26390   9.938  16.774   3.888 -0.0108 -0.1648 -0.0429
16698W        W26391   2.531  12.522   0.507  0.3647 -0.0309  0.2509
16699W        W26392   8.261   9.738   2.130 -0.0616 -0.2317  0.3715
16700W        W26393   2.800  13.325  13.339 -0.3134 -0.0553  0.2519
16701W        W26394  14.756   7.049  12.748 -0.0689 -0.3159 -0.3810
16702W        W26395  11.991   6.785   5.035 -0.0426 -0.0468  0.0529
16703W        W26396  10.812  16.391  16.544 -0.0375  0.0071 -0.1107
16704W        W26397  12.121  12.772  15.116  0.2215 -0.1087  0.1809
16705W        W26398  10.197   7.024  15.546  0.2925 -0.0604  0.1469
16706W        W26399   1.417   6.400  12.434 -0.3599 -0.0217 -0.0176
16707W        W26400  10.987   9.413  12.412 -0.2995 -0.0987  0.1773
16708W        W26401  14.473  11.671   6.540 -0.0040 -0.0648 -0.0578
16709W        W26402  15.197   5.096  14.466  0.1500 -0.2281  0.1189
16710W        W26403   0.153   9.204   4.992 -0.0465  0.2129 -0.3176
16711W        W26404  13.926   7.705   1.562  0.0705 -0.0972 -0.1041
16712W        W26405   8.140   0.344  16.960 -0.3307 -0.0120  0.0421
16713W        W26406  15.545  17.636   0.258  0.0703 -0.2029  0.1916
16714W        W26407  13.668  13.334   3.723  0.1947 -0.4470  0.0680
16715W        W26408  16.790  13.876  13.281  0.1930  0.1900 -0.0524
16716W        W26409  13.832   5.859   3.930 -0.1879  0.1103 -0.2763
16717W        W26410  16.990  14.834  13.437  0.2063 -0.1328 -0.0280
16718W        W26411  13.403   4.391  12.644 -0.0239 -0.1418 -0.0934
16719W        W26412  10.962  15.842   1.120 -0.0457  0.0250 -0.0562
16720W        W26413   0.030   4.580  14.104 -0.0459  0.0189  0.0590
16721W        W26414  14.306   1.485   0.851 -0.2066  0.4960  0.0251
16722W        W26415  17.062  14.792   5.884  0.0086 -0.0407 -0.1123
16723W        W26416   8.123  10.475  15.406 -0.2296 -0.1701 -0.0487
16724W        W26417  10.828   5.619  15.599  0.3359  0.1010  0.1112
16725W        W26418  11.490   0.621   2.752  0.2506  0.0441  0.0433
16726W        W26419   7.321   7.488   3.224 -0.0545 -0.0888 -0.0263
16727W        W26420  16.474   2.094   5.145 -0.3407  0.1539 -0.0009
16728W        W26421   5.670   3.184   5.778  0.0955  0.0279  0.0257
16729W        W26422   9.856   2.725  14.025 -0.1762  0.0676  0.0676
16730W        W26423  13.629  13.871   5.525  0.2504 -0.2033  0.0217
16731W        W26424  14.972   7.110   0.869 -0.1384 -0.0550 -0.0932
16732W        W26425   7.396   2.229   1.276  0.1994 -0.1970  0.0060
16733W        W26426   8.018  12.646   4.742  0.2782  0.1405 -0.1557
16734W        W26427   1.462  15.641  14.399 -0.2822  0.0902  0.0249
16735W        W26428   7.407   3.337  16.026 -0.1476 -0.2908 -0.1385
16736W        W26429  11.986   6.639  16.795  0.0188  0.1189  0.2822
16737W        W26430  12.973   6.622  14.025  0.1139 -0.0609 -0.2230
16738W        W26431  17.029   8.421   2.924  0.0113 -0.2233 -0.3965
16739W        W26432   3.891  17.208   0.034  0.0852  0.0263  0.2104
16740W        W26433  17.180   4.982   3.153 -0.1600  0.0157  0.1743
16741W        W26434  17.119   3.083  12.554  0.0297  0.4122  0.1446
16742W        W26435   2.062   1.421   4.105 -0.0972 -0.1097 -0.0698
16743W        W26436   1.951  15.704   0.858  0.6492 -0.2153  0.0287
16744W        W26437   7.412   2.634   3.551 -0.1424  0.1354  0.1256
16745W        W26438  12.984   0.256  11.807  0.1429  0.1099  0.0486
16746W        W26439   7.858  12.656  16.965  0.0492 -0.1205 -0.1787
16747W        W26440   4.942   4.952  14.529 -0.0128  0.2105 -0.0547
16748W        W26441   1.226   4.926  16.811 -0.0852 -0.1705  0.2022
16749W        W26442  10.769   4.913  16.901 -0.0203  0.0517 -0.0901
16750W        W26443   3.478  17.161   1.461  0.1778 -0.0236  0.0302
16751W        W26444  16.993   9.187   0.580  0.0768 -0.0377 -0.0484
16752W        W26445   1.691   4.633   2.854  0.0358 -0.0187 -0.1633
16753W        W26446   3.814   3.830   5.886 -0.4224  0.0823  0.0245
16754W        W26447   8.828  14.244  13.688  0.4818 -0.1925 -0.1272
16755W        W26448  12.308  17.056  13.334  0.0452  0.1424  0.1069
16756W        W26449  15.986   0.129  14.032  0.0619  0.3098  0.0342
16757W        W26450  10.236   7.551  14.538  0.0748 -0.0725  0.0542
16758W        W26451  10.760   5.721   1.288 -0.0501 -0.2387  0.2187
16759W        W26452  15.848  11.833   7.131 -0.4565  0.0101 -0.2736
16760W        W26453  16.060  16.243   0.106  0.2400 -0.1021 -0.0243
16761W        W26454   6.020  12.936   1.540  0.0355 -0.0690 -0.2323
16762W        W26455  17.367  11.110  12.837 -0.0732 -0.0461 -0.1405
16763W        W26456   6.501   1.667  11.642  0.2348 -0.0132 -0.1941
16764W        W26457   2.793   3.358   1.054 -0.2331  0.1094  0.2956
16765W        W26458   1.123  15.588   2.787 -0.2421  0.2356 -0.1905
16766W        W26459   7.979  15.014   5.465  0.0613 -0.0418 -0.0128
16767W        W26460   8.167   1.775  13.866 -0.2101  0.2396 -0.0064
16768W        W26461   3.716  11.625  12.082 -0.1102 -0.1876  0.1548
16769W        W26462  10.396   7.623  17.513  0.5338  0.3579  0.0266
16770W        W26463   1.397  13.133   1.254  0.2471 -0.0871 -0.0738
16771W        W26464  14.672   4.677   1.571  0.3586 -0.2713  0.0771
16772W        W26465  16.876  12.261   2.795 -0.2521 -0.1306  0.0143
16773W        W26466   7.058  12.003   3.858 -0.0379 -0.0813  0.0432
16774W        W26467   5.418   9.626  16.829  0.0506  0.0504  0.1210
16775W        W26468   3.765   1.779  13.827  0.0000 -0.3594  0.1109
16776W        W26469   2.181  13.723  12.478  0.3623 -0.1621 -0.0640
16777W        W26470  11.203   4.925  13.405 -0.0135 -0.0287 -0.2720
16778W        W26471   7.619  14.320  13.310  0.0951  0.1615  0.2244
16779W        W26472  14.624   9.308  16.169  0.1014  0.2667  0.0133
16780W        W26473   6.472  16.878  13.865 -0.1660  0.0201  0.5639
16781W        W26474  16.650   7.224   4.563  0.0309  0.0355 -0.3104
16782W        W26475   2.061  13.455  16.025 -0.0842 -0.0184 -0.0655
16783W        W26476   9.004   7.959   4.964  0.2614  0.0648  0.2286
16784W        W26477   1.878   1.569   3.264 -0.3945  0.0497  0.0999
16785W        W26478   0.672  15.326   6.913  0.2232  0.0652 -0.3151
16786W        W26479   1.378  14.479   5.227 -0.1332  0.0463 -0.0891
16787W        W26480  12.346  12.989  16.482  0.2183 -0.0845 -0.1840
16788W        W26481   6.417   4.640  15.510  0.2404  0.1653 -0.2764
16789W        W26482   2.763   4.863  11.370  0.2472  0.2396  0.0666
16790W        W26483  16.569  12.932   5.081 -0.2465 -0.0154 -0.1593
16791W        W26484   8.628   8.769  12.129 -0.0482 -0.0470  0.2190
16792W        W26485   2.897   7.891  14.756  0.0072  0.1131  0.0405
16793W        W26486  14.496   6.925  15.169 -0.2000  0.2336  0.0575
16794W        W26487  15.610   3.772  11.975 -0.1448 -0.0295  0.0481
16795W        W26488  13.936  12.985  14.470 -0.0790 -0.1314  0.2348
16796W        W26489  17.065   3.966  13.712  0.1690  0.0147 -0.0803
16797W        W26490   1.254  11.193   5.097 -0.1403 -0.1213  0.0819
16798W        W26491  17.141  15.372  13.196 -0.0538 -0.2325 -0.1359
16799W        W26492   9.508   7.871   1.434 -0.2757  0.4722  0.1245
16800W        W26493  11.543  17.069  17.366  0.3318  0.0439  0.0992
16801W        W26494   6.227   7.453  12.264 -0.2645 -0.0908 -0.0521
16802W        W26495   0.107  10.919  12.607 -0.1184 -0.2027 -0.1136
16803W        W26496  15.428   6.050   4.002  0.2115  0.0719 -0.0034
16804W        W26497  11.164   9.539   5.557 -0.0164 -0.1000 -0.0504
16805W        W26498   5.371  13.349   4.909 -0.0919  0.0158 -0.0358
16806W        W26499  16.055  16.319   4.937 -0.2364 -0.0566 -0.3040
16807W        W26500   8.646   6.583  13.655  0.3059 -0.1896  0.3500
16808W        W26501  11.885  17.280  13.664  0.1951 -0.0551 -0.6408
16809W        W26502  10.772   3.214   4.375 -0.4945  0.1898  0.1580
16810W        W26503   0.209  10.380  15.369  0.0655 -0.0813 -0.2239
16811W        W26504   8.211  11.769  13.973  0.1401 -0.0381  0.0213
16812W        W26505   8.559   2.573   4.214 -0.0278 -0.1795 -0.1234
16813W        W26506  14.815  13.647   6.022 -0.1253 -0.0609  0.2373
16814W        W26507   7.036   2.853  14.829 -0.3548  0.1297  0.1951
16815W        W26508  13.401   0.281   4.208 -0.0803 -0.2933  0.0323
16816W        W26509  10.940   8.013  15.226  0.0840 -0.3573 -0.1574
16817W        W26510  13.459  10.661   4.612 -0.0845  0.1845 -0.0866
16818W        W26511  10.142  10.406  17.182  0.3925 -0.1634  0.2685
16819W        W26512   0.538  10.641  11.868  0.0792 -0.2639 -0.2150
16820W        W26513  10.783   2.538   2.245  0.0078 -0.2789  0.0800
16821W        W26514   2.095   8.741   3.169  0.2909  0.0468  0.2319
16822W        W26515   7.128   5.922   0.288  0.0595  0.0369 -0.0302
16823W        W26516  14.381   5.367   4.498 -0.0913 -0.1554 -0.0183
16824W        W26517  14.159   6.438  14.846 -0.1980 -0.3493 -0.3426
16825W        W26518   5.122  16.433  16.868  0.0640 -0.3816  0.0852
16826W        W26519   0.533   1.740  15.950 -0.1204  0.0220  0.0846
16827W        W26520  14.596  15.397  12.344 -0.2067  0.0426  0.0300
16828W        W26521   2.296   8.980  12.586  0.1823 -0.0932 -0.2624
16829W        W26522   7.791   1.852  14.981 -0.2819  0.0086 -0.2054
16830W        W26523  17.547  11.245   5.153  0.0727  0.0502  0.0855
16831W        W26524   8.165   9.514   1.696  0.0548  0.1639  0.0189
16832W        W26525  11.258   7.528   0.562 -0.0721 -0.3147  0.2461
16833W        W26526  16.807   8.741   5.237  0.2353  0.0913 -0.0323
16834W        W26527   1.175   6.436   1.848 -0.1059  0.3174 -0.1769
16835W        W26528   1.576  15.179   1.925  0.1937  0.3144  0.2788
16836W        W26529  14.017  10.801  17.458  0.1173  0.0874 -0.0747
16837W        W26530  16.485   6.692  16.226  0.0926  0.1056  0.0396
16838W        W26531   4.905   8.756   4.236 -0.1531 -0.1244 -0.1278
16839W        W26532  10.601   7.618  12.819 -0.2445 -0.0865  0.0723
16840W        W26533  13.295  16.562   0.549 -0.2287 -0.2972 -0.1514
16841W        W26534   0.136  13.907  14.134  0.1000  0.0511  0.4781
16842W        W26535  17.098   4.890   0.254 -0.1285  0.0112 -0.0004
16843W        W26536   8.945   8.246   1.702  0.1142  0.1250  0.2356
16844W        W26537   8.270  14.139   5.662  0.2381 -0.0229  0.2101
16845W        W26538  13.273   5.332   1.803 -0.1713 -0.0180 -0.0084
16846W        W26539   0.511   0.959  11.774 -0.4335  0.1512 -0.2167
16847W        W26540   4.843   2.216   2.109 -0.0522  0.2046 -0.0542
16848W        W26541  12.018  17.003  15.068 -0.0871  0.3476  0.0296
16849W        W26542  11.746  16.935  15.516  0.1146  0.0678 -0.0822
16850W        W26543  16.117  15.570  13.768 -0.2858  0.1115  0.0338
16851W        W26544   9.489   0.715   2.313  0.3657  0.1811 -0.3237
16852W        W26545  11.818  14.638  16.197 -0.1311  0.0809  0.1184
16853W        W26546  17.012   1.181   5.917  0.1676 -0.1250 -0.0902
16854W        W26547  17.003  13.437  16.145 -0.1508 -0.0241 -0.1368
16855W        W26548  11.670   1.944   3.701 -0.3405  0.0112 -0.3386
16856W        W26549  17.582   1.610   3.301 -0.5011  0.1239  0.0093
16857W        W26550  10.590   6.171   0.907 -0.0793  0.0153 -0.3440
16858W        W26551  16.319  10.665   2.339  0.1357 -0.2958  0.1060
16859W        W26552   9.388   7.500  14.880 -0.2077  0.3102 -0.2581
16860W        W26553   6.218   4.280   1.582  0.0367  0.2981  0.0295
16861W        W26554  13.206   9.725  17.093  0.0051  0.1529 -0.0951
16862W        W26555  10.939  15.503  12.357 -0.1448 -0.1276 -0.3798
16863W        W26556   6.498   1.329   0.319 -0.6709  0.0893 -0.1139
16864W        W26557  10.276  10.125   3.904  0.2362 -0.1488 -0.2197
16865W        W26558  15.183   8.336  14.707  0.0481 -0.1057  0.2708
16866W        W26559   7.959   6.227  13.541 -0.2318 -0.1923  0.0256
16867W        W26560  16.276   3.409  16.095 -0.0143 -0.0057  0.4354
16868W        W26561   4.355  16.118  15.574 -0.1130 -0.1717 -0.2148
16869W        W26562  13.087   9.958   5.643  0.3111 -0.1757  0.1600
16870W        W26563   1.452   7.819   2.000 -0.0407  0.1590 -0.0114
16871W        W26564   5.413   7.000   2.971  0.4341 -0.1821 -0.1967
16872W        W26565   2.509  12.935  13.189 -0.0507 -0.0942 -0.0852
16873W        W26566  13.908   9.944   4.022  0.0478  0.0853  0.0317
16874W        W26567   1.470  10.214  12.769 -0.1017 -0.0974  0.1075
16875W        W26568   2.808  10.558   3.932  0.0931  0.1107  0.0049
16876W        W26569  15.001  10.027  12.443  0.0847 -0.1497 -0.2383
16877W        W26570  10.109  10.798  16.373  0.1938 -0.0950  0.1270
16878W        W26571   1.779  16.697  16.851 -0.1023  0.0238 -0.0974
16879W        W26572  13.546   5.711   2.916  0.0120  0.0450  0.6524
16880W        W26573   0.056   2.188   0.513 -0.3119  0.0844  0.1704
16881W        W26574   6.179   6.687  15.660 -0.0002  0.0616  0.3242
16882W        W26575   9.667  12.390   0.267 -0.0537  0.0702  0.0042
16883W        W26576   5.942  15.751   4.127 -0.0344  0.2033  0.1021
16884W        W26577   8.980  11.134   1.338 -0.0371  0.0813 -0.0894
16885W        W26578  11.481   4.339   2.825  0.2048  0.1488 -0.2120
16886W        W26579   2.929  10.711   3.263 -0.0895  0.0298 -0.2008
16887W        W26580  17.551   9.299  14.111  0.1691 -0.0362  0.2807
16888W        W26581  11.782  13.937   2.965 -0.2836 -0.0182 -0.1055
16889W        W26582   3.098  11.324   5.808  0.0162 -0.1634  0.2781
16890W        W26583  12.247   0.808  11.947 -0.2241  0.0326 -0.0970
16891W        W26584   2.976  13.339   2.275  0.1176  0.2286  0.1159
16892W        W26585   7.232   2.093   2.121  0.0776  0.0636  0.0937
16893W        W26586   4.672   8.947   5.076 -0.0081 -0.3160 -0.0631
16894W        W26587  12.862   7.130   2.969  0.3480  0.4841 -0.2661
16895W        W26588   4.528  17.432  14.731 -0.2225  0.0742  0.0521
16896W        W26589  11.966   1.182   0.377  0.2206 -0.0208 -0.3666
16897W        W26590   3.217  11.684   5.164  0.1643 -0.2358  0.0132
16898W        W26591  14.901   3.912   5.252 -0.0291  0.0675  0.2658
16899W        W26592  16.710   7.766  17.422 -0.0175  0.0929  0.0641
16900W        W26593   5.932  16.656  12.163 -0.1436 -0.0585  0.2398
16901W        W26594  14.551   8.268  12.810  0.1890 -0.1835 -0.0421
16902W        W26595  16.195  17.178   2.501  0.1795  0.2476  0.0251
16903W        W26596   7.699  14.095   2.754 -0.2039 -0.4301 -0.1855
16904W        W26597   6.536   1.043   2.312  0.1643  0.5530  0.0689
16905W        W26598  10.984  12.525   1.646 -0.1261 -0.2204 -0.0587
16906W        W26599  11.295   5.860   1.960 -0.1109 -0.1662 -0.1177
16907W        W26600   4.437   0.583  16.490  0.2615  0.2333  0.1248
16908W        W26601   2.333   7.910   0.454 -0.1528 -0.2109 -0.1236
16909W        W26602   9.293   0.528  11.934  0.0185 -0.2545  0.3658
16910W        W26603  10.096   7.052   3.082 -0.0084 -0.1800  0.0314
16911W        W26604  10.612   8.118  11.931 -0.2039 -0.1379 -0.2492
16912W        W26605  11.792  15.165   0.170 -0.0672  0.3337 -0.1455
16913W        W26606  10.303  11.850  15.407 -0.1120 -0.1633  0.0909
16914W        W26607   2.617  12.495  17.618  0.0337  0.0295 -0.0400
16915W        W26608  14.333   8.995   6.557 -0.0499 -0.1066  0.1236
16916W        W26609   6.200   5.273   6.770  0.2829 -0.2133 -0.0410
16917W        W26610  11.070   8.797   0.987  0.1274 -0.0711 -0.0469
16918W        W26611   6.200   4.717   3.653 -0.2354  0.2524  0.4141
16919W        W26612   2.136   8.275  17.057 -0.1392  0.0173 -0.1691
16920W        W26613  13.987   7.697   2.124 -0.2445 -0.1223  0.1594
16921W        W26614  16.707   6.910   5.756 -0.0700  0.1665 -0.1008
16922W        W26615   6.267   3.029   0.158  0.2463  0.0141 -0.2020
16923W        W26616   6.957  14.500  14.926  0.0052  0.3570  0.1266
16924W        W26617   4.536  11.343  13.773  0.2164 -0.0574  0.1141
16925W        W26618   1.310  10.208  15.021  0.2864  0.0477 -0.2554
16926W        W26619   1.202   3.831  12.995 -0.1882  0.2912  0.2636
16927W        W26620   9.794  15.370   5.165 -0.1773  0.0637 -0.0573
16928W        W26621  12.501   2.690  12.416  0.3051 -0.3368 -0.0797
16929W        W26622  13.022   4.579   4.851 -0.1783  0.1192  0.0612
16930W        W26623  15.501  12.550   1.257 -0.0511 -0.1680 -0.0048
16931W        W26624   8.614   3.385  15.163 -0.0831  0.0757 -0.3003
16932W        W26625   4.681  12.670   4.341  0.1056 -0.1654  0.0682
16933W        W26626  10.519  16.737  16.773 -0.2339 -0.0781  0.0167
16934W        W26627   6.673  11.584  13.005 -0.1303  0.3085  0.0428
16935W        W26628  14.590  11.155  12.587  0.1174 -0.1486 -0.5409
16936W        W26629   0.523  16.180  15.742  0.2992  0.0092 -0.0385
16937W        W26630   6.715   3.353  12.741  0.1108 -0.3466  0.0923
16938W        W26631   6.380   8.557   0.077 -0.1117 -0.3142  0.0408
16939W        W26632  17.326   7.494  17.664  0.2110  0.0414 -0.1644
16940W        W26633   9.190   2.798   5.227  0.3955 -0.0723 -0.2193
16941W        W26634  12.108   3.411  15.226 -0.3218 -0.1828  0.1373
16942W        W26635  16.182  11.525  16.175 -0.0482  0.4614  0.0148
16943W        W26636   0.278  14.930   3.218  0.0011  0.1176  0.0598
16944W        W26637  12.301  10.101   4.293 -0.4501  0.1002  0.1623
16945W        W26638  16.329  16.214  17.372  0.0828 -0.1285 -0.3085
16946W        W26639  13.062   5.138   3.166  0.0532  0.1332 -0.1542
16947W        W26640  11.408  11.216  15.659  0.0369  0.0784  0.3100
16948W        W26641  14.574   1.314   2.980  0.2008 -0.0728  0.0444
16949W        W26642   0.286  15.644   2.466 -0.3126 -0.0632 -0.3925
16950W        W26643  11.313  11.737   1.735  0.1984 -0.1365  0.1008
16951W        W26644   8.299   2.856   5.906 -0.1528 -0.1434 -0.5238
16952W        W26645   1.094   4.678   0.868 -0.0612  0.3533 -0.0817
16953W        W26646  16.466   0.867  12.853  0.2615 -0.1416 -0.4622
16954W        W26647   9.038   8.853  13.673 -0.0027 -0.0361  0.3130
16955W        W26648   9.453   7.644  16.480 -0.3130 -0.0941 -0.0554
16956W        W26649   2.353   4.119  11.849 -0.2959 -0.2160 -0.0103
16957W        W26650   7.070   6.524  12.973 -0.2431 -0.0265 -0.0241
16958W        W26651   1.765  12.329   0.077  0.0688  0.2067 -0.1019
16959W        W26652   9.588   9.175  17.349  0.0005 -0.3293 -0.0249
16960W        W26653   3.335   0.745  16.687 -0.0751 -0.2347  0.0110
16961W        W26654   7.920   2.292   3.544  0.2121 -0.3759  0.0013
16962W        W26655   6.652   4.271   5.554  0.0938 -0.3538 -0.1654
16963W        W26656  12.079   5.890   4.024  0.0751  0.0608 -0.4002
16964W        W26657   8.006   6.184  12.464  0.1554  0.2788 -0.1653
16965W        W26658   0.301  10.995   4.050  0.1403  0.0346 -0.1703
16966W        W26659  12.934   1.304   5.541 -0.0767 -0.2078  0.0828
16967W        W26660  16.144   9.916   6.049 -0.2675 -0.3440  0.0389
16968W        W26661   9.486  15.576   4.841  0.0681 -0.1806  0.2848
16969W        W26662   4.116   5.770  17.144  0.0458 -0.1339 -0.1543
16970W        W26663   0.245   8.552   5.947 -0.1287 -0.0102  0.1889
16971W        W26664   4.570  16.366  12.206 -0.0122 -0.1630 -0.1110
16972W        W26665   6.801   6.464   2.367 -0.0518 -0.2185  0.2165
16973W        W26666  15.802   0.080  17.460 -0.5468  0.1717 -0.0783
16974W        W26667   6.587  10.341  11.478 -0.0272 -0.0620 -0.1475
16975W        W26668  11.858  13.729   4.260 -0.4462  0.2627 -0.1797
16976W        W26669   8.706   7.155   6.562  0.0349 -0.0260  0.0641
16977W        W26670   4.081  13.914  11.462 -0.2409  0.2360 -0.1350
16978W        W26671   4.006   9.277  17.021  0.0134  0.1939 -0.3057
16979W        W26672  15.193   5.138  16.143 -0.0716 -0.1661  0.2889
16980W        W26673  16.231   5.710  15.785  0.2227  0.0010  0.1855
16981W        W26674  16.751  15.341  16.099  0.1782 -0.1094 -0.1313
16982W        W26675   3.363  10.588   0.181 -0.0105  0.0320 -0.2595
16983W        W26676   1.869  13.147  15.693 -0.1305 -0.1796 -0.2034
16984W        W26677  11.508   2.438  11.575  0.2089  0.0305 -0.1005
16985W        W26678   1.021  14.636   2.648  0.2161 -0.1080 -0.2821
16986W        W26679   4.964   2.837   6.004 -0.4156 -0.5511  0.2649
16987W        W26680   4.519  16.674   4.036 -0.5855 -0.1869  0.1663
16988W        W26681   2.426  11.788  12.200 -0.1346 -0.1893 -0.0600
16989W        W26682   2.762  14.450   6.966 -0.1749  0.1504 -0.0480
16990W        W26683  15.140  17.619  14.685  0.5029 -0.3225 -0.2407
16991W        W26684   9.941   6.549   5.510 -0.0164  0.3807 -0.0268
16992W        W26685  16.800   4.073  16.229 -0.1928 -0.1065 -0.0914
16993W        W26686   2.413  12.623  16.195 -0.2666 -0.0980  0.2411
16994W        W26687   6.905   8.738  12.560 -0.1219  0.1435  0.2233
16995W        W26688  16.138   1.024  12.519 -0.1259  0.0818  0.1615
16996W        W26689   7.891   2.990  13.657 -0.0544 -0.0311 -0.2489
16997W        W26690   3.619   8.683  12.608 -0.0541 -0.3242  0.0146
16998W        W26691   1.777  12.851  12.568 -0.1025 -0.1869 -0.0338
16999W        W26692  12.358  13.215   0.352  0.3562 -0.3006  0.1599
17000W        W26693   4.632  14.020   4.600 -0.0088 -0.1438  0.2170
17001W        W26694  16.818  17.158   5.798  0.1253  0.2686 -0.1914
17002W        W26695   1.217   5.565   1.427  0.2112 -0.0288 -0.0890
17003W        W26696   5.392   2.991  15.207  0.2600  0.5344  0.1396
17004W        W26697   7.661   5.732  12.436 -0.0777 -0.2571  0.3231
17005W        W26698  17.258  12.035  15.387 -0.0360 -0.0374  0.2623
17006W        W26699  11.836  17.664   5.793 -0.1317  0.2579  0.1229
17007W        W26700   1.004   8.601   0.466 -0.0930  0.3036  0.1679
17008W        W26701   2.590   9.259  11.990  0.1302 -0.3529  0.1703
17009W        W26702   4.357   1.429   5.790 -0.0153  0.0975 -0.1108
17010W        W26703   0.781  10.781  16.886 -0.2692 -0.2637 -0.3034
17011W        W26704  11.987   1.042  15.334  0.4356  0.2649  0.0084
17012W        W26705  12.826   6.145   3.224  0.2006  0.1471  0.0671
17013W        W26706  16.561  13.262   4.687  0.0772 -0.1992  0.3295
17014W        W26707  17.209   7.389   1.044  0.0901 -0.3055  0.2439
17015W        W26708  13.230   9.878  12.665  0.0599 -0.1457 -0.0015
17016W        W26709   6.289   7.007   1.829 -0.0614  0.2270 -0.1291
17017W        W26710  13.424   1.804   4.312 -0.0879 -0.0599 -0.2668
17018W        W26711  15.658  13.982  15.122 -0.2742 -0.2918  0.0904
17019W        W26712  11.976   1.132  15.859 -0.0115  0.0198 -0.0310
17020W        W26713   6.611  17.169  15.824 -0.3940 -0.0129 -0.2854
17021W        W26714   5.862  17.585   2.674  0.1428 -0.2581 -0.0446
17022W        W26715  17.166   5.994   1.000  0.0871  0.1342  0.0100
17023W        W26716   7.508   7.300   4.305  0.4056 -0.1070  0.0704
17024W        W26717   5.014   4.915   6.433  0.5087  0.3499  0.0342
17025W        W26718  11.752  14.145  12.419 -0.0430 -0.0181 -0.0220
17026W        W26719  13.432   3.814  15.708 -0.2715  0.3564 -0.0699
17027W        W26720  10.594  13.307  16.568  0.1371 -0.2890 -0.1103
17028W        W26721  10.610   6.909   3.337  0.1098 -0.1789  0.2428
17029W        W26722   6.626   3.401   5.719 -0.0379  0.1417 -0.3410
17030W        W26723  13.340  14.462   6.290  0.2408 -0.2674 -0.3915
17031W        W26724   8.552  16.651   4.926 -0.0989 -0.2590 -0.1871
17032W        W26725  10.139   8.853  16.283  0.0374  0.1091  0.3363
17033W        W26726   3.708   2.221   0.207  0.2937  0.4344 -0.0543
17034W        W26727   1.241   7.291  16.738 -0.0258 -0.1949 -0.0873
17035W        W26728  17.224  17.365   1.507  0.0624  0.2114 -0.2869
17036W        W26729   8.664  14.403  12.286  0.0596 -0.0780  0.2918
17037W        W26730   1.347  16.544  12.716  0.0289 -0.3432  0.0365
17038W        W26731  11.271  14.124   5.880  0.0009 -0.1888  0.0585
17039W        W26732  15.087   8.846  17.389  0.0006 -0.1697  0.0971
17040W        W26733  17.221   1.085   2.503  0.0429  0.5547 -0.0326
17041W        W26734   6.958   2.536   1.408 -0.0212  0.0190 -0.0855
17042W        W26735   3.635   2.887  12.678  0.0576  0.0798  0.2406
17043W        W26736   5.951   3.984  15.040  0.0247 -0.0436 -0.0983
17044W        W26737   0.984   9.975   2.007 -0.2314  0.1061 -0.2459
17045W        W26738  12.614  15.766  16.473 -0.0696 -0.0225 -0.1533
17046W        W26739   9.427   1.098  16.379 -0.0121  0.0558  0.0070
17047W        W26740   2.784   4.625   3.160 -0.1356 -0.1380 -0.0454
17048W        W26741   3.774  13.186  12.261  0.0282 -0.1603 -0.2194
17049W        W26742   5.050  12.412   6.235  0.5991  0.0500  0.0521
17050W        W26743   1.865  15.820  15.145 -0.1375 -0.0590  0.1805
17051W        W26744  15.077   8.841   3.708  0.4559 -0.3223  0.0376
17052W        W26745  11.732  15.249   4.875 -0.3353  0.2698  0.1012
17053W        W26746   4.679  14.669  16.430 -0.2938  0.0284 -0.0493
17054W        W26747  12.003  12.508   0.886 -0.1867  0.1941 -0.1195
17055W        W26748  13.015  12.636  16.729  0.0578  0.0409  0.0613
17056W        W26749  12.576  15.080   0.844 -0.1748  0.3696  0.0010
17057W        W26750  14.510   0.695  13.537 -0.1442 -0.1251 -0.1260
17058W        W26751  17.511   8.844   3.551 -0.0293  0.0746 -0.1592
17059W        W26752  10.268   4.911   1.224  0.1198  0.2921 -0.0653
17060W        W26753   7.248   1.316  13.742  0.1309  0.4305  0.1981
17061W        W26754   7.395   9.977   1.243  0.0156  0.0651 -0.1050
17062W        W26755  17.061  14.831   1.533  0.1413  0.3482  0.2817
17063W        W26756   8.973  13.821  16.305 -0.3320  0.0035  0.2676
17064W        W26757   1.585  15.733  11.250  0.0827  0.2953  0.1091
17065W        W26758   5.070   3.360  16.484 -0.1212 -0.1752  0.1025
17066W        W26759   6.425  11.969   3.574  0.0195  0.2176 -0.4020
17067W        W26760   2.383  17.410  16.948 -0.0255 -0.1633 -0.1690
17068W        W26761   7.007  13.030   1.490  0.0469  0.0172  0.0087
17069W        W26762   2.491   0.092  17.355 -0.1496 -0.0264  0.1899
17070W        W26763   0.815   0.297   0.051 -0.3175  0.1262 -0.0139
17071W        W26764   6.278  10.654   5.310 -0.1684 -0.3582  0.0594
17072W        W26765  10.604  12.103   1.297  0.4422 -0.2711 -0.3708
17073W        W26766   5.704   1.277  14.518  0.0485  0.0821  0.1228
17074W        W26767   8.862   6.765  12.601  0.0766  0.2468 -0.0295
17075W        W26768  15.661   2.814   3.186  0.2033 -0.1336 -0.1719
17076W        W26769  13.596  17.289   1.494  0.0039  0.4001 -0.0172
17077W        W26770   5.815   3.549   3.209  0.0987 -0.0332  0.0836
17078W        W26771   5.978   1.979   5.423  0.0152 -0.3087  0.3863
17079W        W26772   3.066  15.926   6.412 -0.0246 -0.0074 -0.2356
17080W        W26773  12.014   0.967  12.899  0.3460 -0.0803 -0.1826
17081W        W26774  15.200   7.392  14.290  0.0561  0.4080 -0.2402
17082W        W26775   2.731  16.048   2.829  0.2685  0.0613  0.2247
17083W        W26776   4.620  10.262   2.723 -0.2413 -0.1506  0.2539
17084W        W26777   5.301   8.003  11.700  0.0036 -0.0125  0.2318
17085W        W26778  15.755   5.614   4.007  0.1696  0.1925 -0.4313
17086W        W26779  16.160   7.110  16.156 -0.1118  0.1982  0.2726
17087W        W26780   3.083   6.277  16.379  0.0634 -0.3248 -0.0316
17088W        W26781  15.941  13.040  16.251  0.2244  0.0101 -0.2163
17089W        W26782   7.638   7.637   4.986  0.1078  0.0856  0.2757
17090W        W26783  17.597  12.476  15.326  0.1820  0.0853 -0.1036
17091W        W26784   9.805   9.789   2.289 -0.2400 -0.1531  0.1351
17092W        W26785  14.043   3.197   2.176  0.0361  0.2072 -0.0403
17093W        W26786   5.541   9.802  11.284 -0.1016 -0.0206 -0.2462
17094W        W26787   5.710  14.012   3.623 -0.1639 -0.1869  0.0123
17095W        W26788   9.796   0.946   1.199  0.1730  0.2054 -0.1131
17096W        W26789   6.913  11.283  17.280 -0.3071 -0.3293  0.0867
17097W        W26790  12.931   5.307  17.058 -0.1693 -0.0042 -0.1879
17098W        W26791   3.510   8.726  11.513  0.1906 -0.1239 -0.1799
17099W        W26792  11.727  12.991   6.589  0.1782  0.2417 -0.1326
17100W        W26793  14.777  17.114   5.940  0.0692  0.0933  0.2441
17101W        W26794  15.713   9.704  13.183  0.0556 -0.1211  0.0986
17102W        W26795   5.898   7.876  13.911  0.1812  0.2911  0.1595
17103W        W26796  11.510   9.560  14.677 -0.0861 -0.1358  0.2007
17104W        W26797   6.894   4.463  15.652 -0.1028  0.2446 -0.1245
17105W        W26798  13.027   4.515   4.225 -0.0221  0.0875 -0.1237
17106W        W26799   8.862  13.823  12.721 -0.2974 -0.2057  0.2576
17107W        W26800   5.297   9.943   3.617  0.0685  0.0220  0.2382
17108W        W26801  11.613  14.401   4.290 -0.1442 -0.1108 -0.2747
17109W        W26802   2.264  12.176  14.337  0.0675 -0.0581  0.0416
17110W        W26803   3.622  10.400  15.401  0.1304  0.0922  0.2341
17111W        W26804   6.451   2.018  12.950 -0.0838  0.1214 -0.1278
17112W        W26805   6.788   9.234  12.557  0.3058  0.1197 -0.0816
17113W        W26806  12.544  11.728  12.456  0.1253  0.3351  0.0247
17114W        W26807  15.253   5.317   3.796 -0.0474  0.2313  0.0531
17115W        W26808  10.965   9.286   0.275 -0.0317 -0.1751 -0.0822
17116W        W26809  15.009   8.639  15.030 -0.2547 -0.3402 -0.1337
17117W        W26810  13.358   1.573  14.724 -0.0721 -0.1960  0.2051
17118W        W26811   0.351   1.766   3.057 -0.2505 -0.3428 -0.0424
17119W        W26812  13.618  11.934   6.345 -0.0786  0.0953 -0.0628
17120W        W26813  12.164   9.148   1.319 -0.0508 -0.3153 -0.0223
17121W        W26814   6.200   6.576   0.549  0.3035  0.0068  0.1033
17122W        W26815   6.866   2.566  12.207 -0.0224 -0.0750 -0.0297
17123W        W26816  10.539  14.952   2.752 -0.1409 -0.1263 -0.0785
17124W        W26817   2.516   6.464   0.549 -0.1042  0.1267  0.1248
17125W        W26818  17.064   5.286   4.150 -0.2041  0.1222 -0.3410
17126W        W26819   7.065  17.037  11.748  0.1578 -0.3612 -0.1953
17127W        W26820  11.474   8.043   0.597  0.5726  0.3462  0.0619
17128W        W26821  12.211  12.368   3.254  0.0654  0.0308 -0.1481
17129W        W26822  12.570  15.906  12.798  0.1931  0.0011  0.2307
17130W        W26823  12.846   5.314   3.607 -0.0022  0.1396 -0.3033
17131W        W26824  12.323   9.412   5.720 -0.0934  0.2247 -0.0746
17132W        W26825  15.658   6.513   3.215 -0.0560  0.0973  0.1105
17133W        W26826   4.573   2.874  12.546  0.0419 -0.0902 -0.0991
17134W        W26827   7.748   5.029   1.542 -0.0846 -0.0045  0.1055
17135W        W26828  16.164  10.616   4.263  0.1206 -0.2607  0.0720
17136W        W26829  14.099   0.683   4.974 -0.1112 -0.2040  0.2011
17137W        W26830   8.232   9.451  16.813  0.2026 -0.0512  0.4656
17138W        W26831   8.448  16.691   3.352  0.2231 -0.0159  0.0639
17139W        W26832  14.696  13.076  12.773 -0.0369 -0.1994  0.0673
17140W        W26833  12.612   4.523   3.857  0.1720 -0.0683 -0.1748
17141W        W26834  11.359  12.953   3.077 -0.1998  0.2448  0.0689
17142W        W26835   4.659  15.870  12.209  0.0476 -0.3388 -0.0622
17143W        W26836  12.499   2.501  13.848  0.1296  0.0667 -0.0866
17144W        W26837   2.817  12.163   0.236 -0.2736 -0.1718  0.3564
17145W        W26838   3.050  13.874   2.369  0.1335 -0.3044  0.1311
17146W        W26839  14.167   5.049   4.806  0.0183 -0.0517 -0.0627
17147W        W26840  10.587   8.984  14.539  0.0206 -0.0588 -0.0582
17148W        W26841  17.328   0.033   5.640  0.0822 -0.1002  0.1242
17149W        W26842   3.227   4.265  11.749 -0.0093 -0.0569  0.1303
17150W        W26843  10.483  13.265   1.494  0.0983 -0.1257 -0.0265
17151W        W26844   4.538   6.158   2.573 -0.1417  0.0918  0.4080
17152W        W26845  11.914   6.904   3.195 -0.3864 -0.2717 -0.4328
17153W        W26846  17.222  10.559  14.414 -0.0086 -0.1032  0.3282
17154W        W26847  16.934  13.425  13.630  0.2036 -0.0102  0.2132
17155W        W26848   6.082   7.297   3.671  0.2258  0.1009  0.0419
17156W        W26849  10.944  11.035   4.533 -0.1525 -0.1699 -0.0375
17157W        W26850   9.053   0.049  16.663 -0.1366 -0.1578 -0.0131
17158W        W26851  14.447   2.643   1.674 -0.0372  0.0946 -0.0733
17159W        W26852   7.860   9.745   4.538  0.3547 -0.0197 -0.1079
17160W        W26853   0.903   5.635  14.222 -0.2743 -0.0735  0.3220
17161W        W26854   6.292   2.762   4.251  0.2055 -0.1738  0.2973
17162W        W26855   8.160   8.577   1.995 -0.1264  0.2775  0.0607
17163W        W26856  13.560  12.851   1.169  0.1276 -0.3160  0.1988
17164W        W26857   7.815   3.117  12.365  0.0685 -0.2031  0.0073
17165W        W26858  15.246   7.146  15.726  0.0860 -0.0473 -0.0580
17166W        W26859   3.568  15.795  16.098 -0.2625 -0.1503 -0.0883
17167W        W26860  11.343   0.949   4.485 -0.0597 -0.0769 -0.3052
17168W        W26861  15.102  13.961   2.560  0.1827  0.3694 -0.0016
17169W        W26862   6.377  10.442   6.410 -0.0899 -0.1458  0.0395
17170W        W26863   3.260  16.183   5.806  0.0358  0.1623  0.1874
17171W        W26864  10.561  11.108   0.061  0.1831  0.0367  0.0338
17172W        W26865   7.016  12.202   4.812 -0.1732  0.0467  0.2582
17173W        W26866  14.271   8.400   0.720  0.0228  0.3070 -0.0361
17174W        W26867   1.413   0.562  13.653 -0.2683  0.2073  0.1895
17175W        W26868  10.377   2.276   0.934  0.2142 -0.2003  0.1868
17176W        W26869  13.861  15.666  15.532  0.0331 -0.0307  0.3458
17177W        W26870   3.271  13.293  12.371  0.0951  0.2713 -0.0099
17178W        W26871   2.336  12.967   2.414  0.2394 -0.2496  0.1834
17179W        W26872  13.286  10.895  16.324  0.0709  0.0355 -0.1219
17180W        W26873  16.312  17.278   0.744 -0.0237 -0.1289 -0.0272
17181W        W26874   4.087   2.151   3.950 -0.0016 -0.2106  0.1388
17182W        W26875   2.678  13.212  12.474 -0.1757 -0.1438  0.1769
17183W        W26876   0.151   5.990   1.634  0.1235  0.0987  0.1396
17184W        W26877  11.876   7.595  15.497  0.0839 -0.0533 -0.3899
17185W        W26878  13.021  10.242   4.604  0.1489  0.1634  0.0356
17186W        W26879   0.341  13.475  14.410 -0.3265 -0.3290  0.1035
17187W        W26880   9.782   6.025   5.576  0.1717  0.0514 -0.0405
17188W        W26881  16.348  11.185  12.105  0.2303 -0.4184  0.0902
17189W        W26882   3.612   3.364   3.226  0.0751  0.1546 -0.1858
17190W        W26883  10.931   8.366   6.386  0.1755 -0.1521 -0.0638
17191W        W26884  12.845   5.133  13.645 -0.1284  0.1723 -0.0358
17192W        W26885  17.197  16.316  17.164  0.2116  0.2076  0.0308
17193W        W26886   9.126   0.316  15.197 -0.0215 -0.0185  0.0600
17194W        W26887  15.655   3.074   4.331  0.0593  0.3092 -0.3845
17195W        W26888   7.326   3.960   2.182  0.1641  0.1880  0.1577
17196W        W26889  11.118  14.824  13.599 -0.1461 -0.0957 -0.0310
17197W        W26890   7.209   5.486  17.124 -0.0453 -0.0049 -0.2141
17198W        W26891   5.570   6.968  13.042 -0.0480  0.0075 -0.2031
17199W        W26892  13.780   9.469   6.265  0.0600  0.0885  0.2889
17200W        W26893   6.843  17.256   3.808  0.1565  0.0070 -0.0135
17201W        W26894   4.977   2.832  12.990  0.0310 -0.0116  0.2678
17202W        W26895  11.704   0.573  16.848 -0.0522 -0.0335  0.2247
17203W        W26896   8.328  12.490   4.393  0.1470  0.1292  0.0425
17204W        W26897  11.149   2.909  14.212 -0.1389  0.3115 -0.2011
17205W        W26898  14.355  11.244  13.056  0.1333  0.2134 -0.0878
17206W        W26899  17.202   0.234  11.946 -0.3424  0.1467 -0.0660
17207W        W26900   6.068   5.489   3.050 -0.0019 -0.2308 -0.1562
17208W        W26901   7.444  17.522  16.881  0.0700 -0.3172 -0.2268
17209W        W26902   7.298  16.855  12.321 -0.1762  0.0971 -0.0230
17210W        W26903  16.824   7.330   0.110 -0.1218 -0.2695 -0.0768
17211W        W26904   8.666   0.594  14.013 -0.0982  0.0466 -0.1309
17212W        W26905   9.273  15.370  13.307 -0.1132 -0.1026  0.0596
17213W        W26906   5.624  15.861   1.594 -0.4349 -0.1287  0.0270
17214W        W26907   7.108   0.029   5.426  0.1568  0.0491 -0.0527
17215W        W26908   7.175  12.422   4.379  0.0002 -0.2084 -0.2276
17216W        W26909   8.919   2.336   3.972  0.0439  0.0671  0.1157
17217W        W26910  16.321  11.827  14.314  0.0734 -0.1245  0.1183
17218W        W26911   3.462   5.001   4.060 -0.0444 -0.4310 -0.1521
17219W        W26912   8.982   6.676  14.036 -0.1504  0.1080  0.2244
17220W        W26913  15.821  16.534  13.422 -0.1015  0.2764 -0.1658
17221W        W26914   8.229  11.461   3.294  0.1456  0.3528 -0.2175
17222W        W26915  14.008   3.765   4.972 -0.0173  0.0978 -0.3175
17223W        W26916   8.154  11.867  17.574  0.2325  0.1049 -0.1147
17224W        W26917   2.226   6.668  16.958 -0.2538 -0.1958  0.0435
17225W        W26918   7.244  16.384  13.541  0.1043 -0.0831 -0.1524
17226W        W26919   2.080   6.239  14.840  0.1295 -0.0577  0.2042
17227W        W26920   3.410  10.574  13.698  0.0622  0.4931 -0.1642
17228W        W26921  10.134   6.482   6.821 -0.5630  0.3016  0.0172
17229W        W26922  16.170   5.817  12.025 -0.4396 -0.0745  0.0826
17230W        W26923  10.311   0.924   1.281  0.1091 -0.1632 -0.2041
17231W        W26924   3.572   9.174  13.130  0.1024 -0.0970 -0.0523
17232W        W26925   2.216  11.975   2.415 -0.0109 -0.1756 -0.1639
17233W        W26926   4.925  12.004  15.999 -0.0527 -0.0008  0.0599
17234W        W26927  13.011   0.444  16.257  0.0909  0.2664  0.0101
17235W        W26928   1.739  14.070  15.360  0.0644 -0.0589 -0.1547
17236W        W26929   8.718   6.121  10.642 -0.5268  0.0396 -0.0700
17237W        W26930   6.876   8.108  17.029 -0.3191  0.0579 -0.3895
17238W        W26931   5.918   3.443  14.339 -0.1321  0.0195 -0.3569
17239W        W26932   7.197  16.581  15.213 -0.0635 -0.0983 -0.0311
17240W        W26933  13.595   5.426   0.254  0.2277 -0.2065 -0.0715
17241W        W26934  10.175   9.775  12.841 -0.0223  0.1387  0.2923
17242W        W26935   9.856  12.469   1.782 -0.1727 -0.2098 -0.0576
17243W        W26936  12.500  16.892   2.414  0.0134 -0.1944 -0.2045
17244W        W26937   7.331   9.395   4.364 -0.0110 -0.1413  0.1522
17245W        W26938   2.531  17.221  12.228 -0.0647  0.1404  0.1021
17246W        W26939   1.236   3.700  17.245 -0.1035  0.0146  0.2767
17247W        W26940  14.033  15.157   1.618 -0.4088 -0.0474  0.1177
17248W        W26941   6.589  15.551   1.804  0.1378  0.4366 -0.1336
17249W        W26942  10.910  10.503   4.981  0.0097 -0.1928 -0.3526
17250W        W26943  11.662  13.338   5.731 -0.0019 -0.0026 -0.0917
17251W        W26944   2.295  14.819  16.390  0.2809  0.0699  0.1452
17252W        W26945  11.937   7.778  12.584 -0.0536  0.2983  0.1393
17253W        W26946   2.009   3.150   2.123  0.1727  0.1279 -0.0123
17254W        W26947   3.907   4.388   4.687  0.1462  0.1166 -0.1093
17255W        W26948   2.543   1.456   4.429 -0.0506 -0.4496  0.0167
17256W        W26949  15.119  11.572  17.647  0.0491 -0.2727 -0.2520
17257W        W26950  11.015   5.401  16.693 -0.0365 -0.1366  0.0227
17258W        W26951   3.895  15.557  15.806 -0.1420 -0.1272  0.0709
17259W        W26952  14.188  14.123  17.517 -0.1222 -0.1536  0.2003
17260W        W26953  13.193  16.515  11.987  0.0183 -0.1621  0.0281
17261W        W26954   1.033  17.235   2.728 -0.4659  0.3214  0.1653
17262W        W26955   1.425  15.728  16.179 -0.0303 -0.2405  0.1590
17263W        W26956   1.688   4.126   4.250 -0.0175  0.0994  0.0498
17264W        W26957  14.046   8.769   4.600 -0.0052 -0.0286 -0.2056
17265W        W26958   2.499  16.893   3.490 -0.0931  0.2818  0.4263
17266W        W26959   8.990   2.987   3.470 -0.1231 -0.1168 -0.2795
17267W        W26960   1.962   7.077  14.950 -0.0844  0.2671 -0.0785
17268W        W26961  17.550   4.233  16.794 -0.2282  0.2026 -0.0710
17269W        W26962   6.020  11.052   4.447 -0.4725  0.0428 -0.0971
17270W        W26963  10.633  10.147   5.192  0.0835 -0.0464 -0.2252
17271W        W26964  14.875  15.791  12.198 -0.2370 -0.1175  0.2806
17272W        W26965   2.710  11.287   4.759 -0.2842 -0.1083 -0.2931
17273W        W26966  10.667  13.763  14.083 -0.1162 -0.2710 -0.0167
17274W        W26967   3.113   8.269  16.269 -0.0129  0.2063 -0.0257
17275W        W26968  13.345  17.357  15.484  0.0489  0.1728 -0.0005
17276W        W26969   1.859   6.323   1.146 -0.2576  0.2031 -0.1285
17277W        W26970  14.331   9.112   1.734  0.3475 -0.1485  0.0941
17278W        W26971  17.582  15.233  14.172  0.0684  0.0273 -0.1189
17279W        W26972   9.185   2.959   4.653  0.1545 -0.0480 -0.0494
17280W        W26973   8.266   9.970  13.429  0.5534 -0.1375  0.2012
17281W        W26974  17.244   2.897  16.804  0.2919  0.3146  0.0735
17282W        W26975   1.446   2.317   6.310 -0.1789 -0.0618  0.2185
17283W        W26976   6.007   6.784   2.355 -0.1254 -0.0741  0.0262
17284W        W26977   6.706  12.960   5.887 -0.0186 -0.0441 -0.2229
17285W        W26978   1.721   4.775   5.718 -0.1646  0.0975 -0.3431
17286W        W26979   1.247  16.330   4.782  0.0585  0.3310  0.2500
17287W        W26980  16.444   2.844  11.338  0.0924  0.0413  0.1168
17288W        W26981   8.778   8.228  17.443 -0.0788  0.0619 -0.1244
17289W        W26982   2.071   2.832  13.857 -0.3092 -0.0171  0.1923
17290W        W26983   8.563   8.574   6.461  0.1015  0.0976  0.0065
17291W        W26984  12.379   8.052  13.434 -0.0533  0.2490 -0.2601
17292W        W26985   6.105   4.229  16.452  0.0345 -0.3414  0.0748
17293W        W26986   0.842  11.898   3.130 -0.0733  0.0242  0.0251
17294W        W26987   3.878   9.764   0.478  0.1737  0.1048  0.0199
17295W        W26988  13.273   1.139   2.679  0.2715 -0.0519 -0.0757
17296W        W26989   1.701   4.035  14.102 -0.0004 -0.0538 -0.0399
17297W        W26990   7.265   5.897   4.288  0.2050  0.1660 -0.0518
17298W        W26991   1.935  13.909  13.875  0.0182 -0.3991  0.3701
17299W        W26992   7.798   9.556   5.327  0.0712 -0.2438 -0.2624
17300W        W26993   3.149  17.269  15.042  0.0612  0.1744 -0.2105
17301W        W26994   2.677  12.974   4.621 -0.1312 -0.0424 -0.0461
17302W        W26995  13.510   1.409  16.927  0.0930  0.3423 -0.0704
17303W        W26996  15.921   0.878  14.534 -0.0929 -0.3068  0.1448
17304W        W26997   5.396  13.981   4.396 -0.0078 -0.1769 -0.1804
17305W        W26998  16.291  12.906   3.397 -0.2103  0.1466 -0.1610
17306W        W26999   2.092  11.849  11.750  0.0215 -0.1153 -0.1102
17307W        W27000  16.979   0.994   2.053 -0.1065 -0.4227  0.6699
17308W        W27001   7.843   5.308  14.084 -0.2638 -0.0328 -0.0084
17309W        W27002   8.697   4.106   6.169  0.1069 -0.1763  0.1607
17310W        W27003   5.242   2.629  15.486  0.2615  0.1841  0.1941
17311W        W27004  11.714  10.944  17.671 -0.1106 -0.0478  0.1223
17312W        W27005  14.680   3.363  14.018  0.1191 -0.0300  0.3445
17313W        W27006   3.539   1.742  16.353  0.5621 -0.0928  0.0584
17314W        W27007   8.709   9.214  16.974  0.1879 -0.0458  0.0806
17315W        W27008   0.647   8.454  11.609 -0.1346  0.0539 -0.1323
17316W        W27009  15.512  17.023   1.773 -0.1573 -0.1547  0.0420
17317W        W27010   8.455   2.760  12.845 -0.2193 -0.2027  0.1112
17318W        W27011   3.283   3.920  11.332 -0.0158  0.0931 -0.1098
17319W        W27012   7.965   4.677   2.672  0.5180  0.4043 -0.2033
17320W        W27013   5.102   6.122   1.356 -0.0442  0.2159 -0.0544
17321W        W27014   9.250  12.026   1.591 -0.1360 -0.0385 -0.0717
17322W        W27015  11.951  15.709   4.780  0.1429 -0.1450  0.4695
17323W        W27016  14.610   3.842  11.854 -0.2503 -0.1190 -0.3251
17324W        W27017   8.468   2.806  11.466  0.1577  0.1394 -0.2030
17325W        W27018  16.875  14.094   3.741 -0.4602 -0.1875  0.1040
17326W        W27019   1.082   1.231   1.060  0.1442  0.4661 -0.3837
17327W        W27020   2.653   3.796   5.691  0.1763  0.1606 -0.1451
17328W        W27021  12.559   5.606  15.647  0.0831  0.4289  0.0833
17329W        W27022  12.844   8.864  12.907  0.0771  0.0328 -0.0354
17330W        W27023  16.211   4.200   0.704  0.1258 -0.0575  0.0868
17331W        W27024  13.545   6.475  14.084 -0.1375 -0.0603  0.1031
17332W        W27025   3.959   0.061   0.696  0.0025 -0.0803  0.0758
17333W        W27026   5.614  10.243   3.347  0.0729  0.3284  0.1099
17334W        W27027  10.857   6.268   4.607  0.1798 -0.0060 -0.1257
17335W        W27028  10.881   0.435   6.051  0.3658 -0.2084  0.1298
17336W        W27029  13.248   4.300   2.904 -0.1438  0.0241  0.1703
17337W        W27030  12.792   6.283   1.782 -0.2858  0.1158  0.0391
17338W        W27031   8.556  10.307  16.386  0.2389  0.1508  0.0541
17339W        W27032  11.458   3.827   6.012 -0.2159 -0.0178  0.0166
17340W        W27033  15.253   0.920   1.179  0.0617  0.3001  0.1904
17341W        W27034   9.258  15.431   5.431 -0.0963  0.0029  0.0204
17342W        W27035   8.194   8.231   5.697 -0.0139 -0.0230 -0.2310
17343W        W27036   5.831  16.804   5.523  0.1319  0.0951 -0.0169
17344W        W27037   4.661   8.017   1.638  0.4383 -0.4499 -0.2989
17345W        W27038   9.670  11.597   3.311  0.6184  0.0399 -0.1627
17346W        W27039  10.051   1.489  10.815 -0.2077  0.0435  0.0496
17347W        W27040   8.406   7.782   4.079 -0.1806  0.3586 -0.2676
17348W        W27041  11.752   8.356  16.528 -0.1386  0.1097  0.0345
17349W        W27042  13.610  12.380   2.452 -0.1034 -0.0673 -0.1781
17350W        W27043   4.669   0.833  16.061  0.3371  0.1654  0.0341
17351W        W27044  13.471   9.289   0.880  0.1116  0.2445  0.2799
17352W        W27045   8.297   2.221  15.045  0.1139 -0.0649 -0.0350
17353W        W27046   8.763  11.869   5.060 -0.0481 -0.0062 -0.0333
17354W        W27047  10.604   9.621  13.113  0.0456 -0.1864  0.1751
17355W        W27048   5.041   9.378  12.176 -0.2804 -0.0652 -0.2603
17356W        W27049   7.674  14.471   3.132 -0.0418  0.1000 -0.3121
17357W        W27050   4.417  11.043   3.914 -0.1425 -0.1839  0.3755
17358W        W27051  12.451   7.907   1.878 -0.1808 -0.3001 -0.3871
17359W        W27052  14.375  10.889   0.126  0.1230 -0.1210  0.1220
17360W        W27053   4.298   7.183  12.634  0.4032 -0.0191 -0.0607
17361W        W27054   0.432  17.408  15.145 -0.0608 -0.2703  0.0887
17362W        W27055  13.280   2.126  15.096 -0.0092  0.1454 -0.2191
17363W        W27056  12.214   0.462   4.755 -0.0964 -0.0153  0.1414
17364W        W27057   2.329  17.327  12.717 -0.1486 -0.1107  0.1647
17365W        W27058  15.460  14.072  14.188 -0.0441 -0.0426 -0.3234
17366W        W27059  16.232  16.730  17.419  0.0150  0.1173 -0.0518
17367W        W27060   9.194   6.687   2.666 -0.0150 -0.0967 -0.0106
17368W        W27061   8.244   2.325  16.240 -0.1297  0.2228  0.0303
17369W        W27062   7.076  11.298   2.057 -0.1305  0.0714  0.0275
17370W        W27063  15.188  14.466   2.526 -0.0578  0.1958  0.1911
17371W        W27064  15.578  11.110   4.147 -0.2100 -0.1964 -0.0974
17372W        W27065   4.464   2.903   6.833  0.1163  0.0188 -0.0353
17373W        W27066   0.841   4.466   0.079 -0.0098 -0.2749  0.0757
17374W        W27067   4.126  17.635  14.605  0.3692  0.0105  0.0957
17375W        W27068  13.582   7.586   5.553  0.2670  0.1197 -0.0970
17376W        W27069  14.621   4.052  12.304  0.0947 -0.3971  0.0252
17377W        W27070   9.822  16.040  13.887 -0.2153 -0.0209  0.1876
17378W        W27071  12.931  14.721  15.090 -0.0558  0.2834 -0.1751
17379W        W27072   7.251   4.818  17.441 -0.2947 -0.0933 -0.2096
17380W        W27073   8.646  16.667   5.775  0.0216  0.0144 -0.0202
17381W        W27074  13.781   9.203  12.004 -0.2463  0.2691 -0.1915
17382W        W27075   2.368   7.718   3.751 -0.0975  0.0913  0.1479
17383W        W27076  11.189  11.739  13.217 -0.1989  0.0535 -0.2896
17384W        W27077   2.092   2.532  14.776 -0.0071  0.0484  0.0735
17385W        W27078   2.550  12.917   1.450 -0.3169  0.1384  0.2561
17386W        W27079   7.859  16.257   5.632  0.1109  0.2035  0.1837
17387W        W27080  16.822  17.517   4.462 -0.1791 -0.2310  0.0804
17388W        W27081   4.940  11.667  16.609 -0.0901 -0.0558  0.3206
17389W        W27082  12.790  14.027   1.574 -0.0150  0.0742 -0.1278
17390W        W27083   2.391   6.978  10.652  0.2507  0.1348 -0.0122
17391W        W27084  17.028   2.930  14.949 -0.0453 -0.1235 -0.1460
17392W        W27085   5.299   2.283  14.303  0.2197 -0.2030  0.4442
17393W        W27086  13.554   4.473  13.189 -0.2508  0.1510  0.1934
17394W        W27087   4.153  10.901   6.695 -0.0254 -0.0726  0.4221
17395W        W27088  17.233  10.176  12.433 -0.0438  0.2132  0.0829
17396W        W27089  17.108  13.670   2.134  0.0962  0.2370 -0.0450
17397W        W27090   9.029  17.589  14.119  0.2297  0.0604 -0.1785
17398W        W27091   2.586  11.521   3.072 -0.0236 -0.0293 -0.1150
17399W        W27092  17.642  10.672  12.977 -0.0813  0.3525 -0.0817
17400W        W27093  14.403  16.139   3.892  0.1874 -0.0767 -0.1151
17401W        W27094   0.385  12.459  16.259 -0.0891  0.1086 -0.0884
17402W        W27095   2.582  16.226  14.456  0.0432  0.0660 -0.1014
17403W        W27096   9.760  10.418   4.979  0.2994 -0.0549 -0.0483
17404W        W27097  13.367   6.037  15.622  0.1907  0.0028  0.1530
17405W        W27098  17.427  16.262  14.858  0.1698  0.0858  0.1726
17406W        W27099   8.640  15.086   6.649 -0.1632 -0.2912  0.2922
17407W        W27100   8.816  16.876  12.888 -0.0287  0.3013 -0.0935
17408W        W27101  16.875   9.664   1.030 -0.0385  0.0770  0.0321
17409W        W27102   2.393   6.083  14.461 -0.1895 -0.0960  0.3146
17410W        W27103   8.639   1.149  17.214  0.1095 -0.0713  0.1872
17411W        W27104  16.870   8.118   4.486 -0.0692  0.1402  0.1500
17412W        W27105   4.114   2.089  17.635  0.0825  0.1042 -0.1049
17413W        W27106  13.074   9.387  17.467 -0.1320 -0.0269 -0.1407
17414W        W27107  12.550   6.476  15.322 -0.3217  0.0572  0.2016
17415W        W27108   5.799   0.116  15.209  0.0861 -0.1301  0.2211
17416W        W27109  16.342  11.751  17.574  0.0535 -0.1208 -0.0818
17417W        W27110   9.765  12.075  12.355  0.1386  0.2442  0.1408
17418W        W27111   6.092  17.219   6.412  0.0926  0.4980  0.0607
17419W        W27112  16.191   0.349  15.053  0.0040 -0.0547 -0.1360
17420W        W27113   5.670   4.343  12.425 -0.0222 -0.0002  0.2061
17421W        W27114   1.248   6.737  14.548 -0.4635  0.1459  0.2147
17422W        W27115   4.660  11.642  16.163  0.0584 -0.1819 -0.0156
17423W        W27116   5.209   4.923  17.404  0.0022  0.1978 -0.1831
17424W        W27117  12.380  11.218  16.965 -0.0274 -0.2051 -0.0781
17425W        W27118   5.697  15.463  15.333  0.3056 -0.1484  0.3068
17426W        W27119   7.909   1.135  16.211  0.0176 -0.3132 -0.2497
17427W        W27120  13.702   8.956  13.080 -0.0017  0.0360 -0.0598
17428W        W27121  13.556   2.403  17.562  0.1406  0.3701  0.3920
17429W        W27122  11.773   9.603  12.353 -0.0996  0.1337  0.1133
17430W        W27123  10.901   5.209  15.348  0.3805  0.1122 -0.1494
17431W        W27124   0.398   6.137  15.387  0.3203 -0.1723 -0.3001
17432W        W27125   1.623  11.509  15.024 -0.0675  0.0772 -0.0490
17433W        W27126  16.972  11.831   5.321  0.0032 -0.1550 -0.0134
17434W        W27127   2.702  14.650  17.141 -0.1238  0.4048  0.2690
17435W        W27128  12.804  16.368   3.165 -0.2529  0.1231  0.1345
17436W        W27129   0.783   7.779   0.663  0.0076  0.1221 -0.1859
17437W        W27130  11.824   4.496  12.500 -0.0202 -0.0935 -0.0070
17438W        W27131   4.452   8.615  13.310 -0.1050  0.3983 -0.2166
17439W        W27132   4.445  17.363   1.935 -0.2974 -0.0469  0.0386
17440W        W27133   2.892   1.910   0.393 -0.2212 -0.0218  0.0116
17441W        W27134   4.525   1.181   2.544  0.2639  0.1507 -0.1743
17442W        W27135   4.815  12.762  17.249 -0.2083 -0.0096  0.0213
17443W        W27136  16.535   5.033   0.908 -0.1322 -0.1126  0.2368
17444W        W27137   7.937   8.840   3.296 -0.1848 -0.2432 -0.2864
17445W        W27138   1.309   0.503   0.717 -0.0835 -0.1949 -0.1077
17446W        W27139  16.156  11.041   1.167 -0.1930  0.2095 -0.0481
17447W        W27140  17.540   8.456  16.983 -0.3932 -0.1371  0.0205
17448W        W27141   5.480   5.875  17.451 -0.1478 -0.0998  0.2168
17449W        W27142   1.279   9.574  14.012  0.2893 -0.2274  0.1523
17450W        W27143  12.161   4.903  16.798 -0.1259  0.3348 -0.1282
17451W        W27144   3.521  12.988  14.623 -0.4588  0.0160  0.0618
17452W        W27145  16.030  11.334  14.197  0.0014 -0.0704  0.2954
17453W        W27146   3.043   6.368   5.441  0.0909 -0.1762  0.2633
17454W        W27147   6.627  15.180   3.090  0.2103 -0.1152  0.2349
17455W        W27148   3.443  11.556  15.927 -0.4666  0.0278 -0.0649
17456W        W27149  16.320  16.249  16.590 -0.2102  0.2509  0.3583
17457W        W27150  15.368   8.609   5.883 -0.1042 -0.0191 -0.2537
17458W        W27151  11.113   1.791  12.502  0.0618 -0.0509 -0.1126
17459W        W27152  11.158   4.805   0.035  0.0960 -0.2146 -0.4072
17460W        W27153   7.665   9.475   0.344  0.0566  0.0199  0.0421
17461W        W27154   7.417  10.096   5.495 -0.4277 -0.0425  0.2064
17462W        W27155   0.674  14.262   2.446 -0.2981  0.3091 -0.0505
17463W        W27156   6.701  12.655  12.685 -0.0650  0.2402  0.0250
17464W        W27157   2.988  11.613   6.167 -0.1365  0.2256 -0.2996
17465W        W27158  13.053   7.742   5.872  0.0202  0.0372  0.0598
17466W        W27159   7.222  17.631   6.252 -0.0588 -0.2531 -0.0127
17467W        W27160   1.771   2.329   2.201 -0.0351  0.1058  0.2178
17468W        W27161  12.885   0.915   3.463 -0.1233 -0.3503  0.0573
17469W        W27162   3.930  15.635   4.576  0.1686  0.1352  0.1314
17470W        W27163   4.211   0.561   5.824 -0.0818  0.1633 -0.2207
17471W        W27164   9.674  10.903  12.302 -0.3101  0.1257 -0.2123
17472W        W27165  11.063   1.320   5.162 -0.4162 -0.0455  0.0058
17473W        W27166  16.337   1.590  17.043  0.0836 -0.1730 -0.1011
17474W        W27167   9.816   8.646   0.902 -0.2953 -0.0057 -0.0240
17475W        W27168  11.963  11.598   3.017  0.4180  0.3314 -0.0743
17476W        W27169   5.738   1.363   4.070 -0.0606  0.1953  0.1098
17477W        W27170   5.157   5.948  11.402  0.1505 -0.0064  0.0109
17478W        W27171  16.776  17.571   4.984  0.1564 -0.1770  0.2375
17479W        W27172  13.603   3.855   3.548 -0.2551  0.1318  0.4270
17480W        W27173   8.603  10.021   1.983 -0.0257 -0.1297  0.0596
17481W        W27174   1.058   3.217  15.529  0.1685 -0.0752  0.1804
17482W        W27175   5.946   5.134   5.415  0.1697 -0.1054 -0.0992
17483W        W27176  15.193  10.120   2.314 -0.1328 -0.0859  0.1334
17484W        W27177   0.301  15.140  13.173  0.2474  0.0216  0.0002
17485W        W27178  12.822  17.143  15.976 -0.1380 -0.0780  0.0805
17486W        W27179   1.850   2.007   1.685  0.3036 -0.3764 -0.0615
17487W        W27180  14.321   9.585  13.201  0.0923  0.0270 -0.0873
17488W        W27181  15.226   3.538  12.822  0.2399  0.4389 -0.3317
17489W        W27182   3.466  16.829  14.124  0.0705  0.1837 -0.2661
17490W        W27183   5.710  15.357   4.946 -0.1270 -0.1381 -0.2854
17491W        W27184  10.904  16.880   3.762  0.3249 -0.1796 -0.2641
17492W        W27185   4.506  13.448   2.794 -0.0719 -0.0584  0.1765
17493W        W27186   4.142  13.404  17.592  0.1224 -0.0883  0.0870
17494W        W27187   1.683   0.867  16.491 -0.0280  0.0193  0.4821
17495W        W27188  10.199  10.662  12.548  0.1733 -0.1203  0.1940
17496W        W27189  13.687   5.612  12.698 -0.1480  0.0611 -0.0486
17497W        W27190  10.902  17.160   5.924 -0.1573  0.0433  0.0559
17498W        W27191   4.446   5.963   0.724  0.1151  0.2332  0.1438
17499W        W27192   8.463   8.517   4.187  0.4799 -0.3527  0.4499
17500W        W27193  16.950   7.087   2.522 -0.2192  0.0287  0.1725
17501W        W27194   0.660   5.296   0.389 -0.1435  0.0028 -0.1025
17502W        W27195   9.979  15.121  14.436  0.1365 -0.3838  0.2712
17503W        W27196  17.614   6.013   2.190  0.0650 -0.0351  0.0806
17504W        W27197  11.452   5.158  15.306 -0.0897 -0.3609 -0.0207
17505W        W27198  12.001   6.641  13.112  0.2943  0.3150 -0.1569
17506W        W27199  14.601  10.290  12.109 -0.0918 -0.1267  0.2018
17507W        W27200   1.830  13.764   5.441  0.2207  0.2076 -0.0202
17508W        W27201  12.883  17.326   1.079 -0.1657  0.1181  0.1686
17509W        W27202   6.095   8.437  13.255 -0.2505 -0.1038 -0.1134
17510W        W27203   2.698  10.490   1.912  0.2457 -0.1134  0.0172
17511W        W27204   3.989   9.054  12.239 -0.1538 -0.1499  0.3489
17512W        W27205  11.909  11.240  12.898 -0.0247  0.1768  0.1556
17513W        W27206   4.593  10.382  16.367  0.2189 -0.2114 -0.3430
17514W        W27207  14.664  17.463   5.626 -0.2058  0.2697 -0.1539
17515W        W27208  15.472   3.246  11.765 -0.0833  0.1065 -0.0979
17516W        W27209  10.012   1.976  16.738  0.2580  0.0315 -0.2111
17517W        W27210  13.983   4.626   6.046 -0.1491 -0.4410  0.2101
17518W        W27211   7.563  13.867   0.998  0.0473 -0.0711 -0.3656
17519W        W27212  17.458   1.206  13.977 -0.2569  0.0025  0.0497
17520W        W27213   8.801  13.338  17.042 -0.3606  0.0315 -0.1465
17521W        W27214   8.579  15.411   1.066  0.3812  0.1045 -0.0920
17522W        W27215   9.919   9.257  11.590  0.4371 -0.1050  0.3435
17523W        W27216  17.176  15.483  15.405 -0.0564  0.0520  0.1337
17524W        W27217   5.455  14.614  15.014  0.3594  0.1938 -0.0239
17525W        W27218   4.807  10.327   5.285 -0.2095 -0.0924  0.2491
17526W        W27219   5.190   2.958  17.212 -0.0535 -0.2064 -0.0010
17527W        W27220  12.913  12.924  13.958 -0.2757 -0.0689  0.0771
17528W        W27221   7.380   5.650  12.023  0.1141 -0.1984 -0.2277
17529W        W27222  17.539   4.193  11.761  0.2109 -0.1577  0.0974
17530W        W27223   8.537  10.156   2.460  0.2696 -0.0029 -0.0045
17531W        W27224   9.140  14.541   3.475 -0.0188  0.0828  0.2203
17532W        W27225   2.591  16.774   1.531 -0.0821 -0.2375 -0.3983
17533W        W27226   7.810  14.344   3.687  0.2064  0.2862  0.1336
17534W        W27227   6.573   3.533  11.833  0.0652 -0.0296  0.0637
17535W        W27228   4.290   9.680   1.997 -0.0480 -0.1547 -0.0543
17536W        W27229   0.046  15.447  12.438 -0.1685  0.1218  0.1486
17537W        W27230   0.859   6.168   2.328  0.2304  0.1466 -0.0028
17538W        W27231   7.486  11.906   6.463  0.3013 -0.1717 -0.4091
17539W        W27232  14.213   5.374   0.647 -0.1323 -0.1349  0.0569
17540W        W27233   8.336  11.940   5.895  0.1372  0.0016 -0.0715
17541W        W27234   9.434   5.845  11.994 -0.0338 -0.1387 -0.2839
17542W        W27235   8.672  14.962   1.914 -0.2015  0.2581  0.0955
17543W        W27236  17.583  11.521   5.880  0.2958  0.1271  0.0455
17544W        W27237  12.294  12.600   4.547 -0.1095 -0.0573 -0.0029
17545W        W27238  16.850  14.975   3.868  0.1251 -0.1091 -0.0747
17546W        W27239   4.462   5.982  15.768  0.2402 -0.0751  0.2916
17547W        W27240  11.129   6.764  16.743  0.1967 -0.0317 -0.2989
17548W        W27241  15.668   5.243   3.067  0.0048 -0.2127  0.0327
17549W        W27242  15.606   7.566   0.285 -0.1861  0.2426  0.0866
17550W        W27243   0.169   6.021  16.440  0.1888 -0.0083  0.0488
17551W        W27244   3.110  17.562   3.914  0.1609  0.3069  0.1763
17552W        W27245  16.009   4.221  15.091  0.0095 -0.0159 -0.2917
17553W        W27246  11.891   0.508   6.000  0.1587 -0.3683 -0.0313
17554W        W27247  11.122   3.676   5.702 -0.1398 -0.5843  0.0972
17555W        W27248   6.538  10.300  17.480 -0.1247  0.2523  0.0651
17556W        W27249   3.928   8.737   4.211  0.1921 -0.0133 -0.1158
17557W        W27250   0.216   3.821   3.371 -0.1516 -0.3245  0.0479
17558W        W27251  17.299   6.440  13.601  0.0014  0.0836 -0.1264
17559W        W27252  15.524   2.515   5.020 -0.1196 -0.4133 -0.2446
17560W        W27253  10.835  17.294  12.773  0.1975 -0.5253  0.0293
17561W        W27254  15.188   7.472   6.220 -0.1667 -0.1118 -0.2082
17562W        W27255  14.077  10.057  12.265  0.0171 -0.1378 -0.1090
17563W        W27256  17.140   1.805   0.674  0.1955  0.2308  0.0345
17564W        W27257  10.785   6.504  14.312 -0.1702  0.0567 -0.1654
17565W        W27258   3.015   7.138   3.846  0.3114 -0.2222 -0.0139
17566W        W27259   5.268   7.299  17.331 -0.1363 -0.0702  0.3565
17567W        W27260   1.955  12.290   1.949  0.0893 -0.0565 -0.1861
17568W        W27261  12.007   3.143  11.334  0.0290  0.0014 -0.0533
17569W        W27262   9.962  12.109   0.582 -0.1542  0.1179 -0.0422
17570W        W27263  10.295  12.939  13.995  0.0999 -0.3050 -0.0243
17571W        W27264  13.202   4.206   5.726  0.0006  0.4418  0.1060
17572W        W27265   4.553   4.987   4.700 -0.0339 -0.0996  0.1572
17573W        W27266   7.907   8.180  14.347  0.0165 -0.0336 -0.1254
17574W        W27267   4.757   1.072  13.372 -0.1771  0.0036 -0.0294
17575W        W27268   5.451   4.804  12.462  0.0479  0.3109 -0.0167
17576W        W27269   5.641  13.510  11.897 -0.1381 -0.1213 -0.0718
17577W        W27270  16.198   1.057  14.890  0.2631  0.2215 -0.2531
17578W        W27271   5.950   2.472   1.394  0.0139 -0.1491 -0.0946
17579W        W27272  17.243   8.776   0.931  0.0702 -0.1246  0.0734
17580W        W27273  10.977  17.094   1.237  0.3286 -0.2689 -0.0704
17581W        W27274   5.504  11.288  13.904  0.2213 -0.2616 -0.0196
17582W        W27275   7.632  16.389   0.931  0.2086 -0.2582 -0.0045
17583W        W27276   1.340  12.650  13.090  0.1976 -0.2614 -0.2915
17584W        W27277  11.512   1.910   1.983 -0.0692 -0.0390  0.0153
17585W        W27278   3.810   5.284   0.338 -0.0275  0.2697  0.1190
17586W        W27279   9.086  16.346   2.273 -0.1069 -0.1418 -0.0334
17587W        W27280   0.712  11.290   2.751 -0.0255  0.0253 -0.4062
17588W        W27281  10.088  13.847  17.137 -0.1870 -0.3550 -0.0035
17589W        W27282   5.531  10.209  14.716  0.0338 -0.0136  0.1391
17590W        W27283   1.038   8.145   6.355  0.0956 -0.2227  0.1381
17591W        W27284   6.286   0.280  13.845 -0.1251  0.0540 -0.3003
17592W        W27285   8.163   4.215   3.341 -0.1068  0.1740  0.3406
17593W        W27286   5.988  17.061  11.781  0.0105 -0.2750 -0.0261
17594W        W27287   0.727  13.379   4.438  0.4484 -0.0541  0.0730
17595W        W27288  10.836   0.201  14.527  0.1376  0.0233  0.2577
17596W        W27289   9.433  17.539   5.175 -0.1259  0.0035 -0.2695
17597W        W27290   1.274   6.286  14.353  0.0665  0.0746  0.2150
17598W        W27291   2.389   7.856  15.554  0.2872  0.0683 -0.2308
17599W        W27292  13.145  15.467  17.395 -0.0840 -0.1551 -0.2978
17600W        W27293  15.215  11.273   0.996 -0.1079  0.0506  0.0700
17601W        W27294  10.072   8.213   3.510 -0.2782 -0.1413 -0.1462
17602W        W27295   2.503  10.473   3.509 -0.0327  0.1930  0.2583
17603W        W27296   1.971  17.438  15.444 -0.2432  0.3393 -0.0620
17604W        W27297   9.493  10.213   2.506 -0.0676  0.0711 -0.1439
17605W        W27298  14.652   1.909   5.893 -0.3145  0.0039  0.1467
17606W        W27299   4.985   1.889  15.127  0.1827  0.3699 -0.0069
17607W        W27300   4.400  15.587  11.677  0.1942  0.0165 -0.2892
17608W        W27301   6.532   9.377   4.664 -0.0768  0.1508 -0.2175
17609W        W27302   8.724   4.340  15.266 -0.0681  0.0184  0.0646
17610W        W27303  16.812  14.628  15.454  0.0287 -0.0077  0.2753
17611W        W27304  11.667   5.769  15.183  0.1017  0.1627 -0.2545
17612W        W27305   9.474   1.256   4.794 -0.2198  0.0149 -0.0490
17613W        W27306  16.712   6.392   1.878 -0.1154 -0.2476  0.0166
17614W        W27307   9.459  10.393  13.096 -0.0281  0.0120 -0.0347
17615W        W27308   9.419  13.339  13.259  0.0929 -0.1227  0.0423
17616W        W27309   7.938   7.146  15.588  0.2435 -0.0702 -0.0882
17617W        W27310  16.411  12.956  13.219  0.2459  0.1806  0.2665
17618W        W27311  14.786  14.764  14.213  0.1178  0.1909  0.3886
17619W        W27312  10.717   1.047  13.100 -0.1356 -0.0444 -0.1414
17620W        W27313   3.693   7.802  11.206 -0.0786 -0.0347  0.3446
17621W        W27314  10.976   7.978   6.781  0.2527 -0.0491  0.1075
17622W        W27315  16.473   2.677  16.238  0.1021 -0.2177 -0.1328
17623W        W27316   3.916  11.525   5.778 -0.2663  0.2101 -0.4021
17624W        W27317   4.562  12.288  16.916  0.1993  0.0157 -0.0794
17625W        W27318   1.184  13.343   3.604  0.1266  0.0356 -0.3119
17626W        W27319   4.614   2.545  12.984  0.1238  0.1717 -0.0706
17627W        W27320   0.430   5.999   0.695 -0.1362 -0.2274 -0.0361
17628W        W27321   2.726  12.809  12.215  0.0130 -0.3130  0.2154
17629W        W27322   6.560   4.073  16.472 -0.1499 -0.2319  0.1868
17630W        W27323   7.452   0.411   5.582  0.2301  0.1217  0.2284
17631W        W27324   3.754  13.113  16.734  0.5076 -0.2200 -0.1296
17632W        W27325  15.096  12.923   1.504 -0.1093  0.0894  0.1485
17633W        W27326   0.413  17.225  17.047  0.2001  0.0485  0.2465
17634W        W27327   2.428  10.493  16.814  0.1540 -0.2356 -0.0469
17635W        W27328   2.472  13.164   1.916  0.3177 -0.0843 -0.3997
17636W        W27329   3.865  14.732  14.144 -0.3314  0.2628  0.0795
17637W        W27330   2.781  17.393   6.194  0.1871 -0.2138 -0.1448
17638W        W27331  10.706   4.977   3.771 -0.0287  0.2775  0.0336
17639W        W27332   4.864   0.761   3.342  0.0694 -0.1152  0.0392
17640W        W27333  12.483   2.063  12.276  0.0993  0.1881 -0.0642
17641W        W27334   0.136  13.922  15.359  0.2965 -0.3555 -0.1842
17642W        W27335  17.512  15.125   5.153  0.2777 -0.2162 -0.2666
17643W        W27336   7.835   7.661   2.331  0.1553  0.2794 -0.2352
17644W        W27337   8.852  13.966   1.512  0.1391 -0.0527  0.0514
17645W        W27338   3.662  16.829  15.900 -0.2597  0.1519  0.0290
17646W        W27339  11.733   8.528  12.297  0.0522 -0.1099 -0.0100
17647W        W27340   1.191   2.474  16.964 -0.0497  0.0008 -0.2345
17648W        W27341  10.178  10.752   6.239  0.1084 -0.2849 -0.1704
17649W        W27342  16.066  14.494  17.585 -0.0285 -0.0934 -0.4544
17650W        W27343   3.743   6.508  12.495 -0.1250 -0.1878 -0.0979
17651W        W27344  15.170   8.492   1.187  0.1139 -0.1901  0.0774
17652W        W27345   4.003  15.194  15.062  0.1878 -0.1027  0.0883
17653W        W27346   1.263   5.298  14.222 -0.2711  0.1011  0.0229
17654W        W27347  13.789   9.213   0.485 -0.0314  0.2399 -0.0524
17655W        W27348   7.816  13.177   4.507 -0.3453  0.3601  0.1916
17656W        W27349   9.338   7.853   4.585  0.0931 -0.0562  0.3321
17657W        W27350   4.207  12.152  12.658  0.1726  0.2059  0.0423
17658W        W27351   5.017  17.201  12.666  0.2390 -0.2381  0.0204
17659W        W27352   6.320  10.787  11.546 -0.4019 -0.1545  0.2603
17660W        W27353   6.171   5.926  16.999  0.1229  0.2132 -0.0036
17661W        W27354  11.851   0.069  16.854  0.0090  0.0723  0.3279
17662W        W27355  12.940   7.325  17.304  0.2038 -0.2234 -0.1286
17663W        W27356   2.617   7.853  16.014  0.0757  0.4166  0.1881
17664W        W27357   3.489  11.964  13.698  0.0534  0.3996 -0.2489
17665W        W27358   8.022   3.747  17.346 -0.0327  0.2840  0.1980
17666W        W27359   1.150  13.050  16.218 -0.5035  0.1793 -0.1418
17667W        W27360  10.756   7.358  17.333 -0.1783 -0.2525  0.0911
17668W        W27361   5.015  10.147  17.165  0.0853  0.1866  0.1516
17669W        W27362   0.568   0.965   4.898 -0.0512  0.1246 -0.0659
17670W        W27363   9.782   7.209  17.363 -0.0112  0.0692  0.1951
17671W        W27364   7.462   8.350  15.217  0.0647 -0.4944 -0.0211
17672W        W27365   7.949   0.305  15.564 -0.0883 -0.0363 -0.1185
17673W        W27366   5.082   6.435  12.508  0.0660  0.0320 -0.0448
17674W        W27367  16.869   5.482   5.714  0.3128 -0.2290 -0.1512
17675W        W27368   1.487  12.036   6.646 -0.0517  0.2676  0.1383
17676W        W27369   6.848   7.363  15.906  0.0357 -0.2660  0.1526
17677W        W27370   8.513   0.472  12.064 -0.0352 -0.0519 -0.1858
17678W        W27371  13.104  11.861  14.828 -0.1791  0.0874 -0.2339
17679W        W27372   6.702   3.465  17.631  0.0375  0.1522  0.1114
17680W        W27373   4.050   2.582   6.039 -0.0826 -0.0064  0.0749
17681W        W27374  15.221   4.279   0.954 -0.2402  0.1437 -0.2495
17682W        W27375   1.634  15.642   0.095  0.0729  0.2948  0.0000
17683W        W27376   4.568  14.292   4.163 -0.0527  0.0863  0.2022
17684W        W27377  10.480  16.703   2.932 -0.0077  0.0012 -0.0201
17685W        W27378   1.841  11.898  12.118  0.3181  0.2606 -0.1270
17686W        W27379   0.326   8.964  16.307 -0.0149  0.1298  0.0640
17687W        W27380  10.975  16.122   0.656 -0.3158 -0.0703  0.0763
17688W        W27381  16.692   8.752  15.907 -0.0406  0.0990 -0.0032
17689W        W27382  10.358   2.271   4.466  0.2110  0.2449  0.0364
17690W        W27383  10.821   9.703   2.351  0.0538  0.1823 -0.3617
17691W        W27384   2.026  13.117  13.375  0.0103  0.0297 -0.2078
17692W        W27385  16.243  15.772   0.444  0.0420  0.2449 -0.1541
17693W        W27386  12.949   2.567   3.716 -0.0269  0.2712 -0.0801
17694W        W27387  12.977   0.323   1.662 -0.3461  0.0305  0.1141
17695W        W27388  15.508  16.791   0.915  0.4559  0.0954 -0.2824
17696W        W27389   8.095   3.761   4.843 -0.1699 -0.2091 -0.0696
17697W        W27390   9.361  16.431   3.282 -0.0321  0.0747 -0.1295
17698W        W27391  11.226   2.424   4.420  0.1393  0.0487 -0.1128
17699W        W27392   6.415  15.566   6.247  0.1685  0.3602 -0.0484
17700W        W27393  13.352   1.493   1.374  0.0540 -0.1179  0.1258
17701W        W27394   0.996  11.462  14.384 -0.1311  0.0068  0.1370
17702W        W27395  15.397   2.749  11.794 -0.2647  0.1736 -0.0150
17703W        W27396   4.373  13.772   4.971 -0.3008 -0.0876 -0.0318
17704W        W27397  17.065  10.994   2.068  0.1611  0.1465  0.0138
17705W        W27398  12.292   2.467   6.066  0.1452 -0.1271 -0.0398
17706W        W27399   0.128   1.355  15.342  0.1054  0.0804 -0.2323
17707W        W27400  11.313   9.069   4.754  0.0352  0.1926  0.3963
17708W        W27401   2.774  15.523   1.190 -0.0821 -0.1162 -0.4335
17709W        W27402  13.238  17.310  16.334  0.0791 -0.0385  0.2466
17710W        W27403   9.912   1.001   0.182  0.5801 -0.3318  0.0191
17711W        W27404  12.068  15.663   6.183  0.0276 -0.3425  0.1093
17712W        W27405   5.613  15.451  12.580  0.0738  0.2995  0.1405
17713W        W27406   0.834  12.382  17.583 -0.1517  0.0100  0.0151
17714W        W27407   4.588  12.100   5.152 -0.1629  0.0365 -0.0408
17715W        W27408   5.043   0.391  14.641  0.0776 -0.1496 -0.1523
17716W        W27409   0.892   3.701   4.713  0.1746 -0.2055  0.2049
17717W        W27410  16.270   9.222   5.047 -0.0965  0.2424 -0.0322
17718W        W27411   2.470  15.719   5.786  0.1746 -0.1686  0.0467
17719W        W27412   0.889   1.239  11.997 -0.0317 -0.0434 -0.0345
17720W        W27413   3.387  12.279   3.188  0.1372  0.0942 -0.0049
17721W        W27414  11.353   8.588   3.922 -0.0231  0.0436 -0.1388
17722W        W27415  14.110  14.654  16.860 -0.4119 -0.0710  0.4053
17723W        W27416   7.115   6.705  16.543 -0.0825 -0.0059  0.0212
17724W        W27417   2.827   4.423  13.581  0.1971 -0.1809  0.4679
17725W        W27418   9.220   8.818  14.271 -0.0478  0.0792  0.1401
17726W        W27419  15.989  15.521  14.723 -0.0093 -0.0531  0.1227
17727W        W27420  15.690   4.755  16.835 -0.1156 -0.2665  0.0191
17728W        W27421   7.550   0.647   2.591 -0.0260 -0.2121  0.1897
17729W        W27422   9.501  10.812  17.113 -0.2045  0.1809 -0.1240
17730W        W27423  10.257   6.227  12.264 -0.1127  0.0767  0.0374
17731W        W27424   7.618   4.858  15.620  0.1563 -0.0410 -0.1208
17732W        W27425   0.003   8.218   3.004 -0.0377  0.0793  0.1555
17733W        W27426   2.713   8.915   3.342  0.3331 -0.3441 -0.1629
17734W        W27427  16.254  11.443  17.050  0.1833 -0.1055 -0.1743
17735W        W27428   1.012   1.847  17.201  0.3371 -0.2968 -0.0176
17736W        W27429   5.419   1.965  15.384  0.2408 -0.1644 -0.0619
17737W        W27430  12.911  11.618   3.115 -0.2404  0.2671  0.2724
17738W        W27431  12.009   3.284  13.778 -0.1548 -0.0143 -0.1050
17739W        W27432   0.748   3.060   5.986 -0.0539  0.3648 -0.2241
17740W        W27433   7.113  14.991   3.728  0.1047  0.2073 -0.1612
17741W        W27434   4.265   5.997  13.892  0.0017 -0.1850 -0.1267
17742W        W27435  11.483   6.271   1.042  0.1995 -0.2037  0.1489
17743W        W27436   2.490   0.319  14.560 -0.2168  0.0580 -0.1013
17744W        W27437   1.594   7.841   4.614  0.1897  0.0959 -0.3957
17745W        W27438   0.248   1.391   5.213 -0.2569  0.0431  0.1008
17746W        W27439   2.638  12.812   5.238 -0.1015 -0.0783 -0.1753
17747W        W27440  13.492  14.435   2.995  0.2699  0.1905 -0.0400
17748W        W27441  14.172   3.282  13.780  0.1626  0.1928  0.2974
17749W        W27442   7.918  12.293  15.541  0.0816 -0.0585 -0.1552
17750W        W27443   7.033   2.562  15.839  0.0168  0.1130  0.0361
17751W        W27444  15.454   5.755  13.425 -0.1600  0.0222 -0.1060
17752W        W27445  12.155   1.022  14.253  0.0770 -0.3492 -0.1347
17753W        W27446  16.177   0.284  17.088  0.0351 -0.2853 -0.1387
17754W        W27447  17.613  11.283  11.497  0.1895 -0.0704  0.1315
17755W        W27448   3.536  15.349   2.313  0.4107  0.1339 -0.2190
17756W        W27449   1.569   1.980   3.493  0.2263 -0.3010  0.0996
17757W        W27450   6.757  10.866   1.915 -0.1108  0.2770  0.1815
17758W        W27451   9.603   1.228   0.756  0.0303  0.0855 -0.2134
17759W        W27452  10.907   3.509  13.504 -0.2499 -0.4603 -0.0322
17760W        W27453  15.878   8.150   6.285 -0.0055  0.0706  0.5286
17761W        W27454  15.350  10.627  15.122 -0.0158 -0.0148  0.1710
17762W        W27455   3.948  11.079  17.621  0.1093  0.2548 -0.0964
17763W        W27456  10.657  10.537   4.565  0.0982 -0.1011 -0.1875
17764W        W27457  16.033   2.532  13.346 -0.3652  0.0545 -0.2414
17765W        W27458   0.433   1.534   3.969  0.1222  0.0753  0.1025
17766W        W27459   2.459   3.054   3.389  0.2539  0.2373 -0.1511
17767W        W27460   5.434  15.112   4.658  0.0103 -0.0845 -0.0841
17768W        W27461   1.578  16.580   4.422 -0.0594  0.2318  0.1132
17769W        W27462  14.489  16.446   2.083 -0.2233  0.3281 -0.2030
17770W        W27463  10.973   5.488   1.836  0.0305 -0.1449  0.2106
17771W        W27464   3.011   9.846  14.398 -0.0444  0.3735 -0.0254
17772W        W27465   5.075  17.457  17.025 -0.1854 -0.0215  0.0998
17773W        W27466  10.301   4.910  16.766  0.1431  0.0723 -0.1208
17774W        W27467  13.424   9.481  12.939  0.0572 -0.0900 -0.0675
17775W        W27468  11.585  12.693   5.729  0.1825  0.0093  0.0313
17776W        W27469  10.996  12.412  12.708 -0.0097 -0.1792  0.0627
17777W        W27470  14.843   4.444   3.062  0.0400 -0.3142 -0.1313
17778W        W27471   5.687   3.468  12.824  0.0605  0.3973 -0.0957
17779W        W27472  13.502   2.029  16.213 -0.2342 -0.2399  0.1955
17780W        W27473   9.485   7.921  13.298  0.1574  0.2480  0.1773
17781W        W27474  17.524   1.859   2.856 -0.1664  0.0679 -0.0102
17782W        W27475  15.988   2.797   4.066 -0.1217  0.2454 -0.1417
17783W        W27476   1.290   0.315   0.293 -0.0930  0.1947 -0.1255
17784W        W27477  13.537   9.050  17.606 -0.0306 -0.2515  0.3546
17785W        W27478   2.809   2.408   4.375  0.1656  0.0876  0.2217
17786W        W27479  11.591   0.647   3.500 -0.1066  0.1903  0.0462
17787W        W27480   3.483   5.551   3.938 -0.1651  0.1427 -0.1414
17788W        W27481   7.684  16.510  14.448  0.2030  0.0053 -0.1117
17789W        W27482  15.384  15.742  12.235 -0.3024  0.0426  0.1650
17790W        W27483   7.354  11.576  13.521  0.3622  0.0010  0.0857
17791W        W27484   3.429   8.438  14.604  0.1510 -0.0179  0.0511
17792W        W27485  16.439   3.169   5.760  0.0154  0.0252  0.2688
17793W        W27486  16.441   1.835  13.801 -0.0076 -0.1205 -0.1891
17794W        W27487   5.968   5.522   1.349 -0.1934  0.0180 -0.0405
17795W        W27488  10.833   3.150   1.667 -0.0599  0.0618  0.4854
17796W        W27489   2.325  14.666   2.091  0.0971  0.1666  0.2354
17797W        W27490  17.346   8.239   2.112 -0.2334  0.1487  0.1824
17798W        W27491   2.399   5.525   0.731 -0.0091  0.0447 -0.3613
17799W        W27492   8.714   8.899   6.119  0.0708  0.0104 -0.2889
17800W        W27493  17.127  11.559  16.689 -0.0075 -0.1543 -0.0364
17801W        W27494   3.162  17.482   1.690 -0.1400  0.0924 -0.5137
17802W        W27495  16.150   3.089  17.245 -0.2020 -0.0510 -0.0514
17803W        W27496   3.644   2.845   0.998  0.1229  0.0193 -0.0837
17804W        W27497   3.577   9.743  16.519  0.2367 -0.1771  0.0146
17805W        W27498   7.127   4.711   5.993  0.0070  0.0140 -0.2564
17806W        W27499  12.450   2.239   4.059  0.0182  0.1156  0.1710
17807W        W27500  15.901   7.702  14.200  0.0824 -0.0796 -0.0056
17808W        W27501   0.206  14.799  16.414  0.1770  0.1291 -0.1121
17809W        W27502  13.576   2.356   1.373  0.3776  0.1351 -0.5133
17810W        W27503   7.828  10.344   5.898  0.2529  0.1682 -0.0161
17811W        W27504  14.743   4.496  13.311  0.0007 -0.2133 -0.0726
17812W        W27505   7.458  13.862  13.052  0.0611 -0.0558 -0.1144
17813W        W27506   2.582   0.649  10.606  0.2355 -0.1314  0.0343
17814W        W27507   5.876   3.173  15.117  0.0048 -0.2648 -0.2113
17815W        W27508  12.280   7.995   1.375 -0.1293  0.1202 -0.0283
17816W        W27509   4.429   9.522   6.621 -0.2871 -0.1927 -0.1678
17817W        W27510   6.276  16.670   4.223 -0.0476  0.2581  0.0121
17818W        W27511   8.343  11.271  13.796  0.2024  0.2734 -0.1603
17819W        W27512   8.620   2.043  15.380  0.1242 -0.1701 -0.2495
17820W        W27513  10.999   4.276   2.732  0.0020 -0.0001 -0.0776
17821W        W27514   6.583  10.004   3.554  0.0770 -0.0010  0.0644
17822W        W27515   0.345   7.446  13.806  0.5401  0.0865  0.0468
17823W        W27516   3.042   2.128   2.464 -0.2004 -0.1394 -0.2034
17824W        W27517  15.506   8.020  15.490  0.1387 -0.0344 -0.1309
17825W        W27518   9.909   7.580  16.283 -0.3515  0.0899 -0.0060
17826W        W27519   9.236   8.390  15.950 -0.0540 -0.2419  0.2490
17827W        W27520  14.636   3.126   3.600  0.0023  0.3155  0.1883
17828W        W27521   9.766   2.420   2.138 -0.2704 -0.1708  0.0754
17829W        W27522   3.936   3.993   1.517  0.4256  0.1268  0.0393
17830W        W27523  13.931  15.981  12.273  0.2858  0.2001 -0.0215
17831W        W27524   6.517   5.589   1.975 -0.0290 -0.0124  0.1043
17832W        W27525   8.103  12.067  17.007 -0.2192 -0.1802  0.0007
17833W        W27526  13.907   3.066  16.183 -0.3448  0.1528  0.0885
17834W        W27527   6.527   4.529   5.985  0.0425 -0.0957  0.1723
17835W        W27528  14.052  10.381   6.256 -0.0532  0.0313  0.1543
17836W        W27529  12.180   0.725   0.291 -0.0673  0.0543  0.1466
17837W        W27530   3.452   7.458   4.650  0.2260 -0.2609  0.3990
17838W        W27531   2.922  13.907  11.992  0.1484 -0.1765  0.3085
17839W        W27532  10.835   0.432   0.838 -0.0681 -0.0491 -0.0879
17840W        W27533  16.981  13.828   6.111  0.1193 -0.0392  0.3203
17841W        W27534  10.833   4.021  16.407  0.0227 -0.1573 -0.4596
17842W        W27535  17.435   2.001   3.559  0.0763  0.1778  0.1214
17843W        W27536   5.567  12.007  16.753  0.0202 -0.0921  0.2033
17844W        W27537   2.246  12.706  15.758  0.2395  0.0588 -0.0149
17845W        W27538   8.569  15.320  15.932 -0.5533 -0.0540  0.1504
17846W        W27539   8.663  11.539  14.353  0.3374  0.1577 -0.0799
17847W        W27540  14.831   4.177  16.918 -0.1406 -0.2222 -0.1323
17848W        W27541   5.923   7.052  14.371 -0.0906 -0.3165  0.2462
17849W        W27542   3.442  13.883  13.772  0.3499 -0.3716  0.0105
17850W        W27543  17.051   9.229  13.986 -0.1188  0.2221 -0.1136
17851W        W27544   6.983   2.333  16.707  0.0822  0.2036  0.2738
17852W        W27545   7.219   3.523  15.596  0.2088  0.1691  0.0713
17853W        W27546   5.057  10.719   1.906  0.0684 -0.1565  0.1036
17854W        W27547   7.120   1.844   2.716 -0.0360  0.0343  0.2427
17855W        W27548  14.100  12.084   5.103 -0.3020  0.0631  0.0255
17856W        W27549   6.088   7.609   0.343 -0.0753 -0.2284 -0.0166
17857W        W27550   5.925   9.721  13.196  0.0123  0.0127 -0.0192
17858W        W27551  12.897   6.830   4.750  0.1883  0.2812  0.2470
17859W        W27552  12.418   9.260  16.205  0.1504  0.3263 -0.1236
17860W        W27553  11.644   8.744   1.882  0.1856 -0.1131  0.3077
17861W        W27554   9.857   2.823   5.587  0.1729  0.1197 -0.1523
17862W        W27555   1.428   7.668  17.561  0.3179  0.1414 -0.0565
17863W        W27556  12.251   8.504   6.185  0.3432  0.1736 -0.3794
17864W        W27557  17.529   7.756   3.484  0.0283 -0.3814 -0.1802
17865W        W27558  11.612  15.234   3.201 -0.0975  0.1628  0.2641
17866W        W27559  14.606   2.170  13.254 -0.0530  0.4020 -0.0853
17867W        W27560  14.979  14.177   1.310  0.2189  0.2185 -0.0594
17868W        W27561  10.320  15.088  15.972  0.0692 -0.3708 -0.3323
17869W        W27562   4.085   8.282  13.447 -0.0597 -0.1831 -0.1659
17870W        W27563   7.304  15.862   0.893 -0.1712 -0.1808 -0.0686
17871W        W27564   6.247  12.929   0.842  0.2049 -0.1851  0.2398
17872W        W27565   6.793   1.769   0.286 -0.3232 -0.1283 -0.2048
17873W        W27566   8.622  13.366   4.224 -0.1462  0.1970  0.0002
17874W        W27567   2.303  13.033  15.321 -0.1593  0.0067  0.0047
17875W        W27568  10.554   9.222  17.640 -0.1815  0.0768  0.0283
17876W        W27569   0.400   4.011  11.842 -0.0746 -0.2031  0.0873
17877W        W27570   9.483  12.120  17.543  0.0881 -0.1597 -0.0364
17878W        W27571   4.950  13.424   6.381 -0.0093  0.3210 -0.0836
17879W        W27572   4.230  16.477  13.663  0.2384  0.2434 -0.0725
17880W        W27573   8.753   1.855  16.126 -0.3759  0.1552  0.0386
17881W        W27574  14.337   0.257   1.999 -0.1311  0.1983  0.1023
17882W        W27575  17.132  11.962  15.872  0.1071  0.2089 -0.2676
17883W        W27576  14.355   3.516  14.770  0.0642  0.0355  0.0855
17884W        W27577   6.662  10.954  13.110 -0.5063  0.0830 -0.1626
17885W        W27578   6.796  15.005   1.965  0.0042 -0.1517 -0.0317
17886W        W27579   9.120  17.191  14.491  0.2406 -0.0592  0.1325
17887W        W27580   8.741  17.414   7.087  0.2562 -0.2692 -0.1344
17888W        W27581   7.611   5.984   3.086 -0.1763 -0.0953 -0.0075
17889W        W27582   9.394   4.819  14.273 -0.2081 -0.2020  0.0000
17890W        W27583   0.122   9.671   5.393  0.1265 -0.1590 -0.2184
17891W        W27584   8.041  16.048   2.240 -0.2751 -0.0600  0.0054
17892W        W27585  12.051   7.105   5.468 -0.1247 -0.0531 -0.2141
17893W        W27586   3.171   1.135  15.544  0.0693 -0.0367 -0.1923
17894W        W27587  11.864  11.934  16.280 -0.1167  0.1880  0.1413
17895W        W27588   3.195   8.309  17.515  0.1339 -0.0984 -0.2481
17896W        W27589  15.556   8.185   5.271 -0.0258  0.1222  0.0298
17897W        W27590   6.897   3.930   3.486  0.3050 -0.0635  0.2267
17898W        W27591  11.701  10.768   1.824 -0.3090 -0.2472 -0.0273
17899W        W27592  11.333  10.141   3.730 -0.2197 -0.3836 -0.1766
17900W        W27593   6.641   3.506  14.537  0.1410 -0.0807 -0.0120
17901W        W27594   4.200  11.873  12.230 -0.1620  0.0151  0.0495
17902W        W27595  11.741   5.567   2.241  0.2609  0.1173  0.1407
17903W        W27596   2.683   3.910  15.050  0.0391  0.0428 -0.3406
17904W        W27597   5.119   9.016   2.882 -0.0506  0.1457  0.2556
17905W        W27598   6.443   7.018  15.999  0.1854  0.2388 -0.0339
17906W        W27599   8.876  10.619   2.807 -0.2109  0.3129 -0.0735
17907W        W27600   4.319  15.100   3.006  0.2299 -0.0457 -0.0564
17908W        W27601   0.903   6.180  16.772  0.2403 -0.1371  0.1806
17909W        W27602   4.932   3.897   0.062  0.0922 -0.2354  0.0934
17910W        W27603  14.522  12.343   4.455 -0.0170 -0.0744  0.1373
17911W        W27604   4.903   1.486   2.507  0.3432 -0.0561 -0.1138
17912W        W27605   6.261   9.821   4.779  0.0347  0.1481  0.2080
17913W        W27606  13.749   9.146  12.609  0.0041 -0.2613  0.1546
17914W        W27607  15.351  15.550   3.708 -0.0043  0.0133  0.0470
17915W        W27608   5.587  11.118  13.386  0.2232  0.1008 -0.3786
17916W        W27609  16.062   4.125  14.519  0.3471 -0.0790 -0.1616
17917W        W27610  13.122  17.436   1.618 -0.1723 -0.1426 -0.4978
17918W        W27611   3.798   2.665  17.114 -0.2413 -0.0765 -0.3251
17919W        W27612   6.543   0.450  13.445  0.1342 -0.0205  0.0190
17920W        W27613  14.872  12.656  13.838 -0.0317 -0.0085 -0.3057
17921W        W27614  10.511   2.888   1.844  0.0946  0.2110 -0.1355
17922W        W27615  11.480   7.436   6.278 -0.0429 -0.2069 -0.0151
17923W        W27616  15.207  10.224   0.996 -0.1800 -0.3163 -0.0933
17924W        W27617  13.849  14.072   3.157 -0.2249  0.0329  0.0566
17925W        W27618  15.734  12.119  14.499 -0.0929  0.2611 -0.1273
17926W        W27619   4.859   7.710  10.900 -0.2886 -0.0907 -0.0337
17927W        W27620   1.709   4.624   4.878  0.3587  0.0103 -0.0521
17928W        W27621   4.441   6.702   4.315 -0.0198 -0.2070 -0.1031
17929W        W27622  11.155   1.925   3.739 -0.0902  0.1780  0.2380
17930W        W27623   5.020   8.227   0.076 -0.3926  0.1627 -0.0285
17931W        W27624   2.018  17.067  12.292 -0.0883  0.4138  0.3074
17932W        W27625   5.921   2.812  16.512 -0.6090  0.0381 -0.2569
17933W        W27626  16.259   1.166   1.712 -0.1434  0.0525  0.0336
17934W        W27627   6.451   0.136  14.277 -0.1347  0.3627 -0.4132
17935W        W27628   8.049  15.046  12.793  0.2259  0.0415 -0.0524
17936W        W27629  15.127   6.584   3.514  0.2093 -0.0276 -0.0134
17937W        W27630  10.432   0.680  15.078  0.1660 -0.2429 -0.1185
17938W        W27631   8.245   9.069  17.157 -0.3023  0.1763  0.3521
17939W        W27632   4.029   8.635   6.346 -0.1663  0.1271  0.0335
17940W        W27633  13.023   9.334  15.018 -0.0304  0.1011 -0.0941
17941W        W27634   7.954   3.228  17.170 -0.2717 -0.1726 -0.0875
17942W        W27635   5.738   6.375  15.129 -0.1255  0.0750 -0.4158
17943W        W27636   5.037  16.256   5.203 -0.1783 -0.2289 -0.2194
17944W        W27637  10.115   0.522   0.225 -0.1172  0.0083 -0.2128
17945W        W27638   0.809   6.022  17.403  0.0936  0.1263 -0.2357
17946W        W27639   5.562  16.295  16.497 -0.1030  0.3401  0.3440
17947W        W27640   5.971  12.699   0.042  0.0601 -0.0870 -0.1228
17948W        W27641   5.581  15.969   0.836  0.4646  0.2509 -0.3328
17949W        W27642   8.047   8.593  13.658  0.3064 -0.3761  0.0339
17950W        W27643  10.258  15.064  12.590  0.4873 -0.0073  0.3578
17951W        W27644   5.441  10.612   5.932  0.0846 -0.3559 -0.1178
17952W        W27645  15.194  15.095   3.674  0.0264 -0.5116  0.0186
17953W        W27646  12.779  11.496   0.132  0.1577 -0.0097  0.2061
17954W        W27647   6.056   9.535   2.906  0.1146 -0.0389 -0.1895
17955W        W27648   1.778   1.409   1.028  0.1370 -0.1846  0.4171
17956W        W27649   5.425   4.611   5.977 -0.1489 -0.0501 -0.0393
17957W        W27650  14.638  17.441  15.539  0.0535  0.0771  0.0307
17958W        W27651  15.379  14.587   4.968 -0.2910  0.0167  0.0747
17959W        W27652   3.834  11.788  15.090  0.1376 -0.0648 -0.2367
17960W        W27653   5.973   3.802   6.024 -0.0124 -0.0427 -0.0104
17961W        W27654   2.460   0.623   5.991 -0.1981 -0.0276 -0.1451
17962W        W27655   2.251  17.369   3.464  0.1322 -0.2679 -0.4925
17963W        W27656  15.120   9.498   1.562  0.2415  0.1973 -0.1152
17964W        W27657   8.253   7.994   6.149  0.0856  0.3743 -0.0177
17965W        W27658  16.869   6.291  13.710  0.1716  0.2584 -0.1581
17966W        W27659  12.444  13.947  16.391  0.2617 -0.3125 -0.1004
17967W        W27660  10.094   4.203   2.528  0.2194 -0.0249  0.0481
17968W        W27661   4.737   8.196   3.070 -0.0361 -0.3584  0.1199
17969W        W27662   7.369   9.306   2.790 -0.1499 -0.0666  0.1746
17970W        W27663  16.900  11.971   1.405 -0.0882 -0.3049  0.4795
17971W        W27664  16.629  11.494  16.561 -0.2049 -0.0197  0.2009
17972W        W27665   2.072   0.412   6.843 -0.0498  0.2659  0.0532
17973W        W27666   6.776  13.201   3.750  0.2204  0.3051 -0.0512
17974W        W27667  10.272   8.827   1.117  0.2578 -0.1147 -0.1233
17975W        W27668   0.643   0.086  15.531 -0.0571  0.0076 -0.0827
17976W        W27669   3.637   4.798  17.100  0.2685 -0.0149 -0.3800
17977W        W27670  13.951   7.303   4.946 -0.0824 -0.1440  0.3601
17978W        W27671  16.619  10.825   3.589 -0.3226  0.1014  0.0253
17979W        W27672  13.743   0.882   4.082  0.2610 -0.1119  0.0792
17980W        W27673   2.368   5.764  16.142 -0.1740  0.2659 -0.3213
17981W        W27674   1.372   5.018  13.288 -0.2731 -0.0542  0.2005
17982W        W27675  13.488   3.580   1.498 -0.0845 -0.0699 -0.2527
17983W        W27676  14.309  12.967  16.959  0.2831 -0.1619  0.1491
17984W        W27677   6.902   0.242  11.478  0.1790 -0.3696  0.2430
17985W        W27678   0.534  17.358  13.341 -0.1877 -0.1687  0.0713
17986W        W27679  12.109  15.756   1.697  0.0788  0.1235 -0.1437
17987W        W27680   8.988   9.855   5.659  0.0066  0.2090  0.1599
17988W        W27681   1.789  13.928  12.270  0.2024  0.2591  0.0782
17989W        W27682  16.155  15.048   5.013  0.1452 -0.1491  0.1615
17990W        W27683   8.714   6.320  14.329  0.1427  0.0254  0.2374
17991W        W27684   9.646   3.650  13.146  0.0894  0.1353 -0.1018
17992W        W27685  16.131  14.214   5.351 -0.2175 -0.1138  0.3973
17993W        W27686   8.262  11.193   6.305 -0.4621 -0.1448 -0.0414
17994W        W27687  10.558  11.021  16.677  0.2032  0.0951  0.1113
17995W        W27688  17.248   5.720   3.990  0.2911 -0.2452 -0.0578
17996W        W27689   2.990  14.098  12.771 -0.2627  0.0074  0.0010
17997W        W27690  12.501  14.283   3.375 -0.1394 -0.2529 -0.3352
17998W        W27691  11.170  16.698   1.028 -0.0144 -0.1926  0.0037
17999W        W27692  15.826   0.642   4.051 -0.1147 -0.3016 -0.0719
18000W        W27693  12.873   2.074   0.462 -0.1036  0.1115  0.3350
18001W        W27694   2.137   8.724   1.665 -0.2399  0.1718 -0.1098
18002W        W27695   2.604  14.360  14.743  0.2494 -0.0030 -0.0990
18003W        W27696  15.544   5.466  12.601 -0.3249  0.0633 -0.1373
18004W        W27697  13.306   9.781  16.315 -0.1474  0.0234  0.0047
18005W        W27698  11.842  14.169  13.181  0.0382  0.0405 -0.2393
18006W        W27699   8.399  15.757   4.134 -0.2777 -0.1007  0.2382
18007W        W27700  17.179  15.533  14.927  0.2570  0.2343 -0.2779
18008W        W27701  17.556   4.476   4.552  0.2883 -0.1976 -0.0795
18009W        W27702   2.196   2.841   0.808  0.1461 -0.0049  0.0568
18010W        W27703   5.751   6.290  16.950  0.0174  0.2405 -0.0500
18011W        W27704  14.896   9.934   4.324 -0.1559  0.1179 -0.1777
18012W        W27705  12.353   9.572  15.751 -0.0314  0.1055  0.0199
18013W        W27706   8.669  13.526   7.300  0.0217 -0.1483  0.2372
18014W        W27707   3.375  12.461  14.770 -0.0359 -0.0584 -0.2010
18015W        W27708   4.914   5.731   4.038  0.2539 -0.2853  0.2582
18016W        W27709  16.940   1.899  11.522 -0.1198  0.0674  0.1251
18017W        W27710   7.438  10.067   6.215  0.0725  0.2890  0.2232
18018W        W27711  14.617  12.704   0.296 -0.2134  0.2076  0.1426
18019W        W27712   3.407  13.925  16.676 -0.0766 -0.2259 -0.1965
18020W        W27713   7.478  14.328   2.238 -0.0520  0.2442 -0.2955
18021W        W27714  17.082   7.547  12.841 -0.0584 -0.1856  0.2642
18022W        W27715   8.344   3.696  16.306  0.3342 -0.1033  0.1204
18023W        W27716  11.936   9.224  16.013  0.0289 -0.0638  0.3203
18024W        W27717   6.295   4.344  14.489 -0.0049  0.0442 -0.0480
18025W        W27718  15.724  14.962  12.475  0.0510  0.1593  0.0573
18026W        W27719  13.051   2.642   2.176 -0.2097  0.0932  0.1683
18027W        W27720   4.867   0.474   6.122  0.1495 -0.0685  0.1348
18028W        W27721  10.495  14.448  15.200  0.0763 -0.0366 -0.3203
18029W        W27722  13.689   5.801   3.392 -0.0611  0.1562  0.0292
18030W        W27723  11.522   6.369   0.546  0.1876  0.3344 -0.0430
18031W        W27724   6.142  11.291  15.109 -0.1639 -0.1111 -0.0969
18032W        W27725  17.115   9.078   5.466 -0.0836 -0.2125  0.1033
18033W        W27726  12.682  16.774   4.025 -0.0625  0.1122 -0.0695
18034W        W27727  16.153  15.003   0.845 -0.0833 -0.0550 -0.3190
18035W        W27728  13.494  13.029   3.294  0.2426 -0.1754  0.0853
18036W        W27729  17.646  15.768   3.238 -0.1236 -0.0229 -0.1850
18037W        W27730   3.324  13.370  16.417  0.1631 -0.0835  0.0497
18038W        W27731   9.073   7.658  15.295  0.1984 -0.1542 -0.0339
18039W        W27732  14.904   6.509  14.151 -0.4450 -0.1178 -0.2058
18040W        W27733   9.279   8.937  14.723 -0.1325  0.0372  0.3304
18041W        W27734   1.610   9.968  14.660  0.2617  0.2472  0.0343
18042W        W27735   1.769   6.772   4.430 -0.0389 -0.1711  0.1228
18043W        W27736  12.074   9.364   3.865  0.1426 -0.0309 -0.0557
18044W        W27737  13.608   6.892  17.564  0.2734  0.1254  0.3809
18045W        W27738  10.544   4.263   4.356 -0.2386  0.1409  0.0886
18046W        W27739   3.263   3.354   5.166  0.0701  0.0159 -0.3149
18047W        W27740  12.877  15.601   3.578  0.0029  0.0737 -0.5376
18048W        W27741   7.693   6.243  16.873  0.0113  0.2532 -0.0046
18049W        W27742  13.302  15.026  13.120 -0.2140 -0.0559 -0.0413
18050W        W27743  15.474   8.176  12.641 -0.0334 -0.1379 -0.1177
18051W        W27744  11.927  15.271   3.566  0.0558  0.0477  0.1265
18052W        W27745   6.397  13.179   4.593 -0.1875  0.0956  0.1419
18053W        W27746  15.077   4.713  14.156 -0.1824 -0.1735  0.0563
18054W        W27747  16.433   7.131   2.426 -0.0202 -0.0296  0.0493
18055W        W27748  16.050  16.630   3.789 -0.1636  0.0715  0.0321
18056W        W27749   7.527   3.072  13.121 -0.0518 -0.1594  0.0337
18057W        W27750   1.978  10.920   4.197 -0.1285  0.3000 -0.2983
18058W        W27751   9.808  10.023   6.280 -0.0144  0.0416  0.0654
18059W        W27752   8.767   1.360   1.434  0.0866 -0.0598 -0.0539
18060W        W27753  15.966   1.291   2.857  0.0944  0.1512  0.1592
18061W        W27754  15.920   3.645  14.352  0.0610 -0.2406 -0.1974
18062W        W27755  13.983  17.586   1.286 -0.0549  0.0979 -0.2032
18063W        W27756  10.867   3.874  14.012  0.0661 -0.2025 -0.0846
18064W        W27757  15.795   1.079   1.227 -0.0721  0.1166  0.2326
18065W        W27758   2.023  16.780   0.379  0.0652  0.4035  0.2260
18066W        W27759  10.218   6.743  15.914  0.0866  0.0683 -0.2393
18067W        W27760   4.116   4.427   5.230  0.1343  0.2184  0.0130
18068W        W27761   0.660  14.091  11.926 -0.1239 -0.1900  0.1094
18069W        W27762   1.924  17.232  16.938  0.0509  0.1807  0.0504
18070W        W27763   3.834   1.573   4.686  0.0518 -0.3555  0.1177
18071W        W27764  11.883   9.422  16.908 -0.0751 -0.0732 -0.2067
18072W        W27765   9.816   8.444   3.147 -0.4163  0.0626  0.2063
18073W        W27766  16.195   2.142  14.180  0.2043  0.0204  0.0661
18074W        W27767  16.220  12.782   0.013 -0.3289 -0.1803  0.0856
18075W        W27768   4.693  15.016  13.007  0.0746 -0.1538  0.0286
18076W        W27769  15.764  14.795  14.101  0.1971 -0.0598  0.0237
18077W        W27770   1.620  13.509   4.418  0.0971 -0.2026  0.2549
18078W        W27771  15.550   1.022   3.677  0.2716  0.0018 -0.3840
18079W        W27772  12.790   1.548   4.495  0.2163  0.2114  0.4207
18080W        W27773   5.541   6.165  11.684 -0.1608  0.0305  0.2078
18081W        W27774   6.105  16.865  12.604 -0.0476  0.0329  0.0613
18082W        W27775   7.219   2.660   4.046  0.1019  0.0814 -0.2460
18083W        W27776   1.921  10.841  17.506  0.0907 -0.1724 -0.1331
18084W        W27777   0.171   9.143  12.522 -0.0044  0.0185 -0.3635
18085W        W27778  15.632   0.342   0.684  0.1717 -0.0071  0.1496
18086W        W27779   6.088   4.524  13.999  0.1451 -0.0817 -0.0117
18087W        W27780   0.955   0.098   5.681  0.3800 -0.0110 -0.2399
18088W        W27781  10.688  12.619  15.976 -0.1890 -0.1397  0.3726
18089W        W27782   3.396  10.735   4.613  0.2141 -0.1768  0.1479
18090W        W27783  16.836   2.089   2.612 -0.3157 -0.0724  0.1338
18091W        W27784   5.506   6.258   1.039  0.1784  0.1575 -0.4009
18092W        W27785   4.937   5.211   4.115 -0.0985 -0.0691  0.2177
18093W        W27786  14.127   8.902   5.632 -0.0521  0.1559  0.2159
18094W        W27787   6.878  16.668   0.463  0.1580 -0.0525  0.0336
18095W        W27788   9.753   4.629   0.986  0.4017 -0.2925 -0.3400
18096W        W27789   3.021   9.051   5.467  0.0079  0.1988 -0.0649
18097W        W27790  13.938   5.300  16.530  0.1160 -0.1607  0.0225
18098W        W27791   9.007   7.092  12.893 -0.2248  0.0572  0.0061
18099W        W27792   7.512  14.369  15.885 -0.3220 -0.0640  0.3051
18100W        W27793  13.376  16.140  16.962  0.0301  0.1495  0.0956
18101W        W27794  14.582   3.066   3.107 -0.3549 -0.0084  0.0680
18102W        W27795   2.711  12.168   3.442  0.0861  0.1568 -0.0867
18103W        W27796   8.879   3.540  17.225 -0.1881 -0.0368 -0.0936
18104W        W27797  10.044   7.179   2.465  0.2662  0.2077 -0.1012
18105W        W27798   3.200  14.146   3.650  0.0496 -0.1556  0.0349
18106W        W27799   7.757   3.455  13.461  0.2738  0.1645 -0.0012
18107W        W27800   7.109   4.278   5.669  0.0801  0.0353  0.2264
18108W        W27801  16.406  12.014   1.028  0.2143 -0.3175 -0.0852
18109W        W27802   7.208   5.261  14.645 -0.0030  0.4653 -0.2808
18110W        W27803  14.904  14.594  16.301  0.0024 -0.0298  0.0460
18111W        W27804  17.279  12.501   1.360 -0.0940  0.2010  0.1447
18112W        W27805   2.915   7.793  14.196 -0.1644 -0.0455  0.0827
18113W        W27806   2.011   2.027   5.086  0.0310 -0.1422 -0.1574
18114W        W27807  15.562  11.995   6.719  0.0082 -0.2071  0.0393
18115W        W27808  11.106  17.552   3.005  0.0070  0.0987 -0.0122
18116W        W27809   9.789  16.061  14.657 -0.3054 -0.2787 -0.0147
18117W        W27810  13.328   2.454  13.346  0.3641  0.2021  0.0562
18118W        W27811   6.441  12.925  17.665 -0.0586  0.0903  0.0852
18119W        W27812   0.548   1.442  16.402 -0.5808  0.2526  0.1860
18120W        W27813  14.000   9.029   2.230  0.2737 -0.2245 -0.0693
18121W        W27814  10.349  16.009   4.742 -0.0671 -0.1019  0.0725
18122W        W27815   6.542   4.842  13.860 -0.0370  0.3214 -0.1558
18123W        W27816  14.264   5.179  15.331 -0.0046 -0.0653  0.3477
18124W        W27817   3.104   8.468   0.324 -0.1398  0.1428 -0.0172
18125W        W27818   7.040   5.461   6.141  0.0657 -0.2013 -0.0487
18126W        W27819   6.757   8.383   2.318 -0.0064 -0.1828  0.0174
18127W        W27820  14.316  15.937   5.363  0.0008 -0.3258 -0.2042
18128W        W27821   8.904   0.051   0.142  0.0486  0.2254 -0.2298
18129W        W27822  11.524  14.438   4.765 -0.0748 -0.2937  0.0473
18130W        W27823   7.491  10.454   4.966 -0.1173  0.0771 -0.1911
18131W        W27824  14.360   6.720   1.258 -0.0417  0.0853 -0.0001
18132W        W27825   5.393  16.706  17.553  0.2856  0.0040 -0.1372
18133W        W27826  15.070   5.298   0.887 -0.1998  0.0923  0.0602
18134W        W27827   3.042  13.921  15.907 -0.0150 -0.2728 -0.0179
18135W        W27828   8.718   9.551   0.534  0.0546 -0.0331  0.2882
18136W        W27829   9.462   9.489  13.390 -0.0682  0.1906  0.2346
18137W        W27830  16.639  10.294  13.164  0.1765 -0.1549 -0.2596
18138W        W27831  15.353  14.434  16.819  0.1879 -0.1692 -0.3252
18139W        W27832  17.284   7.920   6.195 -0.0359  0.0968  0.0063
18140W        W27833   7.974  14.423   6.495  0.0890  0.1028 -0.0447
18141W        W27834   2.092  11.354   0.263  0.1185  0.1606  0.0276
18142W        W27835   7.915   8.931   0.008  0.3326  0.1331 -0.0401
18143W        W27836   0.503  12.674  11.915  0.1245 -0.1827 -0.0138
18144W        W27837   1.778  16.519  13.874  0.1073  0.1742 -0.1640
18145W        W27838  13.009  17.184   0.063  0.2338 -0.0038 -0.0904
18146W        W27839  10.578  17.286  14.324  0.0729 -0.2048  0.0460
18147W        W27840   1.512   4.131   2.905 -0.0881  0.0759  0.0911
18148W        W27841  10.175  10.237  15.153  0.2640 -0.0553 -0.0429
18149W        W27842   4.818   6.587  11.707  0.0286 -0.1607 -0.1424
18150W        W27843  11.534  16.104   2.325  0.1044 -0.0239 -0.0752
18151W        W27844   3.914   0.621   2.290 -0.0999  0.2066  0.0240
18152W        W27845   7.223   8.861  16.817  0.1740 -0.1773 -0.1130
18153W        W27846   6.920   3.056  17.337  0.1077  0.0283  0.0577
18154W        W27847  17.230   0.959   1.089 -0.0701  0.2848 -0.0156
18155W        W27848  12.899   5.175  12.912  0.1096 -0.3363  0.1097
18156W        W27849  13.340   2.728   1.185  0.0829  0.1901  0.0963
18157W        W27850  12.628   7.352   5.653 -0.1515  0.1604  0.0878
18158W        W27851   7.882   8.306   4.702 -0.0932 -0.0467 -0.0738
18159W        W27852  11.409  12.099  16.296 -0.3432  0.1818  0.1847
18160W        W27853  13.215  15.146   2.113 -0.3057 -0.0995 -0.1072
18161W        W27854  14.900   8.414  13.425 -0.0750 -0.0987  0.2032
18162W        W27855  13.082   6.498   6.093 -0.2694  0.0221 -0.4805
18163W        W27856  14.293   9.927   3.728  0.2522 -0.0904  0.2888
18164W        W27857   7.585   5.644   5.385 -0.2132  0.6912 -0.0101
18165W        W27858   8.903  17.504  15.718 -0.3618  0.1227 -0.2140
18166W        W27859  10.764   9.618   6.042 -0.0107  0.1214 -0.3061
18167W        W27860   9.798   9.712   5.473 -0.0241 -0.1592  0.1894
18168W        W27861  13.114   6.956   2.358 -0.0510  0.1686 -0.0153
18169W        W27862  13.961   2.131   1.192 -0.0461  0.1643  0.0197
18170W        W27863   8.678   8.736   5.050 -0.1713  0.0571 -0.0154
18171W        W27864  11.822   9.074   3.113  0.3362 -0.0164  0.0142
18172W        W27865  16.879   7.799  14.334 -0.3957  0.2346 -0.3207
18173W        W27866  15.893  11.111   7.066  0.1908  0.0387 -0.0295
18174W        W27867   5.573   4.798   0.060  0.0809  0.1032  0.0725
18175W        W27868   1.466  12.452   0.429  0.0698 -0.1419  0.1120
18176W        W27869  10.608   2.217  13.462 -0.2884  0.2740  0.0228
18177W        W27870   7.992  16.550   1.291 -0.1993  0.0097 -0.2201
18178W        W27871   1.977  10.735  13.940 -0.0643 -0.0561  0.0940
18179W        W27872   7.959  12.154  14.224  0.2145 -0.1501 -0.0972
18180W        W27873   6.765  15.871   3.671  0.1400 -0.0605 -0.3327
18181W        W27874  14.988   6.144  13.809  0.0594 -0.2906  0.1058
18182W        W27875   1.868   2.968   0.390 -0.0543  0.3095  0.2502
18183W        W27876   9.487   7.780   1.914  0.0495 -0.0323  0.2662
18184W        W27877   6.094   0.668   3.628 -0.0678  0.1755  0.2220
18185W        W27878   5.135  10.195   6.141  0.0148 -0.1753 -0.0090
18186W        W27879   4.641   6.740  14.221 -0.1736  0.1242 -0.1134
18187W        W27880  10.461   6.021   5.238  0.2931  0.2387 -0.1930
18188W        W27881  15.895   2.534   0.303 -0.1564  0.1311  0.0047
18189W        W27882   3.044  12.644   6.016  0.2025 -0.1300 -0.1415
18190W        W27883   5.056   2.401  13.853 -0.0676  0.1716 -0.2868
18191W        W27884  10.456   0.840  14.110  0.0382 -0.2372 -0.1639
18192W        W27885  16.753   4.763   5.756 -0.2653  0.1030  0.3425
18193W        W27886   5.662   3.562  14.775  0.0086  0.2418  0.0228
18194W        W27887  17.322  13.655  17.415 -0.1105  0.4720 -0.1506
18195W        W27888  13.284  10.029   3.359 -0.2334  0.1002  0.3280
18196W        W27889  12.184  11.965  14.627 -0.2370 -0.0182 -0.1030
18197W        W27890  12.746  10.692   2.945  0.1354  0.0024 -0.0209
18198W        W27891   5.865  14.813   4.216  0.2673 -0.1285  0.2620
18199W        W27892  16.462  11.144  13.824 -0.0731  0.0029 -0.1012
18200W        W27893   2.826   4.383   1.086  0.2513 -0.1383 -0.1014
18201W        W27894   4.647   2.864  11.983  0.2563 -0.1408 -0.0246
18202W        W27895   3.337   6.125  11.919  0.2553  0.1868  0.1598
18203W        W27896   0.763  14.896   0.800 -0.0238 -0.0607  0.0685
18204W        W27897  11.921   3.121   2.485 -0.1297 -0.2683  0.0871
18205W        W27898   6.831  13.132   1.930  0.1768 -0.1440  0.0904
18206W        W27899   3.729  17.138   4.727  0.2326 -0.0145  0.0669
18207W        W27900   9.214  11.777   3.236 -0.0721 -0.1189  0.4477
18208W        W27901   9.980  16.358   4.683 -0.1665 -0.2185  0.0452
18209W        W27902   5.926  14.286  14.957 -0.1177  0.1879 -0.1379
18210W        W27903  14.214  13.725   3.180  0.2296  0.0887 -0.0136
18211W        W27904   6.542   1.051   5.399 -0.1255 -0.0019 -0.1642
18212W        W27905  16.149   7.312   2.064  0.1482  0.0301 -0.0134
18213W        W27906   6.268   4.349   2.261  0.2865 -0.1391 -0.2235
18214W        W27907   6.853   6.140   3.373 -0.1962 -0.2842 -0.1567
18215W        W27908   5.602  14.614   2.460 -0.0751 -0.3249 -0.0174
18216W        W27909   7.295   2.109  14.196  0.2059 -0.1092 -0.2689
18217W        W27910  17.465   6.978   2.339 -0.1200  0.0735  0.2797
18218W        W27911   5.058   7.151   3.628  0.3194  0.1823  0.1010
18219W        W27912   5.110   0.123  13.784 -0.0216  0.1465 -0.0704
18220W        W27913   8.267   5.724   2.715  0.1834  0.2256  0.0347
18221W        W27914  10.341   1.728   3.826 -0.2224 -0.2779  0.0707
18222W        W27915  15.670  13.764   1.013 -0.0237 -0.0828 -0.0952
18223W        W27916  14.709   3.721   4.223  0.0514  0.0605 -0.0360
18224W        W27917   1.050  14.889   3.963  0.2439  0.1572  0.0925
18225W        W27918   1.772   2.383  16.048  0.2165 -0.1646 -0.0854
18226W        W27919   6.618   5.762   0.551 -0.1059 -0.0438  0.3311
18227W        W27920  12.175   3.092   1.383 -0.0343  0.1047 -0.1318
18228W        W27921  11.956  17.605   2.977 -0.1392  0.2564  0.0807
18229W        W27922   6.854  11.967   2.541  0.0300 -0.2695 -0.0338
18230W        W27923   4.246   2.051  14.085 -0.0577  0.0957  0.3706
18231W        W27924   3.233   2.925   3.671 -0.1996 -0.0937 -0.0957
18232W        W27925  17.603   2.650   0.592 -0.3447 -0.2812  0.1979
18233W        W27926  15.901   8.969  12.762 -0.5094 -0.2075 -0.0554
18234W        W27927   1.369   7.415   1.732 -0.1437 -0.0027  0.0944
18235W        W27928  15.044   3.228  14.664 -0.1845 -0.1118 -0.0285
18236W        W27929   3.561   0.459   3.619 -0.0624 -0.4397 -0.0060
18237W        W27930   1.068  16.308  15.662 -0.0162  0.4013  0.0277
18238W        W27931  10.768  16.544  13.513 -0.3166  0.2694 -0.0695
18239W        W27932  16.004   1.564  14.837 -0.2766  0.1234  0.1284
18240W        W27933  15.181  11.425   3.368  0.0655  0.0336 -0.1390
18241W        W27934   9.337   4.045  13.569 -0.1476  0.0233 -0.2349
18242W        W27935   9.320   5.162  16.366  0.2789 -0.0154 -0.0099
18243W        W27936   5.566   0.670  13.327  0.4492 -0.3374  0.0286
18244W        W27937  17.181   6.041  14.538  0.2766  0.4905 -0.1088
18245W        W27938  15.166   2.128   4.968  0.1066  0.1128 -0.2324
18246W        W27939   4.134   6.726   2.105  0.1187 -0.2439 -0.0020
18247W        W27940   5.975   4.737  12.257  0.0171  0.0951 -0.0062
18248W        W27941   9.938   1.250   5.016  0.3785  0.0402  0.1878
18249W        W27942   4.214  15.557  17.384 -0.3732 -0.3237 -0.0072
18250W        W27943  13.085   7.051  13.535 -0.4034  0.0867  0.1979
18251W        W27944   5.901  10.296  15.102 -0.0919  0.3288 -0.1182
18252W        W27945  17.571  16.245   0.180  0.0078 -0.1011  0.0217
18253W        W27946   9.324  11.128  15.152 -0.2159 -0.0711  0.0462
18254W        W27947   0.995  16.203   5.560  0.0817  0.2694 -0.0751
18255W        W27948  17.124  15.993   2.876 -0.1710  0.0165  0.0941
18256W        W27949  11.737   3.772  13.760 -0.1292  0.0822  0.2018
18257W        W27950   3.270   0.163   2.582  0.2084 -0.0700 -0.2989
18258W        W27951   3.001   2.636  13.892  0.0126 -0.4911 -0.0701
18259W        W27952   7.210  13.610  16.365 -0.1656  0.0688 -0.0242
18260W        W27953  13.102   9.739   1.460  0.0661  0.0961  0.1345
18261W        W27954   5.387   7.926   2.711 -0.1314  0.2705 -0.3705
18262W        W27955   0.700  10.077  12.765  0.2638 -0.4877 -0.2838
18263W        W27956  11.855   4.787  15.468  0.1080 -0.0968  0.1301
18264W        W27957   3.079  13.670   1.924 -0.0731 -0.3114 -0.0959
18265W        W27958   1.514  15.760  12.131 -0.2429  0.0712  0.0141
18266W        W27959   3.413   5.568   2.173 -0.2157  0.0401  0.0784
18267W        W27960  16.722   2.741   2.652  0.1341  0.2584  0.1484
18268W        W27961  16.498  17.168   0.038  0.1807  0.3101  0.3612
18269W        W27962  13.486   4.557   0.362 -0.1645  0.0228  0.3256
18270W        W27963  12.144  15.053  14.468  0.2841 -0.2664  0.1108
18271W        W27964   1.636  15.035   5.934 -0.1154 -0.1310  0.0621
18272W        W27965  11.798   2.547  13.479 -0.2287  0.0220 -0.0574
18273W        W27966  16.215   8.083  14.129  0.0590  0.0496  0.2005
18274W        W27967   6.695   2.503   5.222 -0.2286  0.0979 -0.1044
18275W        W27968  13.180  12.093  15.279  0.0571  0.0446 -0.1228
18276W        W27969  11.475   6.976   6.434  0.0069  0.0722 -0.1261
18277W        W27970   8.365  14.745   2.653  0.0855  0.0503 -0.0756
18278W        W27971  10.544  16.107  13.364 -0.0687  0.0079  0.1577
18279W        W27972   5.388  11.537  16.339  0.0679 -0.0869 -0.0791
18280W        W27973  17.061  12.927   6.250  0.0979  0.1181  0.0561
18281W        W27974   3.168   8.748   3.023  0.1969 -0.2337  0.0338
18282W        W27975   9.436  17.667   1.802 -0.0766  0.0637  0.0181
18283W        W27976  11.994   5.020   3.785 -0.1711  0.1798 -0.0379
18284W        W27977  13.042  15.922   1.489 -0.1547  0.1989 -0.2367
18285W        W27978   5.843   0.478   5.835 -0.1361 -0.0545  0.0786
18286W        W27979  13.986   3.022   3.052  0.0025  0.0057 -0.0433
18287W        W27980  13.718  14.083   2.680 -0.2223 -0.2095  0.0734
18288W        W27981   2.023  17.236  17.454  0.2619  0.1114  0.2216
18289W        W27982   6.422   2.797  13.843 -0.0029 -0.0298  0.3285
18290W        W27983   1.560  16.761  13.433  0.0648  0.2752  0.0414
18291W        W27984  15.257  16.894   1.341  0.3183  0.0224 -0.0638
18292W        W27985   6.791  16.255   0.163  0.1715  0.0145 -0.1677
18293W        W27986  11.210   0.182   2.653  0.1233 -0.0247 -0.2860
18294W        W27987  17.086  11.006  16.253  0.1038 -0.0276 -0.1966
18295W        W27988   6.594   2.712   1.983 -0.0494 -0.2995 -0.3655
18296W        W27989  11.389   7.943   2.272  0.0187 -0.1060 -0.0690
18297W        W27990  16.500   5.897  16.627  0.1742  0.0062 -0.1349
18298W        W27991  13.971  13.559   1.206  0.1484  0.3404 -0.0420
18299W        W27992   8.096   1.624  14.384  0.0135 -0.1163 -0.2073
18300W        W27993   2.721   7.147   6.680  0.3018 -0.0971  0.2603
18301W        W27994   4.156  16.422   5.686  0.0746 -0.1700 -0.1381
18302W        W27995   0.159  12.381   4.318 -0.1581  0.0143  0.2861
18303W        W27996   9.053  10.281  12.861  0.2175 -0.1687  0.1136
18304W        W27997   0.888   2.795   4.587 -0.0601  0.0330 -0.1551
18305W        W27998   7.388  14.228  17.217  0.4868  0.0654  0.0918
18306W        W27999  11.553   7.426   1.447 -0.0552 -0.2883 -0.0849
18307W        W28000  12.284   9.551   1.011  0.0684  0.0573 -0.0554
18308W        W28001   5.870  17.500   3.678  0.0258  0.0618 -0.2090
18309W        W28002  15.381  15.151   4.172  0.1881  0.1242 -0.2200
18310W        W28003  17.102   6.217  16.975  0.0468 -0.0444  0.1151
18311W        W28004  12.044  10.192   0.199  0.1788 -0.1031  0.3911
18312W        W28005  15.457   3.032  14.432  0.1628  0.3678 -0.1006
18313W        W28006   4.643   3.325   1.103 -0.1737 -0.1519 -0.1973
18314W        W28007  11.583   4.827  12.901 -0.1011 -0.1572  0.0324
18315W        W28008   9.262  14.188   4.273  0.1147  0.1434  0.0431
18316W        W28009  11.395  17.496   1.351 -0.1490 -0.4976  0.0018
18317W        W28010   3.996  13.608   2.758  0.0939 -0.0711 -0.3750
18318W        W28011  16.201   8.272   3.174 -0.1431  0.0650  0.0920
18319W        W28012   1.106   4.262   2.401 -0.0319 -0.0847  0.2139
18320W        W28013   2.482   9.038  13.600 -0.0424  0.0502 -0.0309
18321W        W28014   0.836  10.697   5.928  0.4244  0.1456  0.0669
18322W        W28015   3.729   3.612  13.995  0.1021 -0.1856 -0.0374
18323W        W28016   4.908   5.667  16.137  0.0953 -0.0385  0.1714
18324W        W28017   0.743   9.791   1.559  0.1921  0.0079 -0.1799
18325W        W28018   6.868  13.204  11.081 -0.2300 -0.0384  0.0501
18326W        W28019   4.522   5.662  16.618  0.1208  0.0561 -0.1589
18327W        W28020   9.662  17.003  16.798  0.0898  0.1503 -0.1933
18328W        W28021   6.904   2.986   6.549  0.3882  0.2481  0.0684
18329W        W28022  11.074   3.436   2.045  0.1298  0.0836 -0.0072
18330W        W28023   0.569  12.719   2.445 -0.0858  0.3062  0.0349
18331W        W28024   0.669   1.371   6.698  0.0154 -0.0402  0.0415
18332W        W28025   3.471   3.929  16.148 -0.1953 -0.3579 -0.1845
18333W        W28026   4.524  13.019   0.833 -0.0233 -0.0713  0.3380
18334W        W28027   8.429   0.007  15.937  0.0940 -0.0616 -0.0018
18335W        W28028  14.114  17.556  15.675  0.0618  0.2227  0.0378
18336W        W28029  12.064   3.520   1.590  0.2309 -0.1382  0.0407
18337W        W28030   5.946   9.453   1.519 -0.0995 -0.2300  0.0966
18338W        W28031   6.682   4.317  14.138 -0.0073  0.2075 -0.1195
18339W        W28032   5.940   2.074  13.280 -0.2100 -0.0670  0.1271
18340W        W28033  10.954  10.179  17.613 -0.0595 -0.2233  0.0230
18341W        W28034   4.227   8.176   3.052 -0.1018 -0.4482 -0.2024
18342W        W28035  17.511   0.907   2.087  0.0651 -0.1201  0.0507
18343W        W28036  10.503   7.984   0.724  0.0559  0.0696  0.0798
18344W        W28037  10.161   7.922  17.170 -0.3534 -0.0776  0.1763
18345W        W28038   3.651  10.848   1.393 -0.2139  0.2578 -0.2245
18346W        W28039  17.402   9.827  13.820  0.2892  0.0576 -0.0343
18347W        W28040  13.659  12.365   5.409  0.0294  0.1059  0.1516
18348W        W28041   0.891   8.284  17.106 -0.0990  0.0342  0.4051
18349W        W28042  12.987   4.086   4.981 -0.2799 -0.0558 -0.0068
18350W        W28043  13.985   8.580   3.658 -0.1339  0.1217  0.1569
18351W        W28044  14.001  14.562   3.770 -0.2018  0.1672  0.2511
18352W        W28045  15.035   7.553  12.618  0.1093  0.1623 -0.1501
18353W        W28046   6.657   6.166   0.294 -0.0765  0.0441 -0.0540
18354W        W28047   9.709  15.844  15.120  0.1076  0.0798  0.0670
18355W        W28048   6.766   4.337  12.945 -0.1105  0.0837  0.1394
18356W        W28049   7.091   0.376   5.890 -0.3159  0.0760 -0.0461
18357W        W28050   2.225  15.274   2.503 -0.0661 -0.0999  0.0422
18358W        W28051   2.312   9.607   3.730 -0.0352 -0.0787  0.1390
18359W        W28052   9.366   4.778   5.707 -0.0113  0.1697 -0.1069
18360W        W28053  13.501  14.717   5.850 -0.1015 -0.3224  0.1547
18361W        W28054  11.940   9.559  16.342 -0.3217  0.1827 -0.2470
18362W        W28055   5.507   4.897   6.409  0.1867 -0.0005 -0.0362
18363W        W28056  12.695  10.471  14.103  0.2089 -0.0645  0.1284
18364W        W28057   6.728   6.397   2.928  0.2088 -0.1355 -0.2282
18365W        W28058  11.141   3.719  16.186 -0.2270  0.2074  0.0449
18366W        W28059   4.230  14.450  13.929  0.0551  0.0819  0.0022
18367W        W28060  12.926  14.230   0.689  0.0509 -0.0045  0.2431
18368W        W28061   9.748  16.199   5.371  0.0591 -0.1346  0.1086
18369W        W28062  11.365  10.487   6.572 -0.2244  0.1764  0.2853
18370W        W28063   2.331   5.188  13.477 -0.1257 -0.1113 -0.1082
18371W        W28064  11.098   8.235   5.317 -0.1265  0.1041  0.1837
18372W        W28065   0.786   5.097  14.410  0.0988 -0.0329  0.0723
18373W        W28066  13.218   1.704   2.443  0.1640  0.1148  0.1870
18374W        W28067   1.319  16.374  13.841 -0.0824  0.1565  0.1276
18375W        W28068  14.804  10.569   0.836  0.1723 -0.0317 -0.2096
18376W        W28069   5.318  12.471   1.067 -0.0908  0.0207  0.0802
18377W        W28070  13.639  14.369   1.109 -0.3518  0.1078  0.3598
18378W        W28071   6.925  10.203   2.584  0.0583  0.3070  0.1445
18379W        W28072  16.770   1.570  12.188 -0.0190  0.1853 -0.0044
18380W        W28073   7.149   3.432   2.569  0.0140 -0.0509  0.0576
18381W        W28074  13.325   1.467   0.026  0.0270 -0.0705 -0.2633
18382W        W28075   1.040  11.845   1.009 -0.1323 -0.1109 -0.0090
18383W        W28076   0.135  12.387  14.188 -0.0548  0.0285 -0.1690
18384W        W28077   8.763  12.043  15.727  0.0556  0.3498 -0.3583
18385W        W28078   1.676   4.830   4.009 -0.2459 -0.1131 -0.1482
18386W        W28079   2.015  13.830   4.584  0.0230  0.2662 -0.2772
18387W        W28080  13.015   1.191  13.513  0.2299 -0.1670 -0.2540
18388W        W28081   7.753   7.377   0.202 -0.0923  0.0819 -0.1901
18389W        W28082  12.113  12.446   6.522  0.0025  0.0856  0.0902
18390W        W28083  15.985   5.304   0.063 -0.1743 -0.0079  0.1618
18391W        W28084   5.611  15.574  17.126  0.2371  0.1519 -0.0659
18392W        W28085   0.292  15.376   3.002 -0.2180  0.2347  0.3074
18393W        W28086  10.244   3.218  17.577  0.2423 -0.3077  0.2049
18394W        W28087  17.461   7.728   2.994 -0.1247 -0.0302  0.1244
18395W        W28088   2.657  16.216   5.097  0.1438 -0.1824  0.2516
18396W        W28089  17.397   7.984   4.497  0.1496  0.0656 -0.5261
18397W        W28090   0.056  10.055  15.001  0.1368  0.0792 -0.2875
18398W        W28091   3.766  13.935   0.676  0.0690 -0.0666 -0.2885
18399W        W28092   9.375   2.181  13.992 -0.1446  0.2437  0.1653
18400W        W28093  11.636  15.546  14.052  0.2913 -0.1522  0.2977
18401W        W28094   5.966  17.133   4.585 -0.1085  0.0852  0.1695
18402W        W28095  11.858   5.039   7.158  0.1249  0.3067 -0.2073
18403W        W28096   1.750  13.553   6.294 -0.2506  0.1962 -0.0506
18404W        W28097  15.424   2.493  15.743  0.1495  0.1129 -0.5082
18405W        W28098   5.116   5.525  17.180 -0.2405 -0.0314 -0.2509
18406W        W28099   5.092  10.054   4.924 -0.1395 -0.0339 -0.2187
18407W        W28100   2.459   8.692  13.078  0.5483 -0.0486 -0.1246
18408W        W28101  10.916  15.887  14.924  0.2237 -0.2166 -0.1099
18409W        W28102  13.430   4.042   1.316  0.0757  0.1051  0.0986
18410W        W28103   8.535   4.900  17.333 -0.1043 -0.3173  0.2574
18411W        W28104   3.434  11.374  15.264 -0.0094 -0.2589  0.2197
18412W        W28105   5.181   6.431   3.092  0.2155  0.1010 -0.0273
18413W        W28106  14.375   3.620   3.192  0.0591  0.1634 -0.0556
18414W        W28107   0.627  12.534  16.716 -0.1674  0.0970  0.1926
18415W        W28108  11.835  10.295  17.036  0.0670 -0.5161 -0.1866
18416W        W28109   0.455  10.889   2.826 -0.1152  0.0666  0.1038
18417W        W28110   9.692   7.196  16.854 -0.4835  0.2099 -0.2312
18418W        W28111  11.986  17.142   5.827 -0.1088 -0.1722 -0.1556
18419W        W28112  12.033  15.775  13.759  0.0478 -0.0614 -0.2373
18420W        W28113  15.132  13.151  14.641  0.1947 -0.0213 -0.1142
18421W        W28114   2.530  10.849   4.611  0.0565 -0.2435 -0.3262
18422W        W28115   6.037  13.719  12.971 -0.2411  0.2744  0.0786
18423W        W28116  13.156  17.103  12.675  0.1435  0.2789  0.1434
18424W        W28117  12.824  15.763   0.687 -0.2821  0.0664  0.4077
18425W        W28118   3.315   2.548  16.884  0.2693  0.2903  0.2328
18426W        W28119   2.600   1.141   3.318  0.2036  0.1223 -0.1510
18427W        W28120  10.818  10.647   0.125 -0.2011 -0.0027 -0.0414
18428W        W28121   3.661   5.580  13.289  0.1067 -0.2019  0.0127
18429W        W28122   5.038   4.092   1.007 -0.2368  0.0583  0.0181
18430W        W28123   6.386   2.272  15.897  0.2536  0.1238 -0.1144
18431W        W28124   5.821   1.774   6.226 -0.4562  0.0840  0.0754
18432W        W28125   8.733  13.730  13.868  0.1270  0.0528 -0.2544
18433W        W28126   7.608   9.785  12.697 -0.2143  0.2233  0.1016
18434W        W28127  16.391   7.190  12.443 -0.2209  0.1394 -0.1569
18435W        W28128  16.486  15.366  11.449  0.2359 -0.0755  0.1407
18436W        W28129  17.595  15.514  13.362 -0.0264 -0.0619 -0.1658
18437W        W28130  10.063  14.325   5.873 -0.0746  0.1163 -0.0628
18438W        W28131   5.255   8.472  12.001 -0.2188 -0.1905  0.2550
18439W        W28132   9.472   9.066   1.565 -0.2106 -0.2731 -0.0165
18440W        W28133  11.862   0.785   0.703  0.1004  0.0035  0.0657
18441W        W28134   0.817   5.105   2.183 -0.2685  0.1501 -0.1033
18442W        W28135  16.814  12.951   5.826 -0.0550  0.1762 -0.2182
18443W        W28136   3.882  13.568  11.952  0.0370  0.1218 -0.0754
18444W        W28137   7.545   9.377  15.259 -0.1858  0.1064  0.1345
18445W        W28138   0.017  16.403  14.463 -0.1417  0.0450 -0.1576
18446W        W28139   1.216   8.252   3.583 -0.2617 -0.2150  0.0364
18447W        W28140   0.029   7.422  14.230  0.0326  0.0759 -0.1351
18448W        W28141   5.498   9.623   1.697 -0.3399 -0.0232  0.0287
18449W        W28142   9.000   2.765  17.053 -0.3428  0.3343 -0.2337
18450W        W28143  17.015   3.443  12.865 -0.1022  0.1289  0.0398
18451W        W28144  12.198  10.695   0.085 -0.0404 -0.3806  0.2669
18452W        W28145  10.421  10.521   2.749  0.1568  0.2341 -0.4140
18453W        W28146  15.019  17.443  16.393 -0.2489  0.0639 -0.1942
18454W        W28147   8.196  16.826  17.435  0.0672 -0.1559 -0.1093
18455W        W28148  12.140   3.400  15.778  0.0216  0.3843  0.1259
18456W        W28149   2.933  15.809  12.056 -0.0298  0.1476 -0.1880
18457W        W28150  10.914   4.308  15.200  0.1622 -0.2433  0.1553
18458W        W28151  16.588  14.705   1.228  0.0150  0.0259  0.0847
18459W        W28152  15.302   2.817  14.916 -0.0073  0.1316 -0.3744
18460W        W28153   4.319   1.192  11.992  0.2127 -0.0486  0.3302
18461W        W28154  10.152  16.278  11.852  0.0135 -0.3598 -0.1769
18462W        W28155   5.438   9.427   3.677 -0.0451 -0.0056  0.1835
18463W        W28156   8.529   4.760   1.023 -0.1353  0.5364 -0.1587
18464W        W28157   2.955   8.622  16.567 -0.1660  0.2535 -0.1830
18465W        W28158  10.146   9.309  12.981  0.0887 -0.0257 -0.1629
18466W        W28159  17.349   3.224   2.738 -0.0796 -0.0608  0.2134
18467W        W28160   5.401   4.802   5.097 -0.1298 -0.1384  0.2432
18468W        W28161   6.310   3.932  11.824  0.1809 -0.0450 -0.2249
18469W        W28162   5.794  12.063  12.772  0.1192  0.1779  0.1813
18470W        W28163   4.601  10.819  10.731  0.2089 -0.0748  0.0329
18471W        W28164   6.804  12.351   3.469  0.0129  0.1462  0.3041
18472W        W28165  17.187   8.047  12.940  0.1937  0.0637 -0.0310
18473W        W28166   1.096   1.649  12.098 -0.2001  0.2021  0.0754
18474W        W28167   1.515   2.991  16.747  0.4867 -0.1075  0.0885
18475W        W28168  11.166   3.969   4.245  0.3721 -0.3428  0.0479
18476W        W28169  11.264  11.908  14.378  0.0729  0.0640 -0.2374
18477W        W28170  17.579  13.692  16.364  0.1208 -0.0729  0.1640
18478W        W28171   9.149   4.996  12.180  0.3271  0.1986  0.1990
18479W        W28172   8.596   0.386   6.205  0.1195 -0.0806 -0.1224
18480W        W28173  10.303  17.676  12.241 -0.2468  0.2459 -0.1056
18481W        W28174  15.831   7.516  16.396 -0.2162 -0.0093 -0.0824
18482W        W28175   0.235  13.249   4.195  0.1801 -0.1275 -0.1946
18483W        W28176  17.039   0.415   6.195 -0.0674  0.1576  0.3804
18484W        W28177   8.379  10.879   1.916 -0.2761 -0.1722  0.1661
18485W        W28178   7.731  16.325  11.169 -0.0394 -0.2309  0.1236
18486W        W28179   9.331   2.250  13.457  0.2914 -0.0195  0.1750
18487W        W28180  12.339   3.425   2.170 -0.1805  0.0884  0.3415
18488W        W28181  11.186   5.174  13.992 -0.2287  0.0325  0.2614
18489W        W28182   7.053   8.768   4.248  0.0036 -0.2477  0.1236
18490W        W28183   3.362   2.816  16.374  0.2196 -0.0983 -0.1924
18491W        W28184  12.139   8.197  12.290  0.0722  0.1025 -0.3153
18492W        W28185  12.072   0.811  13.377  0.1371  0.4435 -0.0749
18493W        W28186   0.492   8.014   3.084  0.0007 -0.1518  0.1299
18494W        W28187   1.581   7.732  13.074 -0.3490  0.1480  0.1993
18495W        W28188  13.968   7.479   1.102  0.0468  0.0146 -0.1873
18496W        W28189   3.332   9.777  14.810  0.1123 -0.1127 -0.0734
18497W        W28190   2.669  15.676  17.564  0.0154 -0.0725  0.2413
18498W        W28191   7.746  14.230  16.865 -0.1203 -0.1164 -0.0811
18499W        W28192   3.113   0.034  13.743  0.3756 -0.0044  0.0809
18500W        W28193  16.342   1.530   6.720 -0.0077  0.1618 -0.1879
18501W        W28194  10.928  12.096  13.423  0.2166  0.1432  0.3028
18502W        W28195   4.498  11.855  14.550  0.3441  0.1195 -0.1391
18503W        W28196  14.899   2.656  17.044  0.2052  0.0551  0.0690
18504W        W28197   5.448   2.670  12.903  0.1189 -0.2382  0.0871
18505W        W28198  14.920   0.352  11.736 -0.1758  0.2672  0.1556
18506W        W28199   0.374   6.400  14.583 -0.0931 -0.1384 -0.0069
18507W        W28200   9.881  13.945  16.716 -0.2509 -0.0022  0.3027
18508W        W28201  13.685  16.511  13.111 -0.0913  0.0635  0.0875
18509W        W28202   2.800  13.798  15.510 -0.2281  0.0116  0.0508
18510W        W28203  16.859   4.839  15.663  0.1263 -0.1443 -0.1438
18511W        W28204   2.147  17.676   4.245 -0.0558 -0.2566 -0.0262
18512W        W28205  11.422   8.114  12.404 -0.0178 -0.2023  0.0137
18513W        W28206   4.876  17.096   1.769  0.1046  0.0730  0.0424
18514W        W28207  15.075   9.818   6.303  0.1543  0.0638  0.0022
18515W        W28208  14.713  15.664   6.179  0.1938 -0.2867 -0.1647
18516W        W28209  15.730  17.460  11.789 -0.0832  0.2180 -0.2584
18517W        W28210   5.655   8.842   6.747  0.0247  0.0369 -0.4312
18518W        W28211   0.048   0.002  17.354  0.0499 -0.1918 -0.2229
18519W        W28212  11.376  16.418  16.747  0.2058  0.0806  0.2959
18520W        W28213  14.369  12.227  14.848  0.1007 -0.0329  0.2429
18521W        W28214   2.131   4.234   2.191  0.3109  0.3387  0.0950
18522W        W28215  17.676   0.343   3.338 -0.1710 -0.4166 -0.1365
18523W        W28216   2.541  14.208   2.368  0.0065 -0.0288  0.3620
18524W        W28217   5.076   7.633  17.018 -0.0247  0.1162 -0.3179
18525W        W28218  13.066   2.759  14.387  0.3631  0.0430 -0.2748
18526W        W28219   3.635  16.623   5.474 -0.0825 -0.1503  0.1667
18527W        W28220  13.152   0.044   6.509  0.0483 -0.0067  0.3579
18528W        W28221   6.047   6.689  14.028  0.1749  0.1985  0.0789
18529W        W28222  17.624  13.016   5.007  0.0713  0.1830 -0.0333
18530W        W28223   7.812   4.623   4.149  0.2488 -0.1821  0.0723
18531W        W28224  15.466  14.723  13.663 -0.0577 -0.2716 -0.0588
18532W        W28225  16.497   0.891   2.360 -0.1332  0.2574  0.0327
18533W        W28226  15.346   1.878   3.456  0.0257  0.0154  0.0723
18534W        W28227   2.384  17.047   2.643 -0.4675 -0.0932 -0.0795
18535W        W28228   5.166   0.410   0.393 -0.0076  0.1339  0.2493
18536W        W28229  16.563  16.662   0.141 -0.1929  0.4107 -0.0848
18537W        W28230   0.975   8.208   0.771  0.0427  0.0056 -0.0567
18538W        W28231   6.048   9.235   2.410 -0.0093  0.0267  0.2267
18539W        W28232  16.884   6.685  13.466  0.1435 -0.1164  0.1686
18540W        W28233   4.489   5.560   5.454 -0.2571 -0.0644  0.1498
18541W        W28234   2.436   5.393  12.570  0.1897  0.2282  0.2876
18542W        W28235   0.886  13.198   4.024 -0.0318 -0.3202  0.1025
18543W        W28236   3.521   7.585   5.671  0.3203 -0.0065  0.0781
18544W        W28237  10.055   0.975   4.608 -0.0510 -0.0873  0.2703
18545W        W28238   7.878   0.668   3.829 -0.3270  0.0075  0.0174
18546W        W28239   8.960  17.561   3.839  0.1072  0.0921  0.1583
18547W        W28240   8.888  13.190   4.702  0.1138 -0.1012 -0.1607
18548W        W28241   6.431   8.304  16.820 -0.1240  0.0057 -0.3727
18549W        W28242  16.351  15.745  16.426 -0.1322  0.0702  0.1036
18550W        W28243   4.342   5.346  13.852 -0.1085  0.0006  0.0489
18551W        W28244   1.241   3.998  12.008 -0.2608  0.0953  0.1983
18552W        W28245  11.462  13.861  13.113  0.0203  0.0932 -0.2009
18553W        W28246   3.851  10.850  15.338 -0.0645 -0.1755 -0.0799
18554W        W28247   3.345   0.697  17.188  0.0611  0.1597 -0.2821
18555W        W28248   8.957   0.387  12.304  0.0902 -0.0444 -0.2905
18556W        W28249  11.871  13.574   6.405  0.0409  0.2172 -0.2115
18557W        W28250  12.871  14.700  17.077 -0.3352 -0.0416 -0.0876
18558W        W28251   0.876   8.329   2.814 -0.1748  0.0868  0.1357
18559W        W28252  10.976   2.863   0.176 -0.0464  0.1088 -0.1454
18560W        W28253   8.777  14.503   5.869 -0.1279  0.2633  0.1585
18561W        W28254  10.763   4.888  13.868 -0.1440 -0.0601 -0.4132
18562W        W28255  15.711  11.277  15.510  0.4306 -0.0437 -0.0290
18563W        W28256  14.906  14.633   0.759  0.4747  0.0577 -0.1377
18564W        W28257  12.741   8.320   4.809  0.1472 -0.2069  0.1100
18565W        W28258  14.086   4.046  14.928 -0.1279  0.0324  0.1238
18566W        W28259   5.034   0.051   4.210 -0.1426 -0.0613 -0.3631
18567W        W28260  12.473   5.271  13.220 -0.0213 -0.2917 -0.2086
18568W        W28261  10.923  14.115   2.647 -0.1577  0.2095  0.1036
18569W        W28262   8.428   3.521  14.696 -0.2251  0.0628 -0.4798
18570W        W28263   1.057  16.385   4.315  0.3146 -0.1480  0.3485
18571W        W28264   5.626  16.296   1.382  0.0436 -0.2430 -0.1780
18572W        W28265  11.250   3.450  15.637  0.2158 -0.0717 -0.2608
18573W        W28266  11.636  15.040   6.705  0.1735 -0.0082  0.0028
18574W        W28267   2.029  15.171   1.499 -0.1239 -0.0639 -0.2592
18575W        W28268   0.646   9.300   1.530 -0.1853 -0.2531 -0.1983
18576W        W28269   1.664  15.253   2.379 -0.1372  0.0359 -0.3681
18577W        W28270  12.627  10.886   1.868 -0.0977  0.0318 -0.4220
18578W        W28271  13.553  17.124  17.069 -0.1556  0.0777  0.0121
18579W        W28272   4.305   5.202  15.274 -0.3647 -0.0860 -0.1660
18580W        W28273   1.264   3.532  16.750 -0.1560  0.5120  0.3750
18581W        W28274  15.364   5.741   2.473 -0.4912  0.1294  0.1198
18582W        W28275   3.889   1.877   0.548 -0.1737 -0.1469 -0.1306
18583W        W28276  16.939  10.527  13.545  0.1606 -0.1906 -0.0766
18584W        W28277   0.828   8.892   4.145 -0.0972 -0.2186 -0.0285
18585W        W28278  12.007  15.722  15.072 -0.1833 -0.1681 -0.4098
18586W        W28279   4.509  10.484  14.755 -0.1326 -0.1510  0.3353
18587W        W28280  10.030   4.946   5.862  0.0454 -0.0744  0.2216
18588W        W28281   0.463   2.139   2.714 -0.1244  0.0397  0.2260
18589W        W28282   9.099  14.684   4.042  0.0429  0.2471 -0.0145
18590W        W28283   8.562   5.993   0.592 -0.0457  0.2715  0.1564
18591W        W28284   8.197   1.815   4.519  0.0340  0.1358 -0.0351
18592W        W28285   8.007   4.246   6.696  0.0196  0.0924  0.0612
18593W        W28286   0.365  11.484   4.995  0.4122 -0.0307  0.1179
18594W        W28287  15.489   4.749  12.156 -0.0542  0.0588 -0.0246
18595W        W28288   4.816  17.378  15.374 -0.1759 -0.3217 -0.0164
18596W        W28289  11.720   5.661  17.154 -0.0073 -0.2710 -0.1409
18597W        W28290   7.182   8.053  11.566 -0.0406 -0.2414 -0.2208
18598W        W28291   2.488   5.145  14.000 -0.0064  0.1400  0.1158
18599W        W28292   8.967  16.720   0.823  0.2072 -0.0573 -0.0600
18600W        W28293  17.355   8.357  15.467 -0.1334  0.0846 -0.2408
18601W        W28294  16.065   4.657   0.821 -0.1794  0.2116 -0.2256
18602W        W28295   3.730   1.720  15.106  0.0673 -0.0007 -0.2654
18603W        W28296   7.359   7.955  17.414 -0.0740  0.0541  0.3009
18604W        W28297   7.065   8.873   1.052  0.0020 -0.0563  0.1870
18605W        W28298  11.882   1.669   4.134 -0.1029 -0.2115  0.0815
18606W        W28299   8.585   5.933   5.400  0.0381 -0.0628 -0.0738
18607W        W28300   3.540   2.231   3.329  0.1161 -0.3617 -0.0217
18608W        W28301  14.847  13.550  15.460  0.0067 -0.0079  0.3532
18609W        W28302  12.095  16.691   1.426  0.2422 -0.1048 -0.0425
18610W        W28303   5.880   1.694   0.339 -0.2165  0.1991  0.0430
18611W        W28304   2.565   0.011  15.759 -0.5108  0.1131 -0.0431
18612W        W28305  14.055   6.725   3.583 -0.2904  0.2236 -0.0507
18613W        W28306   3.766  14.555   4.921  0.0228 -0.2018  0.0459
18614W        W28307   8.837   6.118   1.834 -0.4431  0.2240 -0.0013
18615W        W28308  14.400  14.415   0.661  0.0847 -0.1337  0.2365
18616W        W28309   3.694   0.185   2.136  0.1527  0.0860 -0.2539
18617W        W28310   5.474   9.750  15.802 -0.0200  0.2862  0.1165
18618W        W28311   6.420   3.211  15.318 -0.1250 -0.1972  0.0924
18619W        W28312   3.612  17.666   3.831  0.0527  0.1650 -0.0505
18620W        W28313   1.470  14.944  15.082  0.0879 -0.0101 -0.5289
18621W        W28314  10.296  15.016  14.060 -0.2565  0.0649 -0.2849
18622W        W28315  17.461  13.234  15.908  0.0712  0.0048 -0.1790
18623W        W28316  14.288   4.964   4.208  0.0671  0.2401 -0.0763
18624W        W28317  10.070  14.393  16.439  0.1547 -0.1255 -0.1552
18625W        W28318   7.238   9.176  12.167  0.0064  0.1772 -0.0227
18626W        W28319   4.257  13.832  15.772  0.2779  0.1935 -0.2074
18627W        W28320   2.442   4.869  15.973 -0.2212  0.1328 -0.3406
18628W        W28321  14.476  14.600  12.818  0.0384  0.2832  0.0132
18629W        W28322   2.495   1.995   4.311 -0.2842  0.1013 -0.0583
18630W        W28323   9.598  16.642   0.146 -0.2137  0.2578  0.2964
18631W        W28324  17.165   0.378   3.473 -0.2864  0.0911 -0.0943
18632W        W28325   0.266  15.395  15.279  0.3041 -0.3135  0.3157
18633W        W28326  16.996  13.459   2.940 -0.0633  0.0055  0.0594
18634W        W28327   7.275  16.047   0.085 -0.2755 -0.3135 -0.0761
18635W        W28328   2.113  14.525   5.675  0.0005  0.1341  0.1404
18636W        W28329  15.282   0.817  16.132 -0.0363  0.1431  0.1768
18637W        W28330   1.933   8.971   5.437 -0.0323 -0.1985  0.0557
18638W        W28331   6.933  16.990   3.299 -0.1849  0.2119  0.1097
18639W        W28332   2.581   5.096  14.530  0.0507  0.0466  0.0715
18640W        W28333  10.494   2.921  16.443  0.2032  0.1357  0.1056
18641W        W28334   2.633  14.380   1.293 -0.1366  0.1637 -0.3226
18642W        W28335   7.290   3.251  15.076  0.0704  0.0666 -0.0426
18643W        W28336  11.946  11.969   6.530  0.0022 -0.3590  0.0745
18644W        W28337   3.974   3.680   0.818  0.0205  0.0094  0.1466
18645W        W28338  12.515  14.613   4.907  0.0669 -0.3127  0.1253
18646W        W28339   9.027  14.150   3.835 -0.0643  0.2729 -0.1360
18647W        W28340  12.087   0.335   2.130  0.1253 -0.0775 -0.0252
18648W        W28341  12.697  16.516   0.786  0.0018  0.1431 -0.0859
18649W        W28342   8.172  14.584   3.487 -0.0993 -0.1000  0.0384
18650W        W28343   5.384  13.254   2.212  0.1359 -0.0070  0.2343
18651W        W28344   1.586   5.454   2.360 -0.0033 -0.0386  0.0973
18652W        W28345   0.884   2.435  16.092  0.0084  0.1039  0.0336
18653W        W28346  15.053   3.784   2.535 -0.1637 -0.0921  0.0290
18654W        W28347   8.626  13.350  14.321  0.1105  0.0424 -0.0842
18655W        W28348  16.411   3.932  12.437  0.0693  0.0045  0.0497
18656W        W28349   8.345  13.688  11.626  0.0381 -0.1317  0.0794
18657W        W28350  10.276  17.658   5.365  0.0792 -0.1877  0.0581
18658W        W28351  16.411   2.463   3.186  0.0501 -0.2981  0.3446
18659W        W28352   2.955  11.613  11.958  0.1190 -0.1646 -0.0047
18660W        W28353   8.008   1.455   3.312  0.0935  0.1596  0.2926
18661W        W28354  15.680   1.140  14.927  0.1624 -0.0737 -0.0800
18662W        W28355   1.651   1.180  16.875 -0.0249  0.0133 -0.1121
18663W        W28356   4.313  13.268  13.073 -0.1906  0.1245  0.2018
18664W        W28357   3.987  13.232  13.880  0.0884 -0.1616  0.0072
18665W        W28358   4.258   1.274   5.194 -0.3278  0.1297  0.2535
18666W        W28359  17.620   9.172  17.637 -0.1328  0.1876 -0.2193
18667W        W28360  17.279   4.553   5.800  0.4021  0.1549 -0.1602
18668W        W28361  13.800  17.385  11.479 -0.2105  0.3810 -0.2487
18669W        W28362   4.352  11.760   0.458 -0.0891 -0.1359 -0.0811
18670W        W28363   2.358   9.177  14.600 -0.0563  0.0455  0.1362
18671W        W28364  13.329  13.755  16.106  0.1404 -0.0846  0.3236
18672W        W28365  14.902  14.045  12.750 -0.0113  0.1648  0.0190
18673W        W28366  11.834  14.684  16.752  0.2369  0.1956  0.0902
18674W        W28367   1.430   2.631  12.179 -0.3638 -0.3832  0.3130
18675W        W28368  12.101   9.241  17.309  0.0307  0.0214  0.0206
18676W        W28369   4.669  11.950  12.135 -0.1996  0.1582 -0.1838
18677W        W28370  17.021   7.964   3.052 -0.0275  0.2412  0.1841
18678W        W28371   1.513   4.092   6.053 -0.1156  0.3204  0.3297
18679W        W28372  17.150   4.826   3.949  0.0978 -0.0656  0.1693
18680W        W28373   2.854   2.768   1.450  0.2118 -0.1288 -0.5462
18681W        W28374   5.093  10.494  16.267 -0.1040 -0.2025  0.0496
18682W        W28375  11.666  14.867  14.667 -0.1320  0.3223 -0.0971
18683W        W28376  15.468  17.216  12.744  0.0306  0.1236  0.1124
18684W        W28377  17.513   4.386   6.788 -0.0091  0.1143  0.0138
18685W        W28378   3.262   2.896  14.516 -0.0982  0.1251 -0.0983
18686W        W28379  11.960  17.508   2.349  0.0397 -0.1671 -0.1392
18687W        W28380   3.557   1.164  17.426  0.1224 -0.1638 -0.2019
18688W        W28381   6.760  15.247  12.102 -0.4037  0.1733 -0.3107
18689W        W28382   9.625  11.934  13.924  0.2857 -0.1656  0.0242
18690W        W28383   2.011   1.066  12.856 -0.1754 -0.1686  0.0811
18691W        W28384  16.963   1.706  15.742  0.1499  0.0390  0.1201
18692W        W28385  15.298  13.405   1.834  0.1260  0.1098 -0.1449
18693W        W28386   2.762  11.070   0.381  0.2041  0.1480  0.0733
18694W        W28387   3.287  15.156   1.087  0.0038 -0.1564  0.0527
18695W        W28388  12.522   4.193  14.370  0.0602 -0.1624 -0.1564
18696W        W28389  12.798   9.721   0.411  0.0171  0.1244 -0.3646
18697W        W28390   6.981   6.830   5.763 -0.0205 -0.1327  0.1393
18698W        W28391   0.952   0.171   1.772  0.3332 -0.1248 -0.1715
18699W        W28392   4.195  15.453  12.943  0.2652 -0.0668  0.0342
18700W        W28393  15.355  14.185  13.070  0.0594 -0.0413  0.1464
18701W        W28394  15.340   2.023   0.820  0.0313 -0.0880 -0.0193
18702W        W28395   6.943  14.986  12.511  0.1732 -0.2808 -0.1359
18703W        W28396  17.524  16.101  13.653  0.1695 -0.3401 -0.0905
18704W        W28397   2.534   2.274   1.662 -0.4472  0.0033 -0.0744
18705W        W28398  11.253  17.531   5.041 -0.0635 -0.3094  0.2419
18706W        W28399   0.483   0.826   4.397  0.3846  0.0315  0.1979
18707W        W28400   6.745   4.182   2.131 -0.1761  0.1981 -0.3002
18708W        W28401   0.477  11.824   0.334  0.1462  0.1893  0.1354
18709W        W28402   8.094   5.343   0.518  0.1047  0.1616 -0.0154
18710W        W28403  15.774   8.919   4.359  0.0883  0.1684  0.1534
18711W        W28404   1.010  17.621  14.148  0.0522  0.0001 -0.1600
18712W        W28405   4.363  16.861   5.951 -0.0447  0.0624  0.0296
18713W        W28406   4.182   9.464  17.522  0.0431 -0.0729 -0.0174
18714W        W28407   8.993   8.875  16.804  0.0061  0.1267 -0.1066
18715W        W28408   8.610   6.130   0.014  0.0444  0.2839  0.1135
18716W        W28409   5.119  13.209   3.348 -0.0114 -0.0610 -0.1960
18717W        W28410  12.846  11.190   4.201 -0.0803 -0.0993  0.0285
18718W        W28411   7.709   4.546   0.705 -0.1625 -0.0812  0.1829
18719W        W28412   0.345   5.086   5.102  0.4989 -0.2856  0.0884
18720W        W28413   3.808  12.201   4.757 -0.0075 -0.3004  0.3383
18721W        W28414   4.639   4.703   2.023 -0.2337 -0.1280  0.0867
18722W        W28415   7.795   3.102  11.762  0.1909  0.6262 -0.2528
18723W        W28416  12.345   5.768  16.564  0.0722  0.2487 -0.1795
18724W        W28417  12.509  15.803   3.957  0.0894 -0.2582 -0.0308
18725W        W28418  14.655  13.431  16.739 -0.1164  0.0998  0.1115
18726W        W28419  12.894   1.811  14.905 -0.0140 -0.4080  0.1658
18727W        W28420  12.015   8.765   2.194 -0.2882  0.2859  0.0700
18728W        W28421  15.682   6.459   0.946 -0.1385  0.1107  0.0637
18729W        W28422   7.254   6.248  17.613  0.1318 -0.3759 -0.2644
18730W        W28423   5.843   0.107  15.958 -0.0550 -0.1756  0.0673
18731W        W28424  13.360  15.771  14.860  0.3067  0.1456 -0.0841
18732W        W28425  12.324  11.076  15.545 -0.4311 -0.2434  0.1002
18733W        W28426  11.021   9.725   4.283  0.3042 -0.2442  0.1204
18734W        W28427  10.947  11.367   1.617  0.0387  0.2172  0.0078
18735W        W28428   4.408  17.408  12.370 -0.0727  0.0258 -0.1766
18736W        W28429  15.104   5.630   1.222  0.2723 -0.0804 -0.2956
18737W        W28430   7.027  11.341  16.727 -0.0523  0.1259  0.1071
18738W        W28431   2.650  15.505   2.722 -0.2420  0.1199 -0.0016
18739W        W28432   9.858  10.462  14.032  0.0258  0.2400 -0.1514
18740W        W28433   2.255   2.124   1.294 -0.0358  0.1681  0.0375
18741W        W28434   3.671   3.196  13.700 -0.4114 -0.1443 -0.1772
18742W        W28435   5.821  17.298   5.494 -0.2972 -0.0403 -0.1009
18743W        W28436  11.413   9.976   1.854  0.0979 -0.3364  0.1050
18744W        W28437   6.089  14.838   2.539  0.2187  0.0607 -0.0439
18745W        W28438  16.651  16.991   5.356  0.1415  0.0670  0.0396
18746W        W28439   1.555  16.516   0.500 -0.0899 -0.1988  0.1341
18747W        W28440  12.953   5.766   6.124  0.1175 -0.4086 -0.4481
18748W        W28441  16.833   8.661   4.280  0.0808  0.0766 -0.1192
18749W        W28442   2.219  12.363  17.369  0.1342  0.1156  0.1080
18750W        W28443   7.138   8.033   3.284 -0.1001  0.0109  0.0370
18751W        W28444  12.203  11.969  15.390  0.2237  0.0303  0.1241
18752W        W28445   0.744   0.550   1.465  0.0750 -0.0492  0.0930
18753W        W28446   1.062   6.772   2.887 -0.1509 -0.2534  0.0230
18754W        W28447   4.088   7.909  15.591  0.2151  0.0308 -0.1712
18755W        W28448  11.564   8.301  13.177  0.2720  0.2737  0.1592
18756W        W28449  10.799   0.950  17.273  0.1478 -0.1701  0.1711
18757W        W28450   7.334   2.567  12.892 -0.0497 -0.1769 -0.2846
18758W        W28451  14.880  10.301  13.572  0.2727  0.1633  0.2657
18759W        W28452   5.543  16.709   2.571 -0.0500 -0.2128  0.2588
18760W        W28453   0.889   2.860  11.680 -0.0430 -0.1122  0.1114
18761W        W28454   7.436  15.293  13.887 -0.2574 -0.3262  0.0040
18762W        W28455  17.248  10.040  14.709 -0.2253 -0.2356  0.2276
18763W        W28456   2.551   6.863  15.130 -0.1982  0.2717 -0.0512
18764W        W28457  10.391   5.145  13.461  0.2262  0.2583  0.1511
18765W        W28458  17.228  11.517  14.339  0.1095 -0.3153  0.2872
18766W        W28459  16.109   7.751   4.026  0.1808 -0.2026 -0.1013
18767W        W28460   7.971  12.496   1.299  0.0234  0.0197  0.1078
18768W        W28461  15.815  12.805   0.918 -0.1045 -0.0665  0.1923
18769W        W28462  16.103   1.345  15.347  0.0557  0.1456  0.0947
18770W        W28463   4.145  14.396   5.753 -0.0055 -0.2255  0.1449
18771W        W28464   4.552   1.055   2.040 -0.1542 -0.1357  0.2828
18772W        W28465  15.179   6.725   4.359  0.1300  0.2167  0.0017
18773W        W28466   6.897  14.677   2.928  0.0165 -0.1307 -0.2294
18774W        W28467   8.792   5.906  17.148 -0.0354  0.0086  0.1739
18775W        W28468   4.467   0.236  12.502  0.2424  0.0695 -0.0047
18776W        W28469  16.597   6.622   2.378 -0.2091 -0.0187 -0.2348
18777W        W28470  15.459  17.061   6.063 -0.1327 -0.2440 -0.2110
18778W        W28471   0.690   4.241   4.539 -0.0037  0.2259  0.1725
18779W        W28472   8.204   4.852   0.658  0.2156 -0.1783 -0.0340
18780W        W28473   9.609  14.932   0.291  0.2583 -0.0690 -0.0440
18781W        W28474  11.960  11.140   2.034  0.1919 -0.0437 -0.0779
18782W        W28475   8.911  12.118   4.474 -0.2000 -0.2062 -0.0604
18783W        W28476  16.554   0.746  11.758  0.0733  0.1365 -0.1913
18784W        W28477  10.015   3.102  16.628 -0.0600  0.1235 -0.0213
18785W        W28478  11.856  12.187  15.144  0.2791  0.0423  0.0264
18786W        W28479  14.990   2.244  16.521  0.0874  0.1243 -0.0198
18787W        W28480   0.179  16.369   4.696  0.2086  0.0359 -0.2182
18788W        W28481  10.253   5.772  15.482 -0.0826  0.1481  0.1453
18789W        W28482   5.986   7.222  12.950  0.0921  0.0121  0.0590
18790W        W28483  12.668   8.554  14.715 -0.0182  0.1159  0.0770
18791W        W28484   2.916  15.455  16.715  0.2334  0.1274 -0.0735
18792W        W28485  17.061   1.775   5.311  0.1826  0.2902  0.2479
18793W        W28486  17.484  15.162  15.115 -0.1185  0.1038 -0.0550
18794W        W28487   5.452   1.443  17.628  0.4092 -0.0867  0.0627
18795W        W28488   6.450   3.062   2.450 -0.1801  0.2692  0.0764
18796W        W28489   6.718  14.746   5.919  0.0095  0.2695 -0.2667
18797W        W28490   9.210   7.457   2.176  0.0743  0.1707 -0.0960
18798W        W28491   2.204  12.651   5.109  0.0227 -0.0069 -0.0502
18799W        W28492   9.942  13.830  16.194 -0.1156 -0.1025 -0.0237
18800W        W28493   0.590   3.300  13.031 -0.0312  0.1942  0.0945
18801W        W28494  13.802  13.925  15.940  0.0940 -0.0587 -0.0462
18802W        W28495   3.140   8.152   5.174  0.2934 -0.4309  0.1065
18803W        W28496  13.597   4.346  16.731 -0.0397  0.0348  0.2674
18804W        W28497  16.659  16.876   6.801 -0.0651 -0.1870 -0.0425
18805W        W28498  14.590   3.369   5.252  0.0001  0.0205  0.1668
18806W        W28499  11.743   8.778   6.104  0.0226 -0.2501  0.0633
18807W        W28500   4.049   9.276  14.474 -0.1596 -0.1851  0.1851
18808W        W28501   7.489   8.201  15.705 -0.1570 -0.1030 -0.1440
18809W        W28502   2.938  13.764   6.428  0.2287  0.4312  0.0763
18810W        W28503   6.482  16.997  16.945 -0.0789 -0.0977  0.1148
18811W        W28504  16.982   7.866  14.809  0.4067 -0.1681  0.0503
18812W        W28505   3.843  14.651   0.746  0.1592  0.2732 -0.4613
18813W        W28506   0.043   7.100   6.475 -0.0225  0.2439 -0.4914
18814W        W28507   5.309   9.540  13.612 -0.1470 -0.0103 -0.0985
18815W        W28508  15.523   2.755  12.935  0.0953  0.0607 -0.0165
18816W        W28509   5.246   2.674  17.572  0.0783  0.0895  0.1065
18817W        W28510   6.859   9.714   0.603 -0.1541 -0.3315  0.1513
18818W        W28511   9.770   0.418   1.988 -0.3632 -0.1306  0.2611
18819W        W28512   2.210  10.241   5.357  0.1386 -0.2707 -0.0654
18820W        W28513   5.226   6.656   1.571 -0.0802  0.0461  0.0930
18821W        W28514   2.021  11.373  14.671 -0.2174  0.1727 -0.3078
18822W        W28515   7.076   9.425   5.709 -0.0877 -0.2539  0.0188
18823W        W28516  11.454   0.194   3.611 -0.4963 -0.0327  0.0373
18824W        W28517  13.341   4.257  14.115  0.4015  0.0456 -0.0314
18825W        W28518  12.651  10.470   5.056  0.0102  0.1068  0.1782
18826W        W28519  14.091   8.671  15.007  0.3137 -0.4517 -0.0334
18827W        W28520   2.863   4.987   3.804  0.2932 -0.1521 -0.1684
18828W        W28521   1.550   7.653  11.711  0.3853  0.2944 -0.1513
18829W        W28522  13.025   0.141   3.770 -0.0660  0.1961 -0.2168
18830W        W28523  15.873   1.664  15.706  0.1101 -0.0021 -0.0045
18831W        W28524  15.836  17.017   3.456  0.3896  0.1062  0.2608
18832W        W28525   1.704   3.279  12.655  0.1332  0.0387  0.3256
18833W        W28526  16.038   5.972   2.244  0.0778 -0.0853 -0.0562
18834W        W28527   2.373  15.225   5.959  0.1237 -0.0960 -0.2664
18835W        W28528   4.352   8.253   4.950 -0.3293 -0.0386  0.4191
18836W        W28529   8.480   9.479   7.142  0.0458 -0.0541 -0.1565
18837W        W28530  11.313  15.183   5.262 -0.0646 -0.1239 -0.0629
18838W        W28531  17.267   4.150  17.577 -0.2290 -0.3421 -0.0219
18839W        W28532   5.129   2.529  17.050  0.1600  0.3328 -0.2171
18840W        W28533   5.153   7.958   1.726  0.1901 -0.1267 -0.2473
18841W        W28534  10.979   9.487   2.820 -0.0184 -0.1560 -0.0392
18842W        W28535   1.836  16.232   6.597 -0.2287 -0.0089  0.0565
18843W        W28536   0.679  11.923  13.546 -0.1485  0.0245  0.0203
18844W        W28537   2.639  15.710   3.812  0.1989  0.1025  0.2261
18845W        W28538   4.228   1.664   0.217 -0.3926 -0.2246  0.2166
18846W        W28539   8.147  12.237  13.232 -0.2169 -0.0135  0.0004
18847W        W28540  16.291   2.892  15.347 -0.0712 -0.0491 -0.0485
18848W        W28541   5.756  12.576  13.627 -0.1626 -0.3074 -0.1407
18849W        W28542   0.733   3.547   1.140 -0.4578  0.1976 -0.2080
18850W        W28543  16.549   9.524   4.661 -0.0383 -0.0317 -0.2716
18851W        W28544  12.921   1.314  15.206  0.0994 -0.0025 -0.3830
18852W        W28545   0.648   3.024   0.251 -0.1254  0.4381  0.2764
18853W        W28546   1.258   1.447   3.475  0.0607 -0.1659 -0.1332
18854W        W28547  14.957  11.137  16.514 -0.1841 -0.0170 -0.3918
18855W        W28548   3.229   7.953  11.081 -0.0168  0.0496  0.0456
18856W        W28549  14.935  12.810  14.371 -0.1876 -0.0055  0.0486
18857W        W28550   1.674   7.865   4.125  0.1025 -0.1865  0.2066
18858W        W28551  10.601   5.142   1.891 -0.1646  0.1017  0.1281
18859W        W28552   6.602  10.133   0.734  0.3104  0.2142 -0.2439
18860W        W28553   3.851   0.824   6.415 -0.0451 -0.0740  0.0151
18861W        W28554  14.036  10.474  15.886 -0.3308  0.0807 -0.0809
18862W        W28555  12.252  15.203   3.171 -0.1442  0.3479  0.0878
18863W        W28556   6.105  15.004   0.570  0.1070 -0.2661  0.1852
18864W        W28557   9.907   4.451   6.536  0.0340 -0.0668  0.1603
18865W        W28558   5.035  14.288  15.106 -0.4380 -0.0238 -0.0028
18866W        W28559   5.257  11.789   1.329  0.4990 -0.1497 -0.2047
18867W        W28560   7.485   2.722   1.494  0.1856  0.2123 -0.2437
18868W        W28561   8.130   6.771  13.775  0.0236  0.5326  0.0145
18869W        W28562   7.789  15.461  13.612  0.2489  0.1691 -0.0188
18870W        W28563  14.105   7.378   3.154 -0.1200 -0.3536  0.0493
18871W        W28564   9.548   4.080  17.410  0.1613 -0.0385  0.4035
18872W        W28565   7.875  12.317  16.606 -0.2495  0.0441  0.1478
18873W        W28566   4.702  15.798  13.096 -0.1933 -0.0575 -0.4416
18874W        W28567   5.393  17.266   2.755  0.1108  0.0590  0.0674
18875W        W28568  10.173   8.916   0.602 -0.2187 -0.0009  0.0093
18876W        W28569   2.730   1.641   6.021 -0.0394 -0.0616  0.2288
18877W        W28570   0.711   8.112  15.907  0.0512  0.2231  0.3234
18878W        W28571   1.326   6.491   4.236  0.1007 -0.1443  0.1715
18879W        W28572   4.185  13.045   5.751  0.0265 -0.1468  0.1324
18880W        W28573   5.433  16.672   5.211  0.1171 -0.0921  0.0804
18881W        W28574   4.373   3.446   0.642  0.2182 -0.0489  0.0511
18882W        W28575  16.585  16.463   5.282 -0.2904 -0.1021 -0.3155
18883W        W28576   7.288  14.843   1.123  0.0450  0.2627 -0.0388
18884W        W28577   5.074   9.919   1.841  0.0967  0.0380  0.0187
18885W        W28578   0.622  13.432  15.769 -0.2239  0.3517  0.1513
18886W        W28579   7.910  10.022  14.306 -0.3666 -0.3321 -0.1089
18887W        W28580  17.519   2.917  14.210  0.3226  0.0294 -0.3695
18888W        W28581   4.769  10.872   4.366 -0.0077 -0.1005  0.0378
18889W        W28582   1.250   6.045   4.656 -0.0345  0.2864 -0.0078
18890W        W28583  15.881   2.493   2.838  0.2989 -0.0298 -0.0285
18891W        W28584   1.231  10.518  14.568 -0.1686 -0.0904 -0.0990
18892W        W28585  12.037   2.837  12.295  0.2776  0.0273  0.2563
18893W        W28586  12.778   1.346  11.823 -0.3556 -0.3657 -0.0130
18894W        W28587   6.352   7.758  15.988 -0.0191  0.0082  0.1539
18895W        W28588  16.195   5.312  12.677  0.5098 -0.0693 -0.0890
18896W        W28589  16.220   2.639  17.082 -0.2721  0.3203  0.2803
18897W        W28590   0.334  16.033   0.127  0.1944  0.3099 -0.0434
18898W        W28591   6.633  17.435   5.016 -0.0550  0.2532 -0.2256
18899W        W28592   1.443  12.006  16.429 -0.1393 -0.0336 -0.0669
18900W        W28593   8.377   7.721   1.223  0.2184 -0.3126 -0.1580
18901W        W28594   3.477  14.690  12.589  0.1830  0.3019  0.2356
18902W        W28595   4.543   3.810   0.944 -0.1037  0.0902  0.0866
18903W        W28596   0.745  13.754   3.356 -0.3077 -0.3087 -0.0767
18904W        W28597   2.643   8.300  16.265  0.3337 -0.0460 -0.0315
18905W        W28598  13.217  15.711   1.077 -0.2328 -0.0932 -0.1406
18906W        W28599   0.071  11.111  17.279  0.0194 -0.0624 -0.0693
18907W        W28600  12.824  11.851  17.419  0.0444 -0.3850 -0.1017
18908W        W28601   7.240   8.396  17.182  0.3785  0.0758 -0.1398
18909W        W28602   1.427  10.281  16.211  0.3648 -0.1612  0.2385
18910W        W28603   3.965  15.034   0.468  0.1541 -0.3084  0.0087
18911W        W28604  13.366   1.241  11.030 -0.0848  0.0094  0.0679
18912W        W28605   3.581  15.940   2.164  0.3053 -0.2525  0.0445
18913W        W28606  11.746   2.288   2.907  0.1436 -0.0187 -0.2111
18914W        W28607   7.049  12.334  15.443  0.2841  0.1429  0.0646
18915W        W28608   2.986   2.740  11.208 -0.0796  0.3611 -0.0038
18916W        W28609   3.793   5.072   3.659  0.1548 -0.0725 -0.0714
18917W        W28610   2.242   5.335   3.399  0.0640 -0.1157 -0.0259
18918W        W28611   3.376   7.437  13.407  0.0876 -0.0037 -0.0330
18919W        W28612  16.621   2.940   0.407 -0.1087 -0.0439  0.3493
18920W        W28613   8.116   7.920   5.062  0.0987 -0.0088  0.0125
18921W        W28614   9.119  11.065   2.673  0.1046  0.4033 -0.1130
18922W        W28615  17.364  14.635   2.378 -0.2164  0.5254  0.0182
18923W        W28616   7.944  13.454  15.035 -0.2318 -0.0410 -0.1242
18924W        W28617   2.243  11.836   0.499  0.1064  0.1293  0.1429
18925W        W28618  16.559   0.550  15.214  0.0248 -0.0069  0.2618
18926W        W28619   1.890   7.079   5.386 -0.1398  0.0171  0.2860
18927W        W28620   7.992   0.414   3.414  0.0949  0.3595 -0.1391
18928W        W28621   5.676   2.297  11.473  0.0300 -0.0055 -0.3559
18929W        W28622   4.935   3.672   5.840 -0.1099  0.0326 -0.0355
18930W        W28623  10.598   8.395   5.568  0.1008 -0.1107  0.3786
18931W        W28624  10.680  14.293   0.196 -0.1034 -0.2777  0.4246
18932W        W28625   8.783  12.394  14.070  0.1713  0.0486 -0.0457
18933W        W28626  11.951  10.132  15.764  0.2285 -0.0137 -0.3898
18934W        W28627   9.976  16.301   2.713 -0.1180 -0.2562 -0.0257
18935W        W28628  14.871  13.207  12.294 -0.1769  0.0815  0.1408
18936W        W28629   8.830   0.991   4.362 -0.1166 -0.2323  0.0756
18937W        W28630   7.906   9.342   2.676  0.0646 -0.0153  0.2444
18938W        W28631   1.237  14.976   6.278 -0.1904 -0.0265  0.1241
18939W        W28632  16.159  17.160   3.868 -0.3499  0.3164  0.3376
18940W        W28633   4.969  10.905  16.009 -0.2893 -0.1444 -0.1444
18941W        W28634   4.534   6.912  15.438 -0.1803 -0.2757  0.4356
18942W        W28635  12.612  13.152  15.929  0.2137  0.1124 -0.2075
18943W        W28636   7.388   0.982  16.856 -0.0473  0.0146  0.1176
18944W        W28637   8.971  11.514   6.725 -0.1209 -0.3653  0.0771
18945W        W28638   8.826   8.294   3.318  0.0568 -0.1514  0.1571
18946W        W28639   6.401   0.197   2.783 -0.0415 -0.1625  0.0205
18947W        W28640   5.961   1.918   3.161  0.0623  0.1138  0.2010
18948W        W28641   1.033   0.945   6.534 -0.0577  0.0618  0.1014
18949W        W28642   4.577   7.728  15.358 -0.1233 -0.2640 -0.2098
18950W        W28643   2.727  14.203  17.372 -0.1677  0.2424  0.1819
18951W        W28644   0.746   2.715   1.478  0.1192 -0.2665  0.0404
18952W        W28645  16.515   4.300  12.810  0.1495 -0.2863  0.1558
18953W        W28646   5.388  10.986   5.232  0.1932 -0.0297  0.0307
18954W        W28647  14.161  10.616  14.330  0.0700 -0.1118  0.5822
18955W        W28648   7.938  14.482  15.032  0.1569  0.0281  0.0316
18956W        W28649  17.060  14.978   1.017 -0.0848  0.0343  0.2102
18957W        W28650   0.121   0.159   1.060 -0.0887 -0.1465  0.3773
18958W        W28651  14.713   0.978  12.261  0.1398  0.0367 -0.0288
18959W        W28652   5.480  16.800  14.279 -0.0412  0.1188  0.2237
18960W        W28653  14.018  15.013   3.882 -0.0719 -0.2756 -0.1310
18961W        W28654   9.687   7.033   1.211  0.0149 -0.1739 -0.1183
18962W        W28655   9.957  11.139  12.656 -0.1866 -0.1131 -0.1083
18963W        W28656  11.107   2.148  10.667  0.0186 -0.1106  0.1852
18964W        W28657  15.571   3.359   3.919  0.0787  0.0416 -0.1661
18965W        W28658  15.376   5.385  13.090  0.0738 -0.1277  0.1888
18966W        W28659   2.121  13.857   2.177  0.0759  0.2427  0.0449
18967W        W28660   0.935  15.927  15.986  0.0620 -0.2143  0.1128
18968W        W28661   5.511   3.121   4.952 -0.0585  0.0179 -0.2003
18969W        W28662  14.865   3.922   2.938  0.1049  0.1007  0.1270
18970W        W28663  13.877  13.912   6.179 -0.0181 -0.2319  0.0879
18971W        W28664   9.759  12.195   1.274  0.1464  0.1970 -0.0888
18972W        W28665   8.734   1.911   2.729 -0.4727 -0.1642 -0.3705
18973W        W28666   6.088   0.939  13.369  0.1816  0.2488  0.0502
18974W        W28667  10.555   0.040  15.489  0.0583 -0.2050  0.0172
18975W        W28668   6.328  13.374   1.268 -0.2450  0.0884 -0.1915
18976W        W28669  16.610   7.218  13.691 -0.1204 -0.0212 -0.1778
18977W        W28670   2.392   9.213   1.137  0.0762  0.0971  0.0203
18978W        W28671   6.595   1.197   0.853 -0.0649 -0.0801 -0.2850
18979W        W28672  16.826   8.483   2.412  0.1659 -0.0304 -0.1538
18980W        W28673  15.061   7.564   2.678 -0.0157 -0.2614 -0.0257
18981W        W28674   2.750  12.662  13.562  0.0057  0.1611  0.0856
18982W        W28675   5.699  10.851   4.128  0.3949 -0.0928 -0.2703
18983W        W28676  14.503  15.970  16.850  0.0569 -0.0776 -0.1098
18984W        W28677   9.627   7.733  12.349 -0.1406  0.1085 -0.0523
18985W        W28678   1.889  14.776   5.125 -0.1373 -0.0995  0.1072
18986W        W28679   1.571   3.321   1.359 -0.2088  0.0575 -0.0056
18987W        W28680   0.450  16.238   0.545  0.2496 -0.2003 -0.1362
18988W        W28681  14.775  11.238  16.964 -0.0792 -0.1474  0.0465
18989W        W28682   8.222   1.951   1.848 -0.1851 -0.1680 -0.1808
18990W        W28683  13.756  11.827   4.303  0.1016  0.0597 -0.0888
18991W        W28684   3.762   2.677  16.107 -0.5686  0.0556 -0.1989
18992W        W28685  15.318  15.534  14.119 -0.0317  0.1912 -0.1277
18993W        W28686   9.001  13.415   1.426  0.0874  0.0611 -0.1531
18994W        W28687   8.286  10.536  15.955  0.2484 -0.1119 -0.3601
18995W        W28688  17.128   6.823   1.067  0.1066  0.0390  0.0263
18996W        W28689  11.866   0.268  13.256  0.2692  0.0334 -0.4750
18997W        W28690  11.343  13.998  15.054 -0.0455  0.0697  0.1668
18998W        W28691   6.829  10.792  11.514  0.0103 -0.1683 -0.0964
18999W        W28692  11.327   5.586   1.475 -0.0400 -0.1445  0.2268
19000W        W28693   0.894  17.511   0.233 -0.0483  0.1084  0.2697
19001W        W28694  12.996   3.706  16.573  0.2779 -0.2647  0.1517
19002W        W28695  14.879  10.873  17.572 -0.2684 -0.2021 -0.0329
19003W        W28696   1.491   5.725  12.201 -0.0351  0.2267  0.0722
19004W        W28697   0.198  12.076   0.676  0.3174 -0.0040  0.1079
19005W        W28698   9.928   7.148  14.592 -0.5106  0.1075  0.1001
19006W        W28699   4.781  12.131   3.380 -0.0709 -0.2505 -0.0044
19007W        W28700   6.141  14.009  15.398 -0.0071  0.0525 -0.0857
19008W        W28701  14.346  15.892   5.833  0.2787  0.0373 -0.0570
19009W        W28702   7.941   6.737  11.181 -0.1322 -0.1503 -0.0887
19010W        W28703  14.088   2.032   5.980  0.2143 -0.0175 -0.2412
19011W        W28704   8.345   8.468  15.354  0.0754 -0.0437 -0.3800
19012W        W28705   6.292  14.819   4.938 -0.2234 -0.0701  0.3649
19013W        W28706  14.342   8.478   0.136 -0.1829 -0.0462 -0.1507
19014W        W28707  10.869  16.093  12.531 -0.0185 -0.0456  0.1063
19015W        W28708  14.554  12.563  15.205  0.1659  0.0536  0.0273
19016W        W28709   6.986  14.372   3.962  0.0569 -0.0419 -0.1820
19017W        W28710   3.190   2.070  16.112  0.2083  0.0803 -0.1099
19018W        W28711   4.506   2.025   3.631 -0.1281  0.1152 -0.1091
19019W        W28712  16.904   0.167  13.642 -0.0663  0.1236  0.1088
19020W        W28713   5.673   8.501   4.055 -0.2226 -0.0963 -0.0401
19021W        W28714  12.001  15.159   2.287 -0.0174  0.0538  0.0633
19022W        W28715   8.718  13.035   3.572  0.0766 -0.0723  0.0965
19023W        W28716   6.989   1.538   6.348  0.0649  0.0604  0.0234
19024W        W28717  16.679   3.535   4.885 -0.0975  0.1135 -0.2906
19025W        W28718  12.838   0.138  14.393 -0.0604 -0.1046  0.0733
19026W        W28719  11.742  14.876   4.465 -0.0493  0.0862  0.0972
19027W        W28720   5.759   8.078  13.437 -0.0422  0.4266 -0.0975
19028W        W28721   7.348  14.964   0.553  0.1413 -0.2691 -0.0314
19029W        W28722  16.058   3.500   4.725  0.0748 -0.4003 -0.2003
19030W        W28723   2.933   5.064  16.427  0.0223 -0.3433 -0.0148
19031W        W28724  11.068  14.904  17.299 -0.0640 -0.0305  0.1479
19032W        W28725  10.647  14.722   0.588 -0.0096  0.1105 -0.1238
19033W        W28726   9.301   1.132   2.193 -0.1032 -0.2394 -0.1528
19034W        W28727   0.687   0.563  15.373 -0.1813  0.3308  0.1951
19035W        W28728   7.451  11.957   2.969  0.1454  0.0859  0.1742
19036W        W28729   0.810  16.825  14.398 -0.0720  0.1968  0.1428
19037W        W28730   7.861  15.601   6.322  0.0112 -0.0681  0.0982
19038W        W28731   7.561   6.040  14.972  0.2792  0.2616  0.0268
19039W        W28732  11.459   2.528  16.469  0.1233 -0.0304  0.0054
19040W        W28733   4.548   4.578   4.142  0.0750 -0.1052 -0.1845
19041W        W28734   5.227   9.031   4.012  0.0413 -0.1500  0.0887
19042W        W28735   5.198   2.651  13.396 -0.2972 -0.0671 -0.1315
19043W        W28736   6.109   4.046  16.906  0.1048  0.0001 -0.1057
19044W        W28737   6.982  10.824   0.180  0.3146  0.1371  0.2466
19045W        W28738  10.135  15.730  14.474  0.0127  0.0951  0.0660
19046W        W28739   7.378   7.893   1.215  0.1879 -0.0498  0.0627
19047W        W28740  16.711  15.364   2.880 -0.1339  0.0993 -0.1885
19048W        W28741  15.326   3.838   0.536 -0.2395 -0.1060 -0.0379
19049W        W28742   1.032   1.160   5.669 -0.0323  0.0845  0.0868
19050W        W28743   6.249   8.675  15.328 -0.1241  0.2365 -0.2163
19051W        W28744   4.742   4.886   3.784  0.1041  0.4077 -0.4239
19052W        W28745   3.812  17.305  16.074 -0.2175 -0.0976  0.4985
19053W        W28746   4.512   9.985   4.758  0.2304 -0.2477  0.0868
19054W        W28747   9.492  16.602  13.293  0.0217 -0.1601  0.4018
19055W        W28748  16.979  17.476  15.987  0.2853  0.1815  0.0271
19056W        W28749  14.722  11.274   1.571  0.0057  0.1013  0.2094
19057W        W28750  11.500   9.964   5.519 -0.0218 -0.1117  0.3730
19058W        W28751   5.917  12.491   2.811 -0.3747  0.0504 -0.1244
19059W        W28752   1.939   2.385  14.044  0.0104 -0.0553  0.0551
19060W        W28753   1.846   1.400  12.523 -0.0678 -0.0793  0.2701
19061W        W28754  10.322   5.293   6.506 -0.0758 -0.2523 -0.0904
19062W        W28755   6.449   9.715  16.683  0.3971  0.2501  0.1057
19063W        W28756  13.772   7.934  12.901  0.3832  0.2378 -0.1235
19064W        W28757  15.630   2.320  13.156  0.1917  0.0978  0.1777
19065W        W28758  14.029   6.674  14.400 -0.0376  0.2125 -0.0001
19066W        W28759  15.747   7.065  12.108  0.2640  0.0195 -0.0358
19067W        W28760   7.421   0.108  17.295 -0.0056  0.0900 -0.0075
19068W        W28761  10.480  14.683  17.333  0.1720 -0.0003  0.0434
19069W        W28762   8.724  10.045   3.387 -0.0175  0.0060  0.1214
19070W        W28763   8.016  17.067   1.201  0.0614 -0.1463 -0.1020
19071W        W28764   8.621  17.172  17.413  0.4023 -0.2725  0.1857
19072W        W28765   8.000   0.306  16.108 -0.1809  0.0311  0.0780
19073W        W28766   2.324   9.086   5.984  0.3420  0.2838 -0.0034
19074W        W28767  12.926  14.116   6.369 -0.1120  0.1880  0.1505
19075W        W28768  11.128   0.957   0.954 -0.4553  0.3214  0.0781
19076W        W28769   1.369  14.137  15.782 -0.0821 -0.2022 -0.0054
19077W        W28770  16.661  11.321   3.470 -0.0991  0.0532  0.3885
19078W        W28771   6.220  10.840  12.041  0.1001 -0.2841 -0.2417
19079W        W28772   6.998   7.623   1.415 -0.1623 -0.2738  0.1218
19080W        W28773   0.453   6.094   4.177 -0.0309  0.2330  0.2470
19081W        W28774  14.317  14.302   5.621  0.1555 -0.0682 -0.0896
19082W        W28775   2.336  15.035  15.372  0.1334 -0.0963  0.1769
19083W        W28776  13.213  15.187   4.903 -0.3630  0.0201  0.0351
19084W        W28777   4.962   8.654   3.354 -0.0909 -0.0396 -0.0383
19085W        W28778   9.639  17.393  17.449  0.1827 -0.2048 -0.2994
19086W        W28779  16.093  14.773  15.522 -0.1042  0.1575 -0.1058
19087W        W28780  15.452  10.751   1.830 -0.1848 -0.0770  0.1600
19088W        W28781   7.525   0.086  14.263  0.3505  0.0961  0.2886
19089W        W28782   3.353   0.739   0.020  0.0871 -0.0211 -0.0204
19090W        W28783  12.539   4.732   2.526 -0.0807  0.0133 -0.1368
19091W        W28784   7.415   7.655   1.669 -0.3336  0.0393 -0.0636
19092W        W28785   1.351   6.078   2.301  0.0868 -0.1359 -0.2319
19093W        W28786   4.859  16.032  15.362  0.2446  0.0209  0.2595
19094W        W28787  16.330   8.796  16.912 -0.0388 -0.2594 -0.3122
19095W        W28788   6.226   3.358   6.091  0.2303 -0.1612 -0.0027
19096W        W28789  11.124   2.948   3.038  0.0926 -0.0110 -0.0804
19097W        W28790  13.764  11.345  13.776 -0.0152  0.1981 -0.1624
19098W        W28791   8.836   5.848  11.964 -0.1498  0.1025 -0.0962
19099W        W28792   5.894   3.053   2.939  0.1228 -0.1287  0.3687
19100W        W28793   8.853   6.444  15.316  0.2599  0.0256 -0.2027
19101W        W28794  14.023   0.860  13.543 -0.1592  0.0605  0.1207
19102W        W28795  17.259   5.949  12.421 -0.0738 -0.3628  0.3616
19103W        W28796   8.611   6.192   4.578  0.2396  0.1078 -0.1615
19104W        W28797   9.165   3.373  11.874 -0.1596  0.0423 -0.1469
19105W        W28798   0.559  13.245   2.488 -0.1044  0.3376 -0.0643
19106W        W28799   6.394  14.663  16.838 -0.0115 -0.2657 -0.0279
19107W        W28800   4.895  15.121  17.040 -0.0197  0.0900 -0.1183
19108W        W28801   8.391   0.134  15.468  0.1125  0.0286  0.1900
19109W        W28802  10.603   1.264   1.794  0.4141 -0.0025  0.0195
19110W        W28803   5.200   3.648  13.019 -0.0287  0.0414 -0.1259
19111W        W28804   5.862   5.546   4.063 -0.1238  0.1089  0.2340
19112W        W28805   7.758  12.145   3.363  0.3325  0.2720  0.5041
19113W        W28806  10.293   4.939  14.671 -0.3684 -0.1024  0.0575
19114W        W28807   9.928   4.385   3.637 -0.0368  0.2761  0.1228
19115W        W28808   1.782   5.517   3.245  0.2914  0.1516 -0.1072
19116W        W28809  14.992   2.668  12.853 -0.0588  0.1421  0.0873
19117W        W28810  12.506   5.144   5.666  0.1974 -0.1759  0.3065
19118W        W28811  13.484  15.577  13.956 -0.0013  0.0674  0.1083
19119W        W28812  16.921  15.289   3.388  0.0918 -0.0918  0.0414
19120W        W28813   2.544   8.128  14.250 -0.2027 -0.0685  0.1641
19121W        W28814   8.225  15.985  12.693  0.2613  0.2804 -0.0190
19122W        W28815   4.566   6.915  14.826 -0.0818 -0.3627  0.0255
19123W        W28816   5.365   7.474   0.785  0.2161  0.0750  0.0131
19124W        W28817   4.932   3.432  17.017  0.0319 -0.2236  0.0935
19125W        W28818   3.505   7.830  17.548  0.0828 -0.4017 -0.0523
19126W        W28819   3.490   5.444  14.297 -0.2190  0.1892  0.2361
19127W        W28820   4.230  10.934   4.924  0.0302  0.2292  0.1621
19128W        W28821   5.927   2.961   6.274 -0.2339 -0.1102  0.3475
19129W        W28822  10.116   1.160   3.550  0.0248 -0.2175  0.0742
19130W        W28823   2.689   0.895   4.324  0.3669  0.0893 -0.2485
19131W        W28824  15.224   4.297  15.201 -0.0369  0.4841 -0.3233
19132W        W28825  17.117   5.500   2.975 -0.0821 -0.0093 -0.0668
19133W        W28826   5.131  16.009  12.134 -0.0314  0.0954 -0.1101
19134W        W28827   8.059  14.976   0.309 -0.0390 -0.4505  0.0627
19135W        W28828   4.043   3.738   4.522  0.2326  0.0131  0.1776
19136W        W28829   4.555   0.477   4.174 -0.0517  0.0110  0.0977
19137W        W28830   7.181   7.720  10.539  0.0326  0.2468  0.1287
19138W        W28831  13.203  16.313  16.423  0.2457 -0.2087 -0.2872
19139W        W28832  13.311  11.155  12.453 -0.0519  0.2396 -0.0173
19140W        W28833  13.841   3.445   4.425 -0.2280  0.0066 -0.0329
19141W        W28834   4.724   9.308  17.683  0.0570 -0.0441 -0.0281
19142W        W28835   5.660  10.876  17.145 -0.0042 -0.0002 -0.1142
19143W        W28836  16.641   4.809  14.547  0.1248 -0.0855 -0.0431
19144W        W28837  17.530  15.177   3.186  0.0062 -0.3298  0.0743
19145W        W28838   3.882   8.065  16.996 -0.0609 -0.0778  0.1934
19146W        W28839   0.681   0.721  12.646  0.0240 -0.2224  0.0220
19147W        W28840  16.334   9.520   3.668 -0.1467  0.0317  0.1845
19148W        W28841   0.421   1.020   1.467 -0.0353  0.1224 -0.1375
19149W        W28842   7.879   2.657  11.668  0.3430  0.0456  0.0904
19150W        W28843  12.273  14.046   2.761  0.2289  0.0032 -0.0439
19151W        W28844   6.968   3.551   0.524 -0.2656  0.0299  0.1110
19152W        W28845   8.990  13.255  12.941 -0.2462  0.5228  0.1133
19153W        W28846  16.880   5.226  11.855  0.2277 -0.0997  0.3799
19154W        W28847  11.341  16.873   3.571  0.3266  0.0938  0.0249
19155W        W28848   0.527   3.004  12.063  0.0816 -0.0281  0.0495
19156W        W28849   7.199   7.550  14.090  0.0506 -0.0756 -0.0473
19157W        W28850   2.401  15.248  14.417 -0.1424  0.0082  0.1113
19158W        W28851  10.251   8.959   4.856 -0.0624  0.0380 -0.0092
19159W        W28852  15.157   5.742   3.584 -0.2481  0.2360  0.3395
19160W        W28853   4.187  12.060   0.109  0.2368 -0.3718  0.1700
19161W        W28854  13.988   4.284  15.378 -0.0016  0.0896 -0.1187
19162W        W28855  13.489  13.800   0.975  0.1632 -0.0503 -0.0395
19163W        W28856   6.994  15.518   6.377  0.0964 -0.0427  0.1641
19164W        W28857  14.706  15.279  14.678 -0.0784 -0.1090 -0.0926
19165W        W28858   2.364  12.067  14.849  0.1939  0.1235  0.1240
19166W        W28859   7.102   7.854  12.603  0.0469 -0.0156 -0.2296
19167W        W28860  16.552   1.720  13.107  0.0387 -0.3227  0.1104
19168W        W28861   6.201  15.034  14.444  0.0026 -0.1210  0.0795
19169W        W28862  12.429  11.370  14.473  0.0547 -0.0465 -0.1251
19170W        W28863   2.966   5.799  11.727 -0.0396 -0.3637 -0.1824
19171W        W28864   8.325  10.990   4.090  0.3421 -0.1731 -0.0791
19172W        W28865   9.746  11.030  15.467 -0.0631 -0.0767  0.0265
19173W        W28866   3.343   4.983   1.597 -0.0800  0.0929 -0.1475
19174W        W28867   8.444   8.390   3.033 -0.2636 -0.1924  0.0049
19175W        W28868  12.085   7.333  12.342  0.0326  0.0890 -0.0268
19176W        W28869   0.748   8.656  16.743 -0.0501  0.1090  0.2710
19177W        W28870   6.729   1.418  12.651 -0.1392  0.0834 -0.0300
19178W        W28871   5.073   6.873   2.559 -0.1889  0.0450 -0.1429
19179W        W28872   9.529   2.165  15.580 -0.3158 -0.1145  0.2954
19180W        W28873   9.141  15.954   6.872  0.0377  0.4026 -0.0104
19181W        W28874   3.874  13.679  14.049  0.0851  0.3850 -0.2253
19182W        W28875   9.878   4.536  14.853 -0.0612  0.0861  0.1146
19183W        W28876   8.200   4.359   0.620 -0.0079 -0.3424 -0.0886
19184W        W28877  16.371   5.193  11.878 -0.2945  0.1780  0.0351
19185W        W28878   5.911  11.751  15.059  0.2584 -0.0660  0.1500
19186W        W28879  13.145   7.608   3.174  0.0236  0.1227  0.3339
19187W        W28880   9.511   8.856   3.327  0.1337  0.2131  0.3907
19188W        W28881   1.987   4.336  13.444 -0.0780  0.0606 -0.0005
19189W        W28882   6.559  11.018  15.167  0.1006  0.0062  0.1876
19190W        W28883  16.953   0.236  15.323  0.4239  0.0048 -0.2900
19191W        W28884  17.153  17.579  15.536  0.1897  0.0112 -0.2376
19192W        W28885  10.134   0.184  15.836  0.2055 -0.2790  0.2530
19193W        W28886  11.953   2.896  11.783  0.0153  0.0028  0.1599
19194W        W28887   6.603  12.263  15.250  0.1428 -0.0094 -0.1647
19195W        W28888   9.516  10.280  14.907 -0.0918 -0.2319  0.1246
19196W        W28889  17.644  10.175  15.839  0.1305 -0.1328 -0.1754
19197W        W28890  16.219   3.525   0.249 -0.3482 -0.0853 -0.2895
19198W        W28891   4.861  17.399  13.735  0.1612 -0.2557  0.0831
19199W        W28892  15.677   9.509   5.536 -0.0945  0.0892  0.0107
19200W        W28893   0.041   4.260   6.313  0.1854 -0.1797 -0.0745
19201W        W28894   6.541   5.493  15.152 -0.1362 -0.2145 -0.2590
19202W        W28895   7.083  13.642  13.913  0.0107  0.0034 -0.1549
19203W        W28896   0.612  15.673   6.586  0.2353  0.1081 -0.0140
19204W        W28897  12.401  10.471   2.601 -0.0645 -0.0451  0.5078
19205W        W28898   0.368   7.440   0.852 -0.4360 -0.3035 -0.0266
19206W        W28899   8.907  16.991   2.301 -0.0507  0.1504 -0.1680
19207W        W28900   8.561   8.539   1.698  0.1548 -0.3635  0.1875
19208W        W28901   5.254  11.514   5.485  0.1954 -0.2500  0.2191
19209W        W28902  14.414   9.969   4.191  0.2777 -0.0729  0.0309
19210W        W28903  15.586   2.552   4.184 -0.0791 -0.1911 -0.2370
19211W        W28904  11.131   3.721   3.577 -0.1276  0.0720 -0.2562
19212W        W28905   7.832   1.668  16.202 -0.2421 -0.0451 -0.0869
19213W        W28906   6.502  15.259  16.023  0.0313 -0.1897 -0.2701
19214W        W28907   5.944   6.569  14.503 -0.0774 -0.2032  0.4175
19215W        W28908   0.108  16.543   3.537  0.1733 -0.2619 -0.2811
19216W        W28909   3.239   9.992  15.249 -0.3338 -0.1080  0.1645
19217W        W28910   0.987   3.968   1.391 -0.1345 -0.0970  0.3917
19218W        W28911   2.386   7.709  13.091  0.1179 -0.2338  0.2335
19219W        W28912  16.101  13.616   1.938  0.0113  0.1353 -0.0908
19220W        W28913   1.526   2.168  13.717 -0.1528 -0.1062 -0.0206
19221W        W28914   4.940   4.756   1.043 -0.1337  0.1112  0.1030
19222W        W28915  12.046  12.245   5.984  0.5158  0.3445  0.2379
19223W        W28916   9.323   6.975  17.560 -0.2380 -0.0637 -0.1449
19224W        W28917  15.821  14.334   6.162  0.3206 -0.1228 -0.2468
19225W        W28918   1.699   8.290  14.789 -0.4161 -0.1197  0.0060
19226W        W28919   4.228  10.794   6.216 -0.0137 -0.0402  0.0040
19227W        W28920  10.325   8.319   1.115  0.2468  0.3164 -0.0918
19228W        W28921   1.831  11.673   5.336  0.1428 -0.0515 -0.0043
19229W        W28922  16.918  11.261   0.777 -0.1357 -0.0700  0.0511
19230W        W28923   6.526  13.499  15.876  0.1022 -0.1212  0.1752
19231W        W28924  12.770  12.200   5.872 -0.2067  0.2038  0.1680
19232W        W28925   9.992  11.331   1.108 -0.1526  0.2596  0.0548
19233W        W28926   8.299  17.129  13.461 -0.2281 -0.0351  0.1107
19234W        W28927   2.286  15.411  15.710 -0.0823 -0.3091  0.2414
19235W        W28928  11.708  16.150  15.084 -0.1318  0.3076 -0.2039
19236W        W28929   4.831  16.625   1.891 -0.0278  0.2859 -0.0258
19237W        W28930  10.188  10.343   3.162  0.1120 -0.1360 -0.0143
19238W        W28931  12.106   7.728   0.005  0.0262 -0.1661 -0.3995
19239W        W28932   7.936   4.633   3.211 -0.1434 -0.0671  0.2202
19240W        W28933   6.702  15.889  14.616 -0.0856  0.1271 -0.1762
19241W        W28934   7.768  11.282   0.313 -0.1017 -0.0209  0.0279
19242W        W28935  16.565   2.441   6.015 -0.0608  0.1915  0.1190
19243W        W28936   5.844   2.473   4.983  0.3223 -0.1249 -0.1155
19244W        W28937  14.378   7.914  13.707  0.0742 -0.0108  0.1748
19245W        W28938  15.509  17.242  16.638 -0.0425  0.1142  0.2575
19246W        W28939   2.292   2.264   4.693 -0.2437  0.0481  0.1881
19247W        W28940  16.286  10.408  14.080  0.1369 -0.2704  0.1359
19248W        W28941   3.532  17.551   2.944 -0.0451  0.0884 -0.2263
19249W        W28942  14.505   7.662  12.850  0.3500 -0.0746  0.2993
19250W        W28943  11.476   6.792   3.709 -0.0371  0.0869 -0.2889
19251W        W28944   7.022  14.126   5.395 -0.1118 -0.1772 -0.0244
19252W        W28945   7.507  16.829  15.561 -0.0197  0.1706  0.0647
19253W        W28946   5.634  11.648   0.845 -0.2233 -0.0183  0.4677
19254W        W28947   9.488   9.148   5.504 -0.3761  0.1596 -0.2522
19255W        W28948   2.118  17.674  17.683 -0.2321 -0.0680 -0.3733
19256W        W28949  11.961   6.662   0.419  0.0660  0.0652 -0.2732
19257W        W28950  11.114  11.041  13.717 -0.0549 -0.1876  0.0172
19258W        W28951  15.379  14.701   2.052  0.1934  0.1844 -0.2976
19259W        W28952   3.209  11.750  15.545  0.0733 -0.1333 -0.1926
19260W        W28953   7.681  13.313  12.245 -0.3078 -0.0062  0.3628
19261W        W28954  14.653  15.320   1.151  0.0925  0.0908 -0.1977
19262W        W28955   4.812   5.654   4.942  0.1114 -0.1582 -0.0162
19263W        W28956  14.392   8.951  14.425 -0.0603  0.0785  0.2151
19264W        W28957   2.825   5.078  17.162  0.0874 -0.0440  0.2798
19265W        W28958   0.031   8.828   4.188 -0.0866  0.2826 -0.2761
19266W        W28959   3.221   9.130  15.918 -0.1616  0.0120 -0.1148
19267W        W28960  16.859   3.790  14.712 -0.0577 -0.1401  0.0820
19268W        W28961   9.232   7.403   0.265 -0.3394  0.0602  0.2840
19269W        W28962  10.828  14.907   1.522 -0.0584  0.0775  0.5242
19270W        W28963  14.972  11.043   0.651 -0.0417 -0.0701  0.2740
19271W        W28964   0.598   8.903   5.120 -0.1037 -0.2595 -0.1995
19272W        W28965  16.425   3.720  12.018  0.1093 -0.2557 -0.2100
19273W        W28966   9.767  11.802   4.469 -0.2812 -0.3917  0.0539
19274W        W28967   8.019   3.763  14.786  0.1620  0.1203  0.0074
19275W        W28968  12.201   8.577  14.967  0.2292 -0.0285 -0.0748
19276W        W28969   9.737   8.015  14.845  0.4066 -0.1622  0.1202
19277W        W28970  10.891  14.963   7.098 -0.0667  0.1690  0.1345
19278W        W28971  16.246   2.608   0.620  0.0528  0.1660 -0.3293
19279W        W28972   8.843  15.187  13.429 -0.0564 -0.0165 -0.3014
19280W        W28973   1.859   1.966   6.472  0.1315  0.0465 -0.2859
19281W        W28974  12.801   1.262  13.077 -0.2488  0.0842  0.4677
19282W        W28975  13.894  10.119  14.415 -0.1756 -0.3626  0.1645
19283W        W28976   9.319   8.194   6.039 -0.2036 -0.1076  0.0336
19284W        W28977   8.178  16.160  13.309 -0.0898  0.0028  0.1963
19285W        W28978  16.399  10.803   1.550  0.1310 -0.3610  0.0417
19286W        W28979   1.819  11.989   2.690  0.0952 -0.2652 -0.0783
19287W        W28980   0.506  11.597  16.511  0.1758 -0.1504 -0.2267
19288W        W28981  13.639  10.274   2.005 -0.5172  0.2715  0.3703
19289W        W28982   7.336  14.705  13.381 -0.0063 -0.2122 -0.2547
19290W        W28983  16.064   7.864   3.520 -0.1170  0.0721 -0.0246
19291W        W28984  12.366  13.918   0.870  0.2626  0.0193  0.3838
19292W        W28985  13.594  12.041  16.825  0.2198 -0.1873  0.0119
19293W        W28986   9.255  10.322   4.908 -0.0187  0.0517  0.0043
19294W        W28987   6.932  11.373   4.587 -0.1870 -0.0697  0.2531
19295W        W28988   6.901  17.127   0.783  0.2705  0.0312  0.0054
19296W        W28989  16.493   1.481  15.005 -0.0304 -0.2655 -0.2009
19297W        W28990   7.146  12.684   4.959 -0.2895 -0.3698  0.0158
19298W        W28991   8.190   0.533   1.827  0.1700  0.1572  0.0339
19299W        W28992   5.751   1.900  17.516  0.0237 -0.1804  0.0007
19300W        W28993   0.232   7.075  16.990  0.1087 -0.0648 -0.3840
19301W        W28994   3.449   8.006  15.533 -0.0354  0.0781  0.0253
19302W        W28995   9.938  10.840   5.208  0.3955 -0.1021  0.1523
19303W        W28996  14.294   2.487   3.010  0.1107 -0.0346  0.1436
19304W        W28997   1.429   0.917  14.383  0.3470 -0.2359 -0.1778
19305W        W28998  12.084   2.240   0.847 -0.0144 -0.1167  0.0470
19306W        W28999  10.955   7.207   4.511  0.0498  0.0564 -0.0213
19307W        W29000   5.678   9.080   1.537  0.1339  0.3278  0.0066
19308W        W29001  12.147   2.594  14.392  0.3287  0.0246 -0.1025
19309W        W29002  14.828  13.344  13.366  0.0767  0.2319  0.0459
19310W        W29003   1.045   4.836   0.430 -0.2882 -0.2925  0.0775
19311W        W29004  13.099  17.628  14.001  0.1678  0.1270 -0.3733
19312W        W29005  16.082   8.376  16.963  0.0209  0.2013 -0.0777
19313W        W29006  12.375  13.597   2.345 -0.0129 -0.0277  0.1149
19314W        W29007  12.242   0.816  17.000  0.2310  0.0527 -0.2006
19315W        W29008  12.206  14.044   5.461 -0.1034  0.1297  0.1867
19316W        W29009   8.685   4.981   0.532 -0.3614  0.2148 -0.0703
19317W        W29010  10.878  10.619   6.318 -0.1654 -0.0587 -0.1765
19318W        W29011   5.189   6.468  15.729 -0.0104  0.1688  0.1904
19319W        W29012  11.333   5.840  16.321 -0.0728 -0.1416  0.2982
19320W        W29013   7.600   5.679  16.901 -0.2221 -0.1320  0.0407
19321W        W29014  17.514   9.791  17.338 -0.1306 -0.0170  0.0674
19322W        W29015   3.190   8.222   3.016  0.1691 -0.2315  0.1128
19323W        W29016  14.101  15.125  15.518 -0.0967  0.0044 -0.1041
19324W        W29017   7.418   3.218   4.331 -0.1480  0.2941 -0.0538
19325W        W29018   1.307  17.214  13.518 -0.0927 -0.0062 -0.1498
19326W        W29019   4.973  13.108  14.406  0.2423 -0.1787 -0.0985
19327W        W29020  12.386   5.765   3.404 -0.2866 -0.4171 -0.1870
19328W        W29021  11.590   4.364  14.573 -0.0583 -0.0129  0.1381
19329W        W29022   1.610   1.206   2.355  0.0391 -0.0810 -0.2115
19330W        W29023   6.640   7.804   6.163 -0.0441  0.2177 -0.2842
19331W        W29024   5.068  12.422   0.526  0.1148  0.2047  0.1366
19332W        W29025   5.426   3.377  17.089  0.2981  0.0359 -0.1605
19333W        W29026   4.880   7.540   1.394  0.2739 -0.0343 -0.0389
19334W        W29027  14.367   6.928   2.394  0.0805  0.0258  0.1328
19335W        W29028  13.468  14.977   0.616  0.0104 -0.0997  0.0427
19336W        W29029   5.380  11.503   2.791 -0.0546  0.0665 -0.2826
19337W        W29030   1.380  15.602   0.576  0.2052  0.3619 -0.2629
19338W        W29031  14.540  12.580  12.479  0.0836  0.0009 -0.4473
19339W        W29032   9.332   5.965   2.008 -0.0117 -0.0735  0.0093
19340W        W29033  12.177   3.096   4.784 -0.3018 -0.0031 -0.2144
19341W        W29034  12.140   4.733   2.131 -0.0744  0.2586  0.0677
19342W        W29035   1.338  12.590  15.644  0.0897  0.3839  0.1706
19343W        W29036  10.527  17.625   0.793  0.1053 -0.0683 -0.0064
19344W        W29037   1.740  14.576   0.406  0.0710 -0.0512  0.1848
19345W        W29038   9.716  16.414   3.637 -0.2938  0.1313 -0.0617
19346W        W29039   8.636   5.315   4.725  0.1394 -0.1187  0.0214
19347W        W29040  14.562  12.281   5.837 -0.0450  0.0841  0.5992
19348W        W29041  17.304  13.078  13.888  0.1580 -0.1931 -0.0394
19349W        W29042   6.725  14.196  14.590  0.2113 -0.0538  0.2819
19350W        W29043   8.153   1.769   5.235  0.0549 -0.3308 -0.2558
19351W        W29044  10.063   8.029  15.251 -0.2707  0.2640  0.0510
19352W        W29045   0.957   9.993   6.504  0.3961 -0.1200 -0.1998
19353W        W29046  10.482  16.946  12.977 -0.0577 -0.0391 -0.2650
19354W        W29047   0.923   2.867  12.844 -0.1365 -0.1830 -0.0885
19355W        W29048   1.043   9.956   0.332  0.0165 -0.0056 -0.0533
19356W        W29049   5.406   8.536  17.561 -0.3161  0.0143  0.3881
19357W        W29050  10.736   2.197  11.016 -0.2184  0.1336 -0.2811
19358W        W29051   2.208   4.473  15.640 -0.2117 -0.5070  0.1485
19359W        W29052   9.266   7.141  16.556  0.1806 -0.0714 -0.2017
19360W        W29053  11.789  15.042  14.076 -0.0813 -0.0972  0.0222
19361W        W29054  10.609  15.729  17.338 -0.0806  0.4110  0.0956
19362W        W29055   9.457  14.808  16.224 -0.0901 -0.1012 -0.3218
19363W        W29056   0.732   5.343  10.713 -0.0228  0.4796 -0.2753
19364W        W29057   6.962   4.803   1.917  0.0430 -0.1025  0.0764
19365W        W29058   6.530  13.925  12.622  0.1132  0.0442  0.0504
19366W        W29059   9.069  13.685  17.569 -0.1076 -0.2418 -0.0665
19367W        W29060  12.418   8.425   1.957 -0.2317  0.0431  0.0576
19368W        W29061   1.037  16.877   3.727  0.1520 -0.2010 -0.0503
19369W        W29062   4.872   8.754   1.989  0.2672  0.1667 -0.0720
19370W        W29063   5.344  16.714   3.973  0.2958  0.2076  0.2886
19371W        W29064  13.969   0.464  14.929  0.1436 -0.0487  0.1273
19372W        W29065  16.392   6.009   1.854  0.0385  0.0718 -0.1296
19373W        W29066  13.563  12.835   2.291  0.2085 -0.2202 -0.2037
19374W        W29067   6.053   7.544  14.291 -0.1561  0.1234  0.1752
19375W        W29068  14.410   5.186  16.441  0.2929  0.1832  0.1183
19376W        W29069   8.385   7.347  15.701 -0.2352 -0.2618  0.1558
19377W        W29070   6.427   0.103  12.235 -0.2037 -0.3221 -0.4376
19378W        W29071   0.559   3.316   0.679  0.0895  0.2051  0.0132
19379W        W29072   8.477  17.639   3.613  0.2581  0.2227 -0.2584
19380W        W29073   6.128   0.013   2.296 -0.2815  0.1719  0.3329
19381W        W29074  12.681   5.962   1.350  0.1619  0.1248 -0.1354
19382W        W29075   8.794  13.942  13.227 -0.0760  0.1966  0.1869
19383W        W29076  13.815   6.568   1.643  0.1047 -0.2395  0.0648
19384W        W29077   0.767  11.394   0.183  0.0241 -0.0440 -0.0420
19385W        W29078  13.498   8.356  12.166  0.0111 -0.1499  0.1455
19386W        W29079   9.081   3.718   5.328 -0.2118 -0.0849  0.3045
19387W        W29080  16.680   0.350   4.618 -0.0968  0.2246 -0.1243
19388W        W29081  11.955   3.005  16.984 -0.0856  0.0955 -0.0296
19389W        W29082   3.519  12.883   0.637  0.0695  0.0494 -0.1087
19390W        W29083   3.265   7.283  12.029  0.1268 -0.2298 -0.1781
19391W        W29084   4.928   4.498   5.950  0.2127 -0.2823  0.0474
19392W        W29085   6.909   2.519   2.378  0.0777  0.0615  0.1576
19393W        W29086   8.451   4.605  11.377  0.3541 -0.0759 -0.1493
19394W        W29087   5.867  10.667   3.101  0.2225 -0.1533  0.0684
19395W        W29088  11.910  11.780   4.429 -0.0525 -0.2606 -0.1410
19396W        W29089  17.210  15.940  16.280  0.0306  0.2907  0.2351
19397W        W29090   3.476   3.199   2.094 -0.3133  0.1479  0.1137
19398W        W29091  13.589   2.609   4.494  0.1096 -0.0074  0.0825
19399W        W29092  13.828  16.868   1.356 -0.1919 -0.0820 -0.1973
19400W        W29093  10.668  13.230  13.810 -0.0204 -0.0375  0.1616
19401W        W29094   4.021  14.548  12.627 -0.1644  0.0846 -0.0604
19402W        W29095   8.543   9.663   0.061  0.1278 -0.1803 -0.1835
19403W        W29096   4.356  11.184   0.224  0.0942 -0.2797  0.0923
19404W        W29097   4.171  15.936  16.816 -0.2301 -0.3341 -0.1388
19405W        W29098  12.790   2.756  15.599  0.1706  0.2008  0.1056
19406W        W29099   2.208   3.771   4.952 -0.0611  0.3221  0.1662
19407W        W29100   6.410  15.159  12.435 -0.1833 -0.2189 -0.4267
19408W        W29101   5.666   8.271  17.156 -0.2829  0.1817 -0.0394
19409W        W29102  14.174   5.644   3.322  0.4282  0.0212 -0.0220
19410W        W29103   2.030  15.230  12.383 -0.2749 -0.0682 -0.1962
19411W        W29104   7.565  10.380  15.439 -0.1756 -0.1627  0.0740
19412W        W29105  15.927  11.039  16.172 -0.1602  0.1220  0.2316
19413W        W29106  14.905  12.569  12.962  0.1074 -0.0485 -0.0714
19414W        W29107   3.471   8.577  16.807  0.1781 -0.0245 -0.2654
19415W        W29108  16.747   5.808   6.071 -0.0442 -0.3218  0.5327
19416W        W29109  12.306  14.745   3.640 -0.2450 -0.1068 -0.1215
19417W        W29110   3.603   4.112   2.549  0.1549 -0.1242  0.1469
19418W        W29111  13.058   8.459  14.462  0.1619 -0.0337  0.0303
19419W        W29112   1.377   1.918   1.441 -0.0303  0.2064 -0.1544
19420W        W29113  12.964   9.187   5.073 -0.3598  0.1274 -0.0434
19421W        W29114  15.401   6.155   6.277  0.2078  0.2279 -0.1909
19422W        W29115   6.895   6.228   0.746 -0.1658  0.3582 -0.0388
19423W        W29116  16.271  11.040   7.361 -0.0625 -0.1133  0.1959
19424W        W29117   4.033  16.464  12.958  0.2716 -0.2508  0.0622
19425W        W29118   8.646  16.355   0.714 -0.0090  0.1162 -0.3068
19426W        W29119  15.780  14.643   5.242 -0.0628  0.0052  0.0039
19427W        W29120  14.138   8.280   5.134  0.4097 -0.3169 -0.2254
19428W        W29121   0.840  16.711   5.570 -0.2992 -0.0464 -0.0432
19429W        W29122   8.083  15.419   0.953 -0.0963  0.0875  0.1046
19430W        W29123  12.570   6.845   4.112 -0.1614  0.0644 -0.0153
19431W        W29124  12.220   6.756   0.015  0.2230 -0.2511  0.0388
19432W        W29125  15.828  17.544   2.540 -0.0208 -0.0094 -0.6189
19433W        W29126   6.481   0.126  17.417  0.0983 -0.1354 -0.0948
19434W        W29127  17.042   9.685   1.913 -0.2533 -0.2137 -0.1773
19435W        W29128  16.939   2.967   2.240 -0.2773  0.2882 -0.4134
19436W        W29129   4.998  10.863   3.417  0.4558  0.1695 -0.1262
19437W        W29130   4.475  15.286  13.323  0.0588 -0.3259 -0.0192
19438W        W29131   5.941   8.218   0.197 -0.0433  0.0686  0.0163
19439W        W29132  10.735   7.469   3.795  0.0271  0.2315 -0.0420
19440W        W29133  12.501  10.029   1.746  0.2146 -0.0753  0.0398
19441W        W29134  16.356   6.534   6.112  0.1531 -0.1902 -0.2427
19442W        W29135  11.251  13.034  14.969 -0.1756  0.0813 -0.1395
19443W        W29136   8.082  13.503   2.250  0.0901  0.0050 -0.0144
19444W        W29137   2.758   5.913   4.673 -0.0655 -0.0165  0.0515
19445W        W29138   7.689   1.819  16.873 -0.1260 -0.0139 -0.1708
19446W        W29139  16.462   4.819   4.812  0.1194  0.1106 -0.3042
19447W        W29140  15.221   1.814   2.948  0.0543  0.1934  0.0592
19448W        W29141   4.803  12.251  14.391  0.0150 -0.0597 -0.0688
19449W        W29142   0.040  11.379   1.925 -0.1204  0.0025  0.0597
19450W        W29143   8.041  16.503  12.944 -0.1832  0.3040  0.2479
19451W        W29144  16.187   9.916  13.213  0.0810  0.0343  0.0513
19452W        W29145   5.905   4.861   4.074  0.3669 -0.1295 -0.1524
19453W        W29146   6.321   1.664  12.503 -0.1248  0.0791  0.1114
19454W        W29147  13.929   3.511   1.707 -0.1577 -0.0139  0.2422
19455W        W29148   4.497   8.954  17.298  0.3010 -0.5117 -0.2295
19456W        W29149  15.898  11.427  13.703  0.1926 -0.1499 -0.1741
19457W        W29150   1.517   4.568   1.109 -0.1492 -0.4158 -0.0826
19458W        W29151  10.971   1.853  14.324  0.0179  0.0150  0.0016
19459W        W29152  17.070   7.068   0.647 -0.1319 -0.2735 -0.0099
19460W        W29153  16.946  14.067  13.801  0.1312  0.0241  0.1988
19461W        W29154   5.328   1.004  16.841 -0.2231 -0.1066  0.0955
19462W        W29155   3.017  15.702  15.114 -0.2044 -0.1567 -0.2235
19463W        W29156  11.213   3.961  15.504  0.0978  0.3027  0.2268
19464W        W29157   8.258   0.925   4.541  0.1134  0.2239 -0.2347
19465W        W29158   0.212   2.941   4.232 -0.0042  0.0824  0.1611
19466W        W29159   5.484  10.292  11.234 -0.5265  0.0361 -0.1404
19467W        W29160  15.987  11.847   1.459  0.0793  0.2469 -0.1247
19468W        W29161   6.294   3.733  17.246 -0.1503  0.1433  0.1600
19469W        W29162   8.691   3.283   1.940 -0.3872  0.1465 -0.2558
19470W        W29163  10.601   9.204  15.006 -0.0491 -0.0361 -0.2446
19471W        W29164   7.765   5.256  14.593  0.0270  0.1042  0.2590
19472W        W29165   3.817  16.046   1.363  0.1867  0.0636  0.1867
19473W        W29166   3.459   6.505  11.538 -0.2318 -0.1821 -0.0562
19474W        W29167   0.296   9.150  13.903 -0.2352  0.3714 -0.3037
19475W        W29168  11.473   6.873   2.140 -0.0895  0.1231  0.1608
19476W        W29169  15.662  11.407  16.002 -0.2379 -0.2444  0.0738
19477W        W29170  14.650  17.458   5.074 -0.3092  0.1530 -0.1687
19478W        W29171  13.003  10.430  16.451  0.0473 -0.1149  0.2381
19479W        W29172   9.037   1.976  12.047  0.1843  0.2012 -0.1121
19480W        W29173  16.457   3.129   4.031  0.0060  0.2231 -0.0947
19481W        W29174   2.804   5.330   2.171  0.1548  0.0301 -0.1330
19482W        W29175  13.247  13.640  15.033  0.1140 -0.1756  0.0814
19483W        W29176  15.132   4.864   0.109 -0.0410 -0.0555  0.1136
19484W        W29177   9.235   6.231   0.964 -0.0799 -0.0501 -0.1565
19485W        W29178  12.914  15.561   2.170  0.1165 -0.0179 -0.0666
19486W        W29179   4.710  14.030   3.288 -0.0366 -0.3390 -0.2596
19487W        W29180  16.565  15.843   5.182  0.0632 -0.1533  0.0643
19488W        W29181  11.132  11.497  14.713 -0.2113 -0.1072 -0.3282
19489W        W29182  17.335   6.173   3.035 -0.1083  0.0668 -0.2577
19490W        W29183   1.245   4.170   1.013 -0.2273  0.1961 -0.0099
19491W        W29184  10.188   8.956  14.913 -0.0265 -0.0754  0.1076
19492W        W29185  12.467  15.865   5.642  0.0597 -0.2779  0.1511
19493W        W29186   7.291  10.437  13.377  0.0651  0.0251 -0.0896
19494W        W29187   0.637  16.563   4.033 -0.0306  0.0773 -0.0866
19495W        W29188  12.773   8.861   4.784 -0.2997 -0.2182 -0.0743
19496W        W29189   1.168  15.372  17.192  0.0425  0.1045  0.0040
19497W        W29190  14.728  16.431  14.282 -0.1875 -0.3477  0.1349
19498W        W29191  12.062  14.670  13.894 -0.0049 -0.1798 -0.0233
19499W        W29192   8.825   9.176  14.908  0.1999 -0.0423  0.0691
19500W        W29193  13.250  10.472   0.751  0.2176  0.0195 -0.1635
19501W        W29194   0.137   4.315  12.188  0.0898  0.0065  0.0184
19502W        W29195  11.570  16.145  16.382 -0.1907  0.1428  0.2026
19503W        W29196  12.232   5.684  16.023  0.2004 -0.2696  0.1310
19504W        W29197   6.140  12.715   4.458 -0.1445  0.0207 -0.2395
19505W        W29198   5.903   0.698  13.746 -0.1623 -0.1658  0.2332
19506W        W29199  10.323  16.373   6.134  0.1657 -0.0398 -0.0575
19507W        W29200   4.813  11.831   4.123  0.0505 -0.0365 -0.2551
19508W        W29201  14.053  13.827  14.193  0.2898  0.2986 -0.1685
19509W        W29202   3.007   1.132   5.139  0.1704 -0.0266 -0.3715
19510W        W29203  10.015   5.815   0.151  0.2079  0.2036  0.0657
19511W        W29204   0.999   8.493  14.260 -0.3435  0.3337  0.1635
19512W        W29205   8.130   0.721  11.858 -0.4573 -0.0880  0.0387
19513W        W29206   4.572  16.090   3.944  0.0732  0.1311  0.3343
19514W        W29207   4.430   6.958   0.666  0.0558  0.0034 -0.3590
19515W        W29208  10.173   6.750   3.542  0.0344  0.0957 -0.3444
19516W        W29209  12.759  17.675  16.190 -0.2162  0.1370  0.0894
19517W        W29210  12.627   5.521   0.614 -0.0819 -0.4136  0.1823
19518W        W29211   9.363   5.948  13.092 -0.2625 -0.0217  0.2367
19519W        W29212  17.339  12.892  16.337  0.5071 -0.1715  0.1371
19520W        W29213  10.152   5.944  11.439 -0.0872  0.0604  0.0247
19521W        W29214   0.885   0.635   3.303  0.1016  0.2006 -0.3564
19522W        W29215   3.840   9.740  14.868  0.0574  0.1266 -0.0814
19523W        W29216   3.628   6.089  17.483 -0.1328  0.0150  0.1169
19524W        W29217   8.709   6.685   2.834  0.0467  0.1186 -0.0401
19525W        W29218   0.234  17.359  13.884  0.0034 -0.0730 -0.1598
19526W        W29219  11.441   9.221  13.128  0.1126  0.0428  0.1400
19527W        W29220   9.810   8.729   5.688 -0.0411 -0.1570 -0.0409
19528W        W29221  16.121   9.027   6.283 -0.1049  0.0451 -0.0146
19529W        W29222  13.511  13.559   5.953 -0.3091 -0.2264  0.2810
19530W        W29223  15.167   6.700   1.618 -0.2259  0.0100  0.2024
19531W        W29224   6.772  16.351  15.970 -0.5501 -0.2219  0.0143
19532W        W29225   1.357  10.143   3.834 -0.1295 -0.0052 -0.0820
19533W        W29226  14.581   1.595   1.349  0.0070  0.2411  0.1292
19534W        W29227  10.404   6.724   1.966  0.3231 -0.1709 -0.1703
19535W        W29228   3.865   7.809  16.405 -0.0114  0.0456  0.2005
19536W        W29229  15.088  16.925  13.051  0.1796 -0.0153  0.0324
19537W        W29230   5.788   8.827   4.963  0.0544  0.1105 -0.2688
19538W        W29231  15.996  11.739   0.251 -0.0946 -0.0976 -0.3185
19539W        W29232   4.944  13.107   4.301 -0.0307  0.0070  0.0359
19540W        W29233  15.795  10.250  13.008  0.0033  0.2682  0.1076
19541W        W29234  11.218   3.318   0.887  0.0419 -0.0737  0.3661
19542W        W29235  11.897  11.999   1.700 -0.0562  0.2063 -0.0631
19543W        W29236   1.472   7.861   3.382  0.0050  0.1506  0.1012
19544W        W29237   8.841  16.017  16.490 -0.1153 -0.3437  0.3808
19545W        W29238  11.219   1.002  12.932  0.0825 -0.0182  0.0175
19546W        W29239   1.191  12.844  13.581 -0.2548 -0.1012  0.1121
19547W        W29240   6.124   4.986  15.742  0.0008  0.0793 -0.0061
19548W        W29241   8.200  16.554   5.383 -0.0501  0.0158 -0.0152
19549W        W29242  12.024   1.831   4.557 -0.0250  0.0182 -0.0277
19550W        W29243   1.775  12.823   3.060 -0.1230 -0.1837  0.2836
19551W        W29244   6.321   1.580   3.189  0.0875 -0.1368  0.3301
19552W        W29245   3.695  14.520   2.284  0.0266 -0.0987 -0.2738
19553W        W29246   3.499   8.078  16.601 -0.1891  0.0200 -0.0941
19554W        W29247   6.873   3.418  11.452  0.3255 -0.3722 -0.3177
19555W        W29248   6.059  13.203  17.563  0.0778  0.0306  0.2846
19556W        W29249   4.230  12.369  16.527  0.1467  0.2925 -0.1181
19557W        W29250  10.867  17.101  15.218  0.3969  0.0818 -0.1541
19558W        W29251   0.358   8.760  12.240  0.1598 -0.0505 -0.0788
19559W        W29252   5.527   6.395   0.532 -0.3120  0.0560 -0.3176
19560W        W29253   2.899   0.139   0.716  0.0731 -0.1363  0.0855
19561W        W29254  17.638   7.771  14.620 -0.1884  0.0712  0.1083
19562W        W29255   5.390   8.716  15.950 -0.0050  0.0802  0.0907
19563W        W29256   3.442   6.266  12.808  0.2222  0.0818  0.0772
19564W        W29257  14.182  17.560   3.858  0.4254  0.0441  0.1147
19565W        W29258  13.878  13.898  13.331  0.0107 -0.0733  0.0337
19566W        W29259  16.113   1.228  15.840 -0.0898 -0.3045 -0.0832
19567W        W29260  15.082   2.186  15.466 -0.0296  0.1498 -0.1388
19568W        W29261   5.688  11.228  17.593  0.1307 -0.0186 -0.0459
19569W        W29262   4.367   4.004  14.616 -0.0822  0.1166 -0.1236
19570W        W29263  14.044  11.262  15.100  0.2127  0.1564  0.0846
19571W        W29264  13.245  11.525  17.514 -0.0159  0.3912  0.0568
19572W        W29265  13.876  14.534  17.371 -0.1767 -0.2879  0.2379
19573W        W29266   2.955   8.347   4.764  0.0620 -0.0396 -0.2405
19574W        W29267   8.888  12.769   0.319  0.0289 -0.1395  0.0082
19575W        W29268  12.647   2.096   4.525  0.0347 -0.2078 -0.0941
19576W        W29269   7.659  13.199  16.007 -0.4322  0.2815 -0.2903
19577W        W29270   8.404   5.460  13.409 -0.0462  0.0371  0.1557
19578W        W29271   0.794   9.224  11.728  0.0551  0.1083  0.0440
19579W        W29272  12.401   4.131   3.455 -0.1482  0.0113  0.0931
19580W        W29273   0.004   0.076  14.793  0.0626 -0.0138 -0.0389
19581W        W29274   2.269  16.434   1.941 -0.2325 -0.0639  0.3482
19582W        W29275   8.969  15.698  13.492 -0.0018  0.4340  0.2348
19583W        W29276  16.531   0.015  15.259 -0.1114 -0.0105  0.0190
19584W        W29277  13.227   2.577  15.503  0.0476  0.0169  0.2959
19585W        W29278  17.035  17.093  14.495 -0.0582  0.3352 -0.1030
19586W        W29279  16.082  10.091  12.358 -0.2195 -0.3167  0.3599
19587W        W29280  14.834  15.312   4.878  0.1380  0.1792  0.0460
19588W        W29281  14.811   7.387   3.449 -0.0188  0.1580 -0.3633
19589W        W29282   5.371  15.674   4.825  0.0504 -0.2191  0.0871
19590W        W29283   7.808   7.381   1.935 -0.3520 -0.0908 -0.1435
19591W        W29284  11.062   1.516   3.118  0.0484 -0.1477  0.3954
19592W        W29285   2.406  16.495   6.126  0.1790  0.2576  0.5320
19593W        W29286   4.597  13.747  11.486 -0.2148 -0.2261 -0.1573
19594W        W29287   1.719  14.135  17.597 -0.1738 -0.3834  0.2033
19595W        W29288  15.138   2.378   1.606 -0.0484 -0.2290 -0.2659
19596W        W29289  10.480  13.303  12.650  0.1358  0.2171  0.2095
19597W        W29290  15.365   9.341   0.553  0.2351 -0.3438  0.2913
19598W        W29291  17.385   4.334   3.891 -0.1074  0.5254 -0.1164
19599W        W29292  13.991   7.348  13.539 -0.3119 -0.1773 -0.1149
19600W        W29293   0.798   6.343   3.298 -0.2084  0.1333  0.1166
19601W        W29294   4.617   2.220   3.129  0.0937  0.1920 -0.3013
19602W        W29295   7.492   4.710  16.139 -0.1252  0.0264  0.0591
19603W        W29296   1.134  15.414   4.755 -0.1188  0.0405 -0.0894
19604W        W29297  12.376  10.335  16.485 -0.1011  0.2140  0.0056
19605W        W29298   1.982   9.615  16.409  0.2168 -0.0686 -0.2904
19606W        W29299  11.589  16.698  15.891  0.1878  0.1882 -0.1221
19607W        W29300  17.674   5.137  13.359  0.0378 -0.1457  0.0437
19608W        W29301   4.304  15.736   2.675  0.0378 -0.1068 -0.0006
19609W        W29302   8.967   8.785   3.019  0.0826  0.1235 -0.0438
19610W        W29303   2.729  17.649   2.732  0.2856  0.0451 -0.0022
19611W        W29304  17.370  14.392   2.829 -0.3059  0.0903 -0.3216
19612W        W29305   6.024  15.751   4.920  0.1930  0.1847 -0.0864
19613W        W29306   3.090  15.716   5.939 -0.0618  0.0330 -0.0904
19614W        W29307  15.350   2.829  12.432  0.1069 -0.1480 -0.0736
19615W        W29308   1.640  11.572   3.050  0.1451  0.2141 -0.0702
19616W        W29309  13.426   8.245   2.930 -0.0566  0.0994 -0.1363
19617W        W29310   8.504   2.072   0.705 -0.0516 -0.0821 -0.0735
19618W        W29311  14.418   7.857   2.338 -0.0003 -0.0573  0.1275
19619W        W29312  13.259   4.746  16.164 -0.2309  0.3378 -0.2119
19620W        W29313   4.663   7.544   2.375 -0.1336 -0.0531  0.0903
19621W        W29314   7.297   6.655   5.392  0.0360  0.3088  0.1411
19622W        W29315  10.361   8.899   2.777 -0.0018  0.0012  0.1406
19623W        W29316   1.100  15.490  12.087 -0.1205  0.0842  0.0802
19624W        W29317  16.000   7.816  14.999 -0.0133 -0.2848 -0.0154
19625W        W29318  10.207   8.204  13.890 -0.0660  0.0948  0.3307
19626W        W29319   9.600   3.670  11.699  0.0709 -0.2327  0.0197
19627W        W29320   1.506   2.801   3.011 -0.0755  0.3965 -0.0564
19628W        W29321  13.689   3.051  15.154 -0.1380 -0.1571  0.0598
19629W        W29322   4.641   6.809   3.877 -0.0060 -0.1519  0.1825
19630W        W29323   3.385   0.770   6.272 -0.1298 -0.1975 -0.0242
19631W        W29324  10.756   1.742   2.741 -0.1921  0.1628 -0.0902
19632ION     NA29325   2.206  13.222   0.436 -0.0303 -0.0656 -0.3828
19633ION     NA29326  16.746   3.020  12.983  0.1419  0.1688  0.0812
19634ION     NA29327   0.113   2.043   6.500  0.0681 -0.0839  0.1126
19635ION     NA29328  12.614  11.054  11.524  0.4146  0.3280  0.1212
19636ION     NA29329   4.094  17.621   2.902  0.0062 -0.1653 -0.1368
19637ION     NA29330   8.601   0.003   6.548  0.0962  0.2040  0.0855
19638ION     NA29331   1.531   8.867   2.331 -0.3648 -0.2793  0.1766
19639ION     NA29332  17.198  17.577  11.142  0.2569 -0.0602  0.1324
19640ION     NA29333   9.161   4.939  10.915 -0.0054 -0.2500  0.2849
19641ION     NA29334  17.411   6.283  11.374  0.1521  0.0034  0.2127
19642ION     NA29335  16.965  15.384   4.561 -0.1336  0.0776 -0.2096
19643ION     NA29336  17.344   8.905  13.684  0.3437 -0.1522 -0.1380
19644ION     NA29337   4.201  12.029  17.246  0.2107 -0.1520  0.2928
19645ION     NA29338  10.193   1.125   2.577 -0.3733  0.0843 -0.1341
19646ION     NA29339   0.907  13.034  11.194 -0.3747  0.1668 -0.0970
19647ION     NA29340  16.344  16.483   6.778  0.3290  0.1643  0.1169
19648ION     NA29341   2.168   5.788  10.974  0.1163 -0.1270  0.3687
19649ION     NA29342   5.420  16.060  11.141 -0.0510  0.0298 -0.1139
19650ION     NA29343  12.516   0.946  11.064  0.0349  0.2734  0.2827
19651ION     NA29344   5.463   8.884   6.271 -0.1426 -0.0813  0.0498
19652ION     NA29345   4.745   7.260  10.656  0.0026  0.1887  0.0874
19653ION     NA29346   2.021  13.435  12.924  0.3953  0.0804 -0.1124
19654ION     NA29347  14.107   0.540  11.116  0.1288  0.1154 -0.2154
19655ION     NA29348  14.129   3.048  11.260  0.2655 -0.3653 -0.3243
19656ION     NA29349   8.883  10.255  11.415 -0.1094  0.0242 -0.0929
19657ION     NA29350   9.531  10.665  11.330 -0.0253  0.2185 -0.5186
19658ION     NA29351  15.208   2.097  11.169  0.3636  0.1063 -0.1269
19659ION     NA29352   3.895  17.141  10.980 -0.0761 -0.0899  0.0540
19660ION     NA29353   0.826  11.341   6.565  0.2693 -0.0079  0.0937
19661ION     NA29354   4.034   4.266  10.996  0.1540  0.2343 -0.1106
19662ION     NA29355   0.285   6.959   0.565  0.1269  0.3413 -0.1610
19663ION     NA29356   9.738   7.071   3.595 -0.0105 -0.1174 -0.0405
19664ION     NA29357   9.032  15.895  11.197  0.0522 -0.1140 -0.0610
19665ION     NA29358  16.209   8.587   6.779  0.0778 -0.0717  0.0856
19666ION     NA29359  16.272   8.236  14.995 -0.3174 -0.2080 -0.0156
19667ION     NA29360  17.071  10.400   6.990 -0.2053  0.4415  0.1993
19668ION     NA29361  13.708   8.753  13.821 -0.2445  0.0917  0.1674
19669ION     NA29362   7.407  17.248  11.308 -0.1711  0.1689  0.1114
19670ION     NA29363   1.561   3.949   6.917 -0.1217 -0.1163  0.1729
19671ION     NA29364  14.439  13.501  12.075 -0.1554 -0.1771  0.3989
19672ION     NA29365  16.643   6.790  11.400 -0.2250 -0.1962 -0.2368
19673ION     NA29366   1.372   1.941   6.645 -0.1669 -0.2405  0.0205
19674ION     NA29367  16.408   6.374  11.397 -0.3562 -0.1539  0.1705
19675ION     NA29368   6.526   5.716  14.736 -0.2581  0.1383 -0.1572
19676ION     NA29369   6.968   8.751  11.021 -0.1050 -0.1399  0.0625
19677ION     NA29370  13.254  14.400   7.301  0.4424 -0.3067 -0.1480
19678ION     NA29371   6.277   6.125  10.648 -0.1977  0.1039 -0.1508
19679ION     NA29372   3.061  15.002  16.068  0.3084 -0.0696  0.1509
19680ION     NA29373  15.297   8.970  11.664  0.0937 -0.1339 -0.2117
19681ION     NA29374  13.795   7.425   6.518  0.1234 -0.0150 -0.0554
19682ION     NA29375  15.786  16.439   6.698  0.0997 -0.0495  0.0118
19683ION     NA29376   4.894   4.773  10.864  0.2357 -0.0805 -0.0760
19684ION     NA29377  12.231  15.231  11.602 -0.2284 -0.0404 -0.0572
19685ION     NA29378  11.524  12.429  12.046 -0.1437 -0.0757  0.0507
19686ION     NA29379  12.008  13.879  14.555  0.0583  0.0623 -0.0638
19687ION     NA29380  10.876   3.055  11.179 -0.0659  0.3969  0.1846
19688ION     NA29381   6.962  16.653  10.939  0.5863  0.1164 -0.1865
19689ION     NA29382   3.092  16.091  15.525 -0.2396  0.4684  0.0479
19690ION     NA29383   3.160   1.556   0.187 -0.1501 -0.3479 -0.1477
19691ION     NA29384   7.750  13.381   1.431  0.1656  0.0555  0.1087
19692ION     NA29385  14.046  14.758  11.862 -0.1441  0.4683 -0.0368
19693ION     NA29386  14.698   4.378   0.283  0.2012  0.0676  0.0910
19694ION     NA29387   2.763   4.567   5.185 -0.2717 -0.0091  0.0018
19695ION     NA29388   9.124   1.354  11.056  0.2575 -0.0870 -0.0873
19696ION     NA29389  13.565  15.295  11.537  0.0634  0.1542 -0.0622
19697ION     NA29390  12.250   9.781   2.071 -0.2458 -0.0601 -0.0857
19698ION     NA29391  15.956  15.372   3.108  0.0865  0.0940  0.0656
19699ION     NA29392  17.161   9.576   6.742 -0.1635  0.1409 -0.2588
19700ION     NA29393  16.373  17.314   6.584  0.2329  0.0053  0.1518
19701ION     NA29394  17.265  13.611   1.262 -0.2645 -0.1402  0.2008
19702ION     NA29395   7.257   8.778  14.748  0.2063  0.2267  0.0799
19703ION     NA29396   3.668  11.032  10.816 -0.0470  0.1097  0.0547
19704ION     NA29397   4.337   2.592  11.150  0.0786  0.3952  0.0177
19705ION     NA29398   5.849   0.674  10.921  0.2018 -0.0992  0.2309
19706ION     NA29399  12.425   7.979  11.236 -0.1297  0.2553 -0.3358
19707ION     NA29400   2.664  14.253  11.242 -0.1948 -0.0945  0.1289
19708ION     NA29401   3.569   9.757  15.906  0.0324 -0.4309 -0.1061
19709ION     NA29402  12.665  10.513  11.988  0.2085 -0.1698  0.1349
19710ION     NA29403  10.659   0.901  11.100 -0.2128  0.1594 -0.1167
19711ION     NA29404  10.371   7.122   6.239  0.0976  0.1905 -0.1522
19712ION     NA29405   5.854  16.444  14.360  0.1198 -0.2517  0.1799
19713ION     NA29406   9.455   0.130  17.226  0.1515 -0.0151 -0.2125
19714ION     NA29407   9.724   5.223  12.990  0.0997 -0.2037 -0.2399
19715ION     NA29408   7.722  16.987  17.599  0.1132  0.2417 -0.1976
19716ION     NA29409  17.666  14.137  11.164 -0.1352 -0.0879  0.0788
19717ION     NA29410  13.365  11.642  12.702  0.5619 -0.2703 -0.1836
19718ION     NA29411  17.010   7.580   5.776  0.1731  0.1587 -0.1622
19719ION     NA29412   8.523  12.148   3.659 -0.3547  0.1385  0.0669
19720ION     NA29413   1.643   1.282  11.139 -0.0729  0.0235  0.1497
19721ION     NA29414   8.851  10.615   6.206 -0.2209  0.1918 -0.1874
19722ION     NA29415   9.225  11.850   4.814  0.1528 -0.0812 -0.3211
19723ION     NA29416   0.237   3.509  16.284 -0.2487 -0.2169  0.1516
19724ION     NA29417  10.981  13.331  11.684 -0.1344  0.2399  0.2068
19725ION     NA29418   9.445   2.419  10.768  0.2025 -0.0365 -0.1038
19726ION     NA29419   3.077  10.171   2.017  0.4610  0.0082 -0.3302
19727ION     NA29420   4.296   2.766  17.316  0.0982  0.0391  0.1687
19728ION     NA29421  15.445  12.379  12.169 -0.0770 -0.1707  0.0080
19729ION     NA29422   6.393   7.886  10.793  0.1024  0.0012  0.0545
19730ION     NA29423   2.343  12.430  11.138 -0.2928 -0.1348 -0.1139
19731ION     NA29424   3.041  11.028  16.197 -0.0051  0.1163  0.3730
19732ION     NA29425  11.841  10.249  11.531 -0.1722  0.4108 -0.2721
19733ION     NA29426  13.231  11.033   5.447  0.1865 -0.2508  0.2358
19734ION     NA29427   5.854  13.735  12.356 -0.1427 -0.2078 -0.2573
19735ION     NA29428   3.586   9.479  10.456  0.0961 -0.1774 -0.0559
19736ION     NA29429   0.734   9.712  11.141 -0.1764  0.0762 -0.0813
19737ION     NA29430  16.864   4.529  12.534  0.1609  0.1331  0.3049
19738ION     NA29431  12.889  17.211   3.873  0.0967  0.0403  0.0694
19739ION     NA29432  15.154   4.104   3.356 -0.1701  0.0206 -0.2210
19740ION     NA29433  14.654  17.483  11.133  0.1933 -0.4562  0.1458
19741ION     NA29434   3.880  14.395  11.134 -0.0725  0.0608 -0.0778
19742ION     NA29435   5.023   2.719   0.729  0.0351  0.1902  0.0708
19743ION     NA29436  11.187   5.276  11.734 -0.0426 -0.0052 -0.0712
19744ION     NA29437   2.094   2.500   7.027 -0.1915 -0.1153  0.0012
19745ION     NA29438   7.675  11.319  12.634 -0.0677  0.0384 -0.0084
19746ION     NA29439   0.625   3.497  10.971  0.0766 -0.0490  0.1104
19747ION     NA29440   0.655   8.742  11.106  0.0646  0.0132  0.1487
19748ION     NA29441   3.098  14.982  11.122 -0.1033  0.3074 -0.0633
19749ION     NA29442   5.870  13.397   6.319 -0.1714  0.1650  0.0094
19750ION     NA29443  16.899  15.589   1.024  0.1338  0.1232  0.0287
19751ION     NA29444  10.835   4.483  11.578 -0.1789  0.0555  0.0277
19752ION     NA29445   1.606  11.563   6.734 -0.0186 -0.0302  0.1742
19753ION     NA29446  10.437   9.637   6.982 -0.0617 -0.0425 -0.1595
19754ION     NA29447  17.652   6.799  12.543  0.3414  0.2785 -0.0261
19755ION     NA29448  15.394  15.183  11.595 -0.0160  0.3051  0.1202
19756ION     NA29449   7.840   9.699  15.786 -0.0418  0.0675  0.0799
19757ION     NA29450  14.434  17.205   6.745  0.0311 -0.0311  0.0055
19758ION     NA29451  13.057   1.755  11.067  0.1490 -0.0278 -0.3108
19759ION     NA29452  13.185   7.399   2.658 -0.1051  0.0123  0.0282
19760ION     NA29453   7.205  12.725  11.136  0.1484 -0.0544  0.1757
19761ION     NA29454  11.179  16.752  11.129  0.0742 -0.3977 -0.0814
19762ION     NA29455  10.973   0.199   6.786  0.3581  0.1655 -0.1722
19763ION     NA29456   1.862  12.101  10.927 -0.2244  0.2626 -0.1292
19764ION     NA29457   6.091  13.191   0.366  0.0072 -0.4282 -0.1755
19765ION     NA29458   6.986   3.644  10.732 -0.2760 -0.0930 -0.1438
19766ION     NA29459   2.297  12.646   6.547 -0.2437  0.2391 -0.2158
19767ION     NA29460  11.483   4.413  15.831  0.2370 -0.0888 -0.1045
19768ION     NA29461   8.127   5.146  10.679 -0.0514 -0.0428 -0.0863
19769ION     NA29462   5.566  17.265  11.053 -0.1516 -0.0130 -0.0491
19770ION     NA29463   2.280   0.150  11.244 -0.0609 -0.1281 -0.0519
19771ION     NA29464  14.738  10.954  11.605  0.1802 -0.1388  0.1346
19772ION     NA29465   4.138   2.871   5.173  0.1061 -0.0522 -0.1402
19773ION     NA29466   4.734   4.844   2.507 -0.1881 -0.2564  0.1383
19774ION     NA29467   7.224   7.200   2.847  0.0970 -0.0832 -0.1341
19775ION     NA29468   4.946  10.297   3.490 -0.1961 -0.1022 -0.0314
19776ION     NA29469  14.693   1.184  11.229 -0.0839  0.3360 -0.0754
19777ION     NA29470   4.918  14.049  11.018 -0.1009  0.3104 -0.1188
19778ION     NA29471  11.167   9.018  12.726 -0.2537 -0.2342 -0.5338
19779ION     NA29472   5.698   9.356  10.923  0.2704 -0.0219 -0.1220
19780ION     NA29473   6.751   5.847   1.058  0.1800 -0.4069  0.2192
19781ION     NA29474   0.210  10.001  13.743 -0.1287 -0.0579 -0.1289
19782ION     NA29475   7.347   8.694  12.784  0.0263 -0.0010  0.0070
19783ION     NA29476  10.020   6.812   1.496 -0.2989 -0.2613 -0.0373
19784ION     NA29477  13.960  16.184  11.337  0.2291 -0.1145  0.0446
19785ION     NA29478  13.438  11.662  11.493  0.1550 -0.0094  0.0207
19786ION     NA29479  16.344  13.034   7.075 -0.0121 -0.1556  0.4286
19787ION     NA29480  10.556  16.796  11.085  0.2152 -0.3538  0.2525
19788ION     NA29481  13.911   1.308  10.923 -0.2511  0.0232  0.1037
19789ION     NA29482  12.899  14.656   6.594 -0.1678 -0.0261  0.0693
19790ION     NA29483   3.355  17.010   0.906  0.0307 -0.0217 -0.0982
19791ION     NA29484   6.347  12.859  10.988  0.1722 -0.2323  0.2753
19792ION     NA29485  10.057  13.060  11.742  0.1307  0.2518 -0.1035
19793ION     NA29486  10.878   1.715  10.972 -0.0176  0.0363  0.0432
19794ION     NA29487  14.726   9.417  11.900 -0.0593 -0.2048 -0.1025
19795ION     NA29488   4.250   6.793   1.248  0.2273  0.1574  0.0312
19796ION     NA29489   3.346   2.427  12.456 -0.0176  0.1127  0.1687
19797ION     NA29490   9.973  11.627  11.631 -0.0521 -0.2625  0.0311
19798ION     NA29491  13.118   7.473   1.506 -0.0184  0.2651 -0.0185
19799ION     NA29492  12.013   5.348  11.389 -0.0006  0.1419  0.2155
19800ION     NA29493  17.488  13.220  11.508 -0.2136  0.2194 -0.2116
19801ION     NA29494   9.707   6.651   6.471  0.0667 -0.1271  0.0738
19802ION     NA29495   0.993   2.173   2.804  0.0026  0.2532 -0.0126
19803ION     NA29496  16.822   4.643  11.088 -0.3694  0.2922 -0.1672
19804ION     NA29497   7.917  12.489   6.424 -0.0552  0.0654 -0.1197
19805ION     NA29498   6.106  15.117  10.661 -0.2253 -0.1771 -0.6287
19806ION     NA29499   7.895   3.801  10.782 -0.1369  0.1022 -0.2355
19807ION     NA29500   8.011  15.981  11.427  0.2006  0.2433 -0.3706
19808ION     NA29501   3.831   8.800  11.178 -0.0228  0.0177 -0.1882
19809ION     NA29502  13.101   4.175  11.289 -0.0032  0.1398 -0.0333
19810ION     NA29503   5.188   5.162  10.723  0.2576 -0.4097  0.0101
19811ION     NA29504   8.323  15.340  11.138 -0.2631  0.2650 -0.2334
19812ION     NA29505   5.937  13.124   6.782  0.4740  0.1628  0.0236
19813ION     NA29506  17.509   6.864  16.849  0.1390  0.2422 -0.1493
19814ION     NA29507   0.279   2.489  10.930 -0.0853  0.0725 -0.0747
19815ION     NA29508   1.826   2.157  11.124 -0.4764  0.3153 -0.3183
19816ION     NA29509   2.410   8.555  10.888 -0.0429  0.1162  0.2881
19817ION     NA29510  16.155   9.414  11.594 -0.0626 -0.0444 -0.0746
19818ION     NA29511   1.460  13.812   2.537  0.1188 -0.2471 -0.0142
19819ION     NA29512  11.488   5.929  11.292  0.0417 -0.2157 -0.1358
19820ION     NA29513  13.918   4.715  11.340  0.1007 -0.1025 -0.0269
19821ION     NA29514  10.345   4.752   6.592  0.2741 -0.2226 -0.0119
19822ION     NA29515   8.417   8.467  10.981  0.0803 -0.1583  0.0964
19823ION     NA29516  10.264   3.114   1.416  0.2062 -0.2336  0.2179
19824ION     NA29517  13.562  16.987   6.823  0.4198 -0.0549  0.0704
19825ION     NA29518   5.952  10.879  12.548  0.0837 -0.1015  0.2655
19826ION     NA29519  10.341  13.535   3.216 -0.3148 -0.1686  0.0525
19827ION     NA29520   9.369  12.445   1.858  0.1772 -0.1065 -0.2660
19828ION     NA29521  17.260  11.868  11.563 -0.2103  0.0874 -0.1169
19829ION     NA29522   9.021  14.976   7.117 -0.0314 -0.0004 -0.2218
19830ION     NA29523  12.440  10.570  15.116 -0.1101 -0.3084 -0.0192
19831ION     NA29524   8.210   5.988  10.624  0.1625  0.1415 -0.1656
19832ION     NA29525   4.537   9.072  10.787 -0.1512  0.0646 -0.1964
19833ION     NA29526   6.490   8.604   6.276 -0.2908 -0.1122  0.0073
19834ION     NA29527  11.732   2.075  11.228 -0.4795 -0.1511  0.0358
19835ION     NA29528  15.660   6.839  11.571 -0.0314 -0.1678 -0.3700
19836ION     NA29529   9.871   1.701  11.280 -0.3202  0.0212 -0.1296
19837ION     NA29530  10.071   8.265  14.469  0.4292 -0.3435 -0.1567
19838ION     NA29531  17.413   8.643   6.713 -0.2932  0.0381 -0.1049
19839ION     NA29532   2.701  15.224   6.976 -0.0034 -0.1816 -0.0742
19840ION     NA29533  14.915   8.229  11.580 -0.1427  0.0626  0.3037
19841ION     NA29534   9.522   8.705   6.652  0.0107  0.0353 -0.4682
19842ION     NA29535   1.140  14.434  12.837 -0.0526 -0.2260 -0.0570
19843ION     NA29536   0.853   4.264   6.674 -0.2181  0.0507  0.4172
19844ION     NA29537   2.474  15.549  11.237  0.2226 -0.0326  0.1417
19845ION     NA29538   4.643  11.410  10.812 -0.2212  0.0943 -0.1562
19846ION     NA29539   4.471  13.045  17.479 -0.3043  0.0456 -0.0835
19847ION     NA29540  13.021  10.575   1.670  0.0345  0.0352  0.2794
19848ION     NA29541   5.950   1.785   6.665 -0.0513 -0.2124 -0.0175
19849ION     NA29542  11.019   9.861  11.443  0.0041  0.1634 -0.1601
19850ION     NA29543  11.669   6.757  11.368 -0.1444  0.1148 -0.0662
19851ION     NA29544  11.681  14.732  11.730  0.1279  0.2202  0.1686
19852ION     NA29545   0.493  10.177   3.635 -0.2316  0.0817  0.2411
19853ION     NA29546   2.601   8.207   6.482 -0.2582 -0.0887  0.4514
19854ION     NA29547  11.074  11.556  11.930 -0.2023 -0.0273  0.3190
19855ION     NA29548  16.051   4.674  16.038 -0.1312  0.2513 -0.0280
19856ION     NA29549  15.835  11.367  11.894  0.1021 -0.1166  0.1711
19857ION     NA29550   9.919  10.371  12.202 -0.3249 -0.2043 -0.2152
19858ION     NA29551  10.206   2.407  13.175 -0.2414 -0.1856 -0.2692
19859ION     NA29552   9.638  16.737  11.119  0.0923  0.1385  0.0173
19860ION     NA29553   7.058  14.097  11.156  0.1449 -0.4690 -0.0339
19861ION     NA29554   8.001   6.926  10.739 -0.0399 -0.1642  0.1895
19862ION     NA29555   3.779  12.569   6.628 -0.0127  0.2020 -0.1587
19863ION     NA29556  13.129   9.083  11.497 -0.0664 -0.1650 -0.2157
19864ION     NA29557   7.058  14.988  11.033  0.0079  0.3851 -0.0453
19865ION     NA29558   7.867  15.250   2.071  0.0782  0.0308 -0.0796
19866ION     NA29559  11.913  11.846  11.712  0.1207 -0.1978 -0.0191
19867ION     NA29560  14.714  16.556  11.486 -0.0565  0.3135 -0.1521
19868ION     NA29561  13.284  10.072  11.484 -0.1230 -0.0200  0.1215
19869ION     NA29562  12.071   0.057  11.327  0.1166 -0.0635 -0.1639
19870ION     NA29563  10.560  13.080  17.392  0.3357 -0.0809 -0.0946
19871ION     NA29564   0.506  14.867  11.143 -0.2861 -0.0474 -0.0234
19872ION     NA29565  12.994  14.568  11.769 -0.0420 -0.0378  0.1208
19873ION     NA29566   1.825  17.168  10.915 -0.1271  0.1528  0.0380
19874ION     NA29567  14.031  11.049   6.297  0.2494  0.1115  0.4174
19875ION     NA29568   9.999   7.576  11.068  0.1845  0.1002 -0.1383
19876ION     NA29569   3.151   4.618  10.835  0.2582  0.0287 -0.1166
19877ION     NA29570  14.811  14.147  11.713  0.1070 -0.1767 -0.1786
19878ION     NA29571   7.996  17.047  11.646 -0.1701  0.1662 -0.1366
19879ION     NA29572   9.957  11.362  15.828 -0.0144  0.3380  0.0751
19880ION     NA29573  15.976   7.811   0.058  0.1253 -0.0364 -0.1463
19881ION     NA29574   9.963  15.859  11.278  0.1604 -0.2003 -0.1337
19882ION     NA29575   3.434  17.158  12.418  0.0446  0.2511  0.2639
19883ION     NA29576  16.441  14.834  11.685  0.0424  0.0200  0.2009
19884ION     NA29577  11.758   9.484   5.433  0.0399  0.0289 -0.0478
19885ION     NA29578  13.380   0.365   2.109 -0.0151  0.1856 -0.0227
19886ION     NA29579   6.069   5.284  10.904  0.1315 -0.2229 -0.4101
19887ION     NA29580   8.607  15.089  11.610 -0.0114 -0.1876  0.0320
19888ION     NA29581   5.830  11.680  10.986  0.0201 -0.0612 -0.2461
19889ION     NA29582  14.755   4.516  11.162 -0.1934  0.0070 -0.2722
19890ION     NA29583   1.011   7.276  10.900 -0.0948  0.2110  0.0088
19891ION     NA29584  17.274   3.338   3.938  0.2738  0.1881 -0.2604
19892ION     NA29585  10.306   9.409  11.256 -0.1502 -0.0072  0.0573
19893ION     NA29586   0.255   9.310  15.000 -0.2688 -0.1959  0.3206
19894ION     NA29587   0.110  16.099   2.276  0.0653 -0.0810  0.3434
19895ION     NA29588  11.015  13.590   2.806  0.4777 -0.1084 -0.1929
19896ION     NA29589  14.206  12.469  11.624  0.1975  0.2333 -0.0269
19897ION     NA29590  16.982   1.020  12.750  0.1056 -0.2407 -0.6098
19898ION     NA29591  16.765   8.769  11.793  0.0666 -0.0254 -0.2059
19899ION     NA29592  13.027   0.052  11.354  0.2778  0.1109  0.0044
19900ION     NA29593  11.266  16.289  11.050  0.1624 -0.0747 -0.0887
19901ION     NA29594   8.552   9.232  11.891  0.1193 -0.0033  0.0155
19902ION     NA29595   1.864  12.517   4.660  0.0465 -0.1565 -0.0459
19903ION     NA29596  16.737  10.179  11.424  0.2949  0.5173 -0.1877
19904ION     NA29597   7.006   1.068  11.062  0.1256  0.0638 -0.0850
19905ION     NA29598   5.455   3.829   1.290 -0.3070  0.0488  0.2438
19906ION     NA29599   4.721   3.273   0.174  0.4885  0.3924  0.0932
19907ION     NA29600  12.453   2.503  11.213  0.1164  0.1707 -0.3467
19908ION     NA29601   1.951   0.192   4.995  0.0068 -0.0037  0.2203
19909ION     NA29602   8.298   1.724  11.000  0.1063 -0.1203  0.0334
19910ION     NA29603  12.138  16.168  11.285  0.1515 -0.1047  0.2122
19911ION     NA29604   9.413   8.143  11.239  0.2478 -0.0751  0.1044
19912ION     NA29605   3.070  10.156  10.877  0.2441 -0.0328  0.0570
19913ION     NA29606   7.399   2.754  11.548 -0.0357 -0.2708  0.1038
19914ION     NA29607   1.386  15.055   4.473 -0.1412 -0.1086  0.2492
19915ION     NA29608   9.598  10.642  16.333  0.1158  0.0468  0.2192
19916ION     NA29609  17.655  12.059  17.324 -0.1828 -0.1642 -0.0095
19917ION     NA29610   6.319  14.531  10.890  0.1180 -0.0802  0.1578
19918ION     NA29611   4.191  10.124   5.590 -0.0687 -0.1025 -0.3637
19919ION     NA29612   7.226  10.578  11.074  0.4291  0.1881  0.2283
19920ION     NA29613   6.187   8.511  10.835  0.1571 -0.2114 -0.2684
19921ION     NA29614   2.579  16.920   6.464  0.2301 -0.1429 -0.2086
19922ION     NA29615  14.041   2.746   6.569  0.0652  0.0613  0.1012
19923ION     NA29616  10.164  14.949  11.557 -0.2385  0.0663 -0.0864
19924ION     NA29617  11.548   9.448  11.264 -0.3955  0.1101  0.3411
19925ION     NA29618   7.820  14.461  11.309  0.0316 -0.0329  0.0919
19926ION     NA29619  14.625  11.492  13.421 -0.2923 -0.0214  0.1372
19927ION     NA29620   4.608  17.499  12.801 -0.0249 -0.1563  0.2211
19928ION     NA29621  11.988  17.149  14.264 -0.0821 -0.1990  0.0141
19929ION     NA29622   5.526   8.143  11.191 -0.0910  0.1130  0.1926
19930ION     NA29623   9.139   6.927   2.107 -0.2717 -0.0298  0.0264
19931ION     NA29624   2.369   4.981  10.787  0.0308 -0.1770 -0.1986
19932ION     NA29625   3.261   8.737  10.547  0.3049 -0.2994  0.3562
19933ION     NA29626  17.405  13.171   7.023 -0.1189 -0.0541  0.0508
19934ION     NA29627   6.758  11.998  10.987 -0.1207  0.0826 -0.0524
19935ION     NA29628   0.166   6.587  15.426 -0.1709 -0.1444 -0.0389
19936ION     NA29629   0.166   0.811   5.665 -0.0824 -0.2777 -0.0706
19937ION     NA29630  17.219   8.599  16.553  0.0511 -0.1831 -0.1882
19938ION     NA29631  16.533   7.762   6.685  0.0446 -0.0320  0.2245
19939ION     NA29632  16.922   8.747  13.116  0.2222 -0.3062  0.1505
19940ION     NA29633  17.572  10.142  11.185 -0.0892  0.1119  0.1420
19941ION     NA29634   1.565   3.861  15.918  0.1815 -0.0126 -0.2522
19942ION     NA29635   5.899  17.082   6.850 -0.2655 -0.0457 -0.0241
19943ION     NA29636   7.848   7.884  10.592  0.1974 -0.0494  0.3214
19944ION     NA29637   3.561  15.170  14.120 -0.4154 -0.1094  0.2972
19945ION     NA29638   9.817   0.729  11.084  0.6128 -0.4484  0.1054
19946ION     NA29639   4.893   1.054   1.177 -0.3084 -0.1618 -0.0598
19947ION     NA29640   4.522   7.514   0.467  0.0904 -0.2623  0.3284
19948ION     NA29641  13.940   1.811  10.931  0.1796  0.2993  0.1332
19949ION     NA29642  16.067   2.011  10.939 -0.0199 -0.2878 -0.1618
19950ION     NA29643   4.566   0.802  10.797  0.0558  0.0645  0.1645
19951ION     NA29644  14.850  11.879  11.714 -0.0792 -0.0156  0.0108
19952ION     NA29645   7.434  10.717   4.483 -0.0005 -0.1090 -0.3293
19953ION     NA29646   1.567   3.407  11.137 -0.1797  0.3996  0.0604
19954ION     NA29647   0.625   6.402  17.123 -0.1224  0.0883  0.3110
19955ION     NA29648  10.109   2.159   6.588 -0.2093 -0.0931  0.0290
19956ION     NA29649  13.290   5.535  11.325 -0.0932 -0.1551  0.0192
19957ION     NA29650   6.613   6.991  10.792 -0.0838  0.1017 -0.0061
19958ION     NA29651   2.828  13.164  11.129 -0.2164 -0.0702  0.1144
19959ION     NA29652  14.047   6.924  11.442  0.3593  0.2249  0.1524
19960ION     NA29653   8.952   0.496  11.031  0.0680 -0.0941  0.3467
19961ION     NA29654  13.845   4.524   6.568  0.0010  0.0278  0.1598
19962ION     NA29655  17.256   3.855  11.409  0.2045  0.1450  0.0132
19963ION     NA29656   4.620  13.192  10.803 -0.0914 -0.0727 -0.2153
19964ION     NA29657  14.799   4.352  13.809 -0.3963  0.1682  0.0459
19965ION     NA29658  10.207  13.853  11.708  0.0590 -0.2359 -0.1612
19966ION     NA29659   6.905   5.404  10.952  0.2913 -0.0808  0.1272
19967ION     NA29660   8.695  16.716  11.149 -0.0208  0.2121 -0.0299
19968ION     NA29661   4.048   9.686   2.819  0.5435 -0.0920  0.0599
19969ION     NA29662   8.645   9.611   4.722 -0.1410  0.1436 -0.0825
19970ION     NA29663   6.032  11.234   5.850 -0.1720 -0.1582  0.2238
19971ION     NA29664   4.060  14.048  11.959  0.2913 -0.2474  0.0334
19972ION     NA29665   6.189   0.047   6.394  0.2271  0.2185  0.0707
19973ION     NA29666  11.843  11.067  11.510 -0.2415  0.1287  0.2314
19974ION     NA29667  11.646   4.610  11.447  0.0431  0.0288  0.1018
19975ION     NA29668  12.923  15.943  11.334  0.2046  0.3011  0.0052
19976ION     NA29669   6.835   9.972   4.615 -0.0786 -0.0228 -0.1643
19977ION     NA29670   0.342  11.028  11.482  0.1366  0.1371 -0.1596
19978ION     NA29671   0.478  14.885   6.740  0.0954  0.2620  0.1093
19979ION     NA29672   7.295  17.169   6.499 -0.2253  0.4141  0.0909
19980ION     NA29673   5.796  16.202  16.073  0.1830 -0.1881  0.0234
19981ION     NA29674  10.723  14.611   2.396 -0.0062  0.3370 -0.0608
19982ION     NA29675  12.169  13.842   3.814 -0.2723 -0.0374 -0.0555
19983ION     NA29676   4.907   8.395   6.613  0.1141  0.1514 -0.4388
19984ION     NA29677   6.373   1.203  12.405 -0.0139  0.1755  0.0928
19985ION     NA29678  11.295   7.627   6.727 -0.1817 -0.0599 -0.1231
19986ION     NA29679   9.608  16.048   6.641 -0.0032  0.1251 -0.1399
19987ION     NA29680  11.881   0.659  11.115 -0.0753  0.1492 -0.0850
19988ION     NA29681  11.808  13.926  11.633 -0.0803 -0.0167  0.1667
19989ION     NA29682   5.192   7.834  12.793 -0.1278  0.2155 -0.2328
19990ION     NA29683   8.631  14.165  11.362  0.2836 -0.1061 -0.0661
19991ION     NA29684  14.687  10.206   2.211  0.1093 -0.0842 -0.1496
19992ION     NA29685   4.509  10.710  12.892 -0.0240 -0.1210  0.2576
19993ION     NA29686  15.650   6.738   6.370  0.3696  0.2496 -0.2051
19994ION     NA29687  15.561   0.213  11.058  0.0174 -0.0035 -0.2681
19995ION     NA29688  13.461   3.686   2.477  0.2434 -0.2381  0.1458
19996ION     NA29689   7.132  16.517   3.160  0.0076 -0.3369  0.1231
19997ION     NA29690   3.880  13.992  14.976  0.1599  0.1208  0.1754
19998ION     NA29691  15.794  13.754  14.491  0.4039 -0.0058  0.0172
19999ION     NA29692   1.566   6.336  10.917  0.0299 -0.1222 -0.0725
20000ION     NA29693   3.936  10.563   1.798  0.2473 -0.1578  0.2414
20001ION     NA29694  15.314   8.496   6.808 -0.0993 -0.0650  0.1977
20002ION     NA29695   6.987   5.823   6.502 -0.0787 -0.1004 -0.1161
20003ION     NA29696   7.099   9.101  16.019 -0.1547  0.1314  0.0739
20004ION     NA29697  15.218   3.548  11.291  0.3044 -0.0367  0.3263
20005ION     NA29698   5.632   1.492  11.147  0.0122  0.1539 -0.1184
20006ION     NA29699   5.426   5.908  11.001  0.1152  0.0146 -0.1204
20007ION     NA29700   3.228  16.286  10.995  0.0754  0.1763  0.1536
20008ION     NA29701   1.094  11.364  10.867  0.0320 -0.0256 -0.0349
20009ION     NA29702  13.929  13.783   0.032  0.1342 -0.1016  0.2485
20010ION     NA29703  11.648   7.732  11.258 -0.2685  0.1120  0.3302
20011ION     NA29704   5.067  12.794   5.697  0.0876 -0.3203  0.0482
20012ION     NA29705  16.450  11.960   7.027  0.3224  0.2300  0.3836
20013ION     NA29706   4.198   7.840   0.701 -0.0053  0.0879  0.1385
20014ION     NA29707   1.440   5.741   1.888  0.1984  0.0138  0.0639
20015ION     NA29708   9.366   6.593  10.812  0.2322  0.0370 -0.0297
20016ION     NA29709  17.361  16.316  11.312 -0.0214 -0.0108 -0.0832
20017ION     NA29710   9.580  11.077   7.030 -0.3657  0.1003  0.2941
20018ION     NA29711  13.680   7.973   6.424 -0.2475 -0.1077  0.1167
20019ION     NA29712   0.251  10.636   6.813 -0.0301  0.3739 -0.1833
20020ION     NA29713  13.357   2.608  11.199  0.0121  0.1735  0.1383
20021ION     NA29714   0.045   0.558  13.189 -0.1937 -0.3251  0.0082
20022ION     NA29715  16.244   5.365  11.125 -0.2409  0.3221 -0.1684
20023ION     NA29716  15.354  13.404  12.298  0.0834  0.1201  0.0215
20024ION     NA29717  13.197   6.585  11.286  0.2245  0.0536  0.0659
20025ION     NA29718   5.851  10.372   6.584 -0.1432  0.0999  0.2311
20026ION     NA29719   9.834   3.291  10.927 -0.0442  0.2886  0.1975
20027ION     NA29720   3.888   6.199  10.801 -0.0075 -0.1043 -0.0833
20028ION     NA29721  11.231  12.396   4.255  0.0487  0.0808  0.0089
20029ION     NA29722   0.497  10.180   1.825 -0.0166 -0.0781  0.2862
20030ION     NA29723  17.082   5.931  11.095 -0.0276 -0.2518 -0.0581
20031ION     NA29724  17.673   8.903  17.169 -0.1406  0.3061 -0.2307
20032ION     NA29725   0.691  16.915  12.227  0.0962 -0.0909 -0.0080
20033ION     NA29726  16.652   8.841   1.999 -0.0082 -0.3097 -0.0201
20034ION     NA29727   0.126   6.946  11.328 -0.0121  0.2508  0.1148
20035ION     NA29728   9.315   7.390   1.088  0.0190 -0.0244 -0.3364
20036ION     NA29729   0.697   0.957  11.010  0.0479  0.1317 -0.1223
20037ION     NA29730   0.558  12.772  17.166  0.2430  0.0729 -0.0892
20038ION     NA29731   1.507   0.480  11.049 -0.0963  0.0731 -0.1269
20039ION     NA29732   3.961   0.326  11.164 -0.0041 -0.0010 -0.0285
20040ION     NA29733   1.635  13.819  16.109 -0.3482  0.2749 -0.1250
20041ION     NA29734   2.872   2.325   5.870  0.0025 -0.0370 -0.1805
20042ION     NA29735   1.301   7.399  12.837  0.5046 -0.4660  0.0439
20043ION     NA29736  13.866  11.399  11.544  0.3771  0.0712  0.0741
20044ION     NA29737  14.139   8.755  11.500 -0.0877 -0.2782  0.1333
20045ION     NA29738   9.536   7.153  10.791 -0.0046  0.0669  0.0431
20046ION     NA29739  14.455   0.377   6.248 -0.1233  0.0654 -0.2279
20047ION     NA29740   1.533  12.051  13.867  0.0026  0.3545 -0.0011
20048ION     NA29741   5.536   5.563   3.403  0.1720  0.0344 -0.1312
20049ION     NA29742   3.387   5.385  10.791 -0.0593  0.1106  0.0068
20050ION     NA29743  16.371   0.797  10.924  0.0490  0.1498 -0.3080
20051ION     NA29744  16.040   7.150  13.985 -0.2371  0.0960 -0.0213
20052ION     NA29745  14.143  15.739   0.143 -0.1422  0.1782 -0.4209
20053ION     NA29746  16.469  12.068  11.700 -0.4837 -0.1142 -0.0095
20054ION     NA29747   3.501  11.241   4.472  0.2957  0.0349  0.2161
20055ION     NA29748  12.750   0.507   6.373 -0.2287  0.0736 -0.0031
20056ION     NA29749   3.335  13.524  11.286 -0.3436 -0.2854  0.2931
20057ION     NA29750   8.965   1.027   6.560 -0.1872  0.0063  0.1682
20058ION     NA29751   0.345  17.045  10.890  0.0223  0.0092  0.0957
20059ION     NA29752   3.973   4.118  12.646  0.3048 -0.0006 -0.4040
20060ION     NA29753   3.594   8.779   0.154 -0.1409 -0.1739 -0.1418
20061ION     NA29754  14.109  13.383  11.701  0.0140 -0.0706  0.0381
20062ION     NA29755  13.900   5.496  13.514 -0.3176 -0.1422  0.0177
20063ION     NA29756  15.501  16.256   0.116 -0.1851  0.0421  0.0611
20064ION     NA29757  13.512  15.655  12.297 -0.2505 -0.0474 -0.1028
20065ION     NA29758  11.852  13.400  11.926 -0.2085 -0.1026 -0.0839
20066ION     NA29759   1.450   4.618   4.414 -0.1980 -0.1110 -0.1500
20067ION     NA29760   8.564   7.003   0.598  0.1540  0.0809 -0.0311
20068ION     NA29761   1.785  13.041  11.033 -0.0715  0.1432  0.0044
20069ION     NA29762   2.707  17.046  10.808 -0.0757 -0.1780  0.1993
20070ION     NA29763   5.829   2.376  10.911  0.0724 -0.2482 -0.1513
20071ION     NA29764  16.908  17.300  12.587  0.0275  0.1677  0.1160
20072ION     NA29765   1.947  17.118   2.549  0.1997  0.0137 -0.3342
20073ION     NA29766   5.253   5.922   5.003  0.1360 -0.0095  0.1815
20074ION     NA29767   8.741   2.998  12.509  0.1851  0.0733  0.1351
20075ION     NA29768  12.844   3.741   6.275  0.1426  0.2024 -0.0940
20076ION     NA29769  14.172   5.279  11.195  0.0810 -0.0054  0.2862
20077ION     NA29770   7.972   9.965  11.350 -0.0003  0.1644  0.0361
20078ION     NA29771   2.067  16.295  10.855  0.2195 -0.1564  0.1308
20079ION     NA29772   3.884   2.792  11.106  0.1807  0.0433  0.1415
20080ION     NA29773   4.737   4.379   1.559 -0.3972 -0.0068  0.4494
20081ION     NA29774  10.821   7.389  12.409 -0.1133 -0.1531 -0.0291
20082ION     NA29775  16.918   2.862  11.245 -0.0653 -0.0367 -0.1887
20083ION     NA29776  17.450   8.113  12.009 -0.1031 -0.4686 -0.1063
20084ION     NA29777   4.983   0.954  10.925 -0.1016 -0.0230  0.1806
20085ION     NA29778   3.587   4.416   6.332  0.2004 -0.0307 -0.0998
20086ION     NA29779  16.670   6.577  15.757  0.0265 -0.1996  0.0629
20087ION     NA29780   8.078   8.512   6.168 -0.0943  0.0209  0.0508
20088ION     NA29781   3.206  11.918  10.849  0.0734  0.0317  0.1105
20089ION     NA29782  14.068   7.821  11.615  0.4204  0.1104  0.1803
20090ION     NA29783  10.291   2.405  11.022  0.1202  0.0635  0.2099
20091ION     NA29784   4.228   2.574  13.333 -0.0565 -0.2374 -0.0999
20092ION     NA29785  12.162  16.670  11.307 -0.4980  0.0915 -0.2990
20093ION     NA29786   3.130   9.058   6.472  0.1856  0.0533 -0.3114
20094ION     NA29787   7.718  12.104  11.280 -0.1421  0.1621  0.1388
20095ION     NA29788   5.413   6.520  10.894 -0.1902  0.1010 -0.2070
20096ION     NA29789   0.429   5.467  13.464  0.3386  0.0711 -0.1964
20097ION     NA29790   2.187  10.252  10.719  0.0077 -0.0371  0.0583
20098ION     NA29791  15.985   7.292  11.200  0.0246 -0.1162 -0.0964
20099ION     NA29792  10.259  10.968  14.772  0.3287 -0.2817  0.0954
20100ION     NA29793  17.248  17.608   6.235 -0.2082  0.2027 -0.0747
20101ION     NA29794  12.836   9.179   3.091 -0.1711 -0.1393  0.1386
20102ION     NA29795   4.172   6.321  16.577  0.4329 -0.2651  0.2176
20103ION     NA29796   9.024  11.513   2.836  0.2081 -0.3273 -0.1562
20104ION     NA29797   8.179  10.200  12.995 -0.0019  0.2258 -0.1843
20105ION     NA29798   2.648  11.144  10.771  0.1450  0.0562 -0.0015
20106ION     NA29799  13.188   7.344  11.332  0.0220  0.0173 -0.0776
20107ION     NA29800   8.879  13.202  15.658 -0.1889  0.0558 -0.0027
20108ION     NA29801  16.275  16.372  14.305  0.3628 -0.1332 -0.0329
20109ION     NA29802   5.148  16.926  10.954  0.0926 -0.0714  0.0163
20110ION     NA29803   6.357   4.882  13.032  0.3617  0.0496 -0.1925
20111ION     NA29804  17.188  16.467  11.801 -0.0903  0.3672  0.1225
20112ION     NA29805  16.939   3.765   6.362 -0.1102  0.1213  0.4749
20113ION     NA29806   9.684   4.302  10.987 -0.0479  0.0503  0.2783
20114ION     NA29807   7.591   2.295  14.806 -0.1466  0.1634  0.0676
20115ION     NA29808   1.872   9.006  17.475 -0.1514  0.2146  0.2715
20116ION     NA29809  14.064   4.286   5.247  0.0647 -0.1190 -0.1678
20117POPI    C129810   2.523  13.555  11.198 -0.0353 -0.3598 -0.1168
20117POPI    C229811   2.867  13.576  11.401 -0.0825 -0.3413 -0.0382
20117POPI    C329812   2.577  13.329  11.524 -0.2587 -0.0515  0.1402
20117POPI   PO429813   2.543  13.778  11.058 -0.3105  0.1454  0.3512
20117POPI   GL129814   2.832  13.893  10.706  0.2000 -0.0511  0.0979
20117POPI   GL229815   2.977  13.586  10.791 -0.2026  0.2254  0.0447
20117POPI   C1A29816   2.772  14.057  10.294  0.0797  0.1831  0.0598
20117POPI   D2A29817   2.820  14.275   9.923  0.1608 -0.2719 -0.2360
20117POPI   C3A29818   2.773  14.125   9.552 -0.2852  0.0630  0.0507
20117POPI   C4A29819   2.872  14.153   9.202  0.3930 -0.0322  0.1487
20117POPI   C1B29820   3.116  13.689  10.320  0.2299  0.2477  0.3892
20117POPI   C2B29821   3.144  13.769   9.896  0.2311  0.3063 -0.0556
20117POPI   C3B29822   3.215  13.799   9.412 -0.0220  0.0066  0.1459
20117POPI   C4B29823   3.546  13.923   9.082 -0.0969  0.1580  0.0721
20118POPI    C129824   7.608  13.108  11.141  0.0132  0.0603 -0.1172
20118POPI    C229825   7.898  13.381  11.175 -0.0871  0.1885 -0.2736
20118POPI    C329826   7.516  13.497  11.165 -0.1436  0.0222 -0.0919
20118POPI   PO429827   7.625  12.930  11.030 -0.3521  0.0998  0.1319
20118POPI   GL129828   7.331  12.970  10.726 -0.1882 -0.1201  0.0812
20118POPI   GL229829   7.271  13.329  10.797  0.2659  0.0765 -0.2147
20118POPI   C1A29830   7.446  13.173  10.320 -0.1566 -0.2937  0.1133
20118POPI   D2A29831   7.660  13.409  10.010  0.0821 -0.1845 -0.0594
20118POPI   C3A29832   7.586  13.622   9.638 -0.0914  0.0419  0.0525
20118POPI   C4A29833   7.439  13.555   9.173  0.5179 -0.3237 -0.2791
20118POPI   C1B29834   7.282  13.608  10.464 -0.1291  0.0898 -0.1503
20118POPI   C2B29835   7.226  13.772   9.971 -0.2852  0.0120 -0.3146
20118POPI   C3B29836   7.148  13.751   9.540  0.0903 -0.0263  0.1035
20118POPI   C4B29837   7.160  13.987   9.240  0.1547  0.1101  0.2407
20119POPI    C129838   0.525  11.445  11.760  0.1857 -0.0550 -0.3417
20119POPI    C229839   0.843  11.678  11.827 -0.1395  0.3767 -0.2577
20119POPI    C329840   0.522  11.704  12.064 -0.1044 -0.3180 -0.1136
20119POPI   PO429841   0.463  11.467  11.460 -0.1083 -0.3228  0.0121
20119POPI   GL129842   0.128  11.398  11.042 -0.1539 -0.0767 -0.2841
20119POPI   GL229843   0.188  11.636  10.887 -0.1325  0.0466 -0.2669
20119POPI   C1A29844  -0.108  11.162  11.048  0.0667  0.0532 -0.1584
20119POPI   D2A29845  -0.457  11.013  11.029  0.0526 -0.1527 -0.0271
20119POPI   C3A29846  -0.724  11.121  10.754  0.4733  0.0874  0.0105
20119POPI   C4A29847  -0.735  11.088  10.377  0.0295  0.1509 -0.1649
20119POPI   C1B29848  -0.062  11.438  10.525 -0.0426 -0.1404  0.2690
20119POPI   C2B29849  -0.112  11.584  10.141 -0.0357 -0.0335 -0.1343
20119POPI   C3B29850  -0.144  11.623   9.625  0.1665 -0.0412 -0.0935
20119POPI   C4B29851  -0.138  11.595   9.126  0.2187  0.0306  0.0252
20120POPI    C129852   6.683   6.444  10.910  0.1902 -0.0755 -0.1020
20120POPI    C229853   6.542   6.714  11.169  0.1550 -0.1637 -0.0282
20120POPI    C329854   6.665   6.357  11.300 -0.1656 -0.3302 -0.1696
20120POPI   PO429855   6.680   6.501  10.633  0.2979 -0.0055 -0.5462
20120POPI   GL129856   6.453   6.443  10.317  0.0448 -0.0740 -0.0626
20120POPI   GL229857   6.524   6.783  10.314 -0.0085  0.1669  0.2064
20120POPI   C1A29858   6.547   6.257   9.812  0.1556  0.0108  0.0350
20120POPI   D2A29859   6.528   6.179   9.350  0.2109 -0.1078  0.4166
20120POPI   C3A29860   6.558   6.244   8.820  0.1555 -0.2260  0.0216
20120POPI   C4A29861   6.385   6.531   8.393 -0.1714 -0.2836 -0.0407
20120POPI   C1B29862   6.538   6.863   9.876  0.5309  0.2303  0.0097
20120POPI   C2B29863   6.597   6.707   9.482  0.3628 -0.1031  0.0657
20120POPI   C3B29864   6.522   6.650   9.133 -0.0150 -0.0168 -0.1439
20120POPI   C4B29865   6.603   6.746   8.755  0.0825 -0.0807  0.1866
20121POPI    C129866   6.265   0.897  11.020  0.1725  0.2292  0.0829
20121POPI    C229867   6.219   0.758  11.392 -0.0657 -0.0293 -0.0399
20121POPI    C329868   5.977   1.045  11.254  0.0728  0.1220  0.0290
20121POPI   PO429869   6.456   1.015  10.989  0.0344  0.0808  0.0432
20121POPI   GL129870   6.506   1.388  10.785  0.2588 -0.0508  0.1040
20121POPI   GL229871   6.784   1.341  10.725  0.1288  0.0037  0.2101
20121POPI   C1A29872   6.206   1.522  10.379 -0.4298 -0.1398 -0.1268
20121POPI   D2A29873   6.411   1.707   9.976  0.2094 -0.0220 -0.1447
20121POPI   C3A29874   6.356   1.562   9.516  0.2635  0.3647 -0.0601
20121POPI   C4A29875   6.696   1.413   9.103  0.0788 -0.1085  0.0109
20121POPI   C1B29876   6.804   1.067  10.415 -0.0995  0.3895  0.2154
20121POPI   C2B29877   6.733   0.829  10.191  0.1931  0.1269  0.1544
20121POPI   C3B29878   6.641   0.684   9.683  0.0504 -0.0725 -0.0639
20121POPI   C4B29879   6.518   0.518   9.208  0.1612  0.0813 -0.1056
20122POPI    C129880   4.401  11.952  10.899  0.2274 -0.1313  0.0836
20122POPI    C229881   4.721  12.189  10.863  0.3196 -0.2597  0.0470
20122POPI    C329882   4.610  12.057  11.223  0.1028  0.0624  0.1027
20122POPI   PO429883   4.376  11.828  10.710  0.1684  0.0446 -0.2948
20122POPI   GL129884   4.551  11.700  10.237  0.3025 -0.1189 -0.1516
20122POPI   GL229885   4.557  11.426  10.314 -0.1093 -0.2026  0.1352
20122POPI   C1A29886   4.956  11.743  10.107  0.1004  0.2653 -0.0157
20122POPI   D2A29887   5.094  11.905   9.842  0.0104  0.3041  0.1457
20122POPI   C3A29888   5.492  11.895   9.884  0.3394  0.2110  0.0950
20122POPI   C4A29889   5.850  12.132  10.041 -0.0389  0.0287  0.2974
20122POPI   C1B29890   4.645  11.299  10.019  0.0361  0.2586  0.2616
20122POPI   C2B29891   4.786  11.360   9.616 -0.0142  0.3158 -0.1085
20122POPI   C3B29892   4.995  11.742   9.359  0.1601  0.0708 -0.3595
20122POPI   C4B29893   5.356  12.042   9.367  0.0542  0.1689 -0.3157
20123POPI    C129894   2.670  15.018  11.390  0.0275  0.1388  0.1211
20123POPI    C229895   2.630  14.872  11.760  0.2868 -0.0281  0.0858
20123POPI    C329896   2.836  14.667  11.485 -0.0832 -0.0086 -0.2141
20123POPI   PO429897   2.382  15.056  11.273  0.0232 -0.1100 -0.1292
20123POPI   GL129898   2.256  14.979  10.828  0.2346 -0.2367 -0.0780
20123POPI   GL229899   2.261  15.262  10.815  0.0634  0.0799  0.1033
20123POPI   C1A29900   2.086  14.840  10.490  0.3350  0.3640  0.1706
20123POPI   D2A29901   2.057  14.968  10.005 -0.0879  0.2002 -0.2656
20123POPI   C3A29902   1.811  15.226   9.699  0.0695  0.0060  0.1190
20123POPI   C4A29903   1.717  15.255   9.342  0.0077  0.0517  0.0300
20123POPI   C1B29904   2.456  15.087  10.421  0.2987  0.1371 -0.0147
20123POPI   C2B29905   2.544  15.000  10.081  0.1205  0.1485  0.1260
20123POPI   C3B29906   2.532  15.081   9.629  0.2148  0.0318  0.0508
20123POPI   C4B29907   2.397  15.323   9.235  0.1163  0.0811 -0.0327
20124POPI    C129908   4.424   7.549  10.894 -0.0602 -0.1507 -0.2201
20124POPI    C229909   4.035   7.578  10.980  0.0072  0.2656 -0.0297
20124POPI    C329910   4.271   7.341  11.199 -0.0575  0.3563  0.1395
20124POPI   PO429911   4.415   7.801  10.648  0.2342 -0.0965  0.1146
20124POPI   GL129912   4.432   7.574  10.260 -0.2922 -0.1827 -0.0475
20124POPI   GL229913   4.369   7.854  10.152  0.0368 -0.0494  0.0279
20124POPI   C1A29914   4.307   7.450   9.855 -0.1394 -0.2559  0.1551
20124POPI   D2A29915   4.520   7.467   9.470  0.0445  0.3246 -0.0853
20124POPI   C3A29916   4.519   7.312   9.017 -0.1245 -0.0422  0.0113
20124POPI   C4A29917   4.566   7.320   8.621 -0.0216  0.2046 -0.3199
20124POPI   C1B29918   4.271   7.931   9.690 -0.1572 -0.1409 -0.1706
20124POPI   C2B29919   4.406   7.936   9.255 -0.0335 -0.0303  0.1725
20124POPI   C3B29920   4.688   7.810   9.043  0.0263  0.0084  0.1217
20124POPI   C4B29921   5.071   7.862   8.805 -0.1034  0.0349 -0.3305
20125POPI    C129922   8.927   2.186  11.310  0.1256 -0.1786  0.0511
20125POPI    C229923   9.132   2.349  11.613  0.1922 -0.3068  0.0756
20125POPI    C329924   8.741   2.424  11.573  0.2391 -0.0741  0.0380
20125POPI   PO429925   9.089   2.253  11.107 -0.1577 -0.0981 -0.1932
20125POPI   GL129926   8.930   2.299  10.726  0.0252 -0.0153  0.3914
20125POPI   GL229927   9.124   2.041  10.649 -0.2027 -0.2160 -0.0463
20125POPI   C1A29928   8.791   2.241  10.343 -0.0599  0.0669 -0.1265
20125POPI   D2A29929   8.897   2.242   9.904 -0.1441 -0.1660  0.1230
20125POPI   C3A29930   9.000   2.140   9.512  0.4532 -0.4717  0.2019
20125POPI   C4A29931   9.202   2.110   9.071  0.0731  0.1809  0.0675
20125POPI   C1B29932   9.065   1.790  10.158  0.0646  0.1332 -0.1629
20125POPI   C2B29933   9.163   1.719   9.711  0.1091  0.0118 -0.0689
20125POPI   C3B29934   9.047   1.632   9.259 -0.0649 -0.0198 -0.0026
20125POPI   C4B29935   8.993   1.643   8.849 -0.4990 -0.0223 -0.0681
20126POPI    C129936   5.649   4.532  11.002 -0.1179 -0.0758  0.1360
20126POPI    C229937   5.749   4.905  11.103  0.0326 -0.1134  0.1277
20126POPI    C329938   5.990   4.600  11.200  0.1671 -0.1535 -0.3134
20126POPI   PO429939   5.390   4.609  10.877 -0.2175 -0.1511  0.0830
20126POPI   GL129940   5.125   4.731  10.452 -0.0753  0.3296  0.0577
20126POPI   GL229941   5.100   4.457  10.525  0.1337  0.4515 -0.2387
20126POPI   C1A29942   5.089   4.952  10.067 -0.1476 -0.0933 -0.0245
20126POPI   D2A29943   5.072   4.873   9.646  0.2167  0.3497  0.0294
20126POPI   C3A29944   5.311   4.616   9.398 -0.0937  0.0156 -0.1853
20126POPI   C4A29945   5.833   4.546   9.375  0.4753  0.0224 -0.1339
20126POPI   C1B29946   5.079   4.433  10.091  0.1824  0.0943  0.0836
20126POPI   C2B29947   5.072   4.286   9.663  0.2056  0.2040  0.0233
20126POPI   C3B29948   5.037   4.171   9.215 -0.0695  0.0010 -0.1047
20126POPI   C4B29949   5.127   3.927   8.896 -0.0496  0.3227 -0.0608
20127POPI    C129950   6.867  14.692  11.419 -0.1519 -0.0226 -0.0033
20127POPI    C229951   6.895  14.333  11.593  0.0306 -0.0338 -0.0536
20127POPI    C329952   6.621  14.596  11.719  0.1417 -0.0518  0.2327
20127POPI   PO429953   6.777  14.542  11.125 -0.1746 -0.1274  0.0944
20127POPI   GL129954   6.785  14.691  10.679  0.0034  0.0391 -0.1265
20127POPI   GL229955   6.524  14.773  10.507 -0.0583 -0.0373  0.4321
20127POPI   C1A29956   7.010  14.593  10.347 -0.0443 -0.1527  0.0889
20127POPI   D2A29957   7.044  14.192  10.109 -0.0579 -0.0620  0.0054
20127POPI   C3A29958   6.901  14.154   9.641 -0.1023  0.1461  0.1365
20127POPI   C4A29959   6.616  14.018   9.320 -0.1250  0.3636 -0.0360
20127POPI   C1B29960   6.342  14.829  10.108  0.1728  0.2286 -0.2474
20127POPI   C2B29961   6.274  14.888   9.665  0.1255 -0.1690 -0.0244
20127POPI   C3B29962   6.168  14.989   9.265  0.0664 -0.1627  0.2532
20127POPI   C4B29963   6.068  14.861   8.861  0.2036  0.2127  0.1161
20128POPI    C129964   6.023   1.820  11.354 -0.3502 -0.0923 -0.4350
20128POPI    C229965   6.168   1.501  11.161  0.0991 -0.1023 -0.0970
20128POPI    C329966   6.016   1.460  11.529  0.3159  0.0959  0.0170
20128POPI   PO429967   5.876   1.902  11.122 -0.2178  0.0256 -0.0479
20128POPI   GL129968   5.763   1.970  10.671  0.2090  0.0170 -0.1086
20128POPI   GL229969   5.736   1.654  10.606  0.0288  0.2446  0.2539
20128POPI   C1A29970   5.938   2.030  10.289 -0.4411 -0.2507  0.3770
20128POPI   D2A29971   6.089   2.077   9.797 -0.2981 -0.3277  0.1944
20128POPI   C3A29972   5.997   1.862   9.485  0.2166 -0.3716 -0.4613
20128POPI   C4A29973   5.972   1.918   9.111 -0.2034 -0.1741  0.1057
20128POPI   C1B29974   5.691   1.426  10.191  0.0264  0.1619 -0.1824
20128POPI   C2B29975   5.779   1.507   9.691 -0.1764  0.1357  0.1936
20128POPI   C3B29976   5.971   1.424   9.251  0.0276 -0.0267  0.0447
20128POPI   C4B29977   6.222   1.491   8.909 -0.0374 -0.0901  0.2789
20129POPI    C129978   7.998  11.825  11.608  0.1124 -0.2154 -0.2364
20129POPI    C229979   7.647  11.654  11.519  0.1271 -0.3086 -0.1182
20129POPI    C329980   7.785  11.645  11.895  0.1052  0.0067 -0.1000
20129POPI   PO429981   8.161  11.807  11.347  0.0199 -0.1636 -0.0499
20129POPI   GL129982   7.964  11.568  11.055  0.0737  0.1078 -0.0722
20129POPI   GL229983   8.095  11.322  11.216  0.0211  0.0134 -0.2754
20129POPI   C1A29984   7.898  11.365  10.679  0.1650  0.1282 -0.0025
20129POPI   D2A29985   7.846  11.453  10.290 -0.3280  0.0841  0.1136
20129POPI   C3A29986   8.065  11.468   9.821  0.0895  0.2159  0.1903
20129POPI   C4A29987   8.155  11.479   9.366 -0.4226 -0.0089  0.0758
20129POPI   C1B29988   8.405  11.444  10.840  0.1047 -0.2104  0.2733
20129POPI   C2B29989   8.336  11.457  10.450 -0.1254 -0.1184  0.1415
20129POPI   C3B29990   8.452  11.353  10.114  0.0805 -0.0439 -0.1311
20129POPI   C4B29991   8.589  11.536   9.773  0.0143 -0.3322  0.0676
20130POPI    C129992   1.410  17.359  10.949 -0.2116 -0.1107  0.1448
20130POPI    C229993   1.361  17.018  10.747  0.1893 -0.1401  0.0874
20130POPI    C329994   1.436  17.008  11.140  0.0030 -0.1076  0.1248
20130POPI   PO429995   1.325  17.506  10.903 -0.1880 -0.1211 -0.0261
20130POPI   GL129996   1.327  17.832  10.722  0.1883  0.0916 -0.0262
20130POPI   GL229997   1.554  17.928  10.535 -0.2026 -0.1612 -0.2654
20130POPI   C1A29998   1.125  17.866  10.316  0.0142 -0.1568  0.1345
20130POPI   D2A29999   1.166  17.659  10.006  0.0512  0.5880 -0.1850
20130POPI   C3A30000   1.123  17.650   9.479 -0.0658 -0.1586 -0.0374
20130POPI   C4A30001   1.216  17.596   9.039  0.1597  0.0184 -0.0321
20130POPI   C1B30002   1.652  17.769  10.061 -0.0439  0.3003  0.3252
20130POPI   C2B30003   1.548  17.650   9.691 -0.1124 -0.0112  0.0124
20130POPI   C3B30004   1.639  17.614   9.363 -0.0358 -0.3384 -0.2634
20130POPI   C4B30005   1.705  17.710   8.906 -0.1082 -0.1113 -0.0287
20131POPI    C130006   4.133   1.199  11.167  0.2692  0.0414  0.0922
20131POPI    C230007   4.331   1.004  11.455 -0.0397 -0.0123  0.2728
20131POPI    C330008   4.232   1.389  11.504  0.1248  0.0499  0.1303
20131POPI   PO430009   4.000   0.853  11.075  0.0528  0.0941 -0.0880
20131POPI   GL130010   3.965   0.736  10.619 -0.1904  0.1328 -0.2131
20131POPI   GL230011   4.087   0.389  10.609  0.1939  0.2118 -0.0362
20131POPI   C1A30012   3.942   0.906  10.300 -0.1805 -0.0335  0.1175
20131POPI   D2A30013   3.890   1.280  10.145  0.0676 -0.2698 -0.0036
20131POPI   C3A30014   3.688   1.176   9.693 -0.0102  0.4456 -0.0937
20131POPI   C4A30015   3.611   1.432   9.376  0.0469  0.1376  0.0571
20131POPI   C1B30016   3.946   0.465  10.151  0.2645 -0.0210  0.0971
20131POPI   C2B30017   3.842   0.585   9.638 -0.0355 -0.1027 -0.0026
20131POPI   C3B30018   3.799   0.705   9.281  0.3236 -0.3467  0.1150
20131POPI   C4B30019   3.686   0.641   8.918  0.5185  0.0277 -0.0332
20132POPI    C130020   8.656  14.678  11.863 -0.1177  0.1819 -0.0261
20132POPI    C230021   8.954  14.862  12.055 -0.1803  0.0970  0.1547
20132POPI    C330022   8.576  14.972  12.121 -0.2023  0.0671  0.0793
20132POPI   PO430023   8.779  14.581  11.615  0.0040 -0.3429  0.1737
20132POPI   GL130024   9.030  14.463  11.283  0.0058  0.1407  0.2449
20132POPI   GL230025   8.842  14.447  10.956 -0.0528 -0.1519 -0.1203
20132POPI   C1A30026   9.385  14.260  11.052  0.0437 -0.0515  0.2080
20132POPI   D2A30027   9.655  14.419  10.673 -0.0008 -0.0040  0.1252
20132POPI   C3A30028   9.746  14.376  10.247 -0.1183 -0.2670  0.1563
20132POPI   C4A30029   9.605  14.324   9.911 -0.1797  0.1298  0.1346
20132POPI   C1B30030   8.645  14.481  10.583  0.1246  0.5407  0.0542
20132POPI   C2B30031   8.775  14.356  10.222  0.3653  0.0582 -0.1409
20132POPI   C3B30032   9.052  14.298   9.766 -0.1454  0.1763  0.0160
20132POPI   C4B30033   9.289  14.046   9.470 -0.1209 -0.1118  0.0802
20133POPI    C130034   4.239  12.626  11.000  0.0134 -0.0313  0.0560
20133POPI    C230035   4.063  12.788  11.321 -0.1142 -0.2951  0.1220
20133POPI    C330036   4.322  12.486  11.365  0.0472 -0.1779 -0.0071
20133POPI   PO430037   4.119  12.776  10.774 -0.0293 -0.0056  0.2417
20133POPI   GL130038   4.348  12.938  10.472  0.2467 -0.0119 -0.0126
20133POPI   GL230039   4.618  12.933  10.384 -0.1355  0.1349 -0.2605
20133POPI   C1A30040   4.309  12.575  10.180 -0.0954  0.0401  0.0672
20133POPI   D2A30041   4.261  12.695   9.754  0.2265 -0.0088  0.0951
20133POPI   C3A30042   4.370  12.709   9.372 -0.0423 -0.0156  0.1341
20133POPI   C4A30043   4.368  12.694   8.937  0.0610  0.0649  0.0851
20133POPI   C1B30044   4.566  13.063   9.985 -0.1463 -0.1566  0.1340
20133POPI   C2B30045   4.670  13.115   9.528 -0.2398 -0.2084 -0.1461
20133POPI   C3B30046   5.063  13.334   9.210 -0.1094  0.0510  0.0024
20133POPI   C4B30047   5.338  13.439   8.843 -0.3164 -0.1637 -0.0352
20134POPI    C130048   5.948  12.567  11.190  0.2709  0.0205 -0.1592
20134POPI    C230049   6.285  12.662  11.383  0.1805  0.0463 -0.0114
20134POPI    C330050   5.931  12.749  11.546  0.1013 -0.0462 -0.1318
20134POPI   PO430051   5.912  12.594  10.816 -0.0366  0.0056  0.1256
20134POPI   GL130052   6.120  12.547  10.479 -0.0812 -0.0782 -0.0540
20134POPI   GL230053   6.367  12.657  10.545  0.3089 -0.0232 -0.1988
20134POPI   C1A30054   5.952  12.608  10.149  0.0654  0.0112 -0.0562
20134POPI   D2A30055   6.024  12.483   9.710  0.2028  0.2051  0.0432
20134POPI   C3A30056   6.359  12.300   9.427  0.1431 -0.0374  0.1656
20134POPI   C4A30057   6.573  12.200   9.024  0.4921 -0.0380  0.1772
20134POPI   C1B30058   6.400  12.845  10.152  0.0179  0.0084 -0.1228
20134POPI   C2B30059   6.479  12.646   9.824  0.0450  0.1328  0.1457
20134POPI   C3B30060   6.720  12.649   9.499  0.1309 -0.1379  0.0083
20134POPI   C4B30061   6.738  12.649   9.030  0.1934  0.0849  0.0338
20135POPI    C130062   6.374   4.699  10.891  0.1439  0.0819  0.2350
20135POPI    C230063   6.423   4.328  10.749 -0.0444  0.0216  0.3255
20135POPI    C330064   6.740   4.568  10.795  0.0434 -0.0255 -0.0099
20135POPI   PO430065   6.061   4.795  10.715 -0.2702  0.0586  0.0536
20135POPI   GL130066   5.931   5.137  10.479 -0.2481 -0.2926  0.2814
20135POPI   GL230067   5.643   5.060  10.613 -0.0590  0.0883 -0.0170
20135POPI   C1A30068   5.837   5.363  10.142  0.0396  0.2049 -0.3542
20135POPI   D2A30069   5.854   5.567   9.829 -0.2409 -0.0884  0.1137
20135POPI   C3A30070   5.880   5.496   9.485 -0.1142 -0.0926  0.1567
20135POPI   C4A30071   5.910   5.176   9.143 -0.0032  0.1875  0.0372
20135POPI   C1B30072   5.581   4.935  10.165  0.2005 -0.2482  0.2082
20135POPI   C2B30073   5.543   4.603   9.910 -0.1151  0.0905  0.0413
20135POPI   C3B30074   5.596   4.258   9.694  0.1792 -0.1488 -0.0861
20135POPI   C4B30075   5.556   4.170   9.231  0.0543 -0.3060 -0.0318
20136POPI    C130076   6.176   3.424  11.131 -0.0552  0.1683 -0.1404
20136POPI    C230077   6.565   3.382  11.048 -0.0524 -0.0078 -0.0444
20136POPI    C330078   6.388   3.133  11.305 -0.2131  0.1162 -0.0332
20136POPI   PO430079   6.088   3.476  10.893  0.1430 -0.0560 -0.0770
20136POPI   GL130080   5.872   3.755  10.649 -0.1036  0.0905 -0.0925
20136POPI   GL230081   5.631   3.751  10.484 -0.0430  0.1717  0.0793
20136POPI   C1A30082   6.198   3.900  10.413 -0.1863 -0.1551  0.0570
20136POPI   D2A30083   6.505   3.919  10.203 -0.1545  0.3153  0.2287
20136POPI   C3A30084   6.416   3.997   9.770 -0.0931 -0.0271  0.1063
20136POPI   C4A30085   6.409   3.839   9.369 -0.1008  0.0844  0.2875
20136POPI   C1B30086   5.521   3.497  10.137  0.2614 -0.3650 -0.1357
20136POPI   C2B30087   5.638   3.473   9.723  0.1697 -0.1262  0.0142
20136POPI   C3B30088   5.720   3.499   9.286  0.1483  0.0798  0.0157
20136POPI   C4B30089   5.562   3.633   8.916  0.3351  0.0742 -0.1440
20137POPI    C130090   8.620   1.334  11.097 -0.1566 -0.0377  0.2027
20137POPI    C230091   8.780   0.968  11.102  0.3245  0.1583 -0.1146
20137POPI    C330092   8.838   1.216  11.411  0.4430  0.1479 -0.1279
20137POPI   PO430093   8.644   1.387  10.848  0.0436  0.1538  0.0650
20137POPI   GL130094   8.734   1.435  10.465  0.1867  0.0223  0.0066
20137POPI   GL230095   8.999   1.540  10.579  0.5149 -0.0747 -0.0017
20137POPI   C1A30096   8.825   1.409   9.995  0.1353  0.1683 -0.0480
20137POPI   D2A30097   8.818   1.314   9.581  0.0793  0.4704 -0.2577
20137POPI   C3A30098   8.635   0.929   9.386  0.2047  0.0909  0.2729
20137POPI   C4A30099   8.530   0.678   9.091 -0.1277  0.0989 -0.1141
20137POPI   C1B30100   9.315   1.343  10.268  0.3034  0.0528 -0.4811
20137POPI   C2B30101   9.320   1.269   9.885  0.0499 -0.0100  0.0969
20137POPI   C3B30102   9.307   1.290   9.448 -0.1106  0.0678  0.0882
20137POPI   C4B30103   9.269   1.279   9.014  0.1368 -0.0482 -0.1402
20138POPI    C130104   3.661   7.269  10.957  0.0230  0.2219 -0.1140
20138POPI    C230105   3.494   6.996  11.197  0.0162  0.0278 -0.3356
20138POPI    C330106   3.784   7.234  11.335 -0.1791  0.1091 -0.0570
20138POPI   PO430107   3.478   7.469  10.795 -0.2665 -0.0696 -0.3786
20138POPI   GL130108   3.338   7.548  10.461 -0.4588  0.2320  0.3762
20138POPI   GL230109   3.491   7.577  10.173  0.2108  0.1321  0.3250
20138POPI   C1A30110   3.007   7.568  10.036  0.1263  0.2071 -0.1676
20138POPI   D2A30111   2.691   7.588   9.740 -0.1462 -0.2496  0.2595
20138POPI   C3A30112   2.664   7.598   9.320  0.0523 -0.2805 -0.0647
20138POPI   C4A30113   2.923   7.697   8.960 -0.5085 -0.1297  0.0060
20138POPI   C1B30114   3.403   7.462   9.815  0.0048  0.0876  0.0472
20138POPI   C2B30115   3.156   7.631   9.491 -0.0244  0.0906 -0.0295
20138POPI   C3B30116   3.413   7.751   9.062 -0.1776  0.1371  0.1380
20138POPI   C4B30117   3.691   7.862   8.661 -0.0536 -0.2022  0.2108
20139POPI    C130118   0.513  14.096  11.288  0.0956  0.0031  0.0851
20139POPI    C230119   0.352  13.789  11.088  0.3031 -0.0253 -0.0404
20139POPI    C330120   0.452  13.747  11.473 -0.1529  0.0480  0.0918
20139POPI   PO430121   0.485  14.367  11.065 -0.1473  0.0948  0.1396
20139POPI   GL130122   0.377  14.197  10.636 -0.0785  0.1067  0.2058
20139POPI   GL230123   0.055  14.028  10.610  0.0347  0.2057 -0.0023
20139POPI   C1A30124   0.314  14.294  10.135  0.0520  0.1355  0.1647
20139POPI   D2A30125   0.422  14.371   9.641 -0.1104 -0.0580  0.1356
20139POPI   C3A30126   0.125  14.374   9.314 -0.0720  0.0454 -0.1088
20139POPI   C4A30127  -0.130  14.668   9.034 -0.1111  0.0411 -0.0230
20139POPI   C1B30128   0.065  13.874  10.205 -0.0488 -0.1621  0.4322
20139POPI   C2B30129   0.047  14.075   9.791  0.1238  0.0577  0.0326
20139POPI   C3B30130  -0.241  13.957   9.513  0.0421  0.0595  0.0755
20139POPI   C4B30131  -0.673  13.943   9.239  0.3439 -0.3306 -0.2104
20140POPI    C130132   0.604   1.543  11.299 -0.1989 -0.1740 -0.0502
20140POPI    C230133   0.742   1.200  11.450  0.1480  0.0037  0.0484
20140POPI    C330134   0.516   1.441  11.676 -0.1936 -0.2082 -0.0583
20140POPI   PO430135   0.554   1.420  10.985 -0.2081 -0.1624  0.0734
20140POPI   GL130136   0.795   1.566  10.673 -0.2128 -0.0377  0.2343
20140POPI   GL230137   0.713   1.887  10.580 -0.0679  0.0575  0.1438
20140POPI   C1A30138   1.061   1.520  10.345  0.1579 -0.1762 -0.0060
20140POPI   D2A30139   1.114   1.594   9.994  0.2616 -0.0783 -0.0225
20140POPI   C3A30140   0.990   1.575   9.596  0.0052 -0.1662 -0.2074
20140POPI   C4A30141   1.131   1.399   9.200 -0.3415 -0.1589  0.1272
20140POPI   C1B30142   0.785   1.971  10.200 -0.0102  0.0129  0.1231
20140POPI   C2B30143   0.852   2.007   9.823 -0.4423 -0.2031 -0.0507
20140POPI   C3B30144   0.795   2.037   9.460  0.0037  0.0496  0.0452
20140POPI   C4B30145   0.966   1.957   8.940  0.0641  0.1839  0.1569
20141POPI    C130146   5.027  12.865  11.201  0.0969  0.1585  0.0905
20141POPI    C230147   4.645  12.886  11.316  0.0449 -0.0379 -0.0395
20141POPI    C330148   4.825  12.530  11.286  0.0536  0.0037 -0.5647
20141POPI   PO430149   5.028  13.001  10.983 -0.4118 -0.0358  0.2396
20141POPI   GL130150   5.135  13.158  10.585  0.1660  0.1581 -0.0324
20141POPI   GL230151   5.134  12.838  10.503  0.1620 -0.1017  0.0820
20141POPI   C1A30152   5.031  13.164  10.157  0.0324 -0.0878  0.4115
20141POPI   D2A30153   5.170  13.202   9.797 -0.1881 -0.1689 -0.2399
20141POPI   C3A30154   5.107  12.904   9.597  0.2340 -0.1828  0.1502
20141POPI   C4A30155   4.906  12.768   9.221 -0.1064  0.0372  0.2814
20141POPI   C1B30156   4.907  12.687  10.110  0.3556 -0.0498 -0.3084
20141POPI   C2B30157   4.798  12.521   9.658 -0.2713 -0.0824  0.1018
20141POPI   C3B30158   4.904  12.240   9.421 -0.0108 -0.0523 -0.1161
20141POPI   C4B30159   4.889  12.095   9.022  0.2405 -0.0786 -0.0515
20142POPI    C130160   3.917   9.904  10.720 -0.0354  0.0015  0.0644
20142POPI    C230161   3.681   9.749  11.003  0.1569 -0.2326  0.1001
20142POPI    C330162   3.536  10.021  10.748 -0.0378 -0.0731  0.3758
20142POPI   PO430163   4.057   9.741  10.602  0.0833 -0.2353  0.2069
20142POPI   GL130164   3.990   9.847  10.233 -0.1653 -0.0385 -0.0649
20142POPI   GL230165   3.681   9.932  10.266  0.0557  0.0823 -0.1079
20142POPI   C1A30166   4.259   9.923   9.973  0.2232 -0.1495  0.0575
20142POPI   D2A30167   4.144  10.000   9.598  0.2701 -0.0332 -0.2479
20142POPI   C3A30168   4.220  10.088   9.224  0.1960 -0.0839 -0.1603
20142POPI   C4A30169   4.221  10.321   8.804 -0.1988 -0.0137  0.0054
20142POPI   C1B30170   3.710   9.964   9.788  0.2707  0.0419 -0.1428
20142POPI   C2B30171   3.733  10.046   9.328 -0.2228 -0.0378  0.1092
20142POPI   C3B30172   3.795  10.069   8.856  0.2693  0.1893 -0.0093
20142POPI   C4B30173   3.612   9.850   8.462  0.2436 -0.1797  0.0061
20143POPI    C130174   3.261  12.426  11.299 -0.0283 -0.3096  0.0052
20143POPI    C230175   3.525  12.700  11.424 -0.1165 -0.1911 -0.0673
20143POPI    C330176   3.201  12.619  11.644 -0.3820  0.1703 -0.3133
20143POPI   PO430177   3.282  12.371  11.081 -0.3072  0.0449  0.0579
20143POPI   GL130178   3.271  12.389  10.641  0.1769 -0.0643  0.1190
20143POPI   GL230179   3.337  12.624  10.525  0.3670 -0.0708 -0.2179
20143POPI   C1A30180   3.205  12.177  10.273 -0.1244 -0.3841 -0.2415
20143POPI   D2A30181   3.186  12.300   9.844 -0.3060  0.2993  0.2875
20143POPI   C3A30182   3.298  12.429   9.364 -0.0567  0.2381  0.1452
20143POPI   C4A30183   3.298  12.192   9.003 -0.1158  0.1585  0.1206
20143POPI   C1B30184   3.334  12.818  10.188 -0.0900  0.0386  0.0184
20143POPI   C2B30185   3.289  12.803   9.747  0.1720  0.1199 -0.2526
20143POPI   C3B30186   3.441  12.886   9.329 -0.3535 -0.2948 -0.1231
20143POPI   C4B30187   3.473  12.812   9.003  0.2486 -0.0514 -0.1415
20144POPI    C130188   8.517  17.312  11.497  0.2344 -0.1883  0.1907
20144POPI    C230189   8.296  17.615  11.358  0.1285 -0.2885  0.1390
20144POPI    C330190   8.362  17.579  11.751 -0.0899 -0.3530  0.1706
20144POPI   PO430191   8.405  17.088  11.360 -0.0456  0.0479 -0.3089
20144POPI   GL130192   8.419  17.066  10.907 -0.1375  0.0998 -0.1921
20144POPI   GL230193   8.401  17.438  10.881  0.0489  0.0156  0.0545
20144POPI   C1A30194   8.679  16.906  10.536  0.2668 -0.0935 -0.1673
20144POPI   D2A30195   8.797  16.905  10.220 -0.2481  0.0113  0.0773
20144POPI   C3A30196   8.793  16.877   9.817 -0.0211  0.0513 -0.1547
20144POPI   C4A30197   8.899  16.719   9.381  0.1182  0.0630  0.3044
20144POPI   C1B30198   8.555  17.435  10.518 -0.2051  0.1019 -0.1184
20144POPI   C2B30199   8.717  17.500  10.050 -0.4355  0.0628 -0.0351
20144POPI   C3B30200   8.792  17.373   9.657  0.1183  0.1233  0.2607
20144POPI   C4B30201   8.852  17.314   9.183  0.0579  0.2033 -0.4918
20145POPI    C130202  14.196   1.085  11.466  0.0968 -0.0141  0.1830
20145POPI    C230203  14.138   0.709  11.591 -0.0751 -0.0065  0.1295
20145POPI    C330204  13.974   1.013  11.791 -0.1529  0.0221  0.0232
20145POPI   PO430205  14.204   1.062  11.234  0.1097 -0.1499  0.3352
20145POPI   GL130206  14.412   0.893  10.881  0.1328  0.0333  0.0425
20145POPI   GL230207  14.487   0.575  10.767  0.1705 -0.2988 -0.5121
20145POPI   C1A30208  14.718   1.069  10.523  0.2284 -0.0387 -0.1138
20145POPI   D2A30209  14.990   1.264  10.274  0.2266 -0.0516  0.0780
20145POPI   C3A30210  14.976   1.293   9.789  0.2678  0.3251  0.0684
20145POPI   C4A30211  14.943   0.963   9.424 -0.0778 -0.4762  0.4560
20145POPI   C1B30212  14.471   0.521  10.406  0.0248  0.1436  0.0240
20145POPI   C2B30213  14.296   0.367  10.024 -0.3951  0.1378  0.2447
20145POPI   C3B30214  14.219   0.292   9.571 -0.0138  0.2929 -0.3285
20145POPI   C4B30215  14.352   0.336   9.120  0.0795  0.0977  0.0267
20146POPI    C130216   7.916   8.325  10.969 -0.2376  0.0157 -0.2592
20146POPI    C230217   7.857   8.676  11.153  0.0267  0.0062 -0.1522
20146POPI    C330218   7.642   8.356  11.259 -0.0254  0.0710 -0.0614
20146POPI   PO430219   7.947   8.340  10.660  0.2091 -0.4463  0.1252
20146POPI   GL130220   8.256   8.517  10.430  0.0830  0.1103  0.2036
20146POPI   GL230221   8.671   8.617  10.562  0.1214 -0.0195 -0.2013
20146POPI   C1A30222   8.410   8.570  10.060  0.0938 -0.1482  0.0476
20146POPI   D2A30223   8.544   8.685   9.597  0.3875 -0.1564 -0.0332
20146POPI   C3A30224   8.724   9.088   9.453  0.0639 -0.0977 -0.2759
20146POPI   C4A30225   8.674   9.296   9.074  0.1009 -0.0592 -0.0876
20146POPI   C1B30226   8.987   8.733  10.213  0.1276 -0.0500  0.0111
20146POPI   C2B30227   9.045   8.744   9.811  0.2263 -0.0475 -0.4452
20146POPI   C3B30228   9.115   8.750   9.417  0.0158 -0.1053 -0.0386
20146POPI   C4B30229   9.061   8.994   9.093  0.0741 -0.1305  0.2485
20147POPI    C130230   1.408   4.669  11.211  0.1221 -0.0910  0.1219
20147POPI    C230231   1.037   4.522  11.243  0.1865 -0.2446  0.1773
20147POPI    C330232   1.176   4.778  11.518  0.0885 -0.1102  0.1034
20147POPI   PO430233   1.380   4.674  10.861  0.0037  0.3053  0.0093
20147POPI   GL130234   1.042   4.730  10.496  0.2338  0.1678  0.3269
20147POPI   GL230235   1.042   4.993  10.524  0.1698  0.1317  0.0220
20147POPI   C1A30236   1.245   4.758  10.105  0.0392  0.2395 -0.2399
20147POPI   D2A30237   1.347   4.708   9.590  0.3087  0.3195  0.1583
20147POPI   C3A30238   1.183   4.818   9.284 -0.0762  0.0328 -0.2785
20147POPI   C4A30239   1.050   5.000   8.921 -0.1104 -0.3669 -0.1940
20147POPI   C1B30240   0.884   5.154  10.241  0.3770 -0.0440  0.2561
20147POPI   C2B30241   0.899   5.069   9.762  0.1097 -0.0056 -0.0545
20147POPI   C3B30242   0.710   4.999   9.441 -0.3559 -0.2592  0.0101
20147POPI   C4B30243   0.648   4.784   9.054  0.4365  0.2333 -0.1431
20148POPI    C130244   3.947   4.904  11.167 -0.0247 -0.1945  0.0286
20148POPI    C230245   3.931   5.150  10.852 -0.1009 -0.1787  0.0446
20148POPI    C330246   4.264   4.942  10.927 -0.0168 -0.0388  0.0623
20148POPI   PO430247   3.624   4.806  11.084  0.0224 -0.0503 -0.3020
20148POPI   GL130248   3.540   4.909  10.644  0.1262  0.2127  0.1684
20148POPI   GL230249   3.619   4.639  10.503 -0.2301 -0.1481 -0.2384
20148POPI   C1A30250   3.792   5.109  10.329 -0.1012 -0.0242 -0.1278
20148POPI   D2A30251   3.652   5.238   9.843 -0.1426 -0.0656  0.0646
20148POPI   C3A30252   3.718   5.146   9.438  0.1074  0.0656 -0.1140
20148POPI   C4A30253   3.671   4.996   9.037 -0.1053 -0.1227 -0.1076
20148POPI   C1B30254   3.482   4.766  10.075  0.2044  0.0072 -0.0621
20148POPI   C2B30255   3.483   4.731   9.632 -0.0421  0.0272 -0.2668
20148POPI   C3B30256   3.466   4.508   9.174 -0.1416 -0.0210 -0.1786
20148POPI   C4B30257   3.092   4.409   8.879 -0.2352  0.0220 -0.0293
20149POPI    C130258   6.105  17.322  11.119  0.1537  0.1572  0.0984
20149POPI    C230259   5.859  17.423  11.418  0.1137  0.0134  0.1150
20149POPI    C330260   6.248  17.359  11.491  0.1318  0.1163  0.1110
20149POPI   PO430261   6.039  17.474  10.950 -0.2733 -0.0009  0.2085
20149POPI   GL130262   5.995  17.317  10.512  0.0591  0.0504  0.1108
20149POPI   GL230263   6.174  17.642  10.460  0.4315  0.2212 -0.3206
20149POPI   C1A30264   6.125  17.167  10.110 -0.1863 -0.1147  0.0014
20149POPI   D2A30265   6.127  16.707   9.985  0.1688  0.0702  0.0558
20149POPI   C3A30266   6.163  16.489   9.568 -0.1791 -0.1301  0.0769
20149POPI   C4A30267   6.072  16.242   9.274  0.0610  0.2672 -0.0249
20149POPI   C1B30268   5.998  17.681  10.108 -0.0110 -0.1437 -0.2126
20149POPI   C2B30269   5.839  17.685   9.765  0.3788 -0.0326 -0.0045
20149POPI   C3B30270   5.620  17.517   9.387  0.0198  0.2331 -0.0277
20149POPI   C4B30271   5.442  17.691   9.063 -0.2356  0.1846 -0.0380
20150POPI    C130272   1.147   4.139  10.985 -0.0368  0.0071  0.0762
20150POPI    C230273   0.800   3.989  11.116 -0.0472 -0.0945 -0.0646
20150POPI    C330274   1.124   3.756  11.096 -0.0158 -0.0477 -0.1047
20150POPI   PO430275   1.105   4.261  10.767  0.0483  0.1030  0.0948
20150POPI   GL130276   1.223   4.290  10.394 -0.0072 -0.0874  0.1956
20150POPI   GL230277   1.453   3.977  10.350  0.0215 -0.1780 -0.0336
20150POPI   C1A30278   1.434   4.273   9.948  0.0367  0.0455  0.2576
20150POPI   D2A30279   1.387   4.141   9.580 -0.3563  0.1261  0.0050
20150POPI   C3A30280   1.295   4.348   9.244  0.0529  0.2451  0.1142
20150POPI   C4A30281   1.012   4.487   8.815 -0.2134  0.1052 -0.2760
20150POPI   C1B30282   1.766   3.863  10.026 -0.1613 -0.1183 -0.2089
20150POPI   C2B30283   1.860   3.716   9.605 -0.0204 -0.1334 -0.2131
20150POPI   C3B30284   1.789   3.365   9.383  0.0535 -0.0103  0.0163
20150POPI   C4B30285   1.506   3.249   9.114 -0.1348  0.0872 -0.0501
20151POPI    C130286   7.990  10.891  11.484 -0.2724  0.1060 -0.1257
20151POPI    C230287   7.971  11.221  11.709 -0.0398  0.0421 -0.0091
20151POPI    C330288   8.325  11.089  11.577 -0.1644  0.0253 -0.3356
20151POPI   PO430289   7.668  10.952  11.269 -0.3272 -0.1927 -0.2139
20151POPI   GL130290   7.647  10.821  10.822 -0.0885  0.1662  0.2543
20151POPI   GL230291   7.450  11.013  10.851 -0.1251 -0.0532 -0.0351
20151POPI   C1A30292   7.524  10.658  10.407  0.1217  0.1000 -0.2342
20151POPI   D2A30293   7.488  10.602  10.047  0.0816  0.1405 -0.0254
20151POPI   C3A30294   7.564  10.673   9.608  0.2150 -0.1033 -0.1348
20151POPI   C4A30295   7.533  10.523   9.225 -0.3657  0.0413  0.3220
20151POPI   C1B30296   7.421  11.150  10.427 -0.1844 -0.3207  0.1101
20151POPI   C2B30297   7.295  11.368  10.067  0.0707  0.2725 -0.0689
20151POPI   C3B30298   7.312  11.113   9.633  0.0689 -0.2486  0.0685
20151POPI   C4B30299   7.158  10.879   9.360  0.0845 -0.1290  0.2083
20152POPI    C130300   1.842   9.076  11.006 -0.1926  0.0012 -0.0960
20152POPI    C230301   1.996   8.726  11.122 -0.2337  0.0561  0.1304
20152POPI    C330302   2.011   9.041  11.367  0.1316  0.3157 -0.2111
20152POPI   PO430303   1.635   9.009  10.867  0.0764 -0.1250  0.1042
20152POPI   GL130304   1.487   9.090  10.575 -0.0928  0.0381 -0.3068
20152POPI   GL230305   1.193   9.265  10.760  0.1077 -0.1040  0.1510
20152POPI   C1A30306   1.537   9.173  10.119 -0.6552  0.0105 -0.0458
20152POPI   D2A30307   1.608   9.197   9.697  0.3595 -0.1493 -0.2410
20152POPI   C3A30308   1.822   9.131   9.390  0.1843  0.2134 -0.5585
20152POPI   C4A30309   1.780   9.264   8.987 -0.0961 -0.0950  0.1658
20152POPI   C1B30310   1.050   9.160  10.365 -0.1669 -0.1514  0.0155
20152POPI   C2B30311   1.032   9.190  10.038  0.0622  0.0830 -0.1104
20152POPI   C3B30312   1.008   9.194   9.562  0.1043 -0.2506  0.2571
20152POPI   C4B30313   1.272   8.968   9.340  0.3430  0.0545  0.1550
20153POPI    C130314  10.764  17.428  11.353  0.1012  0.2347 -0.1170
20153POPI    C230315  10.917  17.250  11.676  0.0840 -0.0634 -0.2698
20153POPI    C330316  10.653  17.547  11.718  0.1206 -0.0653 -0.0105
20153POPI   PO430317  10.790  17.214  11.191 -0.1282 -0.2616 -0.2506
20153POPI   GL130318  10.971  17.079  10.837  0.1896 -0.2508  0.0828
20153POPI   GL230319  10.773  17.322  10.692  0.2432 -0.2035 -0.0450
20153POPI   C1A30320  11.022  16.966  10.370 -0.5040  0.2083 -0.2045
20153POPI   D2A30321  10.889  16.938   9.953  0.0016  0.0086  0.1583
20153POPI   C3A30322  11.095  16.924   9.636 -0.2827 -0.0935  0.1421
20153POPI   C4A30323  11.108  17.020   9.230 -0.0442 -0.1137  0.0680
20153POPI   C1B30324  10.617  17.342  10.260  0.3037  0.2492  0.1453
20153POPI   C2B30325  10.586  17.398   9.870 -0.0326 -0.1635  0.4449
20153POPI   C3B30326  10.767  17.388   9.523  0.0966  0.1394  0.2519
20153POPI   C4B30327  10.809  17.405   9.082 -0.0408  0.2345 -0.1065
20154POPI    C130328   2.003  10.739  10.945 -0.2441  0.0670  0.1141
20154POPI    C230329   2.078  11.072  10.735  0.1356 -0.1018 -0.0289
20154POPI    C330330   2.167  11.056  11.125  0.2227 -0.0731 -0.0476
20154POPI   PO430331   1.761  10.574  10.792 -0.0487  0.1637  0.0281
20154POPI   GL130332   1.846  10.514  10.418  0.4068  0.2941  0.3415
20154POPI   GL230333   2.006  10.757  10.416  0.0020 -0.2836  0.0521
20154POPI   C1A30334   1.538  10.647  10.145  0.1446  0.3291  0.0262
20154POPI   D2A30335   1.281  10.527   9.806 -0.1430  0.0552  0.2055
20154POPI   C3A30336   1.394  10.624   9.412 -0.1154 -0.3300  0.2886
20154POPI   C4A30337   1.382  10.489   8.900  0.2121 -0.3700 -0.1563
20154POPI   C1B30338   2.027  10.750  10.002  0.1767  0.0193  0.1588
20154POPI   C2B30339   2.001  10.816   9.555  0.3022 -0.3199  0.1945
20154POPI   C3B30340   1.799  10.796   9.134  0.1605  0.0947 -0.1079
20154POPI   C4B30341   1.753  10.767   8.674 -0.0686  0.1966 -0.2935
20155POPI    C130342  14.630  17.085  11.386 -0.0014  0.2542 -0.1035
20155POPI    C230343  14.231  17.114  11.377 -0.0364 -0.1308  0.0367
20155POPI    C330344  14.417  17.020  11.719  0.1944  0.2689  0.0266
20155POPI   PO430345  14.685  16.990  11.227 -0.1173  0.0939  0.1122
20155POPI   GL130346  14.527  16.728  10.945  0.2365 -0.2593  0.0600
20155POPI   GL230347  14.630  16.470  10.944 -0.0742 -0.1334 -0.0469
20155POPI   C1A30348  14.319  16.648  10.565 -0.1063  0.1084  0.3120
20155POPI   D2A30349  14.112  16.614  10.226 -0.0756 -0.1552  0.0530
20155POPI   C3A30350  14.306  16.535   9.920  0.0906 -0.0217 -0.1186
20155POPI   C4A30351  14.265  16.553   9.558  0.0454 -0.1059  0.0560
20155POPI   C1B30352  14.605  16.253  10.516  0.1869  0.1799 -0.1245
20155POPI   C2B30353  14.623  16.230  10.110 -0.2109 -0.5657 -0.2609
20155POPI   C3B30354  14.570  16.141   9.674 -0.0012  0.1638  0.3279
20155POPI   C4B30355  14.627  16.083   9.291  0.0470 -0.1964 -0.0326
20156POPI    C130356   3.762   5.672  11.315 -0.0592 -0.0012  0.2713
20156POPI    C230357   3.821   6.067  11.306 -0.1001  0.0019  0.1285
20156POPI    C330358   3.493   5.918  11.480 -0.2839  0.0545 -0.1655
20156POPI   PO430359   3.789   5.631  10.987  0.3609  0.1435 -0.0669
20156POPI   GL130360   3.909   5.731  10.589 -0.0344 -0.1278 -0.2141
20156POPI   GL230361   3.725   5.550  10.472  0.4261  0.1244  0.1113
20156POPI   C1A30362   4.262   5.769  10.423  0.3946  0.0980 -0.0774
20156POPI   D2A30363   4.474   5.625  10.119  0.2546 -0.0829  0.2395
20156POPI   C3A30364   4.412   5.660   9.729 -0.0204 -0.0239  0.3561
20156POPI   C4A30365   4.417   5.675   9.262  0.0416 -0.0397  0.2361
20156POPI   C1B30366   3.982   5.615  10.056 -0.3686  0.0529  0.0245
20156POPI   C2B30367   3.943   5.642   9.622 -0.0776  0.1336 -0.0896
20156POPI   C3B30368   3.946   5.706   9.231  0.0894  0.4475  0.0230
20156POPI   C4B30369   3.963   5.882   8.856  0.0214  0.1288 -0.1092
20157POPI    C130370   4.866   9.132  11.219  0.1728 -0.0560  0.1254
20157POPI    C230371   5.249   9.230  11.283  0.1859 -0.0530  0.0436
20157POPI    C330372   5.001   9.178  11.592  0.2050  0.1333  0.0915
20157POPI   PO430373   4.802   9.415  11.013  0.3676 -0.1563  0.5092
20157POPI   GL130374   4.599   9.506  10.524  0.0269 -0.2398 -0.2989
20157POPI   GL230375   4.932   9.328  10.581 -0.0609 -0.1327  0.0953
20157POPI   C1A30376   4.443   9.385  10.185 -0.1512 -0.1994  0.0772
20157POPI   D2A30377   4.424   9.350   9.774 -0.0485  0.0422 -0.0099
20157POPI   C3A30378   4.401   9.526   9.394  0.3345 -0.1758  0.0608
20157POPI   C4A30379   4.454   9.611   9.017  0.0628 -0.1853 -0.0809
20157POPI   C1B30380   5.019   9.400  10.179  0.1214  0.1116  0.1373
20157POPI   C2B30381   4.890   9.355   9.818  0.0302  0.0370 -0.0902
20157POPI   C3B30382   4.887   9.410   9.350 -0.0923  0.2081  0.0469
20157POPI   C4B30383   4.981   9.686   8.980  0.2606 -0.0921 -0.2133
20158POPI    C130384   0.827  11.988  11.070  0.1093  0.0045 -0.0067
20158POPI    C230385   0.919  11.667  11.290  0.0125 -0.0299 -0.0160
20158POPI    C330386   0.672  11.632  10.977  0.0178  0.0500 -0.0296
20158POPI   PO430387   1.002  12.017  10.980  0.0490  0.1797  0.1217
20158POPI   GL130388   1.246  12.230  10.604  0.0376 -0.1674 -0.0162
20158POPI   GL230389   1.344  12.535  10.543 -0.0374 -0.1947 -0.1780
20158POPI   C1A30390   1.140  12.123  10.176  0.5402 -0.0604 -0.1305
20158POPI   D2A30391   1.261  11.977   9.748 -0.0834  0.1112 -0.0214
20158POPI   C3A30392   1.264  12.060   9.361  0.1459 -0.1481  0.1658
20158POPI   C4A30393   1.504  12.075   9.002 -0.1195  0.0722  0.2427
20158POPI   C1B30394   1.303  12.584  10.182 -0.1081 -0.1151 -0.2104
20158POPI   C2B30395   1.271  12.508   9.760  0.2978  0.0909 -0.2353
20158POPI   C3B30396   1.286  12.529   9.258  0.0060  0.0267 -0.0256
20158POPI   C4B30397   1.549  12.680   8.792  0.0858 -0.0983 -0.3209
20159POPI    C130398   7.008  17.169  11.032  0.0175  0.0841 -0.0125
20159POPI    C230399   6.814  17.402  11.293  0.0208 -0.0793  0.1378
20159POPI    C330400   6.765  17.005  11.305 -0.0632 -0.0809 -0.1814
20159POPI   PO430401   7.034  17.395  10.773  0.0622  0.3409 -0.0768
20159POPI   GL130402   7.096  17.540  10.376 -0.1546  0.1940 -0.2985
20159POPI   GL230403   6.783  17.668  10.397  0.2528 -0.1392 -0.0656
20159POPI   C1A30404   7.050  17.540   9.957  0.2452  0.5977  0.1139
20159POPI   D2A30405   6.719  17.406   9.569 -0.0982 -0.1810 -0.2277
20159POPI   C3A30406   6.566  17.634   9.277  0.0582 -0.2791 -0.1531
20159POPI   C4A30407   6.413  17.590   8.859  0.0861  0.2007  0.0576
20159POPI   C1B30408   6.487  17.604  10.033  0.3110 -0.0775 -0.1267
20159POPI   C2B30409   6.229  17.422   9.599 -0.1538 -0.3185 -0.0074
20159POPI   C3B30410   6.297  17.215   9.298  0.0072 -0.1885 -0.0718
20159POPI   C4B30411   6.073  17.264   8.997  0.0202 -0.0395  0.3644
20160POPI    C130412   5.624   8.702  10.854 -0.0823  0.0364  0.0535
20160POPI    C230413   5.829   8.576  11.174  0.1040  0.0336 -0.0656
20160POPI    C330414   5.555   8.865  11.213 -0.0074 -0.0958  0.1289
20160POPI   PO430415   5.794   8.861  10.682 -0.2805  0.0206  0.0566
20160POPI   GL130416   6.144   8.929  10.522 -0.2611 -0.0342  0.0742
20160POPI   GL230417   6.091   8.549  10.374  0.2237  0.1227  0.0245
20160POPI   C1A30418   6.253   9.179  10.211  0.1807  0.1052  0.2713
20160POPI   D2A30419   6.113   9.412   9.775  0.0671  0.2251 -0.1216
20160POPI   C3A30420   6.307   9.376   9.322 -0.1013 -0.0436 -0.2299
20160POPI   C4A30421   6.271   9.262   8.863  0.0364 -0.0494 -0.1604
20160POPI   C1B30422   5.916   8.434  10.053  0.1024 -0.2916 -0.3734
20160POPI   C2B30423   6.033   8.442   9.636  0.2324  0.0991 -0.1658
20160POPI   C3B30424   5.807   8.430   9.184 -0.2513  0.3760 -0.1218
20160POPI   C4B30425   5.357   8.417   8.943  0.1750  0.0385  0.2218
20161POPI    C130426   3.176   1.665  11.463  0.1154 -0.0032 -0.0968
20161POPI    C230427   2.819   1.844  11.445  0.1205  0.0020 -0.1498
20161POPI    C330428   3.038   1.868  11.779  0.0643 -0.0150 -0.1114
20161POPI   PO430429   3.312   1.715  11.250 -0.2398 -0.1823 -0.0335
20161POPI   GL130430   3.228   1.562  10.853 -0.3178 -0.1550  0.0822
20161POPI   GL230431   2.926   1.541  11.017  0.4859  0.0320 -0.2745
20161POPI   C1A30432   3.278   1.619  10.481 -0.1444  0.1407  0.1191
20161POPI   D2A30433   3.419   1.508  10.030 -0.1418  0.0536 -0.0809
20161POPI   C3A30434   3.399   1.742   9.750  0.3684  0.1221 -0.3872
20161POPI   C4A30435   3.549   1.966   9.374 -0.1392 -0.0004  0.0405
20161POPI   C1B30436   2.829   1.796  10.659  0.0069  0.3054  0.0419
20161POPI   C2B30437   2.909   1.834  10.292  0.2675  0.1562  0.3352
20161POPI   C3B30438   2.954   1.670   9.943 -0.3909  0.0276 -0.2077
20161POPI   C4B30439   2.983   1.870   9.517 -0.1883 -0.1092  0.1764
20162POPI    C130440  17.581   5.723  11.435  0.2650 -0.1052 -0.3424
20162POPI    C230441  17.777   6.012  11.629 -0.1390  0.0374 -0.1345
20162POPI    C330442  17.769   5.641  11.779 -0.1634  0.0684 -0.0584
20162POPI   PO430443  17.558   5.819  11.181 -0.0394  0.0816  0.0734
20162POPI   GL130444  17.461   6.081  10.790  0.0476  0.0760 -0.0072
20162POPI   GL230445  17.745   5.813  10.662  0.0822  0.3622 -0.0908
20162POPI   C1A30446  17.369   5.993  10.396  0.1237  0.2612  0.1655
20162POPI   D2A30447  17.333   6.020  10.011  0.0902  0.2784  0.0937
20162POPI   C3A30448  17.351   6.073   9.558  0.0724 -0.0858 -0.0484
20162POPI   C4A30449  17.377   6.051   9.174  0.0699 -0.2358 -0.0998
20162POPI   C1B30450  17.608   5.587  10.286 -0.0281 -0.0797 -0.0909
20162POPI   C2B30451  17.719   5.718   9.874 -0.3317 -0.1315 -0.1955
20162POPI   C3B30452  17.677   5.706   9.428  0.3170  0.1580  0.1141
20162POPI   C4B30453  17.608   5.658   8.959  0.1147  0.0409 -0.3000
20163POPI    C130454   1.110  15.565  11.526 -0.0451  0.0234  0.1929
20163POPI    C230455   1.322  15.888  11.631  0.1315  0.0217 -0.1447
20163POPI    C330456   1.476  15.522  11.682  0.0707  0.0053 -0.0778
20163POPI   PO430457   0.995  15.557  11.276 -0.0749 -0.0741  0.1019
20163POPI   GL130458   0.757  15.355  10.907 -0.1429 -0.0711  0.1678
20163POPI   GL230459   0.562  15.220  10.785 -0.1491  0.1437  0.2607
20163POPI   C1A30460   0.849  15.354  10.415 -0.4213 -0.1200 -0.1019
20163POPI   D2A30461   0.729  15.261  10.021  0.1074  0.0939  0.4043
20163POPI   C3A30462   0.668  15.265   9.565  0.2506  0.1900  0.2735
20163POPI   C4A30463   0.748  15.171   9.093 -0.2107  0.1339 -0.2361
20163POPI   C1B30464   0.372  15.368  10.368 -0.0693  0.0534  0.1634
20163POPI   C2B30465   0.291  15.410   9.851  0.2937  0.2668 -0.0409
20163POPI   C3B30466   0.179  15.353   9.512  0.1335  0.0990  0.3199
20163POPI   C4B30467   0.129  15.221   9.167 -0.0847  0.0701  0.1006
20164POPI    C130468  15.569  12.877  12.403 -0.1921 -0.0152 -0.0961
20164POPI    C230469  15.803  12.734  12.112 -0.2013 -0.0320 -0.0953
20164POPI    C330470  15.799  12.557  12.471 -0.0407  0.1076 -0.0232
20164POPI   PO430471  15.376  12.929  12.172  0.0451 -0.0895  0.0766
20164POPI   GL130472  15.360  12.706  11.828 -0.1103  0.0951  0.4131
20164POPI   GL230473  15.514  12.445  11.619 -0.1318 -0.0387 -0.1671
20164POPI   C1A30474  15.435  12.826  11.287  0.2521  0.3471 -0.1199
20164POPI   D2A30475  15.518  12.756  10.845 -0.0931 -0.0584 -0.4421
20164POPI   C3A30476  15.715  12.729  10.411  0.0462 -0.0460 -0.1956
20164POPI   C4A30477  15.645  12.649   9.966 -0.2398 -0.0070  0.1347
20164POPI   C1B30478  15.482  12.216  11.176 -0.0110  0.0527  0.0749
20164POPI   C2B30479  15.418  12.294  10.781 -0.0501  0.0455 -0.1233
20164POPI   C3B30480  15.448  12.310  10.381 -0.1355  0.1286  0.0775
20164POPI   C4B30481  15.383  12.251   9.965 -0.3430 -0.2471  0.0478
20165POPI    C130482   1.882  12.593  11.438 -0.1700 -0.0144 -0.0443
20165POPI    C230483   2.155  12.332  11.569 -0.4174 -0.3017 -0.0874
20165POPI    C330484   1.923  12.526  11.830  0.0830  0.2412 -0.0243
20165POPI   PO430485   1.863  12.476  11.214 -0.2854 -0.2537  0.0019
20165POPI   GL130486   1.991  12.561  10.741  0.1258 -0.0462  0.1407
20165POPI   GL230487   2.210  12.468  10.467  0.2498 -0.5131 -0.1201
20165POPI   C1A30488   1.809  12.827  10.270 -0.0314 -0.0908  0.2550
20165POPI   D2A30489   1.651  12.954   9.837  0.1160  0.0770  0.0164
20165POPI   C3A30490   1.841  12.879   9.424 -0.0329 -0.1119 -0.0501
20165POPI   C4A30491   2.012  12.976   8.987  0.1324 -0.2998  0.2843
20165POPI   C1B30492   2.270  12.382   9.948 -0.0962 -0.2545 -0.3297
20165POPI   C2B30493   2.286  12.481   9.526  0.1623  0.0217  0.3363
20165POPI   C3B30494   2.403  12.639   9.194  0.0058  0.0295 -0.2034
20165POPI   C4B30495   2.639  12.908   8.861  0.0869  0.1006  0.1183
20166POPI    C130496  17.382  15.108  11.534  0.1771 -0.0364  0.1060
20166POPI    C230497  17.708  15.073  11.304  0.0808 -0.2677  0.0018
20166POPI    C330498  17.730  15.265  11.654  0.2663 -0.0516 -0.1256
20166POPI   PO430499  17.321  14.788  11.445 -0.0969  0.0928 -0.0324
20166POPI   GL130500  17.498  14.706  11.053  0.1254 -0.2625 -0.0019
20166POPI   GL230501  17.698  14.517  10.819  0.0792 -0.0468 -0.4116
20166POPI   C1A30502  17.234  14.767  10.778  0.1652  0.2320  0.0437
20166POPI   D2A30503  17.239  14.703  10.316  0.2688 -0.0839 -0.0403
20166POPI   C3A30504  17.161  14.809   9.912 -0.0827  0.0793 -0.0227
20166POPI   C4A30505  16.846  14.562   9.596 -0.0608  0.0534  0.2511
20166POPI   C1B30506  17.640  14.509  10.361  0.2343  0.2542  0.3676
20166POPI   C2B30507  17.618  14.582   9.908 -0.1830  0.0108 -0.5994
20166POPI   C3B30508  17.337  14.404   9.686 -0.1428 -0.0246  0.1793
20166POPI   C4B30509  17.199  14.413   9.260 -0.2054 -0.0031 -0.3596
20167POPI    C130510  16.176   1.447  10.973  0.1147 -0.0766 -0.0133
20167POPI    C230511  16.039   1.406  11.347  0.2411 -0.0019  0.0420
20167POPI    C330512  16.013   1.101  11.090  0.2195 -0.0774  0.1333
20167POPI   PO430513  16.292   1.582  10.918 -0.0000 -0.0741 -0.0652
20167POPI   GL130514  16.386   1.801  10.518 -0.1836  0.1172 -0.0060
20167POPI   GL230515  16.688   1.860  10.577 -0.2784 -0.2890 -0.0988
20167POPI   C1A30516  16.295   1.702  10.017 -0.2015 -0.0164  0.0369
20167POPI   D2A30517  15.903   1.742   9.780 -0.0335  0.0167 -0.2363
20167POPI   C3A30518  15.778   1.555   9.360  0.1627 -0.1845  0.2454
20167POPI   C4A30519  16.030   1.278   9.019 -0.0966 -0.1245 -0.0778
20167POPI   C1B30520  16.830   1.760  10.210  0.1924  0.1324  0.2583
20167POPI   C2B30521  16.733   1.690   9.658  0.0925  0.0085  0.1403
20167POPI   C3B30522  16.375   1.547   9.515  0.1127  0.0800  0.4005
20167POPI   C4B30523  16.273   1.682   9.123  0.2679  0.1048  0.1402
20168POPI    C130524   1.079  10.792  11.150  0.0500  0.1161 -0.0282
20168POPI    C230525   1.258  10.443  11.070 -0.0502  0.0743 -0.0731
20168POPI    C330526   1.454  10.727  11.273 -0.0395 -0.0859  0.1447
20168POPI   PO430527   0.924  10.908  10.816  0.0372 -0.3697  0.1112
20168POPI   GL130528   0.874  11.165  10.451 -0.1913 -0.2751  0.0011
20168POPI   GL230529   1.239  10.966  10.432 -0.4113 -0.1447 -0.0563
20168POPI   C1A30530   0.742  11.100  10.065  0.0897  0.0915  0.0053
20168POPI   D2A30531   0.599  11.062   9.638  0.0868 -0.2939  0.0197
20168POPI   C3A30532   0.664  11.199   9.230  0.2524 -0.1404  0.0480
20168POPI   C4A30533   0.959  11.323   9.004  0.2065  0.1527 -0.3466
20168POPI   C1B30534   1.191  11.006   9.907 -0.1925  0.3305 -0.1028
20168POPI   C2B30535   1.092  11.026   9.413 -0.0122  0.2978 -0.2547
20168POPI   C3B30536   0.945  10.735   9.115 -0.0818 -0.1574 -0.0279
20168POPI   C4B30537   0.926  10.435   8.784 -0.0594 -0.0216  0.1580
20169POPI    C130538   7.411  14.687  11.389 -0.1541  0.1099  0.1572
20169POPI    C230539   7.603  15.019  11.272  0.0435 -0.0543  0.0083
20169POPI    C330540   7.502  14.971  11.656  0.3041  0.0348  0.0897
20169POPI   PO430541   7.333  14.527  11.202 -0.2165 -0.3262  0.3446
20169POPI   GL130542   7.335  14.428  10.857 -0.0585  0.1502 -0.0217
20169POPI   GL230543   7.607  14.314  10.856  0.2819  0.0109  0.0265
20169POPI   C1A30544   7.347  14.117  10.448 -0.2765 -0.0868  0.3034
20169POPI   D2A30545   7.598  13.988  10.158  0.0915 -0.4397  0.0430
20169POPI   C3A30546   7.493  14.163   9.774 -0.1878  0.1156  0.0368
20169POPI   C4A30547   7.668  14.137   9.363  0.2364  0.1456 -0.0820
20169POPI   C1B30548   7.878  14.332  10.455 -0.0805  0.2156 -0.1777
20169POPI   C2B30549   7.990  14.261  10.006  0.2524 -0.1113  0.0635
20169POPI   C3B30550   7.933  13.898   9.790  0.0797  0.2159  0.5533
20169POPI   C4B30551   7.932  13.744   9.312  0.0038 -0.0013 -0.1311
20170POPI    C130552   2.718  17.311  11.325  0.0899  0.1520 -0.0216
20170POPI    C230553   2.604  17.531  11.639  0.0669  0.0067  0.0728
20170POPI    C330554   2.713  17.150  11.691  0.1910  0.0208 -0.0771
20170POPI   PO430555   2.551  17.409  11.138 -0.3069  0.2368  0.0516
20170POPI   GL130556   2.340  17.580  10.782  0.2613  0.0237 -0.0881
20170POPI   GL230557   2.240  17.271  10.659 -0.3822 -0.0033  0.1905
20170POPI   C1A30558   2.288  17.670  10.313  0.1430 -0.1908  0.0622
20170POPI   D2A30559   2.042  18.095  10.145  0.3620 -0.0320 -0.0712
20170POPI   C3A30560   1.979  17.976   9.713  0.0527  0.0565  0.0478
20170POPI   C4A30561   1.861  18.100   9.345 -0.1093 -0.1954 -0.2993
20170POPI   C1B30562   2.344  17.084  10.311  0.2399 -0.1594  0.1304
20170POPI   C2B30563   2.355  17.107   9.912  0.0290  0.0146 -0.1251
20170POPI   C3B30564   2.558  17.164   9.475  0.2555  0.0654 -0.0746
20170POPI   C4B30565   2.796  17.271   9.104  0.2564  0.1003 -0.0592
20171POPI    C130566   3.883   6.763  10.911 -0.2008  0.3923  0.0937
20171POPI    C230567   3.874   6.542  11.244 -0.1185  0.1099 -0.0879
20171POPI    C330568   4.102   6.870  11.228  0.1232 -0.0499  0.0275
20171POPI   PO430569   3.714   6.703  10.802 -0.0345 -0.0991  0.3146
20171POPI   GL130570   3.762   6.671  10.372  0.1263  0.0015  0.1999
20171POPI   GL230571   3.518   6.726  10.216 -0.2244 -0.2171 -0.1573
20171POPI   C1A30572   3.962   6.597   9.990 -0.0011 -0.1093 -0.1440
20171POPI   D2A30573   3.899   6.678   9.510  0.0963 -0.0211 -0.0670
20171POPI   C3A30574   3.827   6.817   9.038 -0.2054 -0.1251 -0.0030
20171POPI   C4A30575   3.479   6.896   8.804 -0.2484  0.1357  0.1315
20171POPI   C1B30576   3.481   6.679   9.775  0.3665  0.3191 -0.2303
20171POPI   C2B30577   3.457   6.706   9.353 -0.1300  0.1803 -0.4134
20171POPI   C3B30578   3.356   6.482   9.046  0.3245  0.1228  0.0830
20171POPI   C4B30579   3.344   6.432   8.559  0.0829 -0.0420 -0.0485
20172POPI    C130580   2.379   3.649  10.967 -0.1255  0.0024  0.1523
20172POPI    C230581   2.559   3.293  10.941  0.0515  0.1082 -0.1133
20172POPI    C330582   2.159   3.316  10.933  0.0350 -0.0921  0.0295
20172POPI   PO430583   2.456   3.874  10.781 -0.2378  0.1167 -0.0587
20172POPI   GL130584   2.712   4.125  10.578  0.0611  0.0293  0.0618
20172POPI   GL230585   2.975   4.172  10.612 -0.1214 -0.1569  0.2139
20172POPI   C1A30586   2.774   4.148  10.057  0.1656  0.0168  0.0270
20172POPI   D2A30587   2.818   4.145   9.601  0.2882  0.3383  0.0740
20172POPI   C3A30588   2.741   4.133   9.191 -0.0401  0.0134  0.0555
20172POPI   C4A30589   2.882   3.917   8.774 -0.1007 -0.0933  0.2234
20172POPI   C1B30590   3.266   4.309  10.273 -0.0834 -0.0659 -0.1122
20172POPI   C2B30591   3.279   4.306   9.733  0.1823  0.0604  0.1428
20172POPI   C3B30592   3.209   4.051   9.297  0.0315  0.2981  0.2337
20172POPI   C4B30593   3.376   3.995   8.918  0.2175  0.3499 -0.1136
20173POPI    C130594   8.393   3.072  10.958 -0.0361 -0.1270 -0.0943
20173POPI    C230595   8.736   3.060  10.753 -0.0696  0.0688 -0.1641
20173POPI    C330596   8.742   3.105  11.151 -0.0118 -0.0603 -0.1498
20173POPI   PO430597   8.082   3.226  10.802  0.0103 -0.0136 -0.2341
20173POPI   GL130598   8.003   3.399  10.424  0.1377  0.1296  0.0950
20173POPI   GL230599   8.339   3.370  10.349  0.1080 -0.2005  0.0082
20173POPI   C1A30600   7.669   3.473  10.212  0.0000  0.0044 -0.4309
20173POPI   D2A30601   7.299   3.671  10.019  0.1304 -0.1465 -0.3637
20173POPI   C3A30602   7.379   3.634   9.631  0.1043 -0.1506 -0.0908
20173POPI   C4A30603   7.286   3.552   9.260 -0.3210  0.0652 -0.0003
20173POPI   C1B30604   8.232   3.336   9.907  0.4083 -0.0577 -0.2522
20173POPI   C2B30605   8.288   3.435   9.460  0.0815 -0.3028 -0.1327
20173POPI   C3B30606   8.635   3.324   9.128  0.4733  0.0800  0.2115
20173POPI   C4B30607   8.784   3.276   8.717 -0.4185 -0.0452 -0.0372
20174POPI    C130608   1.884   9.972  11.029  0.0977  0.0131  0.0273
20174POPI    C230609   1.671  10.249  11.224  0.0532 -0.0423  0.0577
20174POPI    C330610   2.070  10.275  11.211  0.0391  0.1211 -0.0909
20174POPI   PO430611   1.773   9.939  10.782  0.1094 -0.0635  0.2368
20174POPI   GL130612   1.479  10.182  10.681  0.0969  0.1799  0.1548
20174POPI   GL230613   1.244  10.469  10.547 -0.0786  0.2773  0.2966
20174POPI   C1A30614   1.454  10.132  10.257 -0.3936  0.2764  0.2822
20174POPI   D2A30615   1.425  10.080   9.922  0.0417 -0.1973  0.2956
20174POPI   C3A30616   1.459  10.078   9.589 -0.1119  0.0001 -0.0896
20174POPI   C4A30617   1.371  10.066   9.143 -0.0023 -0.0840 -0.1215
20174POPI   C1B30618   0.963  10.643  10.216 -0.1675  0.5657 -0.2082
20174POPI   C2B30619   0.783  10.604   9.894 -0.1160 -0.1820 -0.2129
20174POPI   C3B30620   0.592  10.592   9.457  0.1968  0.0199  0.0141
20174POPI   C4B30621   0.470  10.726   9.087 -0.0096 -0.2689  0.3045
20175POPI    C130622   2.780  12.193  11.370 -0.2067  0.0566  0.1159
20175POPI    C230623   2.978  11.863  11.478  0.0834  0.1455 -0.1313
20175POPI    C330624   2.991  12.188  11.710 -0.2351 -0.0246  0.1326
20175POPI   PO430625   2.773  12.201  10.998  0.0265 -0.1674 -0.1376
20175POPI   GL130626   2.353  12.110  10.727 -0.0222 -0.0859 -0.0528
20175POPI   GL230627   2.728  12.148  10.524  0.1993 -0.0715 -0.3410
20175POPI   C1A30628   2.323  11.967  10.308  0.0072  0.2330  0.2841
20175POPI   D2A30629   2.191  11.866   9.860  0.1162 -0.3210 -0.2314
20175POPI   C3A30630   2.207  11.970   9.465  0.1878  0.0920 -0.4217
20175POPI   C4A30631   2.362  12.169   9.108 -0.2228 -0.0347 -0.1467
20175POPI   C1B30632   2.746  12.151  10.083 -0.1871 -0.2319  0.1667
20175POPI   C2B30633   2.741  12.128   9.665 -0.2962 -0.2793 -0.1447
20175POPI   C3B30634   2.810  12.318   9.198 -0.0834 -0.0234 -0.1342
20175POPI   C4B30635   3.003  12.668   9.077 -0.3621  0.2281 -0.4406
20176POPI    C130636   8.245   8.777  11.380 -0.2590 -0.1712  0.3225
20176POPI    C230637   8.613   8.782  11.536 -0.0826  0.0438 -0.0856
20176POPI    C330638   8.294   8.819  11.774  0.1516 -0.2510  0.2839
20176POPI   PO430639   8.240   8.961  11.110 -0.1371  0.2451  0.1550
20176POPI   GL130640   8.172   8.870  10.743  0.1455 -0.0825 -0.1882
20176POPI   GL230641   7.856   8.814  10.638  0.2685 -0.0234 -0.2716
20176POPI   C1A30642   8.443   8.987  10.339 -0.1092  0.0695 -0.2371
20176POPI   D2A30643   8.615   9.050   9.963 -0.0524 -0.0812  0.0238
20176POPI   C3A30644   8.572   9.427   9.777 -0.0543  0.1824  0.0947
20176POPI   C4A30645   8.853   9.659   9.697 -0.0894  0.0458  0.0011
20176POPI   C1B30646   7.965   8.887  10.173  0.0180 -0.0923 -0.1936
20176POPI   C2B30647   8.039   8.772   9.800 -0.0668  0.1484  0.0708
20176POPI   C3B30648   8.091   8.749   9.322  0.0306 -0.0616  0.3537
20176POPI   C4B30649   8.346   8.865   9.038  0.2938  0.0155  0.3207
20177POPI    C130650   5.283   1.139  11.225  0.2369 -0.0342 -0.2385
20177POPI    C230651   5.513   1.211  11.544  0.0463 -0.1071 -0.0833
20177POPI    C330652   5.178   0.995  11.582 -0.0239 -0.0427 -0.3162
20177POPI   PO430653   5.485   1.025  10.995  0.0128  0.0023  0.0467
20177POPI   GL130654   5.478   1.058  10.629  0.1743  0.0973  0.2573
20177POPI   GL230655   5.481   0.713  10.570  0.0012 -0.1028  0.1306
20177POPI   C1A30656   5.162   1.368  10.394  0.2820 -0.0658 -0.1410
20177POPI   D2A30657   5.152   1.460   9.939 -0.1701  0.2402 -0.1151
20177POPI   C3A30658   5.109   1.303   9.468 -0.5318 -0.1560  0.1278
20177POPI   C4A30659   5.389   1.499   9.296  0.0772 -0.0412  0.0194
20177POPI   C1B30660   5.690   0.924  10.211 -0.0648  0.1169 -0.0399
20177POPI   C2B30661   5.515   1.115   9.844  0.0031  0.0494 -0.1958
20177POPI   C3B30662   5.545   0.975   9.415  0.1332 -0.0208  0.1838
20177POPI   C4B30663   5.703   1.040   9.041  0.0194  0.0543 -0.3108
20178POPI    C130664   5.048   3.866  10.981 -0.0216 -0.0510  0.1299
20178POPI    C230665   4.966   4.257  10.961 -0.0074 -0.0480  0.1306
20178POPI    C330666   4.908   4.058  11.303  0.0108 -0.0409  0.1379
20178POPI   PO430667   5.236   3.731  10.903  0.0604 -0.2336  0.2058
20178POPI   GL130668   5.162   3.425  10.490 -0.1602  0.3322 -0.1811
20178POPI   GL230669   4.987   3.297  10.834  0.0348 -0.0662  0.0871
20178POPI   C1A30670   5.064   3.266  10.130 -0.2019  0.2396  0.1535
20178POPI   D2A30671   5.175   3.234   9.659  0.0699  0.0267 -0.1268
20178POPI   C3A30672   5.402   3.066   9.338 -0.1160 -0.0718  0.3612
20178POPI   C4A30673   5.534   2.661   9.206 -0.4078  0.2408  0.0368
20178POPI   C1B30674   4.784   3.117  10.555  0.2225  0.0647  0.0778
20178POPI   C2B30675   4.636   2.918  10.329 -0.1620  0.1857 -0.0805
20178POPI   C3B30676   4.646   2.999   9.814 -0.1165 -0.1478  0.1600
20178POPI   C4B30677   4.671   3.066   9.389  0.1877 -0.3778 -0.1079
20179POPI    C130678   7.495   1.138  11.114  0.0703 -0.2454 -0.1217
20179POPI    C230679   7.398   0.985  11.471  0.1944 -0.0491 -0.0021
20179POPI    C330680   7.270   1.350  11.368  0.3283 -0.0216 -0.0744
20179POPI   PO430681   7.452   0.909  10.955  0.2136  0.1885  0.1177
20179POPI   GL130682   7.307   1.054  10.634  0.3305 -0.0808 -0.2762
20179POPI   GL230683   7.221   1.322  10.426 -0.0545 -0.0765  0.2860
20179POPI   C1A30684   7.616   1.134  10.259 -0.1579 -0.0859  0.0118
20179POPI   D2A30685   7.777   1.583  10.089 -0.1398  0.1446  0.0612
20179POPI   C3A30686   7.498   1.738   9.786  0.2535 -0.0053  0.1615
20179POPI   C4A30687   7.472   1.725   9.351  0.0104 -0.4636  0.0690
20179POPI   C1B30688   7.226   1.318  10.016 -0.0530  0.1370  0.0450
20179POPI   C2B30689   7.213   1.304   9.637  0.2208  0.1960  0.1139
20179POPI   C3B30690   7.199   1.294   9.146 -0.0860 -0.1538  0.1466
20179POPI   C4B30691   7.110   1.029   8.838 -0.1064 -0.1359  0.0901
20180POPI    C130692   0.424   5.708  11.356  0.1624 -0.1976 -0.0757
20180POPI    C230693   0.813   5.702  11.448  0.1271 -0.0734  0.0862
20180POPI    C330694   0.547   5.532  11.693  0.0761 -0.1331 -0.0100
20180POPI   PO430695   0.457   5.680  11.013  0.0963  0.2171  0.2491
20180POPI   GL130696   0.560   5.743  10.537  0.0184  0.0896  0.1181
20180POPI   GL230697   0.842   5.774  10.517  0.0436 -0.1164 -0.1227
20180POPI   C1A30698   0.408   5.799  10.190 -0.1131 -0.0575  0.3541
20180POPI   D2A30699   0.499   5.819   9.776 -0.3523 -0.0455  0.0664
20180POPI   C3A30700   0.482   5.833   9.340  0.2346  0.1534  0.2074
20180POPI   C4A30701   0.561   5.791   8.958 -0.1386 -0.2023  0.0333
20180POPI   C1B30702   0.869   5.611  10.136  0.2166  0.1837 -0.2791
20180POPI   C2B30703   0.869   5.564   9.635 -0.4361  0.2707 -0.2065
20180POPI   C3B30704   0.856   5.370   9.173  0.1004  0.0014  0.1344
20180POPI   C4B30705   0.554   5.282   8.807 -0.1178  0.0228  0.1546
20181POPI    C130706   1.937   0.540  11.188  0.0691 -0.1688  0.0432
20181POPI    C230707   2.110   0.545  11.549 -0.1633  0.1191  0.1549
20181POPI    C330708   1.746   0.385  11.504 -0.0782 -0.0392  0.0190
20181POPI   PO430709   2.019   0.878  11.094  0.2284 -0.1127 -0.2366
20181POPI   GL130710   2.191   1.056  10.786  0.1906  0.0532  0.1503
20181POPI   GL230711   1.975   1.347  10.665  0.1488 -0.3172 -0.2930
20181POPI   C1A30712   2.313   1.004  10.392  0.0845  0.0163  0.2203
20181POPI   D2A30713   2.576   0.810  10.005  0.0835  0.1331 -0.1994
20181POPI   C3A30714   2.772   0.934   9.583  0.0162  0.3394  0.1330
20181POPI   C4A30715   2.822   1.094   9.137 -0.6217 -0.1087 -0.0450
20181POPI   C1B30716   1.936   1.323  10.223  0.1205  0.2691  0.2001
20181POPI   C2B30717   1.941   1.315   9.709  0.1145 -0.0598 -0.3788
20181POPI   C3B30718   2.208   1.491   9.357  0.1430 -0.1903 -0.0569
20181POPI   C4B30719   2.584   1.735   9.221  0.2278 -0.0477  0.0142
20182DPPI    C130720   5.093  10.487  10.855 -0.1766  0.4264  0.1833
20182DPPI    C230721   4.993  10.208  11.124  0.0054  0.0196 -0.1597
20182DPPI    C330722   4.753  10.279  10.812  0.1225  0.0060 -0.2536
20182DPPI   PO430723   5.276  10.459  10.777  0.0009  0.0150 -0.1197
20182DPPI   GL130724   5.442  10.444  10.373 -0.1893  0.0295 -0.0048
20182DPPI   GL230725   5.723  10.230  10.405 -0.1843  0.1811  0.0329
20182DPPI   C1A30726   5.677  10.534   9.928  0.0261  0.0695 -0.3402
20182DPPI   C2A30727   5.860  10.616   9.541 -0.2480 -0.0351  0.0668
20182DPPI   C3A30728   5.695  10.711   9.110 -0.3572 -0.4287  0.1777
20182DPPI   C4A30729   5.637  10.843   8.634  0.0533 -0.3438 -0.1927
20182DPPI   C1B30730   5.317   9.958  10.270  0.1293  0.1383 -0.0052
20182DPPI   C2B30731   5.193   9.856   9.822  0.2597  0.2541 -0.0509
20182DPPI   C3B30732   5.198   9.818   9.414 -0.0582  0.0637 -0.2473
20182DPPI   C4B30733   5.200  10.067   9.057  0.0366 -0.1930 -0.1556
20183DPPI    C130734   2.086  16.006  11.478 -0.1554 -0.1385  0.0893
20183DPPI    C230735   1.781  15.965  11.734 -0.0864 -0.1249  0.1740
20183DPPI    C330736   2.153  15.867  11.847 -0.0496 -0.0807  0.0924
20183DPPI   PO430737   2.042  15.969  11.229  0.1040 -0.4702  0.3591
20183DPPI   GL130738   1.969  15.775  10.866 -0.1767  0.0618 -0.2773
20183DPPI   GL230739   2.240  15.830  10.782 -0.2905 -0.1031  0.2346
20183DPPI   C1A30740   1.670  15.698  10.537 -0.2777 -0.0731  0.1730
20183DPPI   C2A30741   1.705  15.660  10.043  0.0733  0.0343  0.1812
20183DPPI   C3A30742   1.610  15.781   9.614  0.0782  0.2348  0.2012
20183DPPI   C4A30743   1.385  15.601   9.144 -0.3067  0.0949  0.0460
20183DPPI   C1B30744   2.147  15.870  10.383  0.0757 -0.3793 -0.1836
20183DPPI   C2B30745   2.144  15.944   9.934  0.0658  0.3183  0.1559
20183DPPI   C3B30746   2.400  16.112   9.522 -0.1184 -0.0323  0.2113
20183DPPI   C4B30747   2.366  15.926   9.133  0.0830 -0.0394 -0.0188
20184DPPI    C130748   7.165  12.242  11.352  0.2104 -0.0705 -0.0305
20184DPPI    C230749   7.373  12.101  11.664  0.0604  0.1101  0.1539
20184DPPI    C330750   7.187  12.455  11.690 -0.0187  0.0908 -0.1143
20184DPPI   PO430751   7.234  12.215  11.113  0.1210  0.1881  0.2560
20184DPPI   GL130752   7.496  12.360  10.791 -0.1334  0.0289 -0.1302
20184DPPI   GL230753   7.723  12.219  10.685  0.3190 -0.1933  0.1094
20184DPPI   C1A30754   7.652  12.650  10.450  0.0272 -0.1909 -0.1153
20184DPPI   C2A30755   7.573  12.747   9.935 -0.0755  0.1440 -0.1807
20184DPPI   C3A30756   7.625  13.096   9.632  0.0412 -0.2174 -0.1077
20184DPPI   C4A30757   7.779  13.226   9.344  0.0519  0.0223  0.2060
20184DPPI   C1B30758   7.856  12.276  10.187  0.1962  0.2526 -0.1562
20184DPPI   C2B30759   7.912  12.341   9.768  0.2980  0.0591 -0.2458
20184DPPI   C3B30760   7.798  12.498   9.442  0.1711  0.2916  0.3120
20184DPPI   C4B30761   7.599  12.799   9.205 -0.1512  0.1397  0.1027
20185DPPI    C130762   2.707   8.310  11.196 -0.1492  0.2585 -0.1850
20185DPPI    C230763   3.037   8.355  11.417 -0.2507 -0.1171  0.0539
20185DPPI    C330764   2.784   8.661  11.371 -0.1059  0.0362  0.2584
20185DPPI   PO430765   2.825   8.178  10.963 -0.0448  0.0108 -0.1895
20185DPPI   GL130766   2.994   8.311  10.587 -0.2845  0.3042  0.1527
20185DPPI   GL230767   2.753   8.476  10.440 -0.5922 -0.1116  0.3223
20185DPPI   C1A30768   3.269   8.100  10.223  0.2200  0.0501  0.1496
20185DPPI   C2A30769   3.436   7.993   9.854 -0.1968 -0.1149  0.0962
20185DPPI   C3A30770   3.403   8.051   9.463  0.0982 -0.1123 -0.0199
20185DPPI   C4A30771   3.354   8.295   9.081 -0.0863 -0.0359  0.1058
20185DPPI   C1B30772   2.780   8.471  10.003 -0.2052 -0.2078 -0.0514
20185DPPI   C2B30773   2.728   8.501   9.653  0.1435 -0.0533  0.0495
20185DPPI   C3B30774   2.500   8.460   9.237  0.1708 -0.0456  0.3222
20185DPPI   C4B30775   2.319   8.492   8.851  0.0409  0.0299 -0.0245
20186DPPI    C130776   1.811   6.820  11.097 -0.0658  0.0955  0.0384
20186DPPI    C230777   1.808   6.520  11.362 -0.0746 -0.0756 -0.1527
20186DPPI    C330778   2.092   6.801  11.381 -0.1687  0.0041  0.1352
20186DPPI   PO430779   1.804   6.735  10.812 -0.0859 -0.2145 -0.2309
20186DPPI   GL130780   1.919   7.084  10.480 -0.1979 -0.1736 -0.2825
20186DPPI   GL230781   1.971   7.494  10.379  0.1610 -0.0185 -0.0295
20186DPPI   C1A30782   1.816   7.009  10.100  0.1276 -0.2987 -0.1249
20186DPPI   C2A30783   1.942   6.925   9.733 -0.1035  0.3237 -0.1015
20186DPPI   C3A30784   2.010   6.919   9.289 -0.2513 -0.1317  0.0003
20186DPPI   C4A30785   2.079   7.124   8.740  0.0463  0.3951 -0.4558
20186DPPI   C1B30786   2.021   7.549   9.905 -0.0773  0.0814 -0.1145
20186DPPI   C2B30787   2.020   7.578   9.461  0.0538 -0.0224  0.2449
20186DPPI   C3B30788   2.077   7.730   9.073  0.1591 -0.0290  0.1413
20186DPPI   C4B30789   2.156   7.735   8.672  0.3975 -0.1502  0.0959
20187DPPI    C130790   2.793   5.292  11.046 -0.1750  0.0862 -0.0480
20187DPPI    C230791   2.965   5.107  10.736 -0.1949  0.0495 -0.0374
20187DPPI    C330792   3.136   5.093  11.098 -0.3609 -0.2212  0.0330
20187DPPI   PO430793   2.543   5.487  10.880  0.0320  0.0160  0.1352
20187DPPI   GL130794   2.276   5.548  10.524 -0.0217 -0.2295 -0.0022
20187DPPI   GL230795   2.608   5.735  10.335  0.1739 -0.1945 -0.2638
20187DPPI   C1A30796   1.929   5.470  10.253  0.1094 -0.0617 -0.0223
20187DPPI   C2A30797   1.924   5.290   9.998  0.0158  0.2181  0.2350
20187DPPI   C3A30798   1.916   5.183   9.592 -0.0604 -0.2259  0.3690
20187DPPI   C4A30799   2.208   5.244   9.134 -0.1330 -0.1628 -0.0736
20187DPPI   C1B30800   2.418   5.557   9.956 -0.1903  0.0202  0.3253
20187DPPI   C2B30801   2.376   5.537   9.527 -0.1519 -0.2548  0.0762
20187DPPI   C3B30802   2.565   5.642   9.106 -0.1349 -0.2312 -0.0650
20187DPPI   C4B30803   2.830   5.611   8.753 -0.0399 -0.0615 -0.0396
20188DPPI    C130804   7.339   9.594  11.431 -0.0963 -0.0119  0.1108
20188DPPI    C230805   7.104   9.398  11.689 -0.0997 -0.2236 -0.0505
20188DPPI    C330806   7.499   9.412  11.750 -0.1287 -0.0487  0.1061
20188DPPI   PO430807   7.437   9.532  11.168  0.0338 -0.0297  0.1401
20188DPPI   GL130808   7.694   9.723  10.848  0.3467  0.1856 -0.3923
20188DPPI   GL230809   7.884   9.967  10.864 -0.2483  0.1767  0.0693
20188DPPI   C1A30810   7.539   9.638  10.498 -0.1507  0.0881 -0.1302
20188DPPI   C2A30811   7.513   9.552  10.074 -0.3049  0.0326 -0.0620
20188DPPI   C3A30812   7.570   9.603   9.717  0.0249  0.2001  0.0764
20188DPPI   C4A30813   7.791   9.568   9.351 -0.0902  0.2396  0.1795
20188DPPI   C1B30814   7.976   9.917  10.505 -0.0529 -0.1380  0.1651
20188DPPI   C2B30815   7.908   9.969  10.076  0.1746 -0.1889 -0.3135
20188DPPI   C3B30816   8.031   9.987   9.688 -0.3236  0.2485  0.2517
20188DPPI   C4B30817   8.404   9.714   9.430 -0.0186 -0.1935  0.0449
20189DPPI    C130818   3.946  12.234  10.955  0.0235  0.3582  0.0913
20189DPPI    C230819   3.843  12.346  11.324 -0.2218 -0.1462  0.1845
20189DPPI    C330820   4.095  12.040  11.271 -0.1215 -0.0224 -0.0676
20189DPPI   PO430821   3.703  12.142  10.854  0.3578  0.0609 -0.1150
20189DPPI   GL130822   3.624  11.897  10.499 -0.1086  0.0792  0.3710
20189DPPI   GL230823   3.986  12.021  10.460 -0.2821 -0.0539  0.0314
20189DPPI   C1A30824   3.588  11.863  10.061  0.3403 -0.0444 -0.0337
20189DPPI   C2A30825   3.619  11.916   9.678  0.2280  0.2540 -0.2628
20189DPPI   C3A30826   3.719  12.032   9.264  0.0281 -0.0178 -0.2969
20189DPPI   C4A30827   3.863  12.017   8.909  0.0529  0.1834 -0.4136
20189DPPI   C1B30828   4.205  12.126  10.007 -0.1415 -0.1716 -0.1623
20189DPPI   C2B30829   4.282  12.140   9.544  0.0368  0.0139  0.2102
20189DPPI   C3B30830   4.270  12.234   9.167  0.0019  0.1540  0.0597
20189DPPI   C4B30831   4.345  12.145   8.703 -0.0893 -0.1926 -0.0621
20190DPPI    C130832   2.878   7.452  10.481  0.1314 -0.0862 -0.0179
20190DPPI    C230833   2.977   7.582  10.846 -0.0927 -0.1147  0.0544
20190DPPI    C330834   2.891   7.845  10.556 -0.0911 -0.0948  0.0720
20190DPPI   PO430835   2.858   7.162  10.535  0.1453 -0.1602 -0.0827
20190DPPI   GL130836   2.763   6.837  10.306 -0.0055 -0.2758  0.2928
20190DPPI   GL230837   2.934   6.620  10.424 -0.0978 -0.1245 -0.1092
20190DPPI   C1A30838   2.628   6.745   9.917 -0.0523  0.1019  0.0588
20190DPPI   C2A30839   2.603   6.722   9.485 -0.0426 -0.0452 -0.1877
20190DPPI   C3A30840   2.478   6.651   9.061  0.0229  0.0744  0.3167
20190DPPI   C4A30841   2.628   6.868   8.683 -0.0764  0.0301 -0.0410
20190DPPI   C1B30842   3.087   6.536  10.119 -0.2182 -0.1199 -0.0379
20190DPPI   C2B30843   3.015   6.511   9.700  0.0444  0.3078  0.1574
20190DPPI   C3B30844   2.974   6.539   9.292 -0.2199 -0.0972  0.2267
20190DPPI   C4B30845   3.000   6.775   8.924 -0.2422  0.0528 -0.4029
20191DPPI    C130846   5.122  14.943  11.139 -0.0928 -0.5381  0.1591
20191DPPI    C230847   5.224  15.141  11.471 -0.1373 -0.1087 -0.0766
20191DPPI    C330848   5.417  14.805  11.372  0.1267 -0.0400  0.1888
20191DPPI   PO430849   5.203  15.177  10.979 -0.0228 -0.1567 -0.0964
20191DPPI   GL130850   5.164  15.147  10.560 -0.2024  0.2814 -0.0234
20191DPPI   GL230851   5.530  15.323  10.450  0.1396 -0.2228 -0.0164
20191DPPI   C1A30852   5.398  14.838  10.260 -0.2109 -0.2550  0.0503
20191DPPI   C2A30853   5.210  14.647   9.933 -0.2992 -0.2809 -0.1324
20191DPPI   C3A30854   5.180  14.628   9.638 -0.0557 -0.2595 -0.2674
20191DPPI   C4A30855   5.327  14.529   9.247  0.5059  0.2150  0.1100
20191DPPI   C1B30856   5.398  15.294  10.077  0.1685 -0.0083 -0.0341
20191DPPI   C2B30857   5.196  15.160   9.750 -0.1758 -0.0576  0.1960
20191DPPI   C3B30858   5.064  14.984   9.343 -0.3407  0.0233  0.1119
20191DPPI   C4B30859   5.134  14.858   8.958  0.1842  0.0200  0.0012
20192DPPI    C130860   5.153  11.203  10.937  0.1150 -0.0327  0.2562
20192DPPI    C230861   5.553  11.197  10.954  0.1258  0.0771  0.0674
20192DPPI    C330862   5.363  11.526  10.827 -0.0237  0.0136  0.1245
20192DPPI   PO430863   5.051  11.015  10.790  0.0928  0.2144 -0.0205
20192DPPI   GL130864   5.062  10.789  10.376  0.1504  0.1182  0.0138
20192DPPI   GL230865   4.836  10.942  10.322  0.3262 -0.3957  0.1107
20192DPPI   C1A30866   5.334  10.827  10.080  0.0663 -0.0644  0.3061
20192DPPI   C2A30867   5.364  10.869   9.621  0.1796 -0.1268  0.2060
20192DPPI   C3A30868   5.424  11.105   9.279  0.2481  0.2135 -0.3054
20192DPPI   C4A30869   5.443  11.262   8.833  0.1048 -0.0193 -0.0865
20192DPPI   C1B30870   4.867  10.816   9.916  0.1616 -0.1848 -0.0117
20192DPPI   C2B30871   4.867  10.878   9.421 -0.0023  0.0361  0.2372
20192DPPI   C3B30872   4.842  10.830   8.962  0.1313 -0.2166  0.1182
20192DPPI   C4B30873   4.731  10.648   8.501 -0.2576  0.0309  0.0424
20193DPPI    C130874   5.247  17.665  10.889  0.2658 -0.2411 -0.0433
20193DPPI    C230875   5.244  17.665  11.289 -0.0644  0.2581 -0.0368
20193DPPI    C330876   5.573  17.776  11.091  0.0666  0.1093  0.0956
20193DPPI   PO430877   5.172  17.438  10.837 -0.2843  0.0177  0.1749
20193DPPI   GL130878   5.171  17.269  10.372  0.2593 -0.2604  0.2696
20193DPPI   GL230879   5.535  17.216  10.579 -0.1534 -0.0819 -0.0673
20193DPPI   C1A30880   5.215  17.312   9.823  0.1296 -0.2629  0.1723
20193DPPI   C2A30881   5.151  17.301   9.399  0.2469  0.0638 -0.0586
20193DPPI   C3A30882   5.098  17.326   8.921 -0.1660 -0.2249  0.0149
20193DPPI   C4A30883   5.181  16.925   8.660 -0.2722  0.3788  0.2114
20193DPPI   C1B30884   5.659  16.973  10.275 -0.0364  0.0310  0.0709
20193DPPI   C2B30885   5.616  16.634  10.037  0.1082 -0.0195  0.0222
20193DPPI   C3B30886   5.675  16.491   9.689  0.0316 -0.1233 -0.0915
20193DPPI   C4B30887   5.601  16.358   9.347 -0.0548 -0.1136  0.0434
20194DPPI    C130888   5.976   3.885  11.204 -0.0266 -0.1240  0.1836
20194DPPI    C230889   5.662   3.638  11.212 -0.1511  0.0251  0.0066
20194DPPI    C330890   5.798   3.800  11.552 -0.2658 -0.0393  0.0841
20194DPPI   PO430891   5.913   4.129  11.067  0.1416 -0.0077  0.1111
20194DPPI   GL130892   5.964   4.269  10.633 -0.0243  0.1374  0.0353
20194DPPI   GL230893   5.676   4.596  10.441 -0.0978  0.3703 -0.0370
20194DPPI   C1A30894   6.123   4.288  10.168 -0.2409  0.2581  0.0649
20194DPPI   C2A30895   6.112   4.375   9.763 -0.1882  0.1045 -0.0912
20194DPPI   C3A30896   6.226   4.290   9.274  0.0495  0.1538 -0.0867
20194DPPI   C4A30897   6.608   4.254   9.145  0.1033  0.2545 -0.0032
20194DPPI   C1B30898   5.631   4.159  10.221  0.0581 -0.0117  0.0614
20194DPPI   C2B30899   5.794   3.855   9.979 -0.2798  0.0991  0.1475
20194DPPI   C3B30900   5.880   3.925   9.535  0.1671 -0.0314  0.1915
20194DPPI   C4B30901   6.016   3.872   9.110  0.1566 -0.0110 -0.2957
20195DPPI    C130902   6.296  16.956  10.826  0.1355  0.1755  0.1734
20195DPPI    C230903   6.120  16.775  10.515 -0.0176  0.2564  0.2118
20195DPPI    C330904   5.897  16.931  10.807  0.1228  0.2643  0.3159
20195DPPI   PO430905   6.492  16.782  10.867  0.0666 -0.3280 -0.3303
20195DPPI   GL130906   6.632  16.615  10.496  0.0702 -0.1856 -0.0626
20195DPPI   GL230907   6.891  16.819  10.460 -0.1698 -0.3312 -0.0543
20195DPPI   C1A30908   6.484  16.382  10.179 -0.1183 -0.0154 -0.2977
20195DPPI   C2A30909   6.668  16.204   9.727  0.3576 -0.2275  0.1565
20195DPPI   C3A30910   6.648  16.287   9.270 -0.0441 -0.0901  0.1097
20195DPPI   C4A30911   6.907  16.591   9.043  0.4918  0.0315 -0.1406
20195DPPI   C1B30912   6.919  16.553  10.036 -0.0296 -0.1570 -0.0925
20195DPPI   C2B30913   7.100  16.612   9.575  0.1670  0.2576  0.0346
20195DPPI   C3B30914   7.495  16.767   9.302 -0.2200  0.0397  0.0920
20195DPPI   C4B30915   7.761  16.859   8.956 -0.1520 -0.1141 -0.0110
20196DPPI    C130916   6.682   1.379  11.252  0.1542  0.1528 -0.1231
20196DPPI    C230917   6.795   1.260  11.617  0.0216  0.3065 -0.0304
20196DPPI    C330918   6.422   1.190  11.491  0.1768 -0.0913 -0.2882
20196DPPI   PO430919   6.812   1.557  11.191 -0.1037 -0.3403 -0.2805
20196DPPI   GL130920   6.939   2.049  10.934  0.1262  0.1137  0.2485
20196DPPI   GL230921   7.155   2.304  10.794 -0.1523  0.0047  0.3040
20196DPPI   C1A30922   6.708   1.914  10.604 -0.0589 -0.1245 -0.0632
20196DPPI   C2A30923   6.734   1.495  10.255  0.0143 -0.3858  0.1344
20196DPPI   C3A30924   6.735   1.360   9.787  0.2720  0.0738 -0.2054
20196DPPI   C4A30925   6.588   1.071   9.415  0.0202 -0.0864  0.0408
20196DPPI   C1B30926   6.984   2.270  10.358 -0.1045 -0.2320 -0.1686
20196DPPI   C2B30927   7.022   2.267   9.895  0.1163  0.0643  0.0579
20196DPPI   C3B30928   7.206   2.129   9.587 -0.0083  0.1319 -0.1964
20196DPPI   C4B30929   7.298   2.178   9.151 -0.1971 -0.1942 -0.2371
20197DPPI    C130930   8.635  12.952  11.597 -0.1930 -0.1615  0.1358
20197DPPI    C230931   8.604  12.638  11.351  0.0641 -0.1356  0.0668
20197DPPI    C330932   8.682  12.581  11.739 -0.2311 -0.1710  0.1238
20197DPPI   PO430933   8.554  13.158  11.358 -0.0092  0.0803  0.0076
20197DPPI   GL130934   8.609  12.991  10.955 -0.0245  0.1870  0.1196
20197DPPI   GL230935   8.279  13.096  10.864 -0.2028 -0.0557  0.0521
20197DPPI   C1A30936   8.516  12.802  10.567 -0.0620 -0.4247  0.1308
20197DPPI   C2A30937   8.772  12.701  10.257  0.1350  0.0427 -0.0061
20197DPPI   C3A30938   8.729  12.729   9.968 -0.3814 -0.2756  0.0751
20197DPPI   C4A30939   8.603  12.943   9.673  0.3069  0.0479 -0.1585
20197DPPI   C1B30940   8.457  13.231  10.429 -0.5179  0.1329  0.2158
20197DPPI   C2B30941   8.670  13.262  10.088  0.1089 -0.1535 -0.1848
20197DPPI   C3B30942   8.714  13.430   9.716  0.1243 -0.0887 -0.1738
20197DPPI   C4B30943   8.895  13.619   9.380 -0.0918  0.2300  0.1427
20198DPPI    C130944   4.457  14.238  11.363 -0.2870  0.0812 -0.3534
20198DPPI    C230945   4.129  14.392  11.532 -0.1865 -0.0537 -0.0278
20198DPPI    C330946   4.478  14.586  11.558 -0.1646 -0.0892 -0.0552
20198DPPI   PO430947   4.417  14.147  11.114  0.2247  0.2807 -0.1769
20198DPPI   GL130948   4.210  14.307  10.753 -0.1580 -0.2175 -0.2081
20198DPPI   GL230949   4.432  14.475  10.629  0.0857 -0.0811  0.2721
20198DPPI   C1A30950   3.876  14.468  10.392 -0.0779  0.0058  0.1646
20198DPPI   C2A30951   3.821  14.348   9.966 -0.1427  0.1265  0.1099
20198DPPI   C3A30952   3.878  14.308   9.513 -0.0510  0.2134  0.0302
20198DPPI   C4A30953   3.905  14.215   9.185  0.0091 -0.1901  0.1180
20198DPPI   C1B30954   4.432  14.373  10.198 -0.1143  0.0648 -0.1706
20198DPPI   C2B30955   4.550  14.327   9.910 -0.2358 -0.0624 -0.0086
20198DPPI   C3B30956   4.475  14.240   9.519  0.1280  0.1454 -0.0533
20198DPPI   C4B30957   4.477  14.174   9.128 -0.0452 -0.1301  0.0077
20199DPPI    C130958   6.456  14.950  11.193  0.0685  0.0226  0.0740
20199DPPI    C230959   6.059  14.907  11.170  0.0518  0.2766 -0.1678
20199DPPI    C330960   6.254  14.791  11.499 -0.1923 -0.0551 -0.1351
20199DPPI   PO430961   6.502  14.956  10.987  0.0748 -0.1128 -0.2527
20199DPPI   GL130962   6.580  15.294  10.714 -0.0511  0.1046 -0.0232
20199DPPI   GL230963   6.929  15.254  10.656 -0.1484  0.1532  0.2873
20199DPPI   C1A30964   6.653  15.155  10.248 -0.1848 -0.1346 -0.0187
20199DPPI   C2A30965   6.768  15.193   9.810 -0.2547 -0.2208  0.1374
20199DPPI   C3A30966   6.974  15.281   9.351 -0.2133 -0.0854  0.3036
20199DPPI   C4A30967   7.229  15.503   9.005 -0.2745 -0.0121  0.0595
20199DPPI   C1B30968   7.153  15.045  10.386  0.2907 -0.1140  0.1245
20199DPPI   C2B30969   7.199  14.875   9.886  0.1884 -0.2761 -0.3859
20199DPPI   C3B30970   7.128  14.562   9.511 -0.0349  0.0774 -0.1053
20199DPPI   C4B30971   6.992  14.475   9.141 -0.2455  0.1007 -0.0362
20200DPPI    C130972   6.492   5.122  11.180 -0.0681  0.0117 -0.0524
20200DPPI    C230973   6.412   4.805  11.410 -0.2417  0.0909 -0.0021
20200DPPI    C330974   6.545   5.145  11.575 -0.0593  0.0463 -0.0555
20200DPPI   PO430975   6.761   4.954  11.075 -0.0063  0.0787 -0.2929
20200DPPI   GL130976   6.944   4.972  10.702  0.1370 -0.1870  0.2853
20200DPPI   GL230977   7.249   4.975  10.628  0.0808  0.0267  0.0037
20200DPPI   C1A30978   6.826   4.912  10.285 -0.0327  0.3714 -0.0408
20200DPPI   C2A30979   6.714   4.927   9.808  0.2227 -0.1984  0.1362
20200DPPI   C3A30980   6.775   4.991   9.404 -0.0655 -0.1679 -0.0845
20200DPPI   C4A30981   6.775   4.766   9.038  0.2759 -0.2554 -0.3542
20200DPPI   C1B30982   7.250   5.182  10.225  0.0296  0.0490  0.1949
20200DPPI   C2B30983   7.194   5.150   9.758 -0.1859 -0.1235 -0.1652
20200DPPI   C3B30984   7.256   5.037   9.336 -0.0733  0.0491  0.2438
20200DPPI   C4B30985   7.572   4.805   9.029  0.2253 -0.0393 -0.0750
20201DPPI    C130986   0.885  11.176  11.526  0.1668 -0.1465 -0.3272
20201DPPI    C230987   1.134  10.903  11.680  0.2964  0.1080 -0.0754
20201DPPI    C330988   1.200  11.292  11.743  0.0004  0.1918 -0.2605
20201DPPI   PO430989   0.819  11.175  11.255  0.0750 -0.1637  0.1964
20201DPPI   GL130990   0.540  11.153  10.924 -0.0349  0.0860  0.0367
20201DPPI   GL230991   0.403  10.849  10.992  0.0383  0.4252  0.2601
20201DPPI   C1A30992   0.417  11.358  10.586 -0.0800 -0.1106 -0.0362
20201DPPI   C2A30993   0.315  11.312  10.176  0.0942  0.1224 -0.0742
20201DPPI   C3A30994   0.189  11.325   9.799 -0.0909  0.2237 -0.2592
20201DPPI   C4A30995   0.297  11.465   9.403 -0.1429  0.1276  0.0004
20201DPPI   C1B30996   0.137  10.895  10.687  0.1873 -0.2112 -0.0952
20201DPPI   C2B30997  -0.253  10.974  10.470  0.0111 -0.2640 -0.0812
20201DPPI   C3B30998  -0.325  11.088  10.073 -0.1178 -0.0557  0.1105
20201DPPI   C4B30999  -0.319  11.190   9.698  0.0684 -0.4162  0.0190
20202DPPI    C131000   3.717  13.127  11.152  0.0924 -0.0966 -0.1415
20202DPPI    C231001   3.840  13.472  11.311  0.0496 -0.0565 -0.1953
20202DPPI    C331002   3.697  13.183  11.548 -0.2414  0.0942 -0.1815
20202DPPI   PO431003   3.533  13.151  10.996 -0.0653  0.2853  0.0077
20202DPPI   GL131004   3.512  13.060  10.600  0.1507 -0.2227  0.1354
20202DPPI   GL231005   3.773  13.035  10.505  0.1553  0.1248 -0.1423
20202DPPI   C1A31006   3.157  13.145  10.468 -0.2272 -0.0016 -0.0400
20202DPPI   C2A31007   3.071  13.280  10.072  0.0499 -0.1821  0.2641
20202DPPI   C3A31008   2.861  13.426   9.661 -0.1211  0.1272 -0.1888
20202DPPI   C4A31009   2.862  13.469   9.263 -0.1894  0.1562  0.1687
20202DPPI   C1B31010   3.918  12.905  10.177  0.1362  0.1478 -0.1852
20202DPPI   C2B31011   3.788  12.935   9.771 -0.3596 -0.1699  0.1914
20202DPPI   C3B31012   3.953  12.973   9.419 -0.0614 -0.3063 -0.0405
20202DPPI   C4B31013   3.977  12.981   9.060 -0.2232 -0.2356  0.2767
20203DPPI    C131014   6.157   8.119  11.210  0.1290  0.0853 -0.1421
20203DPPI    C231015   5.924   8.142  11.535  0.1565 -0.1161 -0.1070
20203DPPI    C331016   6.196   8.427  11.463 -0.1026  0.1243 -0.1517
20203DPPI   PO431017   5.883   7.831  10.962 -0.1709  0.0816 -0.0502
20203DPPI   GL131018   5.778   7.719  10.521  0.0938  0.0461  0.2168
20203DPPI   GL231019   6.005   7.920  10.461 -0.2009 -0.0114  0.3097
20203DPPI   C1A31020   5.911   7.507  10.154 -0.0373 -0.3202 -0.1218
20203DPPI   C2A31021   5.798   7.552   9.791  0.1920  0.2833  0.1077
20203DPPI   C3A31022   6.113   7.564   9.528 -0.0663  0.4349 -0.2872
20203DPPI   C4A31023   6.481   7.683   9.275 -0.1176 -0.2255  0.2407
20203DPPI   C1B31024   6.213   7.924  10.068 -0.3040  0.0411  0.2545
20203DPPI   C2B31025   6.341   7.997   9.687  0.2165 -0.1200  0.3181
20203DPPI   C3B31026   6.308   8.215   9.296 -0.0692  0.1772  0.0200
20203DPPI   C4B31027   6.344   8.350   8.915  0.0977  0.0423  0.1865
20204DPPI    C131028   2.914   8.666  10.911 -0.2530 -0.0840  0.4525
20204DPPI    C231029   3.225   8.871  11.056  0.0147  0.0201 -0.2313
20204DPPI    C331030   3.262   8.480  10.978 -0.1636 -0.0612  0.0747
20204DPPI   PO431031   2.763   8.919  10.795 -0.1024 -0.2895  0.0145
20204DPPI   GL131032   2.536   8.922  10.335  0.0426 -0.3883  0.5004
20204DPPI   GL231033   2.891   8.984  10.222 -0.0332  0.1842 -0.5060
20204DPPI   C1A31034   2.333   8.812   9.994 -0.1379 -0.0314 -0.0385
20204DPPI   C2A31035   2.179   8.662   9.594  0.2411 -0.1034 -0.1971
20204DPPI   C3A31036   2.142   8.849   9.130 -0.0061 -0.2447  0.0695
20204DPPI   C4A31037   2.350   8.998   8.739  0.1260 -0.1876 -0.0885
20204DPPI   C1B31038   2.735   9.021   9.798  0.1137  0.3132 -0.0862
20204DPPI   C2B31039   2.642   8.939   9.343 -0.2711  0.0226  0.1004
20204DPPI   C3B31040   2.753   8.814   8.929  0.1690  0.1809  0.1150
20204DPPI   C4B31041   2.611   8.697   8.487  0.3422  0.0697 -0.1550
20205DPPI    C131042   9.389  16.739  11.530  0.1203 -0.0906  0.1133
20205DPPI    C231043   9.217  16.860  11.871 -0.2655  0.1293 -0.1514
20205DPPI    C331044   9.357  17.129  11.610  0.2012 -0.0415 -0.0878
20205DPPI   PO431045   9.177  16.642  11.398  0.1507 -0.0266 -0.0189
20205DPPI   GL131046   9.173  16.457  11.094 -0.0048  0.0872 -0.1089
20205DPPI   GL231047   9.185  16.240  10.852 -0.3625 -0.2089  0.1293
20205DPPI   C1A31048   8.914  16.515  10.585 -0.3810  0.2158  0.1786
20205DPPI   C2A31049   8.815  16.414  10.145 -0.1080 -0.0283 -0.1955
20205DPPI   C3A31050   8.904  16.352   9.716  0.2592  0.0695 -0.0925
20205DPPI   C4A31051   8.876  16.134   9.416  0.1014  0.0021 -0.0423
20205DPPI   C1B31052   9.174  16.065  10.458 -0.0700  0.0497 -0.1884
20205DPPI   C2B31053   9.141  16.077  10.082 -0.0168  0.0985 -0.1863
20205DPPI   C3B31054   9.291  16.040   9.654  0.1101 -0.0663  0.0199
20205DPPI   C4B31055   9.363  16.198   9.297 -0.2838  0.0861 -0.1259
20206DPPI    C131056   1.049  16.348  11.278 -0.0245  0.3534 -0.1020
20206DPPI    C231057   1.009  16.491  11.650 -0.0297 -0.0643  0.0627
20206DPPI    C331058   0.685  16.415  11.428 -0.0385 -0.1431  0.1023
20206DPPI   PO431059   1.158  16.116  11.218  0.0417 -0.2647 -0.2142
20206DPPI   GL131060   0.999  15.801  10.803 -0.1788 -0.2321  0.1588
20206DPPI   GL231061   0.954  16.148  10.771  0.0161  0.0304  0.1084
20206DPPI   C1A31062   1.204  15.809  10.328 -0.0079 -0.0595  0.0675
20206DPPI   C2A31063   1.226  15.789   9.908  0.0173 -0.0187 -0.0136
20206DPPI   C3A31064   1.048  15.590   9.505  0.1997  0.1597  0.0682
20206DPPI   C4A31065   0.932  15.754   9.004 -0.1285  0.3152  0.1616
20206DPPI   C1B31066   0.936  16.244  10.402  0.1853 -0.2140 -0.0121
20206DPPI   C2B31067   0.890  16.201  10.038  0.1809  0.1776  0.1027
20206DPPI   C3B31068   1.145  16.257   9.764 -0.0318  0.3579 -0.0395
20206DPPI   C4B31069   1.322  16.127   9.380  0.3442 -0.3916 -0.0768
20207DPPI    C131070   6.258  16.286  11.396 -0.0288  0.0098 -0.0765
20207DPPI    C231071   6.181  15.943  11.205 -0.0036  0.0540 -0.1663
20207DPPI    C331072   5.884  16.146  11.380 -0.0245  0.0063 -0.1466
20207DPPI   PO431073   6.533  16.343  11.235 -0.3157 -0.1036  0.2703
20207DPPI   GL131074   6.504  16.266  10.873  0.0713 -0.1364  0.1927
20207DPPI   GL231075   6.851  16.174  10.872  0.0813 -0.0886 -0.0145
20207DPPI   C1A31076   6.487  15.941  10.521  0.0802 -0.2221 -0.1450
20207DPPI   C2A31077   6.637  15.912  10.154  0.2374  0.6101 -0.0813
20207DPPI   C3A31078   6.635  15.702   9.750 -0.2848  0.0560 -0.0616
20207DPPI   C4A31079   6.807  15.771   9.397 -0.2225 -0.0507  0.1971
20207DPPI   C1B31080   6.899  16.229  10.432  0.0122  0.1809 -0.3063
20207DPPI   C2B31081   7.078  16.108  10.021  0.2047 -0.2453 -0.3746
20207DPPI   C3B31082   7.140  16.109   9.598 -0.3518 -0.0982 -0.0463
20207DPPI   C4B31083   7.387  16.198   9.378 -0.0888 -0.1875 -0.0808
20208DPPI    C131084  17.629  13.782  11.758  0.1232 -0.2063  0.0368
20208DPPI    C231085  17.392  13.505  11.923  0.3090 -0.1517  0.4062
20208DPPI    C331086  17.388  13.880  12.062 -0.2191  0.1411 -0.3346
20208DPPI   PO431087  17.550  13.729  11.490 -0.0196 -0.1180  0.0378
20208DPPI   GL131088  17.500  13.643  11.035  0.1012 -0.2170  0.0198
20208DPPI   GL231089  17.684  13.411  11.070 -0.5124  0.0086  0.2065
20208DPPI   C1A31090  17.346  13.693  10.628 -0.0339  0.2867  0.0933
20208DPPI   C2A31091  17.356  13.597  10.148  0.1105 -0.0051  0.0914
20208DPPI   C3A31092  17.168  13.583   9.754 -0.1257  0.3036  0.1489
20208DPPI   C4A31093  17.082  13.479   9.345  0.3110  0.1856  0.2285
20208DPPI   C1B31094  17.802  13.467  10.666 -0.1913 -0.4284 -0.1425
20208DPPI   C2B31095  17.765  13.373  10.223 -0.1508 -0.3175 -0.1777
20208DPPI   C3B31096  17.673  13.585   9.766 -0.0852  0.2078  0.0069
20208DPPI   C4B31097  17.661  13.553   9.421  0.0987 -0.1393  0.3850
20209DPPI    C131098   0.756   6.790  11.138  0.1583 -0.0646  0.0130
20209DPPI    C231099   0.669   6.877  11.519  0.0396 -0.0712 -0.0122
20209DPPI    C331100   1.005   7.017  11.353  0.2997 -0.4059  0.2184
20209DPPI   PO431101   0.618   6.713  11.066 -0.0040 -0.2860  0.2969
20209DPPI   GL131102   0.429   6.497  10.748  0.4423  0.0735  0.1403
20209DPPI   GL231103   0.409   6.178  10.657 -0.1813 -0.0646 -0.3811
20209DPPI   C1A31104   0.327   6.706  10.416  0.0574  0.0423 -0.1920
20209DPPI   C2A31105   0.289   6.673   9.963 -0.1531  0.4853 -0.3927
20209DPPI   C3A31106   0.367   6.641   9.534  0.1464 -0.1456 -0.5932
20209DPPI   C4A31107   0.301   6.557   9.098 -0.0042  0.1296 -0.0192
20209DPPI   C1B31108   0.119   6.238  10.315 -0.1198 -0.1226  0.1418
20209DPPI   C2B31109   0.145   6.217   9.870 -0.1126 -0.1431  0.1549
20209DPPI   C3B31110   0.143   6.244   9.436  0.3256 -0.1974 -0.1845
20209DPPI   C4B31111   0.143   6.098   8.991 -0.0896 -0.4846 -0.1490
20210DPPI    C131112   3.408  17.541  11.254  0.0343 -0.0011 -0.0153
20210DPPI    C231113   3.561  17.495  11.620 -0.0111 -0.0769 -0.0055
20210DPPI    C331114   3.209  17.329  11.528 -0.1439  0.1912  0.0069
20210DPPI   PO431115   3.604  17.582  11.069 -0.3908 -0.2662 -0.1131
20210DPPI   GL131116   3.707  17.528  10.694  0.2960 -0.0658 -0.1537
20210DPPI   GL231117   3.419  17.410  10.632  0.0455  0.1742 -0.1558
20210DPPI   C1A31118   3.878  17.592  10.363  0.1139 -0.2623 -0.1120
20210DPPI   C2A31119   3.815  17.648   9.915 -0.1837  0.1795 -0.0238
20210DPPI   C3A31120   3.582  17.474   9.537  0.1490  0.1699  0.1881
20210DPPI   C4A31121   3.165  17.594   9.259 -0.1016  0.2629  0.1377
20210DPPI   C1B31122   3.433  17.456  10.105 -0.0655 -0.0468 -0.0310
20210DPPI   C2B31123   3.174  17.293   9.703 -0.2236  0.1696  0.2110
20210DPPI   C3B31124   3.199  17.072   9.360 -0.0952  0.1033  0.0086
20210DPPI   C4B31125   3.250  16.953   8.983 -0.2087  0.2076 -0.3608
20211DPPI    C131126   4.801   1.332  11.228  0.0481 -0.0904 -0.0196
20211DPPI    C231127   4.655   1.630  11.451  0.1033  0.0142 -0.1218
20211DPPI    C331128   4.684   1.261  11.604 -0.3488 -0.0295 -0.1272
20211DPPI   PO431129   4.675   1.323  11.044  0.2462 -0.2509  0.0801
20211DPPI   GL131130   4.721   1.372  10.655 -0.1385 -0.1572  0.0690
20211DPPI   GL231131   4.407   1.219  10.521 -0.1397 -0.2527 -0.2477
20211DPPI   C1A31132   4.642   1.280  10.119 -0.1662 -0.0092 -0.2323
20211DPPI   C2A31133   4.782   1.098   9.758 -0.0138 -0.0101  0.0180
20211DPPI   C3A31134   4.779   0.934   9.299 -0.1722 -0.0196  0.1779
20211DPPI   C4A31135   4.714   0.549   9.052 -0.2077  0.2015  0.0093
20211DPPI   C1B31136   4.257   1.614  10.225  0.0212  0.0903 -0.2665
20211DPPI   C2B31137   4.369   1.565   9.830 -0.1585 -0.0827  0.2056
20211DPPI   C3B31138   4.557   1.455   9.429  0.2447  0.0367  0.6743
20211DPPI   C4B31139   4.779   1.380   9.019  0.0231  0.2341 -0.0863
20212DPPI    C131140   5.492   9.951  10.786 -0.0818 -0.0378 -0.2364
20212DPPI    C231141   5.263   9.643  10.898 -0.1205  0.0785  0.0121
20212DPPI    C331142   5.100   9.954  10.708 -0.0765 -0.0643 -0.2642
20212DPPI   PO431143   5.702   9.822  10.724 -0.1120  0.0601 -0.0235
20212DPPI   GL131144   6.066   9.786  10.464  0.0968  0.0757  0.0251
20212DPPI   GL231145   6.429   9.870  10.545  0.3840 -0.4398  0.0956
20212DPPI   C1A31146   5.852   9.748  10.126 -0.0254  0.1672  0.6304
20212DPPI   C2A31147   5.670  10.045   9.868  0.0233 -0.4317  0.1609
20212DPPI   C3A31148   5.619  10.184   9.448  0.1291 -0.1033  0.1438
20212DPPI   C4A31149   5.701  10.147   9.024 -0.1688 -0.1424 -0.1391
20212DPPI   C1B31150   6.532   9.539  10.302  0.2341  0.3416  0.1774
20212DPPI   C2B31151   6.680   9.455   9.859  0.0638 -0.0042  0.2373
20212DPPI   C3B31152   6.778   9.557   9.404  0.1505 -0.0756 -0.0631
20212DPPI   C4B31153   6.912   9.808   8.975  0.1436  0.2181 -0.0689
20213DPPI    C131154   4.705  17.236  10.963 -0.1739 -0.0096  0.1010
20213DPPI    C231155   4.768  17.612  11.084  0.0665 -0.1002  0.2640
20213DPPI    C331156   4.905  17.305  11.302  0.1053 -0.2771 -0.0037
20213DPPI   PO431157   4.423  17.129  10.938  0.0366  0.0829  0.2252
20213DPPI   GL131158   4.194  17.254  10.576  0.4695 -0.3664  0.2315
20213DPPI   GL231159   4.414  17.473  10.454 -0.0620  0.1256 -0.0504
20213DPPI   C1A31160   4.220  17.325  10.005  0.1111  0.1104  0.0649
20213DPPI   C2A31161   4.180  17.246   9.586  0.1457 -0.0824 -0.3488
20213DPPI   C3A31162   4.024  17.333   9.216  0.1629  0.2045 -0.1676
20213DPPI   C4A31163   3.533  17.373   9.026 -0.1038 -0.2091 -0.0009
20213DPPI   C1B31164   4.572  17.027  10.282  0.0101 -0.0192  0.2746
20213DPPI   C2B31165   4.716  17.008   9.877 -0.0803  0.0755 -0.2432
20213DPPI   C3B31166   4.844  16.985   9.541 -0.2588 -0.1641  0.2083
20213DPPI   C4B31167   5.001  16.871   9.075 -0.0970 -0.2729 -0.3614
20214DPPI    C131168   3.970   9.225  10.749 -0.0916  0.1182 -0.2406
20214DPPI    C231169   3.871   9.310  11.127  0.2270 -0.0301 -0.1198
20214DPPI    C331170   4.208   9.458  10.971  0.2069 -0.1458 -0.2755
20214DPPI   PO431171   3.746   9.025  10.672  0.0919 -0.0918  0.2213
20214DPPI   GL131172   3.607   8.945  10.203 -0.0995  0.2033  0.0327
20214DPPI   GL231173   3.334   9.126  10.115 -0.0185 -0.0816  0.0358
20214DPPI   C1A31174   3.668   8.966   9.767  0.0405  0.1913 -0.0329
20214DPPI   C2A31175   3.700   8.896   9.369  0.2493 -0.1115 -0.1394
20214DPPI   C3A31176   3.734   8.655   9.108 -0.2017  0.1400 -0.1042
20214DPPI   C4A31177   3.711   8.443   8.728 -0.2754  0.3664  0.1723
20214DPPI   C1B31178   3.299   9.254   9.674 -0.2466 -0.2400 -0.0570
20214DPPI   C2B31179   3.356   9.309   9.221  0.0559 -0.0314  0.0073
20214DPPI   C3B31180   3.124   9.424   8.931 -0.2125 -0.0480  0.0006
20214DPPI   C4B31181   2.718   9.293   8.783  0.1611 -0.0875 -0.1331
20215DPPI    C131182   2.220   2.737  11.379 -0.0602  0.1553 -0.1062
20215DPPI    C231183   1.938   3.014  11.318 -0.1101  0.1280 -0.0029
20215DPPI    C331184   1.849   2.626  11.278 -0.0712  0.1218 -0.0302
20215DPPI   PO431185   2.410   2.881  11.194 -0.2745  0.0553  0.1191
20215DPPI   GL131186   2.631   2.751  10.848 -0.1542  0.1080  0.0923
20215DPPI   GL231187   2.756   2.367  10.832  0.0557  0.0371 -0.1928
20215DPPI   C1A31188   2.682   3.080  10.508  0.1199 -0.0757 -0.3448
20215DPPI   C2A31189   2.546   2.945  10.087 -0.0572  0.0873  0.0442
20215DPPI   C3A31190   2.523   2.828   9.673  0.0676 -0.2697 -0.2349
20215DPPI   C4A31191   2.536   2.687   9.257  0.0190 -0.2371 -0.0327
20215DPPI   C1B31192   2.672   2.449  10.325  0.0706  0.3486  0.0465
20215DPPI   C2B31193   2.699   2.434   9.853  0.0167 -0.1928  0.1922
20215DPPI   C3B31194   2.818   2.371   9.440 -0.1711 -0.1715  0.0937
20215DPPI   C4B31195   2.881   2.510   8.987  0.2769  0.2054 -0.3484
20216DPPI    C131196   4.390  10.270  11.389 -0.0242 -0.0804  0.3115
20216DPPI    C231197   4.710  10.377  11.604  0.0971 -0.1424  0.1642
20216DPPI    C331198   4.687  10.009  11.449  0.2241  0.0406 -0.3078
20216DPPI   PO431199   4.414  10.501  11.086  0.1289  0.1974 -0.0809
20216DPPI   GL131200   4.266  10.218  10.708  0.4087 -0.0127  0.2713
20216DPPI   GL231201   4.475   9.970  10.462 -0.0258  0.1082  0.3234
20216DPPI   C1A31202   4.448  10.438  10.292  0.0229 -0.2587  0.2186
20216DPPI   C2A31203   4.527  10.347   9.855  0.1254  0.2251  0.1193
20216DPPI   C3A31204   4.521  10.408   9.481 -0.1578 -0.3959  0.1753
20216DPPI   C4A31205   4.252  10.677   9.180 -0.0068  0.0032  0.1769
20216DPPI   C1B31206   4.747   9.886  10.046  0.1017  0.2620  0.0092
20216DPPI   C2B31207   4.633   9.886   9.657 -0.1083  0.0248 -0.0522
20216DPPI   C3B31208   4.734  10.021   9.315  0.1898  0.1594  0.1302
20216DPPI   C4B31209   4.726  10.195   8.841 -0.0137 -0.0144  0.0208
20217DPPI    C131210   0.652  14.487  11.520 -0.3118 -0.1352  0.1216
20217DPPI    C231211   0.662  14.870  11.636 -0.1782 -0.1613  0.1986
20217DPPI    C331212   0.460  14.600  11.852 -0.2383 -0.1422  0.1666
20217DPPI   PO431213   0.899  14.506  11.349  0.2097 -0.2872  0.0384
20217DPPI   GL131214   0.871  14.552  10.848  0.3392 -0.1861 -0.1112
20217DPPI   GL231215   0.971  14.933  10.713 -0.2784 -0.4935  0.0901
20217DPPI   C1A31216   0.881  14.451  10.423 -0.4718  0.2540  0.2477
20217DPPI   C2A31217   0.779  14.283  10.039 -0.0977 -0.1861  0.0561
20217DPPI   C3A31218   0.924  14.045   9.665 -0.1462  0.1051 -0.3680
20217DPPI   C4A31219   1.096  14.078   9.297  0.1985  0.0501 -0.0591
20217DPPI   C1B31220   1.041  14.941  10.230  0.0892  0.0062  0.1203
20217DPPI   C2B31221   1.037  14.761   9.785  0.2235 -0.3737  0.1658
20217DPPI   C3B31222   0.899  14.549   9.410 -0.5539 -0.1501 -0.2066
20217DPPI   C4B31223   0.814  14.661   8.862  0.0789  0.1464  0.0279
20218DPPI    C131224   4.967   6.693  10.727  0.2823  0.2689  0.0339
20218DPPI    C231225   4.693   6.758  10.443  0.2195  0.1165  0.0582
20218DPPI    C331226   4.684   6.419  10.655  0.2119  0.2671  0.3033
20218DPPI   PO431227   5.122   6.817  10.658  0.1189 -0.0233  0.1626
20218DPPI   GL131228   5.252   6.891  10.301  0.0092 -0.4241 -0.1259
20218DPPI   GL231229   5.086   7.175  10.194 -0.1124 -0.2401 -0.2321
20218DPPI   C1A31230   5.057   6.741   9.935  0.2230  0.4158 -0.4458
20218DPPI   C2A31231   4.939   6.627   9.477 -0.0580  0.0054 -0.1104
20218DPPI   C3A31232   4.633   6.533   9.164 -0.0419 -0.2226  0.0199
20218DPPI   C4A31233   4.305   6.736   9.234  0.0107 -0.0594 -0.0006
20218DPPI   C1B31234   5.341   7.128   9.842 -0.0986  0.1037 -0.0774
20218DPPI   C2B31235   5.311   7.012   9.419  0.2697 -0.1330 -0.0877
20218DPPI   C3B31236   5.117   6.920   9.000  0.0139 -0.1055 -0.1958
20218DPPI   C4B31237   4.738   6.891   8.880 -0.3840 -0.1367 -0.4532
20219DPPI    C131238   2.292   9.190  10.905 -0.0625  0.2476  0.0206
20219DPPI    C231239   2.463   8.966  11.189  0.1544 -0.1448 -0.4054
20219DPPI    C331240   2.590   9.340  11.125  0.1731 -0.0887 -0.0624
20219DPPI   PO431241   2.218   9.022  10.721 -0.2507 -0.0556 -0.1272
20219DPPI   GL131242   1.975   8.867  10.496 -0.2012 -0.3628 -0.3179
20219DPPI   GL231243   1.814   8.610  10.650  0.2884  0.2788 -0.1374
20219DPPI   C1A31244   1.849   8.822   9.993 -0.1185 -0.0438  0.0868
20219DPPI   C2A31245   1.609   8.708   9.577 -0.2052  0.0130 -0.1057
20219DPPI   C3A31246   1.656   8.798   9.047 -0.2113  0.1092  0.0794
20219DPPI   C4A31247   1.564   8.584   8.684  0.1043  0.0272  0.0849
20219DPPI   C1B31248   1.653   8.413  10.271  0.0561  0.0731  0.1090
20219DPPI   C2B31249   1.786   8.344   9.875 -0.0044  0.2927 -0.2707
20219DPPI   C3B31250   1.892   8.271   9.518 -0.1673  0.0494 -0.0594
20219DPPI   C4B31251   1.964   8.232   9.169  0.0004  0.0863 -0.0851
20220DPPI    C131252   8.378   7.964  11.244 -0.4715 -0.1711  0.0258
20220DPPI    C231253   8.083   8.196  11.383 -0.4054  0.1193 -0.3049
20220DPPI    C331254   8.464   8.299  11.444 -0.3711 -0.0987 -0.1373
20220DPPI   PO431255   8.265   7.934  10.923  0.0059  0.2452  0.0959
20220DPPI   GL131256   8.333   8.037  10.506 -0.0896 -0.1715 -0.1042
20220DPPI   GL231257   8.257   7.760  10.331 -0.4346 -0.1176 -0.0947
20220DPPI   C1A31258   8.726   8.131  10.383  0.1078  0.2002 -0.1714
20220DPPI   C2A31259   8.866   8.316   9.995 -0.0526 -0.1463 -0.2700
20220DPPI   C3A31260   8.814   8.275   9.593  0.0011  0.1952 -0.0064
20220DPPI   C4A31261   8.735   8.536   9.177 -0.2717  0.1039  0.0079
20220DPPI   C1B31262   8.507   7.840  10.071 -0.1848 -0.0286 -0.5847
20220DPPI   C2B31263   8.510   7.801   9.769  0.0520  0.0074 -0.5242
20220DPPI   C3B31264   8.610   7.744   9.384 -0.1111  0.2101  0.2299
20220DPPI   C4B31265   8.684   7.960   9.051 -0.0471 -0.4252 -0.4716
20221PYPI    C131266   7.919   9.478  11.341 -0.1188  0.0582 -0.1585
20221PYPI    C231267   8.203   9.257  11.516 -0.0088  0.0841 -0.3031
20221PYPI    C331268   7.832   9.113  11.480 -0.1102  0.1952  0.2193
20221PYPI   PO431269   8.189   9.535  11.063  0.0235 -0.0643 -0.2120
20221PYPI   GL131270   8.358   9.846  10.739 -0.2852  0.2027 -0.0852
20221PYPI   GL231271   8.575   9.726  10.781  0.3711 -0.0441 -0.2269
20221PYPI   C1A31272   8.411  10.222  10.547 -0.0812  0.0005  0.3193
20221PYPI   C2A31273   8.507  10.331  10.161 -0.0097 -0.0393 -0.1616
20221PYPI   D3A31274   8.738  10.576  10.010  0.2604  0.0401  0.1503
20221PYPI   C4A31275   8.619  10.633   9.656  0.1162  0.0911 -0.0079
20221PYPI   C1B31276   8.531   9.656  10.331  0.1269  0.1024  0.0776
20221PYPI   C2B31277   8.409   9.813  10.011  0.1695  0.3635  0.3465
20221PYPI   C3B31278   8.474  10.103   9.725 -0.0037 -0.0015 -0.0113
20221PYPI   C4B31279   8.432  10.167   9.276  0.0853 -0.1320  0.0284
20222PYPI    C131280   6.211  13.224  11.337  0.1510 -0.1849 -0.0060
20222PYPI    C231281   5.968  13.218  11.655  0.0161  0.0727 -0.1015
20222PYPI    C331282   6.279  13.469  11.646  0.1196 -0.0546 -0.1014
20222PYPI   PO431283   5.884  13.110  11.143 -0.0877 -0.1368  0.2922
20222PYPI   GL131284   5.914  13.116  10.730  0.1090  0.3104 -0.1449
20222PYPI   GL231285   5.607  12.951  10.549  0.1081  0.0555  0.5057
20222PYPI   C1A31286   6.094  13.160  10.298 -0.1016 -0.1109  0.0729
20222PYPI   C2A31287   6.070  13.002   9.887  0.2122  0.0321 -0.1365
20222PYPI   D3A31288   6.254  12.925   9.491  0.0064  0.0838  0.3202
20222PYPI   C4A31289   6.163  13.131   9.168  0.1901 -0.1039 -0.0350
20222PYPI   C1B31290   5.528  12.952  10.119 -0.2957 -0.2999 -0.2927
20222PYPI   C2B31291   5.615  12.896   9.653 -0.1979 -0.1469  0.0307
20222PYPI   C3B31292   5.828  12.722   9.304 -0.3785 -0.2978  0.2679
20222PYPI   C4B31293   6.185  12.520   9.008 -0.0760 -0.1137 -0.4266
20223PYPI    C131294  17.350   2.652  11.117 -0.0562  0.0221 -0.1282
20223PYPI    C231295  17.193   2.324  11.284 -0.0123  0.0352 -0.0608
20223PYPI    C331296  17.390   2.589  11.511  0.0434  0.0554 -0.1325
20223PYPI   PO431297  17.467   2.510  10.852  0.0496  0.1094 -0.2928
20223PYPI   GL131298  17.419   2.445  10.537  0.0018 -0.1853  0.2225
20223PYPI   GL231299  17.278   2.677  10.293 -0.2911  0.1834 -0.1848
20223PYPI   C1A31300  17.550   2.263  10.212 -0.0703 -0.2942 -0.2545
20223PYPI   C2A31301  17.536   2.227   9.683 -0.1150 -0.1567 -0.1359
20223PYPI   D3A31302  17.379   2.298   9.270  0.0384 -0.3214  0.0947
20223PYPI   C4A31303  17.624   2.482   8.954 -0.2573 -0.0163 -0.0840
20223PYPI   C1B31304  17.230   2.687   9.944  0.1340  0.3355  0.1123
20223PYPI   C2B31305  17.268   2.612   9.567 -0.0124 -0.3614  0.0441
20223PYPI   C3B31306  17.186   2.740   9.139  0.0886  0.0355 -0.0985
20223PYPI   C4B31307  17.276   2.736   8.716  0.1570  0.2915 -0.0387
20224PYPI    C131308   0.466  11.968  11.480 -0.0566  0.0776  0.2115
20224PYPI    C231309   0.570  12.354  11.465  0.0342  0.0479  0.0698
20224PYPI    C331310   0.527  12.172  11.819 -0.2189  0.2437  0.1424
20224PYPI   PO431311   0.354  11.940  11.230  0.1007 -0.1705 -0.0465
20224PYPI   GL131312   0.447  12.018  10.764 -0.0822 -0.3119 -0.0506
20224PYPI   GL231313   0.626  12.249  10.708 -0.1062  0.1655  0.2609
20224PYPI   C1A31314   0.258  11.861  10.383 -0.1067 -0.2404  0.0316
20224PYPI   C2A31315   0.195  11.878   9.943 -0.0635  0.2362  0.0120
20224PYPI   D3A31316   0.313  11.967   9.560 -0.0838  0.0076  0.1892
20224PYPI   C4A31317   0.197  11.921   9.150 -0.0962 -0.4129  0.0747
20224PYPI   C1B31318   0.640  12.188  10.326  0.1982 -0.1832 -0.0255
20224PYPI   C2B31319   0.659  12.149   9.918 -0.2628 -0.2252  0.0143
20224PYPI   C3B31320   0.781  12.224   9.538  0.3031 -0.1585  0.0221
20224PYPI   C4B31321   0.863  12.249   9.183 -0.2773 -0.1940 -0.0212
20225PYPI    C131322  10.003   0.354  11.467  0.2772  0.2033  0.1991
20225PYPI    C231323   9.745   0.305  11.769 -0.0119 -0.1316 -0.0923
20225PYPI    C331324  10.131   0.377  11.845 -0.1316  0.0745  0.3513
20225PYPI   PO431325   9.950   0.303  11.224 -0.0710 -0.0373 -0.0969
20225PYPI   GL131326   9.911   0.319  10.744 -0.0551  0.2370  0.1084
20225PYPI   GL231327  10.077   0.091  10.630 -0.3522  0.1696  0.0592
20225PYPI   C1A31328   9.819   0.487  10.342 -0.0910 -0.2364  0.1105
20225PYPI   C2A31329   9.848   0.459   9.880  0.1246  0.1562  0.2814
20225PYPI   D3A31330  10.069   0.505   9.469  0.1374 -0.1050 -0.3491
20225PYPI   C4A31331   9.946   0.494   9.079  0.2261 -0.3909 -0.0982
20225PYPI   C1B31332  10.166   0.058  10.162 -0.1220  0.0841  0.0895
20225PYPI   C2B31333  10.252   0.115   9.773 -0.0306  0.1279 -0.2208
20225PYPI   C3B31334  10.473   0.106   9.427 -0.0107  0.0243  0.1994
20225PYPI   C4B31335  10.437   0.157   9.015 -0.0845 -0.0057  0.0646
20226PYPI    C131336   8.387   0.399  11.163  0.3005  0.2506  0.0124
20226PYPI    C231337   8.074   0.502  11.390  0.1015 -0.2619 -0.0160
20226PYPI    C331338   8.435   0.454  11.556  0.1291  0.1405  0.0497
20226PYPI   PO431339   8.431   0.599  10.981 -0.0275  0.4170 -0.0315
20226PYPI   GL131340   8.462   0.962  10.599 -0.3045 -0.0635  0.4055
20226PYPI   GL231341   8.539   0.653  10.503 -0.2216  0.2242 -0.0010
20226PYPI   C1A31342   8.084   0.893  10.330  0.0383 -0.1612 -0.3701
20226PYPI   C2A31343   7.921   0.862   9.946  0.2939  0.2324 -0.0888
20226PYPI   D3A31344   7.690   1.201   9.718  0.1196  0.5960  0.0667
20226PYPI   C4A31345   7.919   1.586   9.601 -0.0010 -0.1317  0.0686
20226PYPI   C1B31346   8.461   0.660  10.031  0.2165 -0.1911  0.2730
20226PYPI   C2B31347   8.248   0.647   9.603  0.0386  0.2748  0.1317
20226PYPI   C3B31348   8.236   0.385   9.330 -0.2299 -0.1716 -0.1310
20226PYPI   C4B31349   7.934   0.467   9.138 -0.0337 -0.1071 -0.1986
20227PYPI    C131350   6.021  11.059  11.258  0.3242  0.3949  0.0849
20227PYPI    C231351   5.780  11.356  11.375 -0.1719  0.0409 -0.0062
20227PYPI    C331352   5.958  11.124  11.647 -0.2130  0.0860  0.0592
20227PYPI   PO431353   6.112  11.199  11.034 -0.2457  0.2796  0.0898
20227PYPI   GL131354   6.016  10.955  10.637  0.2029  0.2892 -0.0229
20227PYPI   GL231355   5.870  11.283  10.579 -0.0334  0.0712 -0.0794
20227PYPI   C1A31356   5.959  10.669  10.323  0.2995  0.3236 -0.4902
20227PYPI   C2A31357   6.076  10.242  10.085  0.0194 -0.1757 -0.1770
20227PYPI   D3A31358   6.321   9.896  10.051  0.1589 -0.1050 -0.2262
20227PYPI   C4A31359   6.362   9.856   9.677 -0.1150 -0.0363  0.1799
20227PYPI   C1B31360   5.732  11.163  10.247 -0.3191  0.2265  0.2366
20227PYPI   C2B31361   5.824  11.066   9.854  0.1851  0.1783  0.1731
20227PYPI   C3B31362   5.901  11.224   9.411  0.0169 -0.1847  0.2628
20227PYPI   C4B31363   5.930  11.258   8.972 -0.1635 -0.4273  0.2650
20228PYPI    C131364   5.710   5.970  10.626 -0.0857 -0.1207  0.1984
20228PYPI    C231365   5.940   5.812  10.913  0.1112 -0.0670  0.0719
20228PYPI    C331366   5.892   5.620  10.565 -0.1402 -0.1397  0.1448
20228PYPI   PO431367   5.757   6.269  10.656  0.1801 -0.1293 -0.2884
20228PYPI   GL131368   5.655   6.524  10.457  0.3633  0.2034  0.2255
20228PYPI   GL231369   5.815   6.695  10.308 -0.1256 -0.1441 -0.1823
20228PYPI   C1A31370   5.515   6.503  10.021  0.1364 -0.4547 -0.0184
20228PYPI   C2A31371   5.462   6.591   9.652  0.0494  0.0405 -0.2189
20228PYPI   D3A31372   5.552   6.625   9.235  0.1775  0.0117  0.1363
20228PYPI   C4A31373   5.530   6.080   9.014  0.0180 -0.0786  0.0284
20228PYPI   C1B31374   6.100   6.542   9.910  0.2970 -0.1044 -0.0677
20228PYPI   C2B31375   6.123   6.620   9.483 -0.0947  0.2197  0.4140
20228PYPI   C3B31376   6.070   6.568   9.059  0.0896 -0.2123 -0.2820
20228PYPI   C4B31377   6.152   6.944   8.865 -0.3873 -0.0247  0.0177
20229PYPI    C131378   7.166   6.595  11.133  0.1078 -0.0927  0.0892
20229PYPI    C231379   7.255   6.772  11.480 -0.2863 -0.0425  0.1692
20229PYPI    C331380   7.136   6.390  11.475 -0.1505 -0.0841  0.0741
20229PYPI   PO431381   7.053   6.810  10.981 -0.0620  0.1318 -0.2213
20229PYPI   GL131382   7.091   6.841  10.559 -0.2289  0.1694  0.3281
20229PYPI   GL231383   6.981   6.584  10.237 -0.0029  0.0811  0.2329
20229PYPI   C1A31384   7.373   6.965  10.268 -0.0423  0.0242 -0.0388
20229PYPI   C2A31385   7.328   7.348  10.082 -0.4593  0.0998 -0.1381
20229PYPI   D3A31386   7.231   7.685   9.981 -0.2603  0.4848 -0.0499
20229PYPI   C4A31387   7.343   7.721   9.586 -0.0772  0.0026 -0.1418
20229PYPI   C1B31388   6.938   6.521   9.829  0.3076 -0.0385  0.0608
20229PYPI   C2B31389   7.068   6.700   9.383  0.3000 -0.0642  0.1921
20229PYPI   C3B31390   7.021   6.519   8.965 -0.0357 -0.2125 -0.0846
20229PYPI   C4B31391   7.061   6.173   8.704 -0.1872 -0.0569  0.0511
20230PYPI    C131392   7.636   2.476  11.151  0.2181 -0.0120  0.2215
20230PYPI    C231393   7.325   2.320  11.348  0.1114 -0.0287  0.0417
20230PYPI    C331394   7.695   2.186  11.420  0.0810  0.0096  0.2756
20230PYPI   PO431395   7.559   2.496  10.850 -0.0132 -0.1601  0.0177
20230PYPI   GL131396   7.800   2.468  10.537  0.0293 -0.0436  0.1579
20230PYPI   GL231397   7.596   2.172  10.361  0.1162 -0.0046  0.1087
20230PYPI   C1A31398   7.918   2.533  10.158  0.5812 -0.0321  0.2610
20230PYPI   C2A31399   7.934   2.562   9.725  0.3022  0.0525 -0.0193
20230PYPI   D3A31400   8.038   2.507   9.284  0.1024  0.0963  0.0685
20230PYPI   C4A31401   8.126   2.587   8.877  0.0335 -0.1461  0.1990
20230PYPI   C1B31402   7.581   2.204   9.906 -0.0299  0.0311 -0.0050
20230PYPI   C2B31403   7.709   2.170   9.497 -0.1285 -0.0080  0.0869
20230PYPI   C3B31404   7.797   2.098   9.139 -0.1449  0.1595 -0.1187
20230PYPI   C4B31405   7.518   1.931   8.839 -0.0522 -0.0403  0.1821
20231PYPI    C131406   7.212   3.117  11.083  0.3305 -0.1730  0.0806
20231PYPI    C231407   7.177   2.719  11.087 -0.0682 -0.1427  0.0426
20231PYPI    C331408   6.940   2.942  11.319  0.1674  0.0734  0.0793
20231PYPI   PO431409   7.270   3.181  10.897  0.1373 -0.1068 -0.0889
20231PYPI   GL131410   7.165   3.168  10.494  0.2026 -0.1071 -0.2214
20231PYPI   GL231411   7.169   2.804  10.550  0.4024 -0.0230  0.0034
20231PYPI   C1A31412   7.189   3.200  10.047 -0.1427 -0.1285  0.0970
20231PYPI   C2A31413   7.275   3.118   9.594  0.1747 -0.2187 -0.0966
20231PYPI   D3A31414   7.380   3.087   9.140  0.0672 -0.2007  0.2395
20231PYPI   C4A31415   7.685   3.336   8.941  0.1647 -0.0208 -0.0445
20231PYPI   C1B31416   7.393   2.635  10.178 -0.1059  0.0607 -0.1008
20231PYPI   C2B31417   7.348   2.614   9.645  0.4056  0.1205 -0.0388
20231PYPI   C3B31418   7.558   2.620   9.172 -0.4059 -0.0339 -0.0876
20231PYPI   C4B31419   7.673   2.401   8.738  0.4035 -0.2061  0.3776
20232PYPI    C131420   4.593   0.322  11.337  0.0521  0.2195  0.2199
20232PYPI    C231421   4.334   0.060  11.493 -0.0854  0.1880 -0.0557
20232PYPI    C331422   4.726   0.020  11.563 -0.1228  0.0239  0.0647
20232PYPI   PO431423   4.504   0.366  11.001 -0.2828  0.0502  0.1864
20232PYPI   GL131424   4.791   0.051  10.643  0.0480  0.1895 -0.1051
20232PYPI   GL231425   4.614   0.283  10.512  0.1726  0.0901 -0.0342
20232PYPI   C1A31426   4.822  -0.086  10.192  0.0658 -0.0905 -0.1132
20232PYPI   C2A31427   4.725  -0.094   9.695  0.1213  0.1875 -0.0332
20232PYPI   D3A31428   4.590  -0.305   9.272 -0.0311  0.0280 -0.3645
20232PYPI   C4A31429   4.334  -0.077   9.010  0.0067 -0.0169 -0.0017
20232PYPI   C1B31430   4.375   0.194  10.122  0.0209 -0.0768 -0.0204
20232PYPI   C2B31431   4.183   0.156   9.642  0.0116  0.2807 -0.0653
20232PYPI   C3B31432   3.954   0.076   9.357 -0.0724 -0.1212  0.2061
20232PYPI   C4B31433   3.637   0.245   9.346  0.2631 -0.0008  0.0353
20233PYPI    C131434   4.363   6.230  11.076  0.3613 -0.0971  0.1972
20233PYPI    C231435   4.489   5.981  10.789 -0.0267  0.1099 -0.1634
20233PYPI    C331436   4.199   5.867  11.040 -0.0626  0.1223 -0.1990
20233PYPI   PO431437   4.274   6.433  10.977 -0.3369 -0.2889 -0.0576
20233PYPI   GL131438   4.219   6.634  10.521 -0.2033  0.0744 -0.1230
20233PYPI   GL231439   4.237   6.335  10.502  0.1254 -0.1230 -0.1135
20233PYPI   C1A31440   4.271   6.933  10.263 -0.0071  0.0116  0.3130
20233PYPI   C2A31441   4.587   7.135  10.081 -0.1241  0.2060 -0.0364
20233PYPI   D3A31442   4.859   7.106   9.737  0.2374  0.0187  0.0733
20233PYPI   C4A31443   4.786   7.063   9.338  0.0642 -0.0431  0.0978
20233PYPI   C1B31444   4.198   6.071  10.027 -0.0067  0.0579  0.0691
20233PYPI   C2B31445   4.200   6.227   9.609  0.1873 -0.0510  0.0914
20233PYPI   C3B31446   4.186   6.223   9.250 -0.2145  0.3155 -0.1773
20233PYPI   C4B31447   4.278   6.429   8.872  0.1888 -0.2142 -0.0896
20234PYPI    C131448   4.519   3.271  11.027  0.3636 -0.0288 -0.1972
20234PYPI    C231449   4.760   3.162  11.327 -0.1563  0.0620  0.2706
20234PYPI    C331450   4.674   3.549  11.269 -0.4295  0.0087  0.3056
20234PYPI   PO431451   4.277   3.069  10.975  0.1727  0.0938 -0.0955
20234PYPI   GL131452   4.034   3.112  10.683 -0.1881 -0.2857  0.0038
20234PYPI   GL231453   4.299   3.230  10.533  0.0385 -0.1165  0.2530
20234PYPI   C1A31454   3.844   3.211  10.265 -0.1292  0.0578 -0.1772
20234PYPI   C2A31455   3.773   3.344   9.960  0.0410 -0.1236 -0.0215
20234PYPI   D3A31456   3.727   3.386   9.519 -0.2490 -0.2574  0.1103
20234PYPI   C4A31457   3.560   3.362   9.119 -0.0305  0.2308 -0.1021
20234PYPI   C1B31458   4.316   3.254  10.111  0.4181 -0.0132  0.5605
20234PYPI   C2B31459   4.266   3.262   9.645 -0.0895 -0.3115  0.0616
20234PYPI   C3B31460   4.102   3.344   9.204 -0.0320 -0.0126 -0.1902
20234PYPI   C4B31461   4.022   3.216   8.777  0.2247 -0.0792 -0.0557
20235PYPI    C131462   1.623   3.891  10.941 -0.0225  0.1103 -0.0949
20235PYPI    C231463   1.646   4.241  10.747  0.1748  0.1223 -0.0514
20235PYPI    C331464   1.586   4.235  11.143 -0.0876  0.1004 -0.0896
20235PYPI   PO431465   1.874   3.719  10.770 -0.1865 -0.2085  0.3735
20235PYPI   GL131466   2.006   3.543  10.283 -0.2366 -0.1009 -0.0704
20235PYPI   GL231467   2.249   3.557  10.485  0.3311  0.1168 -0.0200
20235PYPI   C1A31468   2.181   3.425   9.999  0.1394  0.1308  0.1372
20235PYPI   C2A31469   2.224   3.330   9.628 -0.1600  0.2616  0.2328
20235PYPI   D3A31470   2.275   3.167   9.224 -0.1176 -0.1623  0.1202
20235PYPI   C4A31471   1.925   3.004   8.906  0.1448  0.1677  0.0109
20235PYPI   C1B31472   2.198   3.156  10.449 -0.1855 -0.0377  0.2794
20235PYPI   C2B31473   2.163   2.724  10.381 -0.1285  0.1476  0.0642
20235PYPI   C3B31474   2.236   2.490  10.038  0.2044  0.1328 -0.0947
20235PYPI   C4B31475   2.234   2.355   9.566  0.0107  0.0922 -0.0663
20236PYPI    C131476   5.466   7.293  10.662 -0.1376 -0.0830  0.1419
20236PYPI    C231477   5.659   7.155  10.340 -0.0623 -0.0049  0.1530
20236PYPI    C331478   5.674   6.953  10.685 -0.2042 -0.1275  0.0885
20236PYPI   PO431479   5.197   7.459  10.612  0.2943  0.1146 -0.0621
20236PYPI   GL131480   4.920   7.638  10.334  0.2307 -0.0751  0.0887
20236PYPI   GL231481   5.054   7.951  10.243  0.0801 -0.0428 -0.0832
20236PYPI   C1A31482   4.800   7.824   9.895 -0.0577  0.2847 -0.0184
20236PYPI   C2A31483   4.872   8.085   9.520  0.2634 -0.0807  0.0806
20236PYPI   D3A31484   4.940   8.239   9.093 -0.0249  0.2884  0.0107
20236PYPI   C4A31485   4.560   8.283   8.859 -0.2205 -0.0771  0.1067
20236PYPI   C1B31486   5.164   8.173   9.944 -0.3140 -0.1054  0.1160
20236PYPI   C2B31487   5.065   8.537   9.632  0.2652  0.0680  0.2184
20236PYPI   C3B31488   5.425   8.714   9.355  0.1027  0.3439  0.0776
20236PYPI   C4B31489   5.538   8.872   8.919  0.1991  0.2785  0.1215
20237PYPI    C131490   2.141   1.377  11.242  0.1499  0.0911  0.0638
20237PYPI    C231491   2.444   1.437  10.988  0.1979 -0.0580  0.0845
20237PYPI    C331492   2.487   1.527  11.376  0.2466 -0.1623  0.1034
20237PYPI   PO431493   2.006   1.636  11.116  0.2188  0.1052  0.3737
20237PYPI   GL131494   2.112   1.844  10.775 -0.0680 -0.0356 -0.0494
20237PYPI   GL231495   2.496   1.940  10.988 -0.2088 -0.0079  0.1757
20237PYPI   C1A31496   2.401   1.562  10.521  0.0744 -0.1893  0.1219
20237PYPI   C2A31497   2.406   1.495  10.072  0.3270 -0.0274 -0.3606
20237PYPI   D3A31498   2.423   1.256   9.784  0.2405  0.2231  0.1366
20237PYPI   C4A31499   2.727   1.424   9.525 -0.1032 -0.0887  0.0280
20237PYPI   C1B31500   2.467   2.109  10.538 -0.0338  0.0131  0.0936
20237PYPI   C2B31501   2.487   2.007  10.081  0.0741 -0.0006  0.1162
20237PYPI   C3B31502   2.433   1.880   9.661 -0.1706 -0.0084  0.1188
20237PYPI   C4B31503   2.181   2.026   9.199  0.1329 -0.2022 -0.0439
20238PYPI    C131504   6.531  14.123  11.290  0.0133  0.0701  0.0748
20238PYPI    C231505   6.181  14.290  11.388 -0.0356 -0.0179  0.0511
20238PYPI    C331506   6.380  14.069  11.656 -0.0336 -0.0282  0.0411
20238PYPI   PO431507   6.521  14.070  10.973  0.2007 -0.2771 -0.2206
20238PYPI   GL131508   6.480  13.943  10.713 -0.0920 -0.2367  0.0575
20238PYPI   GL231509   6.287  14.149  10.529  0.0428 -0.1049  0.2547
20238PYPI   C1A31510   6.742  13.843  10.358  0.1176 -0.0131 -0.1854
20238PYPI   C2A31511   6.738  13.691  10.101 -0.0495 -0.0519  0.1002
20238PYPI   D3A31512   6.715  13.615   9.675  0.2318  0.2076  0.0955
20238PYPI   C4A31513   6.687  13.193   9.447  0.1240  0.1514  0.0151
20238PYPI   C1B31514   6.585  14.326  10.262  0.0976  0.1513 -0.1496
20238PYPI   C2B31515   6.758  14.586   9.891 -0.0636  0.1244  0.0251
20238PYPI   C3B31516   6.750  14.810   9.511  0.1211  0.2130 -0.1270
20238PYPI   C4B31517   6.573  14.813   9.062 -0.1592 -0.1161  0.1292
20239PYPI    C131518   5.705   5.472  11.154  0.0821  0.0585 -0.0233
20239PYPI    C231519   5.539   5.413  11.513 -0.0737  0.1163 -0.0853
20239PYPI    C331520   5.715   5.762  11.430  0.0223  0.0784 -0.0419
20239PYPI   PO431521   5.580   5.440  10.895  0.2244 -0.0843  0.1211
20239PYPI   GL131522   5.456   5.506  10.428 -0.1215  0.0294  0.1717
20239PYPI   GL231523   5.248   5.689  10.565  0.0112  0.2705  0.1366
20239PYPI   C1A31524   5.316   5.392   9.990 -0.2166  0.1127  0.2401
20239PYPI   C2A31525   5.100   5.372   9.555  0.0044 -0.1546  0.0631
20239PYPI   D3A31526   4.959   5.563   9.192  0.2791 -0.0030  0.1813
20239PYPI   C4A31527   4.543   5.241   8.968  0.3345  0.1545  0.1287
20239PYPI   C1B31528   5.059   5.779  10.132 -0.1065  0.0392 -0.1999
20239PYPI   C2B31529   4.863   5.862   9.776 -0.0642  0.2090  0.1272
20239PYPI   C3B31530   4.653   6.130   9.398 -0.0412  0.1453 -0.2448
20239PYPI   C4B31531   4.568   6.058   8.883 -0.2080  0.0064  0.2253
20240PYPI    C131532   6.753  12.776  11.363 -0.1045  0.1679  0.0087
20240PYPI    C231533   6.701  12.533  11.677  0.0090  0.0985 -0.0257
20240PYPI    C331534   6.912  12.871  11.718  0.1279  0.0283 -0.0562
20240PYPI   PO431535   6.794  12.510  11.110  0.0272  0.0256 -0.2687
20240PYPI   GL131536   6.952  12.371  10.712  0.1061 -0.3069 -0.4380
20240PYPI   GL231537   6.649  12.272  10.615  0.1807  0.2405  0.5474
20240PYPI   C1A31538   7.218  12.464  10.432  0.0707 -0.0388  0.0986
20240PYPI   C2A31539   7.328  12.273  10.042  0.0380  0.0057 -0.0091
20240PYPI   D3A31540   7.278  12.186   9.597  0.1994  0.4107 -0.2973
20240PYPI   C4A31541   7.660  12.015   9.395 -0.2454  0.1841  0.0183
20240PYPI   C1B31542   6.697  12.395  10.204  0.2483 -0.1715  0.0359
20240PYPI   C2B31543   6.765  12.161   9.783 -0.0390 -0.0667 -0.2057
20240PYPI   C3B31544   6.871  11.988   9.362  0.0856 -0.0235  0.3592
20240PYPI   C4B31545   6.694  11.701   9.026  0.0152 -0.1262 -0.1372
20241PYPI    C131546   2.570  16.351  10.911  0.0083  0.1104 -0.0238
20241PYPI    C231547   2.394  16.367  11.270  0.0006  0.0569 -0.0250
20241PYPI    C331548   2.551  16.023  11.139  0.1560  0.1174 -0.0000
20241PYPI   PO431549   2.801  16.562  10.847  0.2899  0.3301  0.1038
20241PYPI   GL131550   3.147  16.684  10.649  0.0333 -0.0812 -0.0964
20241PYPI   GL231551   3.135  16.961  10.560  0.1372 -0.0230 -0.2187
20241PYPI   C1A31552   3.245  16.688  10.099 -0.1043 -0.1008  0.0353
20241PYPI   C2A31553   3.276  16.653   9.691  0.1561 -0.0307 -0.1253
20241PYPI   D3A31554   3.413  16.592   9.331 -0.0965 -0.1526 -0.1325
20241PYPI   C4A31555   3.673  16.314   9.081 -0.0627 -0.0173  0.0617
20241PYPI   C1B31556   2.974  17.219  10.259 -0.0955  0.1076 -0.0733
20241PYPI   C2B31557   2.735  17.371  10.043  0.1415  0.0875 -0.0853
20241PYPI   C3B31558   2.360  17.558   9.729  0.1946 -0.0088  0.0500
20241PYPI   C4B31559   2.379  17.770   9.295  0.4959  0.1695 -0.2986
20242PYPI    C131560   2.456   4.466  10.990  0.2176  0.0345  0.0581
20242PYPI    C231561   2.322   4.777  11.203  0.0563 -0.0342  0.0590
20242PYPI    C331562   2.479   4.459  11.389  0.2097  0.0405  0.0586
20242PYPI   PO431563   2.618   4.523  10.893 -0.2512 -0.0153  0.1121
20242PYPI   GL131564   2.720   4.659  10.518  0.0237  0.0388 -0.0136
20242PYPI   GL231565   3.024   4.805  10.378 -0.1133 -0.0001 -0.0681
20242PYPI   C1A31566   2.404   4.530  10.221  0.0282 -0.1144 -0.0857
20242PYPI   C2A31567   2.363   4.551   9.889  0.0489 -0.2816 -0.2485
20242PYPI   D3A31568   2.556   4.523   9.595 -0.0748 -0.0736 -0.4083
20242PYPI   C4A31569   2.299   4.337   9.410 -0.0552 -0.3002  0.0112
20242PYPI   C1B31570   2.952   4.645   9.892  0.0769 -0.2639 -0.0071
20242PYPI   C2B31571   3.001   4.612   9.436 -0.2416  0.1945 -0.3524
20242PYPI   C3B31572   2.647   4.697   9.137 -0.1712  0.0020 -0.1985
20242PYPI   C4B31573   2.299   4.647   8.887  0.4283 -0.1362  0.2190
20243PYPI    C131574   3.109  15.572  11.376 -0.1999  0.0724  0.0408
20243PYPI    C231575   3.063  15.965  11.317  0.0977  0.0413 -0.4600
20243PYPI    C331576   3.430  15.809  11.343 -0.0192 -0.1790 -0.0373
20243PYPI   PO431577   2.944  15.466  11.276 -0.1188 -0.2981  0.0431
20243PYPI   GL131578   2.820  15.615  10.913 -0.3525  0.0791  0.1792
20243PYPI   GL231579   2.761  15.260  10.868 -0.1101 -0.1731  0.0154
20243PYPI   C1A31580   2.584  15.577  10.512  0.3522 -0.0246  0.0350
20243PYPI   C2A31581   2.723  15.652  10.041 -0.0435 -0.1716  0.0469
20243PYPI   D3A31582   2.687  15.594   9.589  0.0953  0.2705 -0.0853
20243PYPI   C4A31583   2.835  15.741   9.162 -0.1150  0.2567 -0.2295
20243PYPI   C1B31584   2.973  15.178  10.501 -0.0351 -0.1878 -0.2140
20243PYPI   C2B31585   2.987  15.230  10.096 -0.0580  0.2543  0.1576
20243PYPI   C3B31586   3.020  15.119   9.636  0.1429  0.1996  0.1307
20243PYPI   C4B31587   2.928  15.233   9.189  0.0652  0.2701 -0.2098
20244PYPI    C131588   7.605   5.742  10.651 -0.1601  0.0082 -0.0041
20244PYPI    C231589   7.324   5.460  10.606 -0.0756 -0.0592 -0.1145
20244PYPI    C331590   7.220   5.846  10.619 -0.1706 -0.0821 -0.1864
20244PYPI   PO431591   7.950   5.562  10.473 -0.0774 -0.3391 -0.0668
20244PYPI   GL131592   8.182   5.689  10.209  0.0906 -0.2418  0.0304
20244PYPI   GL231593   8.471   5.845  10.127 -0.2775  0.0867  0.0412
20244PYPI   C1A31594   7.915   5.669   9.820  0.1534  0.0751 -0.2046
20244PYPI   C2A31595   7.963   5.729   9.478 -0.0650  0.1632  0.1116
20244PYPI   D3A31596   7.893   5.714   9.058 -0.0931 -0.0407  0.1494
20244PYPI   C4A31597   7.743   5.939   8.732  0.2634  0.0316  0.0103
20244PYPI   C1B31598   8.413   5.786   9.613  0.0360 -0.0389  0.1292
20244PYPI   C2B31599   8.419   5.775   9.217  0.1625 -0.0211 -0.1549
20244PYPI   C3B31600   8.456   5.671   8.751  0.1725 -0.2757 -0.1838
20244PYPI   C4B31601   8.173   5.650   8.315 -0.0326  0.1448  0.0090
20245PYPI    C131602   1.648   5.637  10.881  0.0295 -0.0546 -0.0467
20245PYPI    C231603   1.922   5.354  10.813  0.2119  0.1149 -0.0277
20245PYPI    C331604   1.834   5.461  11.188  0.0554  0.0004 -0.0306
20245PYPI   PO431605   1.773   5.863  10.731  0.1386 -0.1674 -0.3108
20245PYPI   GL131606   1.666   6.021  10.347 -0.2187  0.1823 -0.0632
20245PYPI   GL231607   1.325   5.965  10.255  0.2431  0.0402  0.1556
20245PYPI   C1A31608   1.663   5.827   9.934  0.1053  0.1505 -0.0594
20245PYPI   C2A31609   1.765   5.706   9.519  0.1199  0.1128  0.7151
20245PYPI   D3A31610   1.776   5.512   9.204 -0.1519 -0.2099  0.0998
20245PYPI   C4A31611   1.709   5.061   9.161 -0.1835  0.0495 -0.2469
20245PYPI   C1B31612   1.140   5.915   9.824  0.3341  0.2141  0.1155
20245PYPI   C2B31613   1.216   5.898   9.402  0.1931  0.0322 -0.0237
20245PYPI   C3B31614   1.070   5.920   9.069 -0.0454 -0.0673 -0.2422
20245PYPI   C4B31615   1.086   5.719   8.724 -0.0446 -0.3555 -0.0813
20246PYPI    C131616   4.858  16.215  11.251  0.1074 -0.1649  0.0053
20246PYPI    C231617   5.039  15.993  11.530  0.1368 -0.2967 -0.1173
20246PYPI    C331618   4.703  15.862  11.359 -0.1865  0.0318  0.2449
20246PYPI   PO431619   5.065  16.375  11.092 -0.3198 -0.2626 -0.1033
20246PYPI   GL131620   4.917  16.514  10.702  0.0444  0.1391  0.0548
20246PYPI   GL231621   4.629  16.691  10.872  0.1510 -0.3386  0.4958
20246PYPI   C1A31622   5.053  16.375  10.360 -0.1592  0.2967 -0.0944
20246PYPI   C2A31623   5.214  16.266   9.959 -0.1864  0.1026 -0.0707
20246PYPI   D3A31624   5.182  16.133   9.534 -0.2591 -0.1333 -0.0779
20246PYPI   C4A31625   5.048  16.413   9.236 -0.1001 -0.0324 -0.2625
20246PYPI   C1B31626   4.522  16.533  10.408 -0.0202  0.2080 -0.0400
20246PYPI   C2B31627   4.663  16.554  10.020  0.3000  0.1155 -0.1707
20246PYPI   C3B31628   4.738  16.393   9.650 -0.1959  0.2155  0.0747
20246PYPI   C4B31629   4.553  16.396   9.253 -0.1359 -0.0511 -0.0547
20247ERGO   ROH31630   4.973  16.084   6.950  0.0428  0.0390 -0.1610
20247ERGO    R131631   5.058  16.187   7.200  0.0220  0.1964 -0.2187
20247ERGO    R231632   4.957  16.421   7.307 -0.3669 -0.0051 -0.1392
20247ERGO    R331633   4.905  16.262   7.521  0.1007 -0.1228 -0.1014
20247ERGO    R431634   4.975  16.522   7.637 -0.4029  0.0566 -0.1554
20247ERGO    R531635   5.065  16.329   7.685  0.0558  0.2433 -0.1942
20247ERGO    C131636   4.937  16.431   8.030  0.0151 -0.0179 -0.1293
20247ERGO    C231637   5.031  16.520   8.372  0.1348 -0.1550  0.0262
20248ERGO   ROH31638  15.771  11.578  11.399  0.0411  0.1698 -0.1654
20248ERGO    R131639  15.670  11.747  11.196 -0.0765  0.1101 -0.1575
20248ERGO    R231640  15.832  11.862  11.002 -0.1449  0.2795 -0.1153
20248ERGO    R331641  15.656  11.744  10.832 -0.0163  0.1477 -0.1613
20248ERGO    R431642  15.840  11.890  10.658 -0.0876  0.3076 -0.1115
20248ERGO    R531643  15.624  11.905  10.658 -0.1048  0.1358 -0.1586
20248ERGO    C131644  15.680  11.795  10.298  0.0663  0.2000 -0.1525
20248ERGO    C231645  15.692  11.775  10.013 -0.0543  0.0686  0.0326
20249ERGO   ROH31646  15.779   2.884  10.413  0.0165 -0.3016  0.0009
20249ERGO    R131647  15.765   2.999  10.155 -0.2609 -0.1211  0.0918
20249ERGO    R231648  15.955   2.950   9.959 -0.2291  0.3544 -0.0076
20249ERGO    R331649  15.738   2.878   9.813 -0.1569  0.0917  0.0063
20249ERGO    R431650  15.942   2.946   9.614 -0.2718  0.4121 -0.0076
20249ERGO    R531651  15.741   3.027   9.625 -0.3842  0.1393  0.0378
20249ERGO    C131652  15.730   2.877   9.275 -0.2290  0.1992  0.0056
20249ERGO    C231653  15.908   2.680   8.973 -0.3096 -0.0130  0.1126
20250ERGO   ROH31654  16.322  14.804  11.154  0.0323 -0.1223 -0.0361
20250ERGO    R131655  16.384  14.845  10.881  0.0258 -0.0012 -0.0203
20250ERGO    R231656  16.307  14.668  10.683  0.0663  0.0583 -0.0930
20250ERGO    R331657  16.196  14.891  10.572  0.0177  0.0782 -0.0032
20250ERGO    R431658  16.271  14.723  10.343  0.2069  0.2624 -0.0762
20250ERGO    R531659  16.328  14.931  10.376  0.0940  0.2674  0.0862
20250ERGO    C131660  16.147  14.963  10.042  0.2428  0.3998  0.0180
20250ERGO    C231661  16.079  15.073   9.737  0.1633  0.1744  0.0335
20251ERGO   ROH31662   0.910   9.626  10.628  0.1247 -0.2167 -0.0098
20251ERGO    R131663   0.775   9.551  10.390  0.1072 -0.0646 -0.0475
20251ERGO    R231664   0.643   9.734  10.230  0.0551  0.0297  0.1087
20251ERGO    R331665   0.801   9.629  10.036  0.0446  0.2019  0.0029
20251ERGO    R431666   0.574   9.745   9.892 -0.0202  0.2424  0.1284
20251ERGO    R531667   0.647   9.541   9.875  0.0318  0.2689 -0.0254
20251ERGO    C131668   0.682   9.653   9.512 -0.0738  0.5278  0.0407
20251ERGO    C231669   0.794   9.543   9.264  0.0685  0.1547 -0.3748
20252ERGO   ROH31670   8.945  12.520  10.932  0.2977 -0.1937  0.0307
20252ERGO    R131671   9.001  12.577  10.660  0.2114 -0.0400  0.0437
20252ERGO    R231672   9.253  12.647  10.571  0.2205 -0.1479 -0.0223
20252ERGO    R331673   9.214  12.439  10.399  0.0002 -0.0037 -0.1507
20252ERGO    R431674   9.423  12.602  10.274  0.2950 -0.2339  0.0332
20252ERGO    R531675   9.236  12.538  10.182  0.2410  0.0828 -0.0889
20252ERGO    C131676   9.486  12.382   9.939  0.1317 -0.1486 -0.0551
20252ERGO    C231677   9.523  12.379   9.572  0.0481 -0.0184  0.2704
20253ERGO   ROH31678  16.375  13.811  11.438  0.1405  0.0549 -0.0213
20253ERGO    R131679  16.358  13.757  11.161  0.0051 -0.1821  0.0296
20253ERGO    R231680  16.162  13.596  11.052 -0.2283 -0.0485  0.2277
20253ERGO    R331681  16.115  13.812  10.895  0.0014 -0.1269  0.0468
20253ERGO    R431682  16.114  13.583  10.710 -0.3613 -0.2827  0.2532
20253ERGO    R531683  16.234  13.764  10.692 -0.1328 -0.4586  0.0464
20253ERGO    C131684  16.041  13.779  10.363 -0.2231 -0.4926  0.0983
20253ERGO    C231685  15.953  13.612  10.086 -0.1962 -0.1262  0.3258
20254ERGO   ROH31686   7.572  14.941  10.791  0.0121  0.0317 -0.0293
20254ERGO    R131687   7.653  14.802  10.558 -0.0060 -0.0937  0.0391
20254ERGO    R231688   7.478  14.654  10.405 -0.1005  0.1422 -0.0801
20254ERGO    R331689   7.573  14.810  10.203  0.2688  0.0024 -0.0247
20254ERGO    R431690   7.525  14.549  10.079 -0.1418  0.0839 -0.0679
20254ERGO    R531691   7.711  14.663  10.074  0.0725 -0.2377  0.0255
20254ERGO    C131692   7.641  14.634   9.700  0.1810 -0.0812 -0.0087
20254ERGO    C231693   7.566  14.669   9.341  0.1723  0.0109  0.2024
20255ERGO   ROH31694   7.351  10.793   7.119  0.2832 -0.3000 -0.1986
20255ERGO    R131695   7.383  10.695   7.382  0.1710 -0.3310 -0.1961
20255ERGO    R231696   7.365  10.857   7.605  0.3196 -0.3093 -0.1979
20255ERGO    R331697   7.180  10.673   7.683  0.1314 -0.1268 -0.2073
20255ERGO    R431698   7.266  10.802   7.932  0.1461 -0.1202 -0.2167
20255ERGO    R531699   7.264  10.588   7.890 -0.0210 -0.1330 -0.1472
20255ERGO    C131700   7.034  10.598   8.195 -0.1315  0.1612 -0.2365
20255ERGO    C231701   7.021  10.558   8.439  0.1091  0.1153  0.0101
20256ERGO   ROH31702   2.867  11.200   6.965 -0.0448 -0.0011  0.0076
20256ERGO    R131703   2.954  11.241   7.231  0.0792  0.0650 -0.0426
20256ERGO    R231704   2.888  11.070   7.437 -0.0404  0.2549  0.0791
20256ERGO    R331705   3.157  11.061   7.473 -0.0363 -0.0075  0.0010
20256ERGO    R431706   3.047  10.903   7.694 -0.1360  0.2072  0.1078
20256ERGO    R531707   3.186  11.070   7.711  0.0443  0.0734 -0.0114
20256ERGO    C131708   3.393  10.796   7.877 -0.1877 -0.0668  0.0512
20256ERGO    C231709   3.516  10.576   8.133 -0.1051 -0.0549 -0.1322
20257ERGO   ROH31710  10.585   0.177  10.567 -0.0595 -0.0317  0.0184
20257ERGO    R131711  10.626   0.256  10.299 -0.0271 -0.0113  0.0305
20257ERGO    R231712  10.877   0.287  10.189 -0.0192  0.0007  0.0692
20257ERGO    R331713  10.781   0.115  10.002  0.0127  0.0160  0.0350
20257ERGO    R431714  10.979   0.279   9.859  0.2923 -0.1730  0.1646
20257ERGO    R531715  10.771   0.246   9.801  0.3061 -0.0242 -0.0194
20257ERGO    C131716  10.949   0.114   9.491  0.5037 -0.2599  0.1882
20257ERGO    C231717  10.991   0.226   9.221 -0.3210 -0.3411  0.0157
20258ERGO   ROH31718   5.147   3.907  10.408 -0.0320 -0.3487  0.0496
20258ERGO    R131719   5.101   3.925  10.129 -0.0380 -0.1680  0.0614
20258ERGO    R231720   5.306   3.937   9.945 -0.0417  0.0084  0.0673
20258ERGO    R331721   5.177   3.725   9.835  0.0089  0.0520 -0.0779
20258ERGO    R431722   5.344   3.833   9.618  0.1517  0.1048  0.0571
20258ERGO    R531723   5.129   3.796   9.611  0.1526  0.1237 -0.0874
20258ERGO    C131724   5.244   3.573   9.323  0.3117  0.2020 -0.0852
20258ERGO    C231725   5.124   3.396   9.032 -0.0719  0.1235 -0.0625
20259ERGO   ROH31726   5.250  13.999   7.013  0.0208 -0.2704 -0.1687
20259ERGO    R131727   5.245  13.916   7.283  0.0358 -0.1960 -0.1448
20259ERGO    R231728   5.229  14.095   7.494  0.1146 -0.1327 -0.1879
20259ERGO    R331729   5.015  13.944   7.564  0.0820 -0.0549 -0.1214
20259ERGO    R431730   5.071  14.108   7.800  0.0624  0.0888 -0.2233
20259ERGO    R531731   5.053  13.891   7.795  0.0324  0.0908 -0.0819
20259ERGO    C131732   4.777  13.975   8.045  0.0012  0.2909 -0.1814
20259ERGO    C231733   4.497  14.158   8.224 -0.1286 -0.1068  0.1174
20260ERGO   ROH31734   0.275   4.299  10.540  0.0296  0.0338  0.0464
20260ERGO    R131735   0.273   4.180  10.283 -0.0692  0.0379  0.0455
20260ERGO    R231736   0.049   4.179  10.121 -0.0754  0.2078  0.0561
20260ERGO    R331737   0.218   4.291   9.941  0.0013  0.0819  0.0474
20260ERGO    R431738   0.003   4.176   9.779  0.0057  0.0664  0.0449
20260ERGO    R531739   0.216   4.140   9.755  0.0048 -0.0036  0.1136
20260ERGO    C131740   0.135   4.280   9.410  0.1249 -0.1341  0.0303
20260ERGO    C231741   0.005   4.327   9.198  0.0409  0.0897  0.2260
20261ERGO   ROH31742  12.429   4.553  10.854 -0.2465  0.0328 -0.1426
20261ERGO    R131743  12.355   4.664  10.604 -0.2493  0.0690 -0.1258
20261ERGO    R231744  12.538   4.784  10.435 -0.2469  0.0684 -0.1227
20261ERGO    R331745  12.439   4.607  10.255 -0.2763  0.1003 -0.1378
20261ERGO    R431746  12.544   4.827  10.092 -0.2740  0.1179 -0.1167
20261ERGO    R531747  12.343   4.744  10.084 -0.2821  0.1330 -0.1098
20261ERGO    C131748  12.454   4.686   9.723 -0.3174  0.1768 -0.1276
20261ERGO    C231749  12.402   4.657   9.380  0.1648  0.1616 -0.3141
20262ERGO   ROH31750  15.242  17.593  10.509  0.1588  0.0359 -0.1318
20262ERGO    R131751  15.348  17.636  10.250  0.0509 -0.1246 -0.2040
20262ERGO    R231752  15.253  17.503  10.027 -0.1886 -0.1076 -0.1176
20262ERGO    R331753  15.223  17.755   9.929 -0.0301 -0.1061 -0.1652
20262ERGO    R431754  15.169  17.579   9.700 -0.2847 -0.1183 -0.0951
20262ERGO    R531755  15.312  17.743   9.707 -0.1470 -0.2335 -0.2055
20262ERGO    C131756  15.091  17.859   9.419 -0.1918 -0.1230 -0.1267
20262ERGO    C231757  14.956  17.760   9.027 -0.3177 -0.0964 -0.4232
20263ERGO   ROH31758  15.992  10.228   7.366  0.1857 -0.1521 -0.0352
20263ERGO    R131759  16.216  10.311   7.518  0.1885 -0.0792 -0.0777
20263ERGO    R231760  16.280  10.577   7.556  0.0684 -0.0554 -0.0300
20263ERGO    R331761  16.273  10.507   7.819  0.1756 -0.1248 -0.0454
20263ERGO    R431762  16.510  10.677   7.794  0.1258 -0.0602 -0.0842
20263ERGO    R531763  16.503  10.477   7.879  0.2041 -0.0839 -0.1326
20263ERGO    C131764  16.637  10.670   8.179  0.2599 -0.1280 -0.1301
20263ERGO    C231765  16.792  10.657   8.454 -0.3238 -0.0229 -0.2208
20264ERGO   ROH31766  13.321   1.036   6.790 -0.1555 -0.0835  0.0225
20264ERGO    R131767  13.326   0.973   7.065 -0.1636  0.1485  0.0763
20264ERGO    R231768  13.547   0.864   7.189 -0.3023 -0.1111  0.0813
20264ERGO    R331769  13.518   1.075   7.357  0.1131  0.0864 -0.0771
20264ERGO    R431770  13.648   0.868   7.519 -0.3781 -0.1159  0.1061
20264ERGO    R531771  13.464   0.976   7.568 -0.1730  0.3348 -0.0170
20264ERGO    C131772  13.679   1.069   7.870 -0.0323  0.0668 -0.0282
20264ERGO    C231773  13.608   1.090   8.264  0.0770  0.1165  0.0512
20265ERGO   ROH31774   2.600  11.518  10.201 -0.0489  0.2175 -0.0293
20265ERGO    R131775   2.652  11.631   9.947  0.1524 -0.0734 -0.1226
20265ERGO    R231776   2.722  11.478   9.728 -0.3893 -0.4170 -0.0759
20265ERGO    R331777   2.512  11.606   9.612 -0.1003  0.1273 -0.0353
20265ERGO    R431778   2.689  11.536   9.389 -0.3901 -0.5008 -0.0899
20265ERGO    R531779   2.610  11.734   9.435  0.1878 -0.2365 -0.1510
20265ERGO    C131780   2.472  11.688   9.082 -0.1193 -0.0387 -0.0599
20265ERGO    C231781   2.670  11.566   8.763 -0.1484  0.3384  0.0928
20266ERGO   ROH31782  15.037   7.978   7.002  0.1223 -0.1178  0.0602
20266ERGO    R131783  14.986   8.004   7.279  0.1385 -0.0135  0.0545
20266ERGO    R231784  14.732   8.041   7.381  0.1472  0.0749  0.0512
20266ERGO    R331785  14.796   7.823   7.531  0.1088  0.1086  0.1213
20266ERGO    R431786  14.557   7.935   7.660  0.1998  0.2691  0.1595
20266ERGO    R531787  14.748   7.890   7.756  0.2178  0.2277  0.1119
20266ERGO    C131788  14.516   7.669   7.963  0.1946  0.4139  0.2884
20266ERGO    C231789  14.210   7.566   8.137  0.3091 -0.0884 -0.0430
20267ERGO   ROH31790  15.476   0.139   6.799  0.0343 -0.0103  0.1815
20267ERGO    R131791  15.625   0.123   7.039  0.1709  0.0425  0.1019
20267ERGO    R231792  15.817   0.311   7.107  0.0664  0.1761  0.0514
20267ERGO    R331793  15.671   0.329   7.336  0.1631  0.0040  0.1281
20267ERGO    R431794  15.884   0.528   7.368 -0.0819  0.2832  0.0007
20267ERGO    R531795  15.833   0.368   7.507  0.2007  0.2290  0.0394
20267ERGO    C131796  15.785   0.672   7.734 -0.0775  0.1840  0.0431
20267ERGO    C231797  15.618   0.791   7.941  0.0653  0.0242 -0.1810
20268ERGO   ROH31798   4.255   2.621  10.654 -0.0955  0.1167 -0.1138
20268ERGO    R131799   4.196   2.581  10.380 -0.2104  0.2332 -0.1071
20268ERGO    R231800   4.042   2.758  10.233  0.0342  0.4911 -0.0602
20268ERGO    R331801   4.258   2.758  10.069  0.0083  0.1704 -0.1011
20268ERGO    R431802   4.028   2.760   9.888 -0.0233  0.2309 -0.0620
20268ERGO    R531803   4.194   2.619   9.885 -0.1469  0.0799  0.0187
20268ERGO    C131804   4.223   2.762   9.532 -0.0812 -0.2216 -0.1014
20268ERGO    C231805   4.193   2.783   9.251 -0.1400 -0.0847  0.0614
20269ERGO   ROH31806   2.396  11.082  10.324  0.0925  0.2083  0.0873
20269ERGO    R131807   2.527  11.063  10.074  0.0417  0.3651  0.0474
20269ERGO    R231808   2.466  10.867   9.889  0.3908  0.1276  0.1718
20269ERGO    R331809   2.431  11.080   9.723 -0.1393 -0.0219  0.0729
20269ERGO    R431810   2.546  10.870   9.552  0.4205  0.1820  0.1792
20269ERGO    R531811   2.622  11.073   9.577 -0.0967  0.3997  0.0976
20269ERGO    C131812   2.559  11.071   9.201 -0.0599  0.0733  0.0905
20269ERGO    C231813   2.492  11.153   8.925 -0.0703 -0.0008  0.1237
20270ERGO   ROH31814   3.421   2.109  10.768 -0.0778  0.0105  0.1231
20270ERGO    R131815   3.250   2.102  10.542 -0.1185 -0.0473  0.1555
20270ERGO    R231816   3.207   2.322  10.381 -0.1664 -0.0820  0.1207
20270ERGO    R331817   3.283   2.151  10.183 -0.1881 -0.1137  0.1395
20270ERGO    R431818   3.215   2.400  10.044 -0.2249 -0.1450  0.1044
20270ERGO    R531819   3.136   2.202  10.001 -0.2198 -0.1570  0.1537
20270ERGO    C131820   3.292   2.286   9.663 -0.2795 -0.2114  0.1126
20270ERGO    C231821   3.321   2.448   9.456 -0.2287  0.0369  0.2239
20271ERGO   ROH31822   3.024   3.143  10.855  0.0155  0.0756  0.1119
20271ERGO    R131823   3.157   3.271  10.640 -0.0167  0.0297  0.0641
20271ERGO    R231824   3.287   3.130  10.442 -0.0162 -0.0126  0.0925
20271ERGO    R331825   3.127   3.276  10.277 -0.0478 -0.0783  0.0649
20271ERGO    R431826   3.325   3.153  10.099  0.0580  0.0369  0.1040
20271ERGO    R531827   3.277   3.366  10.113 -0.0515  0.0111  0.1106
20271ERGO    C131828   3.197   3.304   9.745  0.0716  0.0041  0.0847
20271ERGO    C231829   3.224   3.272   9.469  0.0313  0.0951 -0.0396
20272ERGO   ROH31830   6.032  13.587  10.475 -0.0940 -0.0344  0.0604
20272ERGO    R131831   6.238  13.692  10.312 -0.0776 -0.1692 -0.0074
20272ERGO    R231832   6.226  13.688  10.036 -0.2397 -0.0291 -0.0061
20272ERGO    R331833   6.271  13.955  10.062  0.0468 -0.0838  0.0984
20272ERGO    R431834   6.298  13.904   9.775 -0.2754  0.0441  0.0448
20272ERGO    R531835   6.443  14.003   9.904 -0.0556 -0.1667 -0.0376
20272ERGO    C131836   6.381  14.281   9.649 -0.0274  0.0352  0.1726
20272ERGO    C231837   6.259  14.446   9.386 -0.2712 -0.2282  0.3723
20273ERGO   ROH31838   9.583  12.531   7.810  0.1819  0.1308 -0.0514
20273ERGO    R131839   9.626  12.446   8.076  0.1915  0.0288 -0.0864
20273ERGO    R231840   9.754  12.604   8.265  0.1697 -0.0354 -0.0279
20273ERGO    R331841   9.527  12.558   8.408  0.1795 -0.1196 -0.0366
20273ERGO    R431842   9.739  12.571   8.608  0.1466  0.2415  0.0002
20273ERGO    R531843   9.595  12.410   8.583  0.2900  0.0821  0.1030
20273ERGO    C131844   9.518  12.510   8.943  0.1423  0.3235  0.0084
20273ERGO    C231845   9.524  12.690   9.212  0.3398  0.1792 -0.0255
20274ERGO   ROH31846   0.964   1.120  10.634  0.1638  0.3029  0.1306
20274ERGO    R131847   0.927   1.004  10.379 -0.1236  0.2380  0.1995
20274ERGO    R231848   0.848   1.151  10.159  0.2289  0.3083  0.1182
20274ERGO    R331849   1.071   1.043  10.047 -0.0252 -0.3073  0.1680
20274ERGO    R431850   0.894   1.105   9.820  0.3099  0.5391  0.0957
20274ERGO    R531851   0.987   0.912   9.864 -0.3450  0.1596 -0.0431
20274ERGO    C131852   1.131   0.977   9.517  0.1186  0.0956  0.1293
20274ERGO    C231853   1.122   0.820   9.256 -0.0326 -0.2347  0.0985
20275ERGO   ROH31854  13.307   5.307   7.263  0.0715  0.0691  0.0269
20275ERGO    R131855  13.232   5.163   7.495  0.1720  0.0069  0.0209
20275ERGO    R231856  13.415   5.087   7.688  0.2185  0.1669  0.0421
20275ERGO    R331857  13.244   5.216   7.855  0.0882  0.0219  0.0205
20275ERGO    R431858  13.346   4.992   8.013  0.2351  0.0994  0.0266
20275ERGO    R531859  13.137   5.041   7.978  0.2051 -0.0655 -0.0051
20275ERGO    C131860  13.146   5.059   8.359  0.1225 -0.0759 -0.0029
20275ERGO    C231861  12.974   5.140   8.675  0.0418  0.1639  0.3326
20276ERGO   ROH31862   2.224  13.131   6.794  0.3010 -0.0294 -0.0642
20276ERGO    R131863   2.273  13.176   7.069  0.1164 -0.0727 -0.0214
20276ERGO    R231864   2.141  13.370   7.214  0.1736  0.0607 -0.1262
20276ERGO    R331865   2.081  13.161   7.378 -0.1587  0.1108 -0.1849
20276ERGO    R431866   2.065  13.398   7.550  0.2023  0.0696 -0.1222
20276ERGO    R531867   2.183  13.219   7.587 -0.0852 -0.1170 -0.1670
20276ERGO    C131868   1.964  13.219   7.899 -0.0931  0.1217 -0.1748
20276ERGO    C231869   1.928  13.369   8.203  0.0793  0.1501 -0.1257
20277ERGO   ROH31870   2.724   1.050  11.008  0.2486 -0.2356  0.0427
20277ERGO    R131871   2.696   1.126  10.737  0.1309 -0.1867  0.0679
20277ERGO    R231872   2.877   1.292  10.609  0.0014 -0.0509  0.0563
20277ERGO    R331873   2.888   1.087  10.430  0.0711 -0.0029  0.0055
20277ERGO    R431874   2.972   1.322  10.278  0.0884  0.0484  0.0901
20277ERGO    R531875   2.813   1.184  10.224  0.1166  0.0449  0.0105
20277ERGO    C131876   3.036   1.148   9.917  0.2044  0.1513  0.0621
20277ERGO    C231877   3.157   1.282   9.660  0.3880 -0.1164  0.4272
20278ERGO   ROH31878   7.097   9.755  10.831 -0.1649  0.2364  0.2304
20278ERGO    R131879   7.025   9.699  10.563 -0.0307 -0.0081  0.2412
20278ERGO    R231880   6.916   9.891  10.395 -0.3009 -0.2523  0.1240
20278ERGO    R331881   7.122   9.819  10.233 -0.1520 -0.0137  0.2041
20278ERGO    R431882   6.908   9.900  10.050 -0.1369 -0.1762  0.1220
20278ERGO    R531883   7.017   9.711  10.047  0.0455 -0.0693  0.1256
20278ERGO    C131884   7.097   9.838   9.697  0.0985  0.0919  0.1960
20278ERGO    C231885   7.135   9.882   9.439  0.1801 -0.0466 -0.2177
20279ERGO   ROH31886   8.836  10.190  10.899 -0.2192  0.1096  0.0441
20279ERGO    R131887   8.979  10.136  10.660 -0.1024  0.0564  0.1276
20279ERGO    R231888   8.863  10.011  10.443 -0.0024  0.0521  0.0872
20279ERGO    R331889   8.953  10.230  10.310  0.1062  0.0124  0.0988
20279ERGO    R431890   8.890  10.034  10.099 -0.1094  0.0867  0.0793
20279ERGO    R531891   9.079  10.139  10.126 -0.0207 -0.0514  0.0357
20279ERGO    C131892   8.989  10.253   9.774 -0.0696  0.0694  0.0855
20279ERGO    C231893   8.913  10.307   9.403 -0.0302 -0.0001 -0.0920
20280ERGO   ROH31894   6.874   0.454   7.372  0.0654 -0.0161  0.0667
20280ERGO    R131895   7.045   0.419   7.595  0.2162 -0.2066 -0.0729
20280ERGO    R231896   6.964   0.468   7.855  0.5513  0.1337 -0.0062
20280ERGO    R331897   7.049   0.214   7.895  0.0793 -0.0237  0.0497
20280ERGO    R431898   7.018   0.324   8.164  0.4890  0.1286  0.0013
20280ERGO    R531899   7.196   0.229   8.083  0.2359 -0.2533 -0.0696
20280ERGO    C131900   7.130   0.001   8.382  0.0095 -0.0221  0.0583
20280ERGO    C231901   7.264   0.002   8.735 -0.0653 -0.1856 -0.0415
20281ERGO   ROH31902   2.694  13.127  10.635 -0.0688 -0.0840  0.1243
20281ERGO    R131903   2.564  13.322  10.476  0.0432 -0.0330  0.0956
20281ERGO    R231904   2.702  13.507  10.325  0.1486 -0.1559  0.0471
20281ERGO    R331905   2.549  13.408  10.123  0.0661 -0.0948  0.0784
20281ERGO    R431906   2.603  13.686  10.046  0.1976 -0.1194  0.0524
20281ERGO    R531907   2.407  13.591  10.061  0.1475 -0.0225  0.0908
20281ERGO    C131908   2.401  13.698   9.695  0.1486 -0.0407  0.0847
20281ERGO    C231909   2.485  13.777   9.370  0.0872  0.2005  0.1291
20282ERGO   ROH31910   7.685  15.098   7.224  0.1692 -0.0017  0.0385
20282ERGO    R131911   7.738  15.154   7.496  0.1582 -0.0817  0.0568
20282ERGO    R231912   7.554  15.277   7.661  0.2224  0.0357  0.0334
20282ERGO    R331913   7.598  15.060   7.819  0.0215 -0.0178  0.0186
20282ERGO    R431914   7.483  15.262   7.999  0.1615  0.0741  0.0228
20282ERGO    R531915   7.670  15.152   8.028  0.0731 -0.0884  0.0376
20282ERGO    C131916   7.483  15.049   8.344 -0.0626  0.0464  0.0027
20282ERGO    C231917   7.391  15.092   8.574  0.2275  0.0189 -0.1530
20283ERGO   ROH31918   3.762   6.173  10.306  0.0003  0.1938  0.1137
20283ERGO    R131919   3.715   6.092  10.039 -0.0861  0.1777  0.1338
20283ERGO    R231920   3.532   6.220   9.875  0.0385  0.3235  0.1092
20283ERGO    R331921   3.746   6.242   9.708  0.0582  0.0691  0.0971
20283ERGO    R431922   3.518   6.193   9.531 -0.0349  0.4400  0.1022
20283ERGO    R531923   3.704   6.080   9.537 -0.1887  0.1718  0.0543
20283ERGO    C131924   3.710   6.197   9.174 -0.0591  0.2690  0.0868
20283ERGO    C231925   3.782   6.300   8.866 -0.1325 -0.0482  0.0696
20284ERGO   ROH31926   4.042   9.234  10.284 -0.1538  0.0241  0.1698
20284ERGO    R131927   3.968   9.255  10.012 -0.0773 -0.0760  0.1413
20284ERGO    R231928   3.763   9.418   9.926 -0.0445 -0.1013  0.0237
20284ERGO    R331929   3.954   9.519   9.762  0.0026 -0.1710  0.0344
20284ERGO    R431930   3.729   9.456   9.584  0.0289 -0.2026  0.0042
20284ERGO    R531931   3.935   9.388   9.562  0.0297 -0.2326  0.0690
20284ERGO    C131932   3.890   9.573   9.231  0.1159 -0.3269  0.0030
20284ERGO    C231933   3.630   9.627   8.956 -0.0935  0.0925 -0.2446
20285ERGO   ROH31934   4.933  10.334  10.258  0.0276 -0.2270 -0.1857
20285ERGO    R131935   5.088  10.311  10.022  0.1402 -0.0717 -0.1307
20285ERGO    R231936   4.977  10.251   9.775  0.2950 -0.2495 -0.1694
20285ERGO    R331937   5.105  10.478   9.699  0.0379 -0.0968 -0.1466
20285ERGO    R431938   5.059  10.333   9.450  0.1764 -0.0947 -0.1595
20285ERGO    R531939   5.249  10.410   9.522  0.0945  0.1002 -0.1708
20285ERGO    C131940   5.226  10.594   9.189 -0.1340  0.1388 -0.1324
20285ERGO    C231941   5.296  10.515   8.831  0.0340  0.3229  0.0594
20286ERGO   ROH31942   4.557   5.460   6.825 -0.0390  0.0120  0.0894
20286ERGO    R131943   4.560   5.622   7.057 -0.1380  0.0316  0.0777
20286ERGO    R231944   4.331   5.686   7.197 -0.1775 -0.1020  0.0759
20286ERGO    R331945   4.468   5.584   7.407 -0.1105 -0.0000  0.0818
20286ERGO    R431946   4.260   5.752   7.528 -0.1110  0.0150  0.0672
20286ERGO    R531947   4.474   5.763   7.567 -0.1020  0.0638  0.0117
20286ERGO    C131948   4.348   5.694   7.920 -0.0095  0.1789  0.0676
20286ERGO    C231949   4.083   5.707   8.150  0.1634 -0.1993  0.1092
20287ERGO   ROH31950  13.814  15.534   7.279  0.1222  0.0164  0.1418
20287ERGO    R131951  13.551  15.534   7.384  0.0392  0.0875 -0.0607
20287ERGO    R231952  13.442  15.314   7.510 -0.1410  0.0961 -0.1974
20287ERGO    R331953  13.397  15.492   7.711 -0.2294  0.0633 -0.1879
20287ERGO    R431954  13.170  15.307   7.723 -0.1463 -0.0413 -0.2076
20287ERGO    R531955  13.160  15.525   7.710 -0.2448 -0.0447 -0.1941
20287ERGO    C131956  12.969  15.470   8.036 -0.2323 -0.1521 -0.2045
20287ERGO    C231957  12.931  15.573   8.385  0.0262  0.1539 -0.2960
20288ERGO   ROH31958   1.371   4.937   7.106  0.0427  0.0909 -0.0033
20288ERGO    R131959   1.224   4.868   7.338  0.0438  0.0348 -0.0182
20288ERGO    R231960   1.344   4.827   7.583  0.0374  0.0557 -0.0071
20288ERGO    R331961   1.164   5.013   7.666 -0.0228  0.0007 -0.0164
20288ERGO    R431962   1.246   4.875   7.911  0.0872  0.1053 -0.0001
20288ERGO    R531963   1.041   4.904   7.841  0.0621 -0.0006  0.0389
20288ERGO    C131964   1.019   5.079   8.179  0.0597  0.0824 -0.0048
20288ERGO    C231965   0.896   5.332   8.446 -0.0031 -0.3270 -0.1786
20289ERGO   ROH31966   8.250   1.458  10.550  0.1190 -0.2410 -0.0428
20289ERGO    R131967   8.330   1.460  10.279  0.2473 -0.2230 -0.0039
20289ERGO    R231968   8.396   1.230  10.141 -0.0327 -0.2503 -0.0826
20289ERGO    R331969   8.209   1.320   9.965  0.1816  0.1144 -0.1364
20289ERGO    R431970   8.378   1.137   9.809 -0.3987 -0.6395  0.0372
20289ERGO    R531971   8.329   1.344   9.759  0.2257 -0.5217 -0.2110
20289ERGO    C131972   8.192   1.166   9.451 -0.4106 -0.5238  0.0565
20289ERGO    C231973   8.043   0.917   9.280  0.1444 -0.1226  0.1208
20290ERGO   ROH31974   4.823   8.404  10.203 -0.1263  0.2675 -0.1137
20290ERGO    R131975   4.709   8.318   9.959  0.1518  0.2586 -0.2441
20290ERGO    R231976   4.449   8.378   9.887  0.0497 -0.2086 -0.2885
20290ERGO    R331977   4.568   8.476   9.663 -0.0524  0.2546 -0.1511
20290ERGO    R431978   4.282   8.477   9.601 -0.0428 -0.3181 -0.2736
20290ERGO    R531979   4.440   8.386   9.482  0.2226  0.1258 -0.2897
20290ERGO    C131980   4.296   8.627   9.224 -0.1927  0.0528 -0.1359
20290ERGO    C231981   4.178   8.575   8.920 -0.0864  0.0175  0.0569
20291ERGO   ROH31982  10.355  15.530   7.400  0.0035  0.1695  0.1128
20291ERGO    R131983  10.314  15.531   7.680 -0.0371  0.1157  0.1079
20291ERGO    R231984  10.480  15.397   7.856 -0.0831  0.0488  0.1056
20291ERGO    R331985  10.499  15.641   7.973 -0.0598  0.0217  0.1570
20291ERGO    R431986  10.533  15.451   8.193 -0.1601 -0.0227  0.1290
20291ERGO    R531987  10.390  15.615   8.185 -0.1197  0.0086  0.1222
20291ERGO    C131988  10.582  15.712   8.500 -0.1830 -0.0898  0.1908
20291ERGO    C231989  10.616  15.697   8.761 -0.0004  0.0997 -0.1186
20292ERGO   ROH31990  17.534  17.583  10.636  0.0018  0.1407 -0.0022
20292ERGO    R131991  17.494  17.502  10.368  0.0916  0.0583  0.0085
20292ERGO    R231992  17.360  17.659  10.183  0.0254 -0.0606 -0.0446
20292ERGO    R331993  17.587  17.625  10.038  0.0698  0.0442 -0.0042
20292ERGO    R431994  17.379  17.678   9.839  0.0897  0.0353 -0.0358
20292ERGO    R531995  17.515  17.508   9.842  0.1428  0.0714 -0.0505
20292ERGO    C131996  17.603  17.657   9.502  0.1691  0.1898  0.0072
20292ERGO    C231997  17.514  17.695   9.136 -0.0157  0.2184  0.1642
20293ERGO   ROH31998   0.791  10.706   6.881  0.3894  0.0336 -0.2357
20293ERGO    R131999   0.817  10.607   7.145  0.2099  0.0836 -0.1981
20293ERGO    R232000   1.000  10.411   7.213  0.0364 -0.0352 -0.0728
20293ERGO    R332001   1.079  10.594   7.397  0.1005 -0.0455 -0.0893
20293ERGO    R432002   1.135  10.335   7.522  0.0836 -0.0551 -0.0979
20293ERGO    R532003   1.018  10.497   7.607  0.1248 -0.0352 -0.0765
20293ERGO    C132004   1.288  10.463   7.875  0.1713 -0.0764 -0.1280
20293ERGO    C232005   1.305  10.509   8.255 -0.0002 -0.1663 -0.1623
20294ERGO   ROH32006  11.463  13.546   7.263  0.0534  0.0690  0.0362
20294ERGO    R132007  11.569  13.686   7.485 -0.0475  0.1025  0.0634
20294ERGO    R232008  11.411  13.840   7.652 -0.1301  0.0956 -0.0078
20294ERGO    R332009  11.522  13.684   7.846 -0.1804  0.1275  0.0468
20294ERGO    R432010  11.433  13.926   7.987 -0.0793  0.2187 -0.0420
20294ERGO    R532011  11.633  13.839   7.991 -0.1120  0.1421 -0.0197
20294ERGO    C132012  11.549  13.829   8.363 -0.0968  0.3204 -0.0107
20294ERGO    C232013  11.319  13.882   8.608 -0.2233 -0.2327  0.0496
20295ERGO   ROH32014   9.192  14.822  10.949 -0.0056  0.0746  0.0497
20295ERGO    R132015   9.285  14.726  10.699  0.1443  0.1640  0.0706
20295ERGO    R232016   9.113  14.646  10.498  0.2665 -0.2136  0.1138
20295ERGO    R332017   9.255  14.824  10.350 -0.0749  0.0014  0.0412
20295ERGO    R432018   9.159  14.628  10.155  0.2052 -0.2068  0.1043
20295ERGO    R532019   9.365  14.691  10.184  0.1097  0.1515  0.0389
20295ERGO    C132020   9.318  14.785   9.818 -0.1509 -0.0010  0.0307
20295ERGO    C232021   9.106  14.774   9.543 -0.0228  0.4310  0.0916
20296ERGO   ROH32022   3.853  10.354  10.431  0.1698 -0.0242 -0.0144
20296ERGO    R132023   3.890  10.502  10.192  0.0630  0.0748  0.0298
20296ERGO    R232024   4.028  10.401   9.975  0.1601  0.2508  0.0099
20296ERGO    R332025   3.799  10.464   9.841  0.1161  0.1002  0.0133
20296ERGO    R432026   4.006  10.454   9.634  0.1014  0.1565 -0.0019
20296ERGO    R532027   3.869  10.619   9.673  0.0202  0.0951 -0.0311
20296ERGO    C132028   3.779  10.544   9.310  0.0259 -0.0397 -0.0056
20296ERGO    C232029   3.787  10.555   8.962  0.0659  0.0696 -0.2557
20297ERGO   ROH32030   7.282   2.179   7.235  0.0794  0.1118 -0.0676
20297ERGO    R132031   7.347   2.196   7.510 -0.0933 -0.0121 -0.0168
20297ERGO    R232032   7.543   2.364   7.607  0.0514 -0.2625  0.1504
20297ERGO    R332033   7.343   2.453   7.768  0.0384 -0.0444  0.0163
20297ERGO    R432034   7.582   2.453   7.938 -0.0708 -0.2486  0.1606
20297ERGO    R532035   7.391   2.356   7.981 -0.1889 -0.0563  0.0607
20297ERGO    C132036   7.417   2.589   8.283 -0.1541 -0.0357  0.0406
20297ERGO    C232037   7.248   2.870   8.590  0.0503 -0.0478 -0.1538
20298ERGO   ROH32038   4.629  13.462  10.386  0.2308 -0.0523 -0.1694
20298ERGO    R132039   4.662  13.614  10.150  0.3395 -0.0180 -0.1328
20298ERGO    R232040   4.815  13.527   9.937  0.1775 -0.1336 -0.2038
20298ERGO    R332041   4.587  13.574   9.796  0.1871  0.1752 -0.1242
20298ERGO    R432042   4.804  13.618   9.603  0.1839 -0.1554 -0.2099
20298ERGO    R532043   4.643  13.757   9.652  0.3959  0.0825 -0.1643
20298ERGO    C132044   4.584  13.714   9.277  0.1966  0.1219 -0.1386
20298ERGO    C232045   4.656  13.750   8.910 -0.3321 -0.0120  0.0979
20299ERGO   ROH32046   4.701  12.252   7.291 -0.2070 -0.3729 -0.2594
20299ERGO    R132047   4.656  12.102   7.526 -0.0995 -0.1888 -0.1180
20299ERGO    R232048   4.860  11.980   7.667 -0.0425 -0.1554 -0.1660
20299ERGO    R332049   4.757  12.120   7.875  0.1430  0.0331 -0.1976
20299ERGO    R432050   4.858  11.873   7.995 -0.0756 -0.0141 -0.1195
20299ERGO    R532051   4.657  11.953   8.015  0.0100  0.1918 -0.1041
20299ERGO    C132052   4.760  11.942   8.382  0.0794  0.2452 -0.1221
20299ERGO    C232053   4.912  11.838   8.630 -0.2847 -0.0748 -0.0606
20300ERGO   ROH32054   1.780  12.187  10.438  0.0190  0.1980  0.0838
20300ERGO    R132055   1.670  12.246  10.184  0.0198  0.2810  0.1010
20300ERGO    R232056   1.788  12.424  10.008  0.1021  0.2316  0.0946
20300ERGO    R332057   1.773  12.213   9.837 -0.0383  0.2470  0.0889
20300ERGO    R432058   1.834  12.444   9.666  0.1033  0.1999  0.0941
20300ERGO    R532059   1.669  12.303   9.641  0.0171  0.3110  0.0952
20300ERGO    C132060   1.847  12.258   9.306 -0.0278  0.1959  0.0884
20300ERGO    C232061   1.871  12.401   9.133 -0.0018 -0.1762 -0.1905
20301ERGO   ROH32062  16.619  16.720  10.993 -0.0891  0.0664 -0.0250
20301ERGO    R132063  16.546  16.836  10.746 -0.1089 -0.0114 -0.0548
20301ERGO    R232064  16.728  16.878  10.542 -0.0924  0.0969 -0.0145
20301ERGO    R332065  16.548  16.736  10.396  0.0484 -0.0416 -0.0445
20301ERGO    R432066  16.670  16.919  10.203 -0.0578  0.0452 -0.0271
20301ERGO    R532067  16.458  16.894  10.241 -0.0422 -0.1167 -0.0669
20301ERGO    C132068  16.468  16.808   9.870  0.0944 -0.1150 -0.0626
20301ERGO    C232069  16.388  16.787   9.501 -0.2006  0.0820 -0.2142
20302ERGO   ROH32070  10.844  16.603  10.724 -0.0162  0.2039 -0.0198
20302ERGO    R132071  10.801  16.455  10.487 -0.0114  0.0368  0.0816
20302ERGO    R232072  10.639  16.546  10.282 -0.0766 -0.1453  0.0485
20302ERGO    R332073  10.861  16.502  10.131 -0.0882 -0.1715  0.0399
20302ERGO    R432074  10.639  16.493   9.940 -0.0850 -0.0289  0.0304
20302ERGO    R532075  10.792  16.340   9.969 -0.1397 -0.0916 -0.0174
20302ERGO    C132076  10.848  16.421   9.600 -0.1007  0.0143  0.0117
20302ERGO    C232077  10.914  16.537   9.299  0.0134 -0.0953  0.1149
20303ERGO   ROH32078  13.043   7.559   7.038 -0.0101 -0.2319  0.1746
20303ERGO    R132079  12.952   7.692   7.271  0.1854  0.0742  0.0822
20303ERGO    R232080  12.881   7.557   7.502 -0.1777  0.3239  0.1248
20303ERGO    R332081  13.061   7.725   7.616  0.1430  0.0088  0.1023
20303ERGO    R432082  12.949   7.573   7.840 -0.1805  0.2698  0.1281
20303ERGO    R532083  12.959   7.790   7.823  0.2412  0.2560  0.0783
20303ERGO    C132084  13.158   7.739   8.145  0.1190 -0.0576  0.1090
20303ERGO    C232085  13.230   7.893   8.374  0.0791  0.0682 -0.3671
20304ERGO   ROH32086   5.993   3.293  10.436 -0.2013  0.1176 -0.0407
20304ERGO    R132087   5.985   3.424  10.185  0.0026  0.1488 -0.0328
20304ERGO    R232088   6.213   3.498  10.048  0.1190 -0.0517  0.0485
20304ERGO    R332089   6.101   3.354   9.847  0.0491  0.0700 -0.0008
20304ERGO    R432090   6.324   3.496   9.721  0.1528 -0.0379  0.0597
20304ERGO    R532091   6.116   3.497   9.655  0.1597  0.1099  0.0372
20304ERGO    C132092   6.284   3.360   9.341  0.1070  0.0845  0.0200
20304ERGO    C232093   6.408   3.371   9.031 -0.0499  0.2050 -0.0131
20305ERGO   ROH32094   3.512   3.457   7.328 -0.0327  0.0517 -0.1275
20305ERGO    R132095   3.584   3.465   7.602  0.0194  0.0428 -0.1416
20305ERGO    R232096   3.846   3.481   7.686  0.0258  0.1563 -0.1953
20305ERGO    R332097   3.756   3.698   7.823 -0.0476  0.0903 -0.1367
20305ERGO    R432098   4.003   3.621   7.961  0.0106  0.1558 -0.1857
20305ERGO    R532099   3.807   3.649   8.052  0.0052  0.0555 -0.1516
20305ERGO    C132100   4.009   3.906   8.249 -0.0671  0.0936 -0.1252
20305ERGO    C232101   4.054   4.081   8.501  0.1469 -0.2642  0.0226
20306ERGO   ROH32102  17.650   9.371  10.771  0.0431 -0.0110  0.0340
20306ERGO    R132103  17.455   9.385  10.565 -0.0356 -0.1184  0.0997
20306ERGO    R232104  17.481   9.554  10.348 -0.2839  0.0227  0.1759
20306ERGO    R332105  17.445   9.324  10.207 -0.0746  0.0522  0.0706
20306ERGO    R432106  17.374   9.538  10.019 -0.3439  0.0756  0.1928
20306ERGO    R532107  17.251   9.366  10.073 -0.1523 -0.0833  0.1378
20306ERGO    C132108  17.277   9.313   9.696 -0.1822  0.1341  0.1039
20306ERGO    C232109  17.356   9.240   9.350 -0.3899  0.1290  0.2612
20307ERGO   ROH32110   3.504   8.474  10.127 -0.0826 -0.0432  0.0884
20307ERGO    R132111   3.324   8.489   9.909  0.0552 -0.0793 -0.0307
20307ERGO    R232112   3.248   8.729   9.795 -0.0635 -0.0758  0.0362
20307ERGO    R332113   3.335   8.610   9.566  0.2011  0.1055  0.0402
20307ERGO    R432114   3.216   8.863   9.478 -0.0146 -0.0017  0.0636
20307ERGO    R532115   3.168   8.664   9.404  0.2468 -0.0206 -0.0401
20307ERGO    C132116   3.279   8.830   9.079  0.2623  0.2117  0.0832
20307ERGO    C232117   3.445   8.962   8.840 -0.0204  0.2904 -0.1635
20308ERGO   ROH32118  13.281  12.649   7.062 -0.0639  0.0305 -0.0787
20308ERGO    R132119  13.341  12.848   7.254  0.0165 -0.1171  0.0533
20308ERGO    R232120  13.233  13.103   7.243  0.3347  0.0310  0.0579
20308ERGO    R332121  13.154  13.044   7.497  0.0404  0.0115 -0.0353
20308ERGO    R432122  13.151  13.336   7.485  0.2056  0.0011  0.0426
20308ERGO    R532123  13.255  13.214   7.632 -0.0154 -0.0844  0.1162
20308ERGO    C132124  13.030  13.417   7.864 -0.1459 -0.0344 -0.0537
20308ERGO    C232125  13.035  13.448   8.205 -0.0196  0.1873  0.3604
20309ERGO   ROH32126   9.548  17.672  10.582  0.0181 -0.0473 -0.1574
20309ERGO    R132127   9.710  17.620  10.355  0.1054 -0.0051 -0.1058
20309ERGO    R232128   9.616  17.485  10.132  0.2405 -0.1135 -0.1005
20309ERGO    R332129   9.704  17.706  10.001  0.1414 -0.0910 -0.1267
20309ERGO    R432130   9.625  17.521   9.789  0.3308 -0.1954 -0.1069
20309ERGO    R532131   9.817  17.620   9.809  0.2597 -0.0670 -0.0673
20309ERGO    C132132   9.713  17.750   9.466  0.2904 -0.2221 -0.1351
20309ERGO    C232133   9.970  17.686   9.215 -0.1564 -0.2467  0.2834
20310ERGO   ROH32134   9.292   2.286  10.238  0.0132 -0.0836  0.0036
20310ERGO    R132135   9.482   2.221  10.039 -0.0617 -0.1397 -0.0498
20310ERGO    R232136   9.411   2.154   9.781 -0.1470  0.0455 -0.0736
20310ERGO    R332137   9.582   2.354   9.715  0.0092 -0.0602  0.0037
20310ERGO    R432138   9.557   2.196   9.470 -0.2313  0.1303 -0.1027
20310ERGO    R532139   9.743   2.251   9.570 -0.1388 -0.1065 -0.1322
20310ERGO    C132140   9.803   2.408   9.228 -0.1337  0.0806 -0.0472
20310ERGO    C232141  10.012   2.560   8.943 -0.2232 -0.2381 -0.0553
20311ERGO   ROH32142   3.214   7.124  10.177 -0.1676 -0.0292 -0.0160
20311ERGO    R132143   3.131   7.004   9.934 -0.1303 -0.0250 -0.0317
20311ERGO    R232144   2.939   7.117   9.771 -0.1649 -0.0606 -0.0222
20311ERGO    R332145   3.133   7.092   9.581 -0.1526  0.0205 -0.0194
20311ERGO    R432146   2.904   7.207   9.439 -0.1885 -0.0712 -0.0221
20311ERGO    R532147   3.015   7.028   9.383 -0.1178 -0.0223 -0.0224
20311ERGO    C132148   3.064   7.236   9.068 -0.1907 -0.0013 -0.0192
20311ERGO    C232149   3.215   7.339   8.765 -0.1819  0.2005 -0.0010
20312ERGO   ROH32150   0.700   4.256  10.460 -0.2620  0.0007  0.0945
20312ERGO    R132151   0.690   4.240  10.178 -0.0098  0.0577  0.0805
20312ERGO    R232152   0.912   4.278  10.018  0.1760 -0.1176  0.2989
20312ERGO    R332153   0.842   4.035   9.918  0.0491 -0.0384  0.1883
20312ERGO    R432154   0.901   4.198   9.682  0.2398  0.0185  0.2630
20312ERGO    R532155   0.718   4.086   9.720  0.1474  0.1213  0.1611
20312ERGO    C132156   0.829   3.924   9.393  0.1580  0.1722  0.1383
20312ERGO    C232157   1.051   3.971   9.087 -0.0087 -0.0898  0.0514
20313ERGO   ROH32158   4.231   0.286   7.373  0.1759 -0.1782 -0.0097
20313ERGO    R132159   4.195   0.148   7.617  0.1880 -0.1440  0.0118
20313ERGO    R232160   4.373   0.167   7.827  0.1208  0.0039  0.0560
20313ERGO    R332161   4.150   0.237   7.967  0.0435 -0.0896 -0.0195
20313ERGO    R432162   4.358   0.201   8.171  0.0191  0.0947  0.0429
20313ERGO    R532163   4.162   0.106   8.167  0.0760 -0.0258  0.0219
20313ERGO    C132164   4.140   0.286   8.502 -0.1127  0.0598 -0.0356
20313ERGO    C232165   4.140   0.392   8.766 -0.0085  0.1207 -0.1054
20314ERGO   ROH32166   9.136  15.067   7.602  0.1845  0.1815  0.0315
20314ERGO    R132167   9.181  15.025   7.879  0.2180  0.2757  0.0401
20314ERGO    R232168   9.264  15.228   8.048 -0.0845  0.4147  0.0249
20314ERGO    R332169   9.045  15.153   8.191  0.0043  0.1184  0.0145
20314ERGO    R432170   9.216  15.290   8.385 -0.1999  0.3952  0.0128
20314ERGO    R532171   9.131  15.090   8.405  0.0808  0.2696  0.0315
20314ERGO    C132172   8.983  15.256   8.715 -0.1838  0.1058 -0.0039
20314ERGO    C232173   9.026  15.519   8.911  0.0246 -0.1100  0.3398
20315ERGO   ROH32174   8.697  16.276  10.957  0.2733 -0.1417  0.0118
20315ERGO    R132175   8.631  16.080  10.763 -0.0058 -0.0221 -0.0185
20315ERGO    R232176   8.450  16.127  10.560  0.1953  0.3363 -0.1230
20315ERGO    R332177   8.656  16.048  10.401  0.1373 -0.0777 -0.0050
20315ERGO    R432178   8.429  16.081  10.218  0.3106  0.4478 -0.1461
20315ERGO    R532179   8.554  15.904  10.239 -0.0769  0.1657 -0.0966
20315ERGO    C132180   8.611  15.980   9.870  0.3233  0.1242 -0.0486
20315ERGO    C232181   8.726  15.749   9.604  0.3732  0.1681 -0.1379
20316ERGO   ROH32182  16.964   2.233  10.380 -0.0500 -0.1255 -0.1059
20316ERGO    R132183  17.043   2.255  10.109  0.0533 -0.2065 -0.0842
20316ERGO    R232184  17.153   2.044   9.968 -0.1379 -0.3321 -0.0596
20316ERGO    R332185  16.951   2.098   9.794 -0.0347 -0.1015 -0.1096
20316ERGO    R432186  17.146   1.946   9.637 -0.1394 -0.2423 -0.0859
20316ERGO    R532187  17.062   2.140   9.586  0.0606 -0.1553 -0.0650
20316ERGO    C132188  16.953   1.939   9.281 -0.0433  0.0266 -0.1482
20316ERGO    C232189  16.907   1.808   8.991 -0.0304 -0.0462 -0.2212
20317ERGO   ROH32190   3.756  16.021   7.292  0.3700  0.0175 -0.0682
20317ERGO    R132191   3.614  15.945   7.524  0.2913 -0.0246 -0.1294
20317ERGO    R232192   3.739  15.900   7.767  0.2022 -0.0133 -0.0814
20317ERGO    R332193   3.559  16.083   7.857  0.1293 -0.0554 -0.1430
20317ERGO    R432194   3.557  15.871   8.059  0.2164  0.0109 -0.0702
20317ERGO    R532195   3.384  15.951   7.954  0.1830 -0.0944 -0.0974
20317ERGO    C132196   3.281  16.025   8.313  0.1561 -0.0145 -0.1216
20317ERGO    C232197   3.452  15.915   8.647 -0.0457  0.1580  0.1287
20318ERGO   ROH32198   0.146   2.658  10.435  0.1262  0.0441 -0.0014
20318ERGO    R132199   0.205   2.732  10.168  0.1189 -0.1996 -0.0710
20318ERGO    R232200   0.168   2.560   9.954 -0.2672 -0.2576  0.0451
20318ERGO    R332201   0.021   2.767   9.856  0.0235 -0.0666 -0.0026
20318ERGO    R432202   0.105   2.616   9.619 -0.3307 -0.3602  0.0379
20318ERGO    R532203   0.134   2.829   9.654  0.0410 -0.3743 -0.0989
20318ERGO    C132204  -0.069   2.844   9.332 -0.0948 -0.2406 -0.0109
20318ERGO    C232205  -0.055   3.004   8.935 -0.0685  0.1473  0.1711
20319ERGO   ROH32206   5.969  16.225   7.283  0.0123  0.1916 -0.0629
20319ERGO    R132207   6.061  16.355   7.517 -0.2225  0.2851 -0.0198
20319ERGO    R232208   5.890  16.482   7.693 -0.4808 -0.1935  0.0950
20319ERGO    R332209   6.010  16.320   7.875 -0.0553 -0.0252 -0.0234
20319ERGO    R432210   5.904  16.543   8.033 -0.2429 -0.1939  0.0868
20319ERGO    R532211   6.109  16.470   8.033 -0.1286  0.1170 -0.1130
20319ERGO    C132212   6.025  16.425   8.402  0.2951 -0.0364 -0.0291
20319ERGO    C232213   6.047  16.329   8.797  0.1452 -0.1308  0.1034
20320ERGO   ROH32214   9.918   3.942   6.488  0.0732 -0.0172  0.1813
20320ERGO    R132215   9.792   4.023   6.729  0.0048 -0.0482  0.1564
20320ERGO    R232216   9.523   4.085   6.743 -0.0053 -0.0742  0.0937
20320ERGO    R332217   9.524   3.899   6.942 -0.0375 -0.0906  0.0784
20320ERGO    R432218   9.311   4.087   7.015  0.1247  0.0485  0.1956
20320ERGO    R532219   9.479   4.025   7.140  0.1423 -0.0755  0.1107
20320ERGO    C132220   9.188   3.914   7.361  0.1702  0.1045  0.2405
20320ERGO    C232221   8.864   3.794   7.483  0.2465  0.0284 -0.2350
20321ERGO   ROH32222  15.032   2.844   6.845 -0.0360 -0.2073 -0.0467
20321ERGO    R132223  14.937   2.983   7.073  0.0033 -0.1077 -0.0900
20321ERGO    R232224  14.671   2.981   7.149 -0.0045  0.0179 -0.1062
20321ERGO    R332225  14.772   2.896   7.386 -0.0519  0.0405 -0.0779
20321ERGO    R432226  14.492   2.957   7.443 -0.0612  0.0388 -0.1393
20321ERGO    R532227  14.665   3.034   7.549 -0.0862  0.0506 -0.1111
20321ERGO    C132228  14.482   2.864   7.837 -0.1386  0.0723 -0.1320
20321ERGO    C232229  14.200   2.634   8.053  0.0392 -0.1281  0.0618
20322ERGO   ROH32230   0.250   0.172  10.669  0.4008 -0.0202  0.1630
20322ERGO    R132231   0.150   0.244  10.414  0.2230 -0.0701  0.2179
20322ERGO    R232232   0.300   0.384  10.229  0.0404  0.0301  0.1459
20322ERGO    R332233   0.236   0.175  10.067  0.0834 -0.0014  0.1681
20322ERGO    R432234   0.332   0.384   9.885 -0.1086  0.0606  0.1308
20322ERGO    R532235   0.142   0.278   9.872 -0.0589 -0.0442  0.2110
20322ERGO    C132236   0.291   0.188   9.532 -0.1550  0.0488  0.1430
20322ERGO    C232237   0.311   0.141   9.129 -0.3016  0.0482  0.2457
20323ERGO   ROH32238  14.751   1.554  10.623 -0.1745 -0.0410 -0.0112
20323ERGO    R132239  14.730   1.704  10.384 -0.0370  0.0729  0.0473
20323ERGO    R232240  14.940   1.731  10.207 -0.0357 -0.1241  0.0154
20323ERGO    R332241  14.759   1.639  10.028 -0.1909  0.1643  0.0177
20323ERGO    R432242  14.928   1.822   9.874  0.1067 -0.1089  0.0134
20323ERGO    R532243  14.711   1.827   9.888  0.1117  0.2426  0.0141
20323ERGO    C132244  14.750   1.787   9.511  0.0440  0.1707  0.0144
20323ERGO    C232245  14.860   1.707   9.162  0.4203  0.0530 -0.1843
20324ERGO   ROH32246   6.200  12.103  10.326 -0.0344  0.3991 -0.2832
20324ERGO    R132247   6.369  12.031  10.111 -0.0903  0.2678 -0.2843
20324ERGO    R232248   6.379  11.774  10.009 -0.1162  0.2037 -0.1303
20324ERGO    R332249   6.327  11.900   9.774 -0.1785  0.0603 -0.1946
20324ERGO    R432250   6.362  11.619   9.701 -0.0623  0.0365 -0.0501
20324ERGO    R532251   6.466  11.789   9.614 -0.1377  0.0364 -0.1420
20324ERGO    C132252   6.302  11.647   9.301 -0.0894 -0.1956 -0.0637
20324ERGO    C232253   6.193  11.694   9.056  0.0007  0.2985  0.1520
20325ERGO   ROH32254   6.097   0.634  10.492 -0.0304  0.0536 -0.0906
20325ERGO    R132255   6.180   0.630  10.221 -0.0071 -0.1857 -0.0822
20325ERGO    R232256   6.273   0.401  10.098 -0.1189 -0.3303  0.0875
20325ERGO    R332257   6.079   0.459   9.916 -0.0743 -0.3516  0.0334
20325ERGO    R432258   6.265   0.283   9.773 -0.0301 -0.3289  0.0847
20325ERGO    R532259   6.197   0.480   9.708 -0.0290 -0.3423  0.0652
20325ERGO    C132260   6.079   0.269   9.414  0.0635 -0.3482  0.0323
20325ERGO    C232261   5.964   0.094   9.183 -0.1264 -0.1960 -0.2809
20326ERGO   ROH32262  16.837   7.556  10.871  0.0113  0.0763 -0.1310
20326ERGO    R132263  16.769   7.732  10.660  0.1343  0.2104 -0.0615
20326ERGO    R232264  16.958   7.839  10.489  0.2025  0.0692 -0.0817
20326ERGO    R332265  16.797   7.733  10.297  0.0397  0.2856 -0.0680
20326ERGO    R432266  16.984   7.904  10.150  0.3996 -0.1338 -0.1066
20326ERGO    R532267  16.767   7.911  10.139  0.4105  0.2747 -0.1561
20326ERGO    C132268  16.849   7.842   9.773  0.3613 -0.0489 -0.1083
20326ERGO    C232269  16.936   7.788   9.451 -0.0521 -0.0422  0.0338
20327ERGO   ROH32270   4.621   4.887  10.445  0.0018  0.0207 -0.0086
20327ERGO    R132271   4.599   4.702  10.232  0.2164 -0.1384  0.1029
20327ERGO    R232272   4.478   4.765   9.991 -0.2099 -0.5327  0.1947
20327ERGO    R332273   4.715   4.680   9.887 -0.0976 -0.0070 -0.0134
20327ERGO    R432274   4.528   4.678   9.661 -0.3285 -0.5324  0.1765
20327ERGO    R532275   4.652   4.512   9.729  0.1439 -0.2185  0.1136
20327ERGO    C132276   4.778   4.547   9.371 -0.2922 -0.0386 -0.0295
20327ERGO    C232277   4.889   4.576   9.040  0.1595 -0.2145  0.0707
20328ERGO   ROH32278   9.558  15.751  11.018  0.2701 -0.2634  0.0640
20328ERGO    R132279   9.592  15.649  10.756  0.1009 -0.1759  0.0069
20328ERGO    R232280   9.390  15.656  10.567  0.0249  0.0242  0.0911
20328ERGO    R332281   9.578  15.783  10.418  0.0406 -0.0268  0.0674
20328ERGO    R432282   9.413  15.641  10.222  0.0575 -0.0865  0.0978
20328ERGO    R532283   9.630  15.628  10.242  0.0549 -0.0836  0.1217
20328ERGO    C132284   9.603  15.751   9.882  0.0912 -0.1990  0.0795
20328ERGO    C232285   9.667  15.707   9.650  0.4090  0.5540  0.2897
20329ERGO   ROH32286   9.012   5.256  10.446  0.0981 -0.1685  0.0304
20329ERGO    R132287   9.073   5.418  10.222  0.1589 -0.1114  0.0870
20329ERGO    R232288   9.305   5.388  10.074  0.0894 -0.2345 -0.0062
20329ERGO    R332289   9.131   5.368   9.866 -0.0009  0.0056  0.0440
20329ERGO    R432290   9.386   5.439   9.742 -0.0265  0.0028  0.0005
20329ERGO    R532291   9.196   5.542   9.716  0.0066  0.1000  0.1595
20329ERGO    C132292   9.270   5.449   9.354 -0.1787  0.3664  0.0515
20329ERGO    C232293   9.346   5.558   9.048  0.0702  0.4094 -0.0086
20330ERGO   ROH32294   5.786   8.968  10.172 -0.2596 -0.1354 -0.0429
20330ERGO    R132295   5.887   8.998   9.908 -0.1122 -0.0972  0.0160
20330ERGO    R232296   5.785   8.857   9.693 -0.0409 -0.0158 -0.0755
20330ERGO    R332297   5.756   9.105   9.586  0.0855  0.0213 -0.0261
20330ERGO    R432298   5.840   8.936   9.362 -0.1188 -0.0055 -0.0857
20330ERGO    R532299   5.933   9.122   9.427  0.0349 -0.0778 -0.0944
20330ERGO    C132300   5.845   9.216   9.068 -0.0453  0.0353 -0.0453
20330ERGO    C232301   5.825   9.234   8.712 -0.0740 -0.0684  0.2506
20331ERGO   ROH32302   1.775  14.422  10.771 -0.1763  0.0513  0.0480
20331ERGO    R132303   1.894  14.402  10.514 -0.1233 -0.0789  0.0826
20331ERGO    R232304   1.755  14.312  10.293 -0.1277 -0.0223  0.0674
20331ERGO    R332305   1.837  14.547  10.185  0.0655 -0.1009  0.0379
20331ERGO    R432306   1.815  14.366   9.957 -0.1681 -0.1004  0.0469
20331ERGO    R532307   1.990  14.484  10.012 -0.0368 -0.2577 -0.0019
20331ERGO    C132308   1.928  14.618   9.660 -0.0102 -0.2196  0.0073
20331ERGO    C232309   2.053  14.821   9.470 -0.0352 -0.1394 -0.1463
20332ERGO   ROH32310   2.355  15.255   7.376 -0.1724 -0.0824  0.0070
20332ERGO    R132311   2.253  15.413   7.587 -0.1667 -0.0719  0.0024
20332ERGO    R232312   2.068  15.318   7.769 -0.2228 -0.0388 -0.0339
20332ERGO    R332313   2.253  15.401   7.951 -0.2295 -0.1009  0.0010
20332ERGO    R432314   1.994  15.466   8.072 -0.2254  0.1424 -0.1224
20332ERGO    R532315   2.161  15.603   8.040 -0.1122  0.0048 -0.1165
20332ERGO    C132316   2.124  15.631   8.419 -0.2332  0.1896 -0.1411
20332ERGO    C232317   2.212  15.591   8.742  0.3237 -0.1004 -0.2365
20333ERGO   ROH32318   1.237   0.648  10.502 -0.1807  0.1962 -0.1459
20333ERGO    R132319   1.303   0.674  10.228 -0.2525  0.1013 -0.1729
20333ERGO    R232320   1.507   0.530  10.109 -0.1229  0.2360 -0.1190
20333ERGO    R332321   1.310   0.457   9.936 -0.0808 -0.0678 -0.0456
20333ERGO    R432322   1.548   0.492   9.769 -0.1361  0.0521 -0.1011
20333ERGO    R532323   1.354   0.586   9.739 -0.2333 -0.1527 -0.1374
20333ERGO    C132324   1.388   0.402   9.407 -0.1043 -0.3401 -0.0218
20333ERGO    C232325   1.421   0.368   9.100 -0.2062 -0.3035 -0.0218
20334ERGO   ROH32326   8.226  14.326  10.929  0.1013 -0.2902  0.2071
20334ERGO    R132327   8.293  14.090  10.788  0.2299 -0.1943  0.1074
20334ERGO    R232328   8.249  14.061  10.517  0.1828 -0.1267  0.1123
20334ERGO    R332329   8.514  14.000  10.513  0.2262  0.0524  0.0196
20334ERGO    R432330   8.425  13.964  10.236  0.1165 -0.1392  0.0735
20334ERGO    R532331   8.530  13.817  10.358  0.2759 -0.0126  0.0968
20334ERGO    C132332   8.776  13.849  10.068  0.1185  0.0217 -0.0362
20334ERGO    C232333   8.992  13.812   9.825  0.2210  0.0800  0.0038
20335ERGO   ROH32334   6.878  12.889  10.663  0.1897 -0.2047  0.0728
20335ERGO    R132335   6.877  12.784  10.400  0.1658 -0.1630  0.0569
20335ERGO    R232336   6.868  12.945  10.176  0.1870 -0.1274  0.0855
20335ERGO    R332337   7.090  12.805  10.106  0.1617 -0.1537  0.0537
20335ERGO    R432338   6.967  12.882   9.851  0.1883 -0.0447  0.0689
20335ERGO    R532339   7.023  12.680   9.913  0.1422 -0.0792  0.0093
20335ERGO    C132340   7.233  12.714   9.596  0.1652 -0.0215  0.0292
20335ERGO    C232341   7.184  12.532   9.302  0.0418 -0.5484  0.0157
20336ERGO   ROH32342  16.234   8.259   7.238 -0.0459  0.1282 -0.2008
20336ERGO    R132343  16.309   8.285   7.510  0.0233 -0.0391 -0.2023
20336ERGO    R232344  16.336   8.531   7.634  0.1120 -0.1106 -0.0806
20336ERGO    R332345  16.162   8.423   7.812  0.1219 -0.1654 -0.0917
20336ERGO    R432346  16.290   8.644   7.957 -0.0071 -0.0640 -0.1120
20336ERGO    R532347  16.277   8.436   8.022  0.0813 -0.0673 -0.0689
20336ERGO    C132348  16.100   8.608   8.313 -0.0668 -0.0884 -0.1407
20336ERGO    C232349  15.936   8.830   8.555 -0.1131  0.0070 -0.0905
20337ERGO   ROH32350  13.885  15.854  10.909 -0.0585 -0.0086  0.0364
20337ERGO    R132351  13.968  15.720  10.674 -0.0023  0.1229 -0.0201
20337ERGO    R232352  13.790  15.594  10.504  0.0552  0.0571 -0.0307
20337ERGO    R332353  13.907  15.752  10.317 -0.0790  0.1992 -0.0023
20337ERGO    R432354  13.782  15.534  10.164  0.1362  0.0869 -0.0379
20337ERGO    R532355  13.991  15.597  10.154  0.0846  0.2925 -0.0144
20337ERGO    C132356  13.888  15.647   9.790  0.0573  0.2377 -0.0153
20337ERGO    C232357  13.864  15.605   9.448  0.3605  0.0582 -0.2424
20338ERGO   ROH32358   8.858   0.449  10.150  0.0511 -0.0302  0.1598
20338ERGO    R132359   8.865   0.338   9.890  0.1298  0.0838  0.1121
20338ERGO    R232360   8.669   0.388   9.701  0.0196 -0.0833  0.1779
20338ERGO    R332361   8.881   0.465   9.549 -0.1081  0.2464  0.1597
20338ERGO    R432362   8.703   0.324   9.364  0.0944 -0.0353  0.1766
20338ERGO    R532363   8.915   0.283   9.398  0.1650  0.2941  0.1597
20338ERGO    C132364   8.922   0.359   9.024  0.0179  0.3023  0.1587
20338ERGO    C232365   8.869   0.546   8.755 -0.1606  0.0976 -0.2573
20339ERGO   ROH32366  15.618  16.503  11.120 -0.0620 -0.0528  0.0527
20339ERGO    R132367  15.523  16.665  10.909 -0.1221 -0.1167  0.0296
20339ERGO    R232368  15.677  16.727  10.688 -0.0649  0.0891  0.1218
20339ERGO    R332369  15.465  16.626  10.551  0.1157 -0.1199 -0.0096
20339ERGO    R432370  15.611  16.788  10.354 -0.1710  0.4119  0.1984
20339ERGO    R532371  15.400  16.804  10.405 -0.2066 -0.0389  0.2244
20339ERGO    C132372  15.374  16.729  10.032 -0.0632  0.4037  0.1197
20339ERGO    C232373  15.281  16.751   9.645  0.1124 -0.3021  0.2276
20340ERGO   ROH32374   2.229   1.440   6.984 -0.2257 -0.0674  0.2054
20340ERGO    R132375   2.342   1.418   7.243  0.0714  0.0735  0.0932
20340ERGO    R232376   2.535   1.593   7.337 -0.0449  0.3206 -0.1071
20340ERGO    R332377   2.359   1.625   7.542  0.1179  0.0991  0.0717
20340ERGO    R432378   2.620   1.690   7.658  0.1677  0.2862 -0.1519
20340ERGO    R532379   2.476   1.546   7.734  0.3665  0.1371 -0.0630
20340ERGO    C132380   2.504   1.777   8.036  0.4444  0.0583 -0.0101
20340ERGO    C232381   2.257   1.960   8.232  0.3101  0.1229  0.1110
20341ERGO   ROH32382   5.027  11.384  10.463  0.2924 -0.0242  0.1436
20341ERGO    R132383   5.217  11.301  10.271  0.0831 -0.0705 -0.0484
20341ERGO    R232384   5.149  11.248  10.008 -0.1531  0.1667 -0.0448
20341ERGO    R332385   5.346  11.428   9.955 -0.0273  0.0268 -0.0533
20341ERGO    R432386   5.238  11.356   9.692 -0.2286  0.2714 -0.0301
20341ERGO    R532387   5.447  11.348   9.754 -0.2055  0.0573 -0.1515
20341ERGO    C132388   5.475  11.588   9.459 -0.1543  0.2010 -0.0296
20341ERGO    C232389   5.744  11.641   9.194 -0.1021  0.0642 -0.3646
20342ERGO   ROH32390  12.381  12.106   7.501  0.0849 -0.0347  0.1461
20342ERGO    R132391  12.259  12.272   7.694  0.1389 -0.1224  0.2577
20342ERGO    R232392  11.987  12.271   7.742  0.1108  0.0610  0.1288
20342ERGO    R332393  12.064  12.227   7.999 -0.0408 -0.2660  0.1228
20342ERGO    R432394  11.792  12.334   8.020  0.1517  0.2388  0.1182
20342ERGO    R532395  11.970  12.409   8.121  0.2723 -0.1671  0.2222
20342ERGO    C132396  11.751  12.329   8.423  0.0332  0.0354  0.1064
20342ERGO    C232397  11.759  12.374   8.807  0.1370 -0.1086  0.1937
20343ERGO   ROH32398  17.534  16.325  10.778  0.2622  0.1666  0.0037
20343ERGO    R132399  17.478  16.429  10.521  0.3163  0.2675  0.0333
20343ERGO    R232400  17.675  16.521  10.351  0.4042 -0.1165 -0.0757
20343ERGO    R332401  17.563  16.345  10.177 -0.0347  0.0879 -0.0157
20343ERGO    R432402  17.695  16.544  10.007  0.3675 -0.2201 -0.0862
20343ERGO    R532403  17.486  16.482   9.996  0.2135  0.2324 -0.0194
20343ERGO    C132404  17.601  16.392   9.643 -0.0658 -0.0886 -0.0359
20343ERGO    C232405  17.551  16.422   9.234  0.0521 -0.1725 -0.2120
20344ERGO   ROH32406  16.134   4.253   6.987  0.0689  0.0480  0.0653
20344ERGO    R132407  16.087   4.124   7.234  0.2003 -0.1023  0.0143
20344ERGO    R232408  16.287   4.081   7.420  0.2265  0.1328  0.0464
20344ERGO    R332409  16.115   4.210   7.587 -0.0066 -0.1682  0.0479
20344ERGO    R432410  16.341   4.132   7.757  0.1589  0.2683  0.0371
20344ERGO    R532411  16.130   4.089   7.793  0.2378 -0.1238  0.0580
20344ERGO    C132412  16.212   4.283   8.111 -0.0994  0.0646  0.0330
20344ERGO    C232413  16.447   4.149   8.466  0.1541 -0.4141 -0.2697
20345ERGO   ROH32414   0.410   8.124  10.680  0.2595  0.2460 -0.0451
20345ERGO    R132415   0.272   8.041  10.447  0.2634  0.0109  0.0350
20345ERGO    R232416   0.179   8.219  10.258 -0.0015 -0.1572  0.0116
20345ERGO    R332417   0.322   8.064  10.087  0.1046 -0.0609  0.0037
20345ERGO    R432418   0.180   8.252   9.913  0.0547 -0.0581  0.0197
20345ERGO    R532419   0.179   8.034   9.898  0.1458 -0.0679 -0.0367
20345ERGO    C132420   0.316   8.124   9.553  0.1871  0.0901  0.0171
20345ERGO    C232421   0.256   8.102   9.107  0.1515 -0.1836 -0.2423
20346ERGO   ROH32422   7.877  17.106  10.780 -0.1720  0.0161 -0.0131
20346ERGO    R132423   8.051  17.195  10.575 -0.2027  0.1296  0.0092
20346ERGO    R232424   8.221  17.025  10.439  0.0457  0.2646  0.1404
20346ERGO    R332425   8.097  17.128  10.220 -0.0029  0.0277  0.0543
20346ERGO    R432426   8.362  17.047  10.125  0.1544  0.3712  0.1958
20346ERGO    R532427   8.271  17.243  10.102 -0.1126  0.2379  0.0982
20346ERGO    C132428   8.328  17.155   9.735  0.1721  0.2106  0.1471
20346ERGO    C232429   8.450  17.068   9.385  0.0584 -0.2562 -0.1168
20347ERGO   ROH32430   4.996   0.603   7.524 -0.2214  0.0082  0.0771
20347ERGO    R132431   4.891   0.821   7.671 -0.1178  0.0791  0.0459
20347ERGO    R232432   4.802   0.797   7.931 -0.0948  0.1671  0.0620
20347ERGO    R332433   4.977   1.000   7.976 -0.0096  0.1085 -0.0011
20347ERGO    R432434   4.823   0.979   8.224  0.0585  0.1765  0.0462
20347ERGO    R532435   4.853   1.159   8.105  0.0855  0.1596  0.0281
20347ERGO    C132436   5.000   1.275   8.437  0.2277  0.1270 -0.0224
20347ERGO    C232437   5.074   1.496   8.681 -0.1931 -0.0178  0.0610
20348ERGO   ROH32438   7.958   8.249  10.171 -0.0611 -0.0862  0.0426
20348ERGO    R132439   8.127   8.228   9.945 -0.1878 -0.3109 -0.0349
20348ERGO    R232440   8.071   8.061   9.732 -0.6750 -0.0130 -0.1590
20348ERGO    R332441   8.099   8.289   9.587 -0.1797  0.0532  0.0222
20348ERGO    R432442   8.189   8.074   9.408 -0.4472  0.0142 -0.0752
20348ERGO    R532443   8.300   8.255   9.462 -0.1556 -0.2136  0.1259
20348ERGO    C132444   8.285   8.297   9.083  0.1504  0.0923  0.1437
20348ERGO    C232445   8.214   8.415   8.829 -0.1008 -0.0055 -0.1444
20349ERGO   ROH32446   5.148   4.300   7.149  0.2163  0.1639  0.1121
20349ERGO    R132447   5.215   4.267   7.422  0.1038  0.1722  0.1408
20349ERGO    R232448   5.138   4.448   7.616 -0.0684  0.1228  0.1203
20349ERGO    R332449   5.034   4.226   7.735 -0.0251  0.0660  0.0537
20349ERGO    R432450   5.070   4.419   7.954 -0.0177 -0.0114  0.1200
20349ERGO    R532451   5.146   4.214   7.946  0.0058  0.0004  0.0336
20349ERGO    C132452   4.932   4.195   8.262  0.0524 -0.1430  0.0572
20349ERGO    C232453   4.865   4.349   8.551  0.0172 -0.2431  0.1241
20350ERGO   ROH32454   4.160   3.585  10.870 -0.0576  0.1747  0.0183
20350ERGO    R132455   4.074   3.732  10.644 -0.1519  0.1498  0.0367
20350ERGO    R232456   4.246   3.807  10.441 -0.1990  0.2813  0.0408
20350ERGO    R332457   4.064   3.681  10.284 -0.1244  0.1852  0.0315
20350ERGO    R432458   4.235   3.830  10.096  0.0130 -0.0001  0.0123
20350ERGO    R532459   4.017   3.839  10.110  0.0080  0.0499 -0.1281
20350ERGO    C132460   4.057   3.725   9.748  0.2065 -0.2542 -0.0132
20350ERGO    C232461   4.244   3.821   9.438  0.0520  0.0094 -0.0702
20351ERGO   ROH32462   5.466  12.462  10.544 -0.1935  0.1260 -0.0423
20351ERGO    R132463   5.499  12.366  10.280 -0.1155  0.0310  0.0018
20351ERGO    R232464   5.291  12.352  10.100 -0.0609 -0.0310 -0.0554
20351ERGO    R332465   5.459  12.498   9.944 -0.0130 -0.0897 -0.0591
20351ERGO    R432466   5.262  12.385   9.757 -0.1220  0.0605 -0.0419
20351ERGO    R532467   5.479  12.369   9.743 -0.1316 -0.0587 -0.0934
20351ERGO    C132468   5.403  12.541   9.410 -0.1126  0.0585 -0.0375
20351ERGO    C232469   5.237  12.423   9.013  0.1065  0.0265  0.1733
20352ERGO   ROH32470   8.803  11.191  11.387 -0.0527  0.1369  0.0364
20352ERGO    R132471   8.714  11.187  11.118  0.0532  0.1025  0.0008
20352ERGO    R232472   8.856  11.305  10.913  0.1413  0.0668  0.0369
20352ERGO    R332473   8.837  11.059  10.801  0.1743  0.0505  0.0689
20352ERGO    R432474   8.880  11.241  10.575 -0.0416  0.0473  0.0270
20352ERGO    R532475   8.719  11.096  10.596  0.0328 -0.0175  0.1390
20352ERGO    C132476   8.877  10.972  10.272 -0.1169  0.0205  0.0514
20352ERGO    C232477   8.836  11.063   9.882 -0.2183 -0.1012  0.1827
20353ERGO   ROH32478   1.154   2.452  10.455  0.1278  0.2469  0.0171
20353ERGO    R132479   1.080   2.461  10.182  0.0778  0.1238  0.0265
20353ERGO    R232480   1.101   2.691  10.030  0.1248  0.0333 -0.1000
20353ERGO    R332481   1.245   2.529   9.865  0.0384 -0.1030 -0.0453
20353ERGO    R432482   1.032   2.637   9.695  0.1433  0.0252 -0.1033
20353ERGO    R532483   1.081   2.426   9.724 -0.0147 -0.0093 -0.0558
20353ERGO    C132484   1.127   2.454   9.346  0.0729 -0.1075 -0.0538
20353ERGO    C232485   1.249   2.349   9.019 -0.0502  0.0252  0.2394
20354ERGO   ROH32486  16.778   2.636  10.307  0.1356 -0.0785 -0.0474
20354ERGO    R132487  16.653   2.601  10.056  0.0342 -0.1600  0.0121
20354ERGO    R232488  16.740   2.729   9.827 -0.1933 -0.0561 -0.0285
20354ERGO    R332489  16.750   2.476   9.728 -0.0218 -0.0409 -0.0473
20354ERGO    R432490  16.812   2.647   9.499  0.0212 -0.0098  0.0072
20354ERGO    R532491  16.658   2.494   9.508  0.0943 -0.0759 -0.0912
20354ERGO    C132492  16.864   2.361   9.216  0.3069  0.0314  0.0103
20354ERGO    C232493  17.147   2.200   8.881  0.3028 -0.2016  0.0637
20355ERGO   ROH32494   0.526  15.747  10.646 -0.3377 -0.0699 -0.0298
20355ERGO    R132495   0.565  15.855  10.387 -0.3797  0.0174  0.0001
20355ERGO    R232496   0.732  15.738  10.200 -0.1212  0.2793  0.0607
20355ERGO    R332497   0.510  15.747  10.044 -0.0694 -0.0291 -0.0377
20355ERGO    R432498   0.732  15.723   9.855  0.0219 -0.0254  0.0702
20355ERGO    R532499   0.576  15.875   9.853 -0.0956 -0.1453 -0.1254
20355ERGO    C132500   0.524  15.723   9.507  0.1538 -0.4924 -0.0166
20355ERGO    C232501   0.449  15.648   9.143  0.0968  0.0362  0.0488
20356ERGO   ROH32502   3.976  11.534  10.408 -0.1885 -0.2951 -0.1246
20356ERGO    R132503   4.048  11.632  10.152 -0.1233 -0.1326 -0.0467
20356ERGO    R232504   4.198  11.485   9.974  0.1049  0.0607 -0.0260
20356ERGO    R332505   3.990  11.535   9.806  0.1529 -0.0472 -0.1178
20356ERGO    R432506   4.228  11.541   9.634  0.2360  0.2243  0.0116
20356ERGO    R532507   4.076  11.697   9.652  0.0966  0.0869 -0.0058
20356ERGO    C132508   4.050  11.621   9.279  0.3574  0.2181 -0.0525
20356ERGO    C232509   4.035  11.570   8.913 -0.1641  0.0682  0.0434
20357ERGO   ROH32510   9.028   1.026  10.671  0.0259  0.0887 -0.0462
20357ERGO    R132511   8.999   0.875  10.433 -0.0341  0.1623 -0.0854
20357ERGO    R232512   8.848   0.963  10.219  0.1235  0.3482 -0.1206
20357ERGO    R332513   9.079   0.919  10.081  0.1319  0.1564 -0.0498
20357ERGO    R432514   8.869   0.913   9.877  0.1629  0.0819 -0.0819
20357ERGO    R532515   9.019   0.759   9.913  0.0998  0.0504  0.0600
20357ERGO    C132516   9.096   0.843   9.549  0.1937 -0.2531  0.0072
20357ERGO    C232517   9.079   0.842   9.171  0.2855 -0.0217  0.1295
20358ERGO   ROH32518  12.155   3.672  10.981 -0.0202 -0.0830 -0.0314
20358ERGO    R132519  12.102   3.573  10.721 -0.0209 -0.0739 -0.0337
20358ERGO    R232520  11.934   3.702  10.543  0.0525 -0.0219 -0.0576
20358ERGO    R332521  12.151   3.688  10.380  0.0662 -0.1075 -0.0345
20358ERGO    R432522  11.926   3.737  10.200  0.1309  0.2843 -0.0322
20358ERGO    R532523  12.071   3.576  10.184 -0.0297  0.1387 -0.1460
20358ERGO    C132524  12.124   3.744   9.846  0.1892  0.3822  0.0043
20358ERGO    C232525  12.120   3.732   9.528 -0.0111  0.0928 -0.0498
20359ERGO   ROH32526   8.773  13.428   7.748 -0.1494 -0.3220  0.2958
20359ERGO    R132527   9.016  13.399   7.891 -0.0258 -0.2522  0.1039
20359ERGO    R232528   9.261  13.475   7.785 -0.1409 -0.0659 -0.0440
20359ERGO    R332529   9.278  13.619   8.015 -0.0583 -0.1612  0.0097
20359ERGO    R432530   9.554  13.600   7.919 -0.1081 -0.0377 -0.1424
20359ERGO    R532531   9.482  13.545   8.117  0.0155 -0.1438 -0.1299
20359ERGO    C132532   9.741  13.809   8.212 -0.0117 -0.1109 -0.1493
20359ERGO    C232533  10.040  13.876   8.323  0.2173 -0.2229 -0.4444
20360ERGO   ROH32534   0.364  14.571   7.326  0.0862 -0.0252  0.0125
20360ERGO    R132535   0.378  14.528   7.605 -0.0439  0.0179  0.0279
20360ERGO    R232536   0.607  14.578   7.753  0.0063 -0.2948  0.0730
20360ERGO    R332537   0.439  14.732   7.901  0.1995  0.0003 -0.0095
20360ERGO    R432538   0.639  14.636   8.092  0.1501 -0.0434  0.0172
20360ERGO    R532539   0.423  14.618   8.110  0.1365  0.1915  0.0898
20360ERGO    C132540   0.500  14.814   8.428  0.4153  0.3801 -0.0929
20360ERGO    C232541   0.411  14.973   8.729  0.1031  0.0372 -0.3594
20361ERGO   ROH32542   0.695   3.482   6.831 -0.1190 -0.1342  0.0349
20361ERGO    R132543   0.658   3.400   7.099 -0.4587  0.0143  0.0357
20361ERGO    R232544   0.838   3.459   7.300 -0.2888 -0.5739  0.0550
20361ERGO    R332545   0.619   3.562   7.423  0.0177  0.1903  0.0155
20361ERGO    R432546   0.811   3.514   7.640 -0.2404 -0.7882  0.0970
20361ERGO    R532547   0.605   3.442   7.630 -0.5620  0.0169 -0.0964
20361ERGO    C132548   0.589   3.642   7.954  0.0755 -0.1955  0.0843
20361ERGO    C232549   0.481   3.701   8.257  0.3447  0.1615  0.0656
20362ERGO   ROH32550   7.201  11.766   7.316 -0.2498 -0.1811  0.1011
20362ERGO    R132551   7.100  11.916   7.535 -0.1706 -0.1604  0.1230
20362ERGO    R232552   6.838  11.898   7.619 -0.1586 -0.0878  0.1644
20362ERGO    R332553   6.952  11.843   7.859 -0.1386 -0.1270  0.1467
20362ERGO    R432554   6.716  12.004   7.924  0.0498  0.1655  0.1627
20362ERGO    R532555   6.921  12.043   7.987  0.1214 -0.0371  0.0817
20362ERGO    C132556   6.753  12.015   8.328  0.1899  0.2760  0.1452
20362ERGO    C232557   6.539  11.806   8.559 -0.1361 -0.2269  0.0589
20363ERGO   ROH32558   5.848   2.962   7.386 -0.2597  0.0699  0.0328
20363ERGO    R132559   5.803   2.883   7.655 -0.1278  0.0751  0.0581
20363ERGO    R232560   6.007   2.802   7.822 -0.0589 -0.0669 -0.0825
20363ERGO    R332561   5.908   2.996   7.984  0.1676 -0.0136 -0.0049
20363ERGO    R432562   6.014   2.793   8.168  0.0357 -0.1366 -0.0860
20363ERGO    R532563   5.813   2.877   8.169  0.1176  0.0422 -0.0025
20363ERGO    C132564   5.925   2.971   8.521  0.3032 -0.1272 -0.0151
20363ERGO    C232565   6.254   2.998   8.739 -0.1815  0.2383 -0.1031
20364ERGO   ROH32566   0.749  13.980  10.841  0.0826  0.0452 -0.0586
20364ERGO    R132567   0.782  13.870  10.583 -0.1739 -0.2567  0.0295
20364ERGO    R232568   0.581  13.734  10.452 -0.5455  0.1813  0.1059
20364ERGO    R332569   0.631  13.914  10.255 -0.0108 -0.0884 -0.0218
20364ERGO    R432570   0.490  13.696  10.120 -0.3409  0.0897  0.0596
20364ERGO    R532571   0.682  13.780  10.063 -0.1195 -0.3547  0.1382
20364ERGO    C132572   0.485  13.843   9.743  0.2801 -0.2168 -0.0874
20364ERGO    C232573   0.325  13.895   9.354  0.1780  0.1736 -0.1879
20365ERGO   ROH32574   0.247   5.322  10.644 -0.0687 -0.0542  0.0949
20365ERGO    R132575   0.385   5.330  10.396  0.0075  0.0797  0.1395
20365ERGO    R232576   0.371   5.124  10.212  0.1818  0.1111  0.0840
20365ERGO    R332577   0.295   5.324  10.044  0.1216  0.1095  0.1106
20365ERGO    R432578   0.399   5.114   9.868  0.0295  0.1040  0.0720
20365ERGO    R532579   0.460   5.323   9.871  0.0428  0.0966  0.0384
20365ERGO    C132580   0.343   5.295   9.509 -0.1157  0.0984  0.0901
20365ERGO    C232581   0.216   5.313   9.243 -0.1563 -0.1395  0.3695
20366ERGO   ROH32582   8.317  12.183   7.679 -0.2262  0.1991 -0.2345
20366ERGO    R132583   8.189  12.123   7.924 -0.0180 -0.1042 -0.1943
20366ERGO    R232584   8.328  12.045   8.150  0.2193  0.0436 -0.2864
20366ERGO    R332585   8.195  12.252   8.264 -0.0782 -0.2130 -0.1514
20366ERGO    R432586   8.350  12.133   8.483  0.3609  0.0638 -0.2998
20366ERGO    R532587   8.135  12.172   8.482  0.2767 -0.3465 -0.0968
20366ERGO    C132588   8.237  12.380   8.785  0.1642 -0.1652 -0.1811
20366ERGO    C232589   8.204  12.539   9.049  0.0478 -0.0413  0.4491
20367ERGO   ROH32590   2.207   8.470  10.376 -0.1767 -0.0548  0.0456
20367ERGO    R132591   2.353   8.305  10.199  0.0260  0.1869 -0.0141
20367ERGO    R232592   2.240   8.090  10.067  0.3376 -0.0304  0.0756
20367ERGO    R332593   2.336   8.216   9.846 -0.0022  0.1177  0.0025
20367ERGO    R432594   2.262   7.949   9.752  0.6979 -0.1642  0.1545
20367ERGO    R532595   2.455   8.046   9.728  0.4582  0.3499  0.0967
20367ERGO    C132596   2.365   7.985   9.362  0.5888 -0.1031  0.1320
20367ERGO    C232597   2.516   7.980   9.001  0.1299 -0.0080  0.0582
20368ERGO   ROH32598   3.281  14.872  10.677 -0.1013 -0.0236  0.0075
20368ERGO    R132599   3.350  14.923  10.407 -0.2030  0.0703 -0.0016
20368ERGO    R232600   3.611  14.910  10.316 -0.2097  0.3183 -0.0568
20368ERGO    R332601   3.505  14.737  10.135 -0.0888  0.2408 -0.0551
20368ERGO    R432602   3.671  14.919   9.976 -0.2144  0.3618 -0.0566
20368ERGO    R532603   3.461  14.873   9.942 -0.1850  0.2119 -0.0560
20368ERGO    C132604   3.607  14.762   9.608 -0.1036  0.3142 -0.0553
20368ERGO    C232605   3.824  14.791   9.234 -0.2871  0.1442  0.0250
20369ERGO   ROH32606  13.125   4.080   6.889 -0.1572  0.5624  0.0094
20369ERGO    R132607  13.182   4.039   7.163  0.1129  0.5642 -0.0433
20369ERGO    R232608  13.192   4.246   7.345 -0.3721  0.5049  0.0678
20369ERGO    R332609  13.011   4.094   7.480  0.1186 -0.0927  0.0856
20369ERGO    R432610  13.128   4.270   7.684 -0.4667  0.3355  0.0618
20369ERGO    R532611  13.115   4.052   7.692  0.2596  0.2793  0.0911
20369ERGO    C132612  12.921   4.141   8.008 -0.0612 -0.3242  0.0750
20369ERGO    C232613  12.986   4.143   8.494 -0.2597 -0.1407  0.0917
20370ERGO   ROH32614  14.785   7.588   7.080  0.0572 -0.0005 -0.0374
20370ERGO    R132615  14.574   7.523   7.258  0.0083 -0.1773 -0.1561
20370ERGO    R232616  14.532   7.266   7.351  0.3074 -0.1815 -0.0064
20370ERGO    R332617  14.545   7.387   7.594 -0.0510  0.0198 -0.0815
20370ERGO    R432618  14.474   7.109   7.653  0.2014 -0.0089  0.0636
20370ERGO    R532619  14.367   7.287   7.720 -0.0564 -0.0749 -0.1696
20370ERGO    C132620  14.452   7.132   8.057 -0.1968  0.2805  0.0339
20370ERGO    C232621  14.320   6.908   8.358 -0.0463 -0.1059  0.0674
20371ERGO   ROH32622   1.100   8.220   6.906  0.3108  0.0074  0.1082
20371ERGO    R132623   0.965   8.099   7.124  0.1540  0.0121  0.0160
20371ERGO    R232624   1.091   7.926   7.298 -0.0093 -0.1020  0.0225
20371ERGO    R332625   0.997   8.098   7.486 -0.0042 -0.1086  0.0310
20371ERGO    R432626   1.175   7.917   7.633 -0.1130 -0.2067  0.0459
20371ERGO    R532627   0.967   7.963   7.681 -0.1124 -0.1416 -0.0074
20371ERGO    C132628   1.135   8.073   8.005 -0.1686 -0.2737  0.0675
20371ERGO    C232629   1.451   8.178   8.309 -0.1001  0.0074  0.1552
20372ERGO   ROH32630  14.176  15.960   7.601  0.2107 -0.2516 -0.0688
20372ERGO    R132631  14.249  15.934   7.874  0.1563  0.0481 -0.0220
20372ERGO    R232632  14.301  16.153   8.035 -0.1002  0.2402 -0.1862
20372ERGO    R332633  14.112  16.039   8.194 -0.0410  0.1916 -0.1513
20372ERGO    R432634  14.185  16.287   8.332 -0.0117  0.1575 -0.1140
20372ERGO    R532635  14.186  16.087   8.417  0.0272  0.1390 -0.1644
20372ERGO    C132636  13.941  16.259   8.654  0.0953  0.0638 -0.0392
20372ERGO    C232637  13.676  16.262   8.927 -0.1932  0.0486  0.0175
20373ERGO   ROH32638   7.060  10.813  10.581 -0.0963  0.1572  0.0603
20373ERGO    R132639   6.905  10.879  10.353 -0.1504  0.0261  0.0595
20373ERGO    R232640   7.014  10.905  10.101 -0.1727  0.1048  0.0615
20373ERGO    R332641   6.823  10.723  10.034 -0.0302 -0.0491  0.0640
20373ERGO    R432642   6.915  10.834   9.778 -0.0464 -0.0474  0.0547
20373ERGO    R532643   6.709  10.823   9.849 -0.0590 -0.1747  0.0104
20373ERGO    C132644   6.679  10.621   9.527  0.1608 -0.2805  0.0529
20373ERGO    C232645   6.739  10.681   9.197  0.0823  0.0907 -0.1934
20374ERGO   ROH32646   7.829  15.272  10.819  0.0801  0.0104 -0.0574
20374ERGO    R132647   7.890  15.259  10.543  0.2990 -0.0450 -0.0088
20374ERGO    R232648   8.124  15.149  10.447  0.2121 -0.4127  0.1778
20374ERGO    R332649   7.954  14.998  10.298  0.0882 -0.1185  0.0125
20374ERGO    R432650   8.212  14.980  10.159  0.1298 -0.3671  0.1255
20374ERGO    R532651   8.022  15.039  10.072  0.2448 -0.0779  0.0668
20374ERGO    C132652   8.104  14.739   9.852 -0.0344 -0.0643 -0.0602
20374ERGO    C232653   8.175  14.636   9.572 -0.0712  0.0365 -0.3466
20375ERGO   ROH32654   0.606   2.075   6.939 -0.1247  0.0861 -0.0865
20375ERGO    R132655   0.704   2.109   7.203 -0.1309 -0.0013 -0.0729
20375ERGO    R232656   0.657   2.339   7.350  0.0812  0.0539 -0.0949
20375ERGO    R332657   0.562   2.162   7.533 -0.1296  0.1632 -0.0962
20375ERGO    R432658   0.629   2.401   7.689  0.5636 -0.0428 -0.0291
20375ERGO    R532659   0.697   2.198   7.727  0.1592 -0.2298 -0.2083
20375ERGO    C132660   0.522   2.271   8.058  0.6466  0.0034  0.0081
20375ERGO    C232661   0.387   2.326   8.416  0.2920  0.0776 -0.0679
20376ERGO   ROH32662  10.887   6.045   6.970 -0.1715  0.1273 -0.0732
20376ERGO    R132663  10.840   6.007   7.247 -0.1624  0.1441 -0.0695
20376ERGO    R232664  10.940   5.791   7.386 -0.3379  0.0375 -0.1072
20376ERGO    R332665  11.042   5.983   7.549 -0.1338 -0.0698 -0.1038
20376ERGO    R432666  10.958   5.769   7.731 -0.1041 -0.0995 -0.1252
20376ERGO    R532667  10.900   5.979   7.742 -0.0004 -0.0760 -0.0042
20376ERGO    C132668  11.063   5.938   8.084  0.2236 -0.2801 -0.1324
20376ERGO    C232669  11.302   5.930   8.416  0.1589 -0.1580  0.0340
20377PSPI    C132670   1.189  11.356   6.169  0.1181  0.1716  0.0013
20377PSPI    C232671   1.356  11.719   6.186  0.2892  0.1103 -0.2926
20377PSPI    C332672   1.058  11.648   5.929 -0.0133  0.1446  0.0396
20377PSPI   PO432673   1.293  11.325   6.461  0.0189  0.2889 -0.1813
20377PSPI   GL132674   1.284  11.192   6.880 -0.0134  0.0545 -0.0583
20377PSPI   GL232675   0.981  11.155   7.111  0.4171 -0.1759 -0.4177
20377PSPI   C1A32676   1.547  11.158   7.203 -0.1350 -0.0266 -0.1173
20377PSPI   C2A32677   1.585  10.899   7.509 -0.4492 -0.2319 -0.0631
20377PSPI   C3A32678   1.568  10.852   7.914 -0.0006  0.1434  0.3310
20377PSPI   C4A32679   1.697  10.830   8.197 -0.0219 -0.0147 -0.0272
20377PSPI   C1B32680   1.102  11.357   7.424  0.2144 -0.2406  0.1530
20377PSPI   C2B32681   1.257  11.400   7.845 -0.1542 -0.1763 -0.0860
20377PSPI   C3B32682   1.345  11.472   8.276 -0.0385 -0.0110  0.0745
20377PSPI   C4B32683   1.339  11.430   8.648 -0.1125 -0.1441  0.1794
20378PSPI    C132684  15.277  15.317   6.848  0.1646  0.0461 -0.0591
20378PSPI    C232685  15.350  15.711   6.840  0.0294  0.0701 -0.1419
20378PSPI    C332686  15.567  15.462   6.614 -0.0697  0.1288 -0.3038
20378PSPI   PO432687  15.152  15.348   7.165 -0.0426  0.0171 -0.1887
20378PSPI   GL132688  15.003  15.636   7.601 -0.2171 -0.1092 -0.1510
20378PSPI   GL232689  14.996  15.332   7.683 -0.1002  0.2221  0.1055
20378PSPI   C1A32690  14.661  15.663   7.912  0.0421  0.0351  0.2038
20378PSPI   C2A32691  14.352  15.503   8.260 -0.0626  0.1384  0.1312
20378PSPI   C3A32692  14.317  15.347   8.684  0.0923 -0.0851 -0.2260
20378PSPI   C4A32693  14.630  15.093   8.946  0.1915  0.0572  0.0232
20378PSPI   C1B32694  15.245  15.420   8.069  0.0120 -0.0289 -0.0855
20378PSPI   C2B32695  15.460  15.462   8.412 -0.0369  0.0168 -0.0770
20378PSPI   C3B32696  15.587  15.282   8.850 -0.0873  0.1627 -0.2149
20378PSPI   C4B32697  15.337  14.965   9.109 -0.0129  0.1218 -0.0431
20379PSPI    C132698   8.529  10.682   6.942 -0.0555 -0.0307  0.2009
20379PSPI    C232699   8.204  10.489   6.811 -0.1200  0.2031  0.0102
20379PSPI    C332700   8.429  10.699   6.555  0.1263  0.1251  0.1594
20379PSPI   PO432701   8.485  10.804   7.118  0.1290  0.1598  0.0550
20379PSPI   GL132702   8.692  10.850   7.537 -0.1638 -0.3983 -0.1948
20379PSPI   GL232703   8.925  11.080   7.590  0.0650  0.0606 -0.2270
20379PSPI   C1A32704   8.423  10.898   7.912  0.1784 -0.0445  0.1194
20379PSPI   C2A32705   8.078  11.189   8.147 -0.2564 -0.2757  0.1058
20379PSPI   C3A32706   7.949  11.210   8.538 -0.2180 -0.0879  0.0449
20379PSPI   C4A32707   7.791  11.104   8.950  0.0284  0.1529 -0.0315
20379PSPI   C1B32708   8.840  11.245   7.997 -0.0582 -0.0768  0.0345
20379PSPI   C2B32709   8.810  11.235   8.491  0.0969  0.0123  0.3018
20379PSPI   C3B32710   8.738  11.134   8.906 -0.1710 -0.0417 -0.1090
20379PSPI   C4B32711   8.645  11.089   9.402  0.1846 -0.1332 -0.2781
20380PSPI    C132712   0.091  11.111   6.650  0.0472  0.2595  0.2263
20380PSPI    C232713  -0.132  11.440   6.692 -0.1032  0.1902 -0.0046
20380PSPI    C332714  -0.302  11.097   6.575  0.0892  0.0830  0.0258
20380PSPI   PO432715   0.270  11.151   6.884  0.1863  0.0710 -0.1681
20380PSPI   GL132716   0.391  10.942   7.213 -0.1680 -0.0503 -0.3828
20380PSPI   GL232717   0.346  10.572   7.325 -0.1622  0.0300 -0.1448
20380PSPI   C1A32718   0.731  10.995   7.503 -0.2474  0.2752  0.1391
20380PSPI   C2A32719   1.094  10.944   7.803  0.3026 -0.0645  0.0546
20380PSPI   C3A32720   1.150  11.005   8.153  0.0685 -0.0688 -0.0404
20380PSPI   C4A32721   1.233  10.974   8.566  0.1421  0.3486  0.0941
20380PSPI   C1B32722   0.519  10.583   7.708 -0.0408  0.4074  0.2222
20380PSPI   C2B32723   0.751  10.631   7.991  0.2577 -0.2186  0.4008
20380PSPI   C3B32724   0.784  10.730   8.329 -0.0978 -0.3079 -0.0090
20380PSPI   C4B32725   0.708  10.971   8.768  0.5508 -0.0164 -0.0992
20381PSPI    C132726  16.707  16.221   6.512 -0.2358 -0.0642 -0.2041
20381PSPI    C232727  16.996  16.243   6.235 -0.0727  0.2294 -0.0156
20381PSPI    C332728  16.616  16.316   6.134 -0.0685 -0.0474 -0.2413
20381PSPI   PO432729  16.834  16.352   6.798  0.1740 -0.2978 -0.0131
20381PSPI   GL132730  16.748  16.570   7.161  0.0352  0.0589 -0.1031
20381PSPI   GL232731  16.472  16.720   7.230  0.2984 -0.1946  0.4029
20381PSPI   C1A32732  17.191  16.528   7.448 -0.0133  0.1318  0.0280
20381PSPI   C2A32733  17.322  16.552   7.845 -0.3105 -0.2552  0.1185
20381PSPI   C3A32734  17.406  16.521   8.265 -0.1282  0.2407  0.0765
20381PSPI   C4A32735  17.537  16.929   8.462  0.2663 -0.0797 -0.2389
20381PSPI   C1B32736  16.504  16.928   7.586 -0.2469  0.1748  0.2108
20381PSPI   C2B32737  16.547  16.917   8.016 -0.0109 -0.2564  0.3601
20381PSPI   C3B32738  16.612  17.013   8.397  0.3164 -0.1006  0.0243
20381PSPI   C4B32739  16.983  16.966   8.625 -0.0190  0.0174  0.0287
20382PSPI    C132740   4.668   9.988   6.324  0.1773  0.0787  0.2267
20382PSPI    C232741   4.277   9.933   6.387  0.1238  0.3144  0.1101
20382PSPI    C332742   4.442   9.821   6.040  0.1699  0.1690  0.1787
20382PSPI   PO432743   4.848   9.856   6.511  0.0050  0.1926  0.0237
20382PSPI   GL132744   4.997   9.833   6.823  0.0297 -0.4580  0.2919
20382PSPI   GL232745   4.808   9.675   6.979 -0.0085 -0.2591  0.0077
20382PSPI   C1A32746   5.056  10.094   7.193  0.1435 -0.0202 -0.0994
20382PSPI   C2A32747   4.767  10.189   7.519  0.0879  0.0258 -0.1848
20382PSPI   C3A32748   4.577  10.082   7.891  0.0767 -0.0054  0.1630
20382PSPI   C4A32749   4.514  10.199   8.366  0.0209 -0.0505 -0.2046
20382PSPI   C1B32750   4.638   9.722   7.363 -0.1814 -0.1342 -0.0960
20382PSPI   C2B32751   4.741   9.531   7.714 -0.0120 -0.2470  0.0448
20382PSPI   C3B32752   4.634   9.427   8.116 -0.0769 -0.0591  0.1827
20382PSPI   C4B32753   4.583   9.567   8.582  0.1448  0.1342  0.0255
20383PSPI    C132754   5.801  17.543   6.662  0.1103 -0.1145 -0.1398
20383PSPI    C232755   5.555  17.744   6.419 -0.0883 -0.4253 -0.2003
20383PSPI    C332756   5.598  17.348   6.378  0.2346 -0.4112 -0.0293
20383PSPI   PO432757   5.871  17.673   6.857 -0.0196 -0.3901 -0.2554
20383PSPI   GL132758   5.731  17.690   7.265  0.1002 -0.0826 -0.2893
20383PSPI   GL232759   5.304  17.818   7.420  0.0295  0.1918 -0.1928
20383PSPI   C1A32760   5.718  17.998   7.652  0.3322 -0.0696 -0.1568
20383PSPI   C2A32761   5.806  17.964   8.125 -0.1198 -0.0867  0.1101
20383PSPI   C3A32762   5.900  18.264   8.481 -0.0947 -0.2509 -0.2427
20383PSPI   C4A32763   6.236  18.593   8.425  0.0318 -0.0146 -0.2854
20383PSPI   C1B32764   5.107  17.616   7.656  0.1990  0.3266  0.2163
20383PSPI   C2B32765   4.995  17.476   8.072  0.0514  0.0322  0.3712
20383PSPI   C3B32766   5.003  17.557   8.480 -0.1036  0.0988 -0.1905
20383PSPI   C4B32767   4.755  17.154   8.669  0.1072 -0.0580 -0.2900
20384POPI    C132768  11.059   2.667   6.382 -0.1702  0.0161  0.2095
20384POPI    C232769  10.899   2.767   6.030  0.0846  0.1296  0.1232
20384POPI    C332770  11.295   2.786   6.081  0.0816 -0.2237  0.3073
20384POPI   PO432771  10.889   2.647   6.574 -0.1796 -0.0848  0.3296
20384POPI   GL132772  10.960   2.397   6.908  0.0789  0.2658  0.3042
20384POPI   GL232773  10.827   2.562   7.165 -0.1882  0.0703  0.1051
20384POPI   C1A32774  10.941   2.140   7.380  0.1565 -0.1163  0.0595
20384POPI   D2A32775  10.938   1.882   7.783 -0.1083 -0.2778  0.4080
20384POPI   C3A32776  11.305   1.865   8.054  0.1154 -0.2096  0.1170
20384POPI   C4A32777  11.616   1.694   8.306 -0.1560 -0.1903 -0.1667
20384POPI   C1B32778  10.887   2.682   7.580 -0.3759 -0.0050 -0.0982
20384POPI   C2B32779  10.985   2.772   8.018  0.3048 -0.1919 -0.0273
20384POPI   C3B32780  10.806   2.717   8.349  0.1537  0.0082 -0.2741
20384POPI   C4B32781  11.036   2.787   8.777  0.2007 -0.2714  0.4277
20385POPI    C132782   1.057  11.777   6.547 -0.0174  0.1201 -0.1740
20385POPI    C232783   0.717  11.972   6.629 -0.1544 -0.1439 -0.1010
20385POPI    C332784   0.753  11.767   6.287 -0.1236 -0.2366 -0.0425
20385POPI   PO432785   1.125  11.669   6.816 -0.2049  0.3562 -0.2728
20385POPI   GL132786   1.402  11.682   7.172 -0.1364  0.0549  0.0841
20385POPI   GL232787   1.408  12.140   7.155  0.0777  0.5157 -0.2884
20385POPI   C1A32788   1.494  11.861   7.597  0.4295 -0.0354  0.2194
20385POPI   D2A32789   1.484  12.060   7.932 -0.0508 -0.1308  0.1860
20385POPI   C3A32790   1.740  11.894   8.222  0.0890 -0.1619 -0.1332
20385POPI   C4A32791   1.736  11.734   8.610 -0.0946  0.0447  0.0097
20385POPI   C1B32792   1.675  12.117   7.169  0.0320 -0.0956 -0.2968
20385POPI   C2B32793   1.900  12.181   7.466 -0.1288  0.1673 -0.2344
20385POPI   C3B32794   1.904  12.348   7.901 -0.0959  0.2922 -0.2429
20385POPI   C4B32795   2.040  12.250   8.251 -0.2183 -0.0206 -0.1801
20386POPI    C132796  11.782   7.551   6.662  0.0677  0.0029  0.1707
20386POPI    C232797  11.956   7.908   6.713  0.2050 -0.0439  0.0374
20386POPI    C332798  12.075   7.667   6.416 -0.1768 -0.0226 -0.1395
20386POPI   PO432799  11.760   7.347   6.775  0.3523  0.3550  0.3365
20386POPI   GL132800  11.353   7.131   6.896 -0.2332 -0.0391 -0.0288
20386POPI   GL232801  11.311   7.329   7.151 -0.0630  0.0807 -0.2151
20386POPI   C1A32802  11.318   6.879   7.255  0.1086  0.1784  0.0650
20386POPI   D2A32803  11.311   6.905   7.625  0.0808 -0.1415  0.0463
20386POPI   C3A32804  11.325   6.845   8.048  0.1690 -0.1811  0.2635
20386POPI   C4A32805  11.537   6.824   8.505 -0.0286  0.1319 -0.3491
20386POPI   C1B32806  11.199   7.378   7.535 -0.0440 -0.1543  0.0038
20386POPI   C2B32807  11.207   7.371   7.978 -0.0344  0.2538  0.0733
20386POPI   C3B32808  11.235   7.256   8.398  0.1510  0.1558  0.0643
20386POPI   C4B32809  10.980   7.218   8.769  0.2464  0.4533  0.1008
20387POPI    C132810   5.363   8.102   6.590 -0.0005 -0.0887 -0.0340
20387POPI    C232811   5.360   8.195   6.201  0.2157 -0.0259 -0.0216
20387POPI    C332812   5.504   8.456   6.468 -0.0836 -0.0017  0.1201
20387POPI   PO432813   5.101   7.974   6.730 -0.1490  0.0661  0.1730
20387POPI   GL132814   4.742   7.805   6.961 -0.2866  0.1927 -0.1388
20387POPI   GL232815   4.635   8.066   6.939 -0.2382  0.1352 -0.3447
20387POPI   C1A32816   4.483   7.730   7.281 -0.3565  0.2597 -0.0977
20387POPI   D2A32817   4.536   7.797   7.659 -0.4002  0.1473  0.2613
20387POPI   C3A32818   4.640   7.624   8.070  0.0085  0.3110 -0.3400
20387POPI   C4A32819   4.979   7.648   8.360 -0.3161  0.0951  0.0575
20387POPI   C1B32820   4.489   8.235   7.367  0.0451 -0.0487 -0.0655
20387POPI   C2B32821   4.233   8.218   7.766 -0.1208  0.0499  0.1421
20387POPI   C3B32822   4.167   7.872   8.022  0.0285  0.2035 -0.0028
20387POPI   C4B32823   4.148   7.528   8.382 -0.2186 -0.0086 -0.1399
20388POPI    C132824  10.035   9.557   6.649 -0.2606 -0.0613 -0.1910
20388POPI    C232825   9.998   9.225   6.430  0.1906 -0.0721 -0.2589
20388POPI    C332826  10.357   9.395   6.477  0.0366  0.1540  0.1485
20388POPI   PO432827   9.943   9.507   6.916 -0.3799 -0.1928  0.1796
20388POPI   GL132828   9.654   9.274   7.197 -0.3965  0.0161  0.2029
20388POPI   GL232829   9.782   8.977   7.045 -0.0690  0.0723  0.2361
20388POPI   C1A32830   9.721   9.170   7.605  0.0955  0.0273 -0.0950
20388POPI   D2A32831   9.853   9.363   7.987 -0.3116  0.0937 -0.1789
20388POPI   C3A32832   9.727   9.812   8.126  0.0646 -0.2195  0.1024
20388POPI   C4A32833   9.894  10.165   8.369  0.1021  0.1727  0.0618
20388POPI   C1B32834  10.175   9.095   7.380  0.4732  0.0500 -0.4467
20388POPI   C2B32835  10.309   8.966   7.833  0.0791 -0.3332 -0.1828
20388POPI   C3B32836  10.339   9.199   8.162  0.3235  0.1534 -0.0162
20388POPI   C4B32837  10.133   9.227   8.527  0.1681 -0.1488  0.1578
20389POPI    C132838  13.597   3.978   6.339 -0.0559  0.0565  0.0394
20389POPI    C232839  13.516   4.329   6.165 -0.1561 -0.0012 -0.0308
20389POPI    C332840  13.217   4.085   6.272 -0.0831 -0.1208 -0.0969
20389POPI   PO432841  13.645   4.030   6.597 -0.2059  0.0391 -0.0744
20389POPI   GL132842  13.585   4.290   6.954  0.1784 -0.4417  0.0636
20389POPI   GL232843  13.820   4.541   7.074  0.2139 -0.0950  0.0543
20389POPI   C1A32844  13.636   4.021   7.278 -0.1416 -0.2091 -0.5558
20389POPI   D2A32845  13.641   4.136   7.728  0.0307  0.1761 -0.2437
20389POPI   C3A32846  13.378   4.273   8.133 -0.3772  0.1057  0.0578
20389POPI   C4A32847  13.058   4.603   8.189  0.0870  0.2541 -0.0335
20389POPI   C1B32848  13.997   4.509   7.387 -0.0298  0.0823  0.2118
20389POPI   C2B32849  14.192   4.478   7.806  0.0178 -0.1826 -0.0376
20389POPI   C3B32850  14.296   4.204   8.175 -0.0366  0.1927  0.1563
20389POPI   C4B32851  14.336   4.210   8.699  0.0620 -0.1711 -0.2368
20390POPI    C132852   0.280   2.515   6.202  0.0708  0.0152  0.1515
20390POPI    C232853   0.207   2.848   5.992 -0.2074 -0.2762 -0.2271
20390POPI    C332854   0.533   2.629   5.914  0.0167 -0.0583  0.0745
20390POPI   PO432855   0.167   2.547   6.432 -0.2809  0.0363 -0.1158
20390POPI   GL132856   0.377   2.588   6.848 -0.0029 -0.0295  0.1405
20390POPI   GL232857   0.659   2.576   6.956  0.0739  0.0494  0.0840
20390POPI   C1A32858   0.222   2.675   7.253 -0.2363  0.0898  0.2291
20390POPI   D2A32859   0.345   2.793   7.642  0.0250 -0.0521  0.1749
20390POPI   C3A32860   0.156   2.652   8.077 -0.0854 -0.1896  0.2343
20390POPI   C4A32861  -0.041   2.597   8.449  0.4036  0.0243 -0.1441
20390POPI   C1B32862   0.653   2.926   7.258 -0.1275  0.0145  0.0267
20390POPI   C2B32863   0.818   2.992   7.637 -0.0643 -0.2718  0.1731
20390POPI   C3B32864   0.834   3.091   8.006  0.0961 -0.2413 -0.4290
20390POPI   C4B32865   0.959   3.430   8.280 -0.1551 -0.1743 -0.2274
20391POPI    C132866   0.135  16.367   6.566  0.1668  0.2352 -0.2370
20391POPI    C232867  -0.225  16.482   6.435  0.0918 -0.0278 -0.2673
20391POPI    C332868   0.099  16.541   6.208  0.0637  0.1765 -0.2556
20391POPI   PO432869  -0.008  16.331   6.851 -0.1103  0.2750 -0.0012
20391POPI   GL132870  -0.067  16.023   7.134  0.2343 -0.1952 -0.2175
20391POPI   GL232871  -0.355  16.119   7.196 -0.3123  0.1217 -0.3076
20391POPI   C1A32872   0.291  15.939   7.320 -0.1732  0.0513  0.0808
20391POPI   D2A32873   0.682  16.150   7.490  0.4258 -0.1240  0.2561
20391POPI   C3A32874   0.876  16.207   7.952 -0.3168 -0.1516 -0.1762
20391POPI   C4A32875   0.750  16.293   8.396 -0.2744 -0.1214  0.1785
20391POPI   C1B32876  -0.207  16.088   7.659  0.0718  0.1602 -0.2192
20391POPI   C2B32877  -0.153  16.069   8.031 -0.1171  0.3315  0.2242
20391POPI   C3B32878  -0.094  16.083   8.512 -0.1209  0.1192 -0.0220
20391POPI   C4B32879  -0.352  16.141   8.891  0.0853  0.0754  0.0952
20392POPI    C132880   4.948   3.874   6.284  0.0775  0.0787 -0.1713
20392POPI    C232881   4.917   3.647   6.611 -0.1343  0.2311 -0.0834
20392POPI    C332882   5.193   3.562   6.335 -0.1988 -0.1215 -0.0445
20392POPI   PO432883   4.772   4.141   6.404  0.0001  0.0855 -0.4914
20392POPI   GL132884   4.775   4.289   6.767  0.0416  0.2007 -0.0805
20392POPI   GL232885   4.893   4.593   6.808  0.2068 -0.2252 -0.0466
20392POPI   C1A32886   4.627   4.301   7.211  0.2846  0.0347  0.1004
20392POPI   D2A32887   4.537   4.091   7.661 -0.1905  0.1197 -0.1749
20392POPI   C3A32888   4.525   4.060   8.076  0.0698 -0.1843 -0.3577
20392POPI   C4A32889   4.545   3.991   8.503 -0.0086 -0.1043  0.1275
20392POPI   C1B32890   4.890   4.735   7.271 -0.0332 -0.0388 -0.2605
20392POPI   C2B32891   4.686   4.619   7.619 -0.1221  0.0809 -0.0457
20392POPI   C3B32892   4.485   4.514   7.955  0.2569  0.0183  0.1286
20392POPI   C4B32893   4.389   4.487   8.348  0.0380 -0.3105  0.1285
20393POPI    C132894   8.128  17.318   6.407 -0.0742 -0.0761  0.0278
20393POPI    C232895   8.179  17.651   6.191 -0.3494 -0.0274  0.0336
20393POPI    C332896   8.372  17.315   6.089 -0.1561  0.1032 -0.0383
20393POPI   PO432897   8.180  17.478   6.709 -0.0204  0.0392  0.0265
20393POPI   GL132898   8.331  17.809   7.064  0.0751  0.4403 -0.2970
20393POPI   GL232899   8.101  18.146   7.054  0.2083 -0.1020  0.0378
20393POPI   C1A32900   8.463  17.769   7.448 -0.2127 -0.2259  0.1933
20393POPI   D2A32901   8.378  17.656   7.866 -0.2121  0.1689  0.1815
20393POPI   C3A32902   8.759  17.467   7.994  0.3670  0.1345  0.1128
20393POPI   C4A32903   8.692  17.429   8.477  0.0717  0.0739 -0.1777
20393POPI   C1B32904   7.977  18.006   7.491  0.0250 -0.1604 -0.0190
20393POPI   C2B32905   8.161  18.188   7.822  0.2944  0.1935  0.0702
20393POPI   C3B32906   8.457  18.089   8.208  0.0423  0.1630  0.2218
20393POPI   C4B32907   8.592  17.841   8.729  0.3005  0.1439 -0.0302
20394POPI    C132908   6.632  17.585   6.226 -0.1449  0.0980 -0.1383
20394POPI    C232909   6.779  17.659   5.861  0.2391  0.3044  0.0528
20394POPI    C332910   6.806  17.292   6.017  0.2143  0.2526 -0.0647
20394POPI   PO432911   6.719  17.759   6.394  0.0871  0.0073 -0.0642
20394POPI   GL132912   6.802  17.897   6.732  0.2301  0.1403 -0.0116
20394POPI   GL232913   7.022  17.929   6.929 -0.0706 -0.0512 -0.1717
20394POPI   C1A32914   6.592  17.672   7.132 -0.0427 -0.0863  0.1269
20394POPI   D2A32915   6.650  17.642   7.532 -0.1279  0.0353  0.0644
20394POPI   C3A32916   6.950  17.337   7.661 -0.1638  0.0468 -0.1786
20394POPI   C4A32917   6.935  17.370   8.076 -0.2361  0.1744 -0.1701
20394POPI   C1B32918   7.132  17.660   7.235 -0.4392  0.4043 -0.0163
20394POPI   C2B32919   7.326  17.628   7.582 -0.1749  0.0775 -0.0266
20394POPI   C3B32920   7.414  17.396   7.965 -0.1288 -0.2726 -0.2212
20394POPI   C4B32921   7.587  17.576   8.249  0.3901  0.0529 -0.0094
20395POPI    C132922  11.391   8.324   6.325 -0.0844 -0.1646 -0.0170
20395POPI    C232923  11.783   8.355   6.248 -0.1137  0.5820  0.0600
20395POPI    C332924  11.534   8.217   5.967  0.2239 -0.1730  0.1048
20395POPI   PO432925  11.394   8.118   6.590  0.0696  0.0190 -0.0601
20395POPI   GL132926  11.542   8.061   7.023 -0.2085  0.1275  0.0787
20395POPI   GL232927  11.341   8.296   7.075  0.0802 -0.0921 -0.0097
20395POPI   C1A32928  11.585   7.894   7.405  0.2466  0.2704 -0.3044
20395POPI   D2A32929  11.391   7.786   7.785 -0.3129 -0.0182 -0.2261
20395POPI   C3A32930  11.287   7.876   8.204  0.0979  0.1378  0.0185
20395POPI   C4A32931  11.092   8.091   8.456 -0.1466  0.1213  0.1625
20395POPI   C1B32932  10.918   8.392   7.112  0.0621  0.0665  0.1738
20395POPI   C2B32933  10.638   8.173   7.265 -0.0945  0.1408 -0.4477
20395POPI   C3B32934  10.420   7.746   7.353 -0.0911 -0.0691  0.1716
20395POPI   C4B32935  10.372   7.272   7.309  0.0558 -0.4997  0.2202
20396POPI    C132936   8.576   5.335   5.925 -0.0165 -0.1199  0.0606
20396POPI    C232937   8.218   5.302   5.750  0.0953 -0.0909 -0.1772
20396POPI    C332938   8.410   4.974   5.874 -0.0958 -0.0930  0.1255
20396POPI   PO432939   8.603   5.525   6.149  0.1422  0.2668 -0.1410
20396POPI   GL132940   8.859   5.247   6.510 -0.1106  0.0879  0.0793
20396POPI   GL232941   8.844   4.979   6.611 -0.0894  0.1885  0.2188
20396POPI   C1A32942   8.842   5.365   6.973  0.5091 -0.0389  0.1451
20396POPI   D2A32943   8.688   5.628   7.264 -0.0662  0.0039  0.0793
20396POPI   C3A32944   8.963   5.711   7.586  0.0214 -0.0526  0.1656
20396POPI   C4A32945   8.916   5.767   8.066 -0.2977  0.0995  0.1758
20396POPI   C1B32946   8.659   4.933   6.903  0.0864 -0.3073 -0.2848
20396POPI   C2B32947   8.481   4.738   7.249  0.0020  0.0532 -0.1141
20396POPI   C3B32948   8.170   4.454   7.324  0.2072  0.2199  0.0321
20396POPI   C4B32949   7.798   4.295   7.116 -0.2295 -0.2036 -0.1510
20397POPI    C132950   5.366   2.690   6.463 -0.0293  0.2402 -0.0409
20397POPI    C232951   5.312   3.086   6.483  0.1238  0.2716 -0.2194
20397POPI    C332952   5.456   2.920   6.148 -0.0721  0.0481 -0.1962
20397POPI   PO432953   5.682   2.597   6.680  0.0415 -0.0157 -0.0711
20397POPI   GL132954   5.733   2.601   7.077  0.2001  0.1762  0.1072
20397POPI   GL232955   6.052   2.393   7.044  0.0439 -0.1657 -0.1941
20397POPI   C1A32956   5.466   2.672   7.392 -0.0612  0.1689  0.0619
20397POPI   D2A32957   5.135   2.801   7.679  0.1300  0.2451 -0.1831
20397POPI   C3A32958   4.924   2.709   8.044 -0.3068 -0.1004  0.2416
20397POPI   C4A32959   4.640   2.534   8.259  0.1428 -0.1407  0.0099
20397POPI   C1B32960   6.038   2.423   7.495 -0.0010 -0.0598  0.1000
20397POPI   C2B32961   6.068   2.226   7.889 -0.4003  0.0196 -0.1601
20397POPI   C3B32962   5.884   2.269   8.199 -0.0156 -0.1062 -0.1152
20397POPI   C4B32963   5.644   2.472   8.435 -0.2249  0.0298 -0.0426
20398POPI    C132964  10.626  13.371   6.729 -0.0820  0.0974 -0.0506
20398POPI    C232965  10.417  13.393   6.389 -0.0943  0.1439 -0.0400
20398POPI    C332966  10.649  13.699   6.502  0.1113  0.0255 -0.1370
20398POPI   PO432967  10.376  13.212   6.902  0.0044 -0.3460  0.0430
20398POPI   GL132968  10.323  13.003   7.254 -0.0275 -0.2210  0.1227
20398POPI   GL232969  10.263  12.635   7.414 -0.0599 -0.1892  0.3477
20398POPI   C1A32970  10.660  12.991   7.549  0.2230  0.1037 -0.1024
20398POPI   D2A32971  10.941  13.025   7.839  0.2091 -0.3772  0.1743
20398POPI   C3A32972  11.033  12.971   8.225 -0.0549 -0.0250  0.2047
20398POPI   C4A32973  11.204  13.065   8.614  0.3158 -0.0758  0.1513
20398POPI   C1B32974  10.159  12.368   7.765  0.0450 -0.0945 -0.2156
20398POPI   C2B32975  10.153  12.330   8.188  0.1944  0.1137 -0.0713
20398POPI   C3B32976  10.186  12.389   8.575 -0.0218 -0.1960 -0.1209
20398POPI   C4B32977  10.001  12.349   8.939  0.1921 -0.1678  0.4030
20399POPI    C132978   3.799  10.528   6.314  0.0486 -0.3165  0.1651
20399POPI    C232979   3.400  10.506   6.301  0.0361  0.0311 -0.2591
20399POPI    C332980   3.578  10.778   6.534  0.0235 -0.0465 -0.1584
20399POPI   PO432981   3.877  10.296   6.346 -0.1794 -0.2717  0.2542
20399POPI   GL132982   3.977  10.246   6.709  0.0607  0.1123  0.0165
20399POPI   GL232983   3.927   9.938   6.783  0.2687  0.1935 -0.0480
20399POPI   C1A32984   4.289  10.488   7.011 -0.3803  0.0880  0.0119
20399POPI   D2A32985   4.687  10.517   7.089  0.1690 -0.0807 -0.0029
20399POPI   C3A32986   4.588  10.640   7.469  0.2559 -0.1339 -0.1502
20399POPI   C4A32987   4.659  10.539   7.943  0.3736  0.1085 -0.0586
20399POPI   C1B32988   4.173   9.925   7.178 -0.1023  0.0064 -0.1890
20399POPI   C2B32989   4.172  10.201   7.628  0.0086  0.0720  0.1873
20399POPI   C3B32990   4.149  10.415   7.966 -0.0071 -0.2541  0.1742
20399POPI   C4B32991   4.263  10.611   8.315  0.1385 -0.3300 -0.2189
20400POPI    C132992   1.653   0.556   6.270 -0.0486  0.2261  0.0700
20400POPI    C232993   1.492   0.637   5.913 -0.0479  0.1857  0.0605
20400POPI    C332994   1.797   0.857   6.049  0.1732 -0.0089 -0.1116
20400POPI   PO432995   1.322   0.490   6.387  0.1869 -0.0286 -0.2073
20400POPI   GL132996   1.123   0.300   6.780  0.0091  0.1490  0.0921
20400POPI   GL232997   0.797   0.318   6.904  0.3547 -0.0420  0.0594
20400POPI   C1A32998   1.305   0.280   7.203  0.1841  0.0764 -0.0769
20400POPI   D2A32999   1.416   0.289   7.613  0.1977 -0.1468  0.1229
20400POPI   C3A33000   1.579   0.682   7.784 -0.1291 -0.2858 -0.1470
20400POPI   C4A33001   1.813   0.666   8.223 -0.0031  0.1725  0.1212
20400POPI   C1B33002   0.401   0.242   7.107  0.2084 -0.0936  0.0551
20400POPI   C2B33003   0.407   0.346   7.512  0.2745 -0.1852 -0.0320
20400POPI   C3B33004   0.633   0.420   7.846 -0.0894 -0.2868 -0.1606
20400POPI   C4B33005   0.710   0.470   8.278  0.0821 -0.4180  0.0594
20401POPI    C133006  16.010  14.908   6.674  0.0279  0.0894 -0.0771
20401POPI    C233007  15.840  15.104   6.370 -0.1258 -0.0333 -0.0718
20401POPI    C333008  16.081  14.794   6.297  0.1890  0.2083 -0.0839
20401POPI   PO433009  16.110  15.080   6.854  0.0567 -0.0475 -0.1321
20401POPI   GL133010  16.203  15.131   7.289 -0.1280 -0.3574  0.3766
20401POPI   GL233011  16.050  14.980   7.452  0.1397 -0.4575  0.1033
20401POPI   C1A33012  16.461  14.912   7.733 -0.1798  0.0508  0.0038
20401POPI   D2A33013  16.793  14.799   7.891 -0.0457 -0.1560  0.2058
20401POPI   C3A33014  16.782  14.888   8.334  0.1538  0.0131  0.1595
20401POPI   C4A33015  16.690  15.004   8.751  0.3192  0.1146  0.3141
20401POPI   C1B33016  16.013  14.764   7.781 -0.2302  0.3486 -0.2302
20401POPI   C2B33017  16.271  14.760   8.144  0.0293  0.0852 -0.2448
20401POPI   C3B33018  16.305  14.877   8.458  0.2798 -0.4174  0.0291
20401POPI   C4B33019  16.232  15.053   8.894  0.1335 -0.0988 -0.0091
20402POPS   CNO33020   2.829   7.735   6.315  0.1969  0.0686  0.3942
20402POPS   PO433021   3.202   8.076   6.450  0.1357 -0.1322  0.0244
20402POPS   GL133022   2.965   8.155   6.849  0.2374 -0.3333  0.2601
20402POPS   GL233023   2.838   8.501   6.992 -0.1599 -0.0071 -0.2327
20402POPS   C1A33024   2.732   8.013   7.191 -0.2303  0.0436 -0.2338
20402POPS   D2A33025   2.550   7.786   7.544  0.0519  0.0684 -0.1673
20402POPS   C3A33026   2.610   7.977   7.927  0.4853 -0.3305  0.4083
20402POPS   C4A33027   2.386   7.697   8.191 -0.1209 -0.1024  0.0076
20402POPS   C1B33028   3.167   8.331   7.357 -0.0676 -0.0197  0.3005
20402POPS   C2B33029   3.369   8.260   7.812 -0.1195 -0.2216  0.1442
20402POPS   C3B33030   3.314   8.073   8.155  0.2568  0.4569  0.1932
20402POPS   C4B33031   3.211   8.104   8.572 -0.1528 -0.0526 -0.0163
20403POPS   CNO33032   8.578  11.208   6.719 -0.1560 -0.2879  0.0352
20403POPS   PO433033   8.205  11.508   6.774  0.1256  0.1043 -0.1476
20403POPS   GL133034   8.301  11.302   7.223 -0.1011 -0.1204  0.0385
20403POPS   GL233035   8.086  11.200   7.223 -0.0455  0.1830 -0.0125
20403POPS   C1A33036   8.346  11.286   7.655 -0.0778  0.1308  0.1287
20403POPS   D2A33037   8.438  11.568   8.007  0.1972 -0.1372  0.0023
20403POPS   C3A33038   8.334  11.609   8.478  0.2772 -0.0381 -0.1530
20403POPS   C4A33039   8.325  11.336   8.908 -0.0260  0.2456 -0.3061
20403POPS   C1B33040   7.774  11.203   7.568  0.3647 -0.1873 -0.1452
20403POPS   C2B33041   7.593  11.156   7.952 -0.2975 -0.1128 -0.0179
20403POPS   C3B33042   7.452  10.899   8.388  0.0759  0.2407  0.0153
20403POPS   C4B33043   7.352  10.847   8.827  0.1679  0.2139 -0.1948
20404POPS   CNO33044   9.545  13.156   6.852  0.3382  0.3694  0.3102
20404POPS   PO433045   9.355  12.944   7.187  0.1168  0.0126 -0.0456
20404POPS   GL133046   9.336  12.978   7.600 -0.1687 -0.1642  0.2117
20404POPS   GL233047   9.095  12.905   7.824  0.1484 -0.0049 -0.0356
20404POPS   C1A33048   9.526  13.057   8.063  0.0592  0.2379 -0.2299
20404POPS   D2A33049   9.691  13.037   8.460  0.1662 -0.3226  0.1054
20404POPS   C3A33050   9.781  13.453   8.612  0.1805  0.1426 -0.0640
20404POPS   C4A33051   9.838  13.847   8.797 -0.2704  0.1999 -0.0104
20404POPS   C1B33052   8.888  12.960   8.259  0.1213 -0.0692  0.1466
20404POPS   C2B33053   8.790  13.019   8.670 -0.0622  0.3435 -0.1865
20404POPS   C3B33054   8.938  13.322   8.984 -0.2265  0.2201 -0.0530
20404POPS   C4B33055   9.008  13.145   9.352 -0.0325  0.3019 -0.3048
20405POPS   CNO33056  15.232   5.286   6.206  0.0891  0.0187  0.2563
20405POPS   PO433057  15.368   5.677   6.418  0.1630  0.1595  0.0503
20405POPS   GL133058  15.289   5.872   6.827 -0.1466  0.2074  0.2217
20405POPS   GL233059  14.965   5.899   6.844  0.0043  0.0818  0.1580
20405POPS   C1A33060  15.306   6.030   7.279  0.0283  0.3946  0.1471
20405POPS   D2A33061  15.299   6.060   7.744  0.0175 -0.0119 -0.1982
20405POPS   C3A33062  15.598   5.949   8.050  0.0347 -0.1168 -0.1117
20405POPS   C4A33063  15.599   6.116   8.391  0.0812 -0.0252  0.3515
20405POPS   C1B33064  14.851   5.819   7.183 -0.3671 -0.3788  0.0246
20405POPS   C2B33065  14.860   5.768   7.602  0.1829 -0.4301  0.0321
20405POPS   C3B33066  14.969   5.711   7.932 -0.1299  0.1961 -0.0310
20405POPS   C4B33067  15.235   5.482   8.099 -0.0758 -0.0975  0.2571
20406POPS   CNO33068  15.318  16.691   6.856  0.0559  0.4058  0.1235
20406POPS   PO433069  15.307  16.261   6.945 -0.2045  0.1521 -0.1415
20406POPS   GL133070  15.517  16.035   7.283  0.0288  0.0707 -0.0220
20406POPS   GL233071  15.403  15.804   7.347 -0.2364  0.0577 -0.2092
20406POPS   C1A33072  15.230  16.093   7.682 -0.3455 -0.0808 -0.0062
20406POPS   D2A33073  15.260  16.008   8.147  0.4211  0.2036  0.4230
20406POPS   C3A33074  14.968  15.784   8.288 -0.2621  0.2660 -0.3371
20406POPS   C4A33075  14.627  15.766   8.575 -0.0020 -0.0035  0.2256
20406POPS   C1B33076  15.588  15.714   7.825 -0.1273  0.0245 -0.2021
20406POPS   C2B33077  15.855  15.653   8.167 -0.0413  0.2173 -0.1783
20406POPS   C3B33078  15.993  15.462   8.635 -0.1907  0.1277 -0.1563
20406POPS   C4B33079  15.844  15.660   9.030  0.0259 -0.0557  0.2067
20407POPS   CNO33080   4.299   3.985   6.133  0.2031  0.1651  0.3693
20407POPS   PO433081   3.946   3.953   6.377  0.2126  0.1242 -0.4501
20407POPS   GL133082   3.777   3.977   6.744  0.1970  0.0230  0.2336
20407POPS   GL233083   3.629   3.720   6.915  0.0502  0.2416 -0.0250
20407POPS   C1A33084   4.073   3.934   7.116 -0.0259  0.0372  0.1867
20407POPS   D2A33085   4.049   3.920   7.539  0.0961  0.3124 -0.0694
20407POPS   C3A33086   3.987   4.256   7.804 -0.2603  0.1312 -0.0713
20407POPS   C4A33087   4.009   4.630   8.096  0.2033 -0.1973 -0.1473
20407POPS   C1B33088   3.577   3.949   7.281 -0.1016  0.1023 -0.3673
20407POPS   C2B33089   3.556   4.097   7.647 -0.1419  0.4718 -0.0609
20407POPS   C3B33090   3.632   4.216   8.128 -0.2096 -0.2361 -0.0689
20407POPS   C4B33091   3.526   3.941   8.440  0.2519  0.0426  0.0356
20408POPS   CNO33092  10.056  15.770   6.519  0.1364  0.0083 -0.0342
20408POPS   PO433093  10.097  15.956   6.928 -0.3404 -0.2405  0.0304
20408POPS   GL133094  10.425  16.074   7.181 -0.0175  0.0090 -0.2200
20408POPS   GL233095  10.613  16.226   7.027 -0.2070  0.2398 -0.0616
20408POPS   C1A33096  10.433  16.396   7.516  0.1057 -0.1866 -0.2776
20408POPS   D2A33097  10.627  16.338   7.921 -0.1232 -0.2281  0.1996
20408POPS   C3A33098  10.834  15.955   8.058 -0.2607 -0.0509  0.1035
20408POPS   C4A33099  11.065  15.667   7.817 -0.1633 -0.0431  0.0374
20408POPS   C1B33100  10.871  16.315   7.401 -0.1704 -0.1122 -0.2832
20408POPS   C2B33101  11.131  16.174   7.704 -0.1368 -0.0917 -0.1478
20408POPS   C3B33102  11.119  16.437   7.987  0.2802  0.0162 -0.2628
20408POPS   C4B33103  10.834  16.489   8.340 -0.1159  0.0524  0.0192
20409POPS   CNO33104   7.480   7.745   6.284 -0.0422  0.0378  0.1419
20409POPS   PO433105   7.682   8.163   6.516 -0.2214 -0.0692  0.2268
20409POPS   GL133106   7.603   8.220   6.931 -0.3325 -0.3199 -0.0524
20409POPS   GL233107   7.939   8.149   7.023  0.0493 -0.0047  0.1865
20409POPS   C1A33108   7.528   8.066   7.401 -0.0995  0.1432 -0.0123
20409POPS   D2A33109   7.506   7.948   7.830  0.0762  0.2152 -0.4120
20409POPS   C3A33110   7.814   7.955   8.111  0.4041 -0.1666 -0.0734
20409POPS   C4A33111   8.175   8.241   8.179  0.0361 -0.0761  0.0735
20409POPS   C1B33112   8.289   8.180   7.208 -0.0957 -0.0675 -0.2931
20409POPS   C2B33113   8.508   8.014   7.479  0.1364  0.2280 -0.0684
20409POPS   C3B33114   8.541   8.184   7.805 -0.1888  0.0456 -0.1337
20409POPS   C4B33115   8.754   8.345   8.210 -0.0491 -0.3516  0.1095
20410POPS   CNO33116   3.427  12.946   6.348  0.2195  0.2046 -0.0267
20410POPS   PO433117   3.526  12.997   6.837 -0.0121 -0.0946  0.1163
20410POPS   GL133118   3.845  12.728   7.113  0.1505 -0.3366  0.0077
20410POPS   GL233119   4.249  12.554   7.139  0.2301  0.0463 -0.1632
20410POPS   C1A33120   3.860  12.486   7.571  0.1594 -0.1296 -0.1027
20410POPS   D2A33121   3.709  12.326   7.962 -0.0742  0.0677  0.1115
20410POPS   C3A33122   3.300  12.082   8.132 -0.0801  0.0865  0.0487
20410POPS   C4A33123   2.869  11.734   8.303 -0.2015 -0.2648 -0.1199
20410POPS   C1B33124   4.377  12.600   7.574  0.1549 -0.0548  0.0887
20410POPS   C2B33125   4.578  12.597   7.915  0.0685  0.1835 -0.0261
20410POPS   C3B33126   4.829  12.426   8.283  0.0790  0.1979  0.2716
20410POPS   C4B33127   4.798  12.431   8.714  0.2215  0.0781  0.1963
20411POPS   CNO33128  13.376   6.946   6.140 -0.2768  0.2198  0.1262
20411POPS   PO433129  13.736   6.894   6.378 -0.1415 -0.1392  0.0692
20411POPS   GL133130  13.533   6.996   6.819  0.3034  0.0978  0.0644
20411POPS   GL233131  13.168   7.027   6.944 -0.3262 -0.1506 -0.0966
20411POPS   C1A33132  13.487   6.780   7.324  0.0687  0.1903  0.0820
20411POPS   D2A33133  13.505   6.397   7.435 -0.0440 -0.1132  0.3059
20411POPS   C3A33134  13.114   6.170   7.566 -0.1764 -0.1813 -0.1960
20411POPS   C4A33135  12.889   5.929   7.891  0.0284  0.2610  0.3193
20411POPS   C1B33136  13.159   7.187   7.310  0.1618  0.2574  0.0604
20411POPS   C2B33137  13.429   7.304   7.634  0.3653 -0.1899  0.0395
20411POPS   C3B33138  13.453   7.376   8.086 -0.2152  0.1555  0.0262
20411POPS   C4B33139  13.511   6.998   8.340  0.1081 -0.0174 -0.1680
20412POPS   CNO33140  15.693  12.444   6.611  0.1610  0.2507  0.3087
20412POPS   PO433141  15.804  12.780   6.899  0.0807  0.1330  0.0237
20412POPS   GL133142  15.726  12.721   7.390 -0.0882  0.2960 -0.0440
20412POPS   GL233143  15.679  12.400   7.628  0.0006  0.0014  0.1562
20412POPS   C1A33144  15.749  12.993   7.774 -0.2019 -0.4949 -0.1126
20412POPS   D2A33145  15.839  12.905   8.236 -0.2508  0.3574  0.0194
20412POPS   C3A33146  15.611  12.923   8.595  0.2326  0.5203 -0.1866
20412POPS   C4A33147  15.292  12.803   8.849 -0.2285  0.1201  0.2195
20412POPS   C1B33148  15.526  12.505   8.068 -0.2798 -0.0176  0.1192
20412POPS   C2B33149  15.370  12.513   8.444  0.1061  0.0930 -0.1525
20412POPS   C3B33150  15.119  12.316   8.649  0.0746 -0.1503 -0.1469
20412POPS   C4B33151  15.070  12.049   9.010 -0.1075  0.2105 -0.1571
20413POPS   CNO33152  12.000   2.015   6.303 -0.2413 -0.1133  0.1435
20413POPS   PO433153  12.135   1.633   6.448  0.4713  0.1653  0.1566
20413POPS   GL133154  12.058   1.507   6.912 -0.2024 -0.0082 -0.1502
20413POPS   GL233155  11.770   1.591   6.882 -0.1000  0.1133  0.0715
20413POPS   C1A33156  11.928   1.281   7.230 -0.0890  0.1786 -0.0068
20413POPS   D2A33157  11.912   0.987   7.567  0.3145 -0.1508  0.1495
20413POPS   C3A33158  12.001   1.104   7.900 -0.0208  0.3450 -0.0044
20413POPS   C4A33159  11.899   1.256   8.355  0.0672  0.2578  0.0759
20413POPS   C1B33160  11.737   1.785   7.112  0.0727 -0.1474  0.2399
20413POPS   C2B33161  11.866   2.054   7.403  0.0863  0.0619  0.1833
20413POPS   C3B33162  11.756   2.049   7.922 -0.0282 -0.1825 -0.2295
20413POPS   C4B33163  11.565   2.257   8.334  0.2824  0.0317 -0.4056
20414POPS   CNO33164  16.715  13.765   7.075 -0.3418  0.0832  0.0038
20414POPS   PO433165  16.841  13.369   7.057  0.2206  0.0489  0.1184
20414POPS   GL133166  17.035  13.578   7.462 -0.1776  0.1881 -0.0194
20414POPS   GL233167  17.352  13.526   7.480 -0.0506 -0.0727  0.0209
20414POPS   C1A33168  16.901  13.895   7.726  0.1579  0.0328  0.0948
20414POPS   D2A33169  16.933  14.031   8.047 -0.0004 -0.1424  0.1830
20414POPS   C3A33170  16.748  14.037   8.447  0.4259  0.2269  0.3505
20414POPS   C4A33171  16.381  14.056   8.831  0.1317 -0.1763 -0.2027
20414POPS   C1B33172  17.271  13.613   7.951 -0.1422 -0.1136 -0.1810
20414POPS   C2B33173  17.286  13.712   8.362 -0.2161  0.0592  0.0559
20414POPS   C3B33174  17.153  13.834   8.711 -0.0701 -0.1482  0.0701
20414POPS   C4B33175  16.841  14.275   8.893  0.1047  0.1260  0.1879
20415POPS   CNO33176   2.840  10.485   6.216  0.0367  0.0616  0.2216
20415POPS   PO433177   3.112  10.038   6.267  0.1027  0.0926 -0.0993
20415POPS   GL133178   3.045   9.901   6.730  0.1429 -0.1936  0.0218
20415POPS   GL233179   3.340   9.879   6.914 -0.0471  0.3007  0.0084
20415POPS   C1A33180   2.911  10.195   7.093  0.2318  0.0369 -0.1524
20415POPS   D2A33181   2.939  10.488   7.400  0.2547  0.1257 -0.3886
20415POPS   C3A33182   2.647  10.419   7.767  0.0887  0.1165 -0.0866
20415POPS   C4A33183   2.138  10.416   7.835 -0.1071 -0.0099 -0.0439
20415POPS   C1B33184   3.613   9.821   7.148 -0.2975  0.2706  0.2877
20415POPS   C2B33185   3.782   9.925   7.559  0.0837 -0.0125  0.0064
20415POPS   C3B33186   3.709  10.127   8.003 -0.0501 -0.2228  0.0609
20415POPS   C4B33187   3.905  10.281   8.372  0.0142  0.0106 -0.0326
20416POPS   CNO33188   4.589  14.142   6.331 -0.1696 -0.1282  0.1619
20416POPS   PO433189   4.924  13.911   6.545 -0.4962 -0.0281 -0.0670
20416POPS   GL133190   4.853  13.584   6.820 -0.1575 -0.2222  0.0839
20416POPS   GL233191   4.659  13.632   6.840 -0.0758  0.1080 -0.0312
20416POPS   C1A33192   4.836  13.578   7.318  0.1244 -0.1004  0.2210
20416POPS   D2A33193   4.623  13.510   7.707 -0.1068 -0.0753  0.1676
20416POPS   C3A33194   4.894  13.498   8.041 -0.3291  0.1138  0.0739
20416POPS   C4A33195   5.062  13.505   8.432 -0.1105 -0.0418 -0.2347
20416POPS   C1B33196   4.350  13.556   7.193 -0.0502  0.0991 -0.0228
20416POPS   C2B33197   4.110  13.212   7.296  0.1735  0.2109  0.0423
20416POPS   C3B33198   3.992  12.983   7.699 -0.3203 -0.3150  0.4148
20416POPS   C4B33199   4.058  12.685   8.028  0.1316 -0.0890  0.0129
20417POPS   CNO33200   9.215   1.255   6.165 -0.1040 -0.0826  0.2546
20417POPS   PO433201   9.537   1.100   6.517 -0.1260  0.1027  0.5861
20417POPS   GL133202   9.348   1.302   6.860  0.0124 -0.2460 -0.1306
20417POPS   GL233203   9.565   1.630   6.933  0.2877 -0.1586  0.0282
20417POPS   C1A33204   9.061   1.437   7.116 -0.0205  0.0474 -0.1462
20417POPS   D2A33205   8.784   1.765   7.351  0.1054  0.2088 -0.2953
20417POPS   C3A33206   8.744   1.781   7.792 -0.0958  0.1563 -0.0062
20417POPS   C4A33207   8.480   1.882   8.159  0.2984 -0.2039 -0.2221
20417POPS   C1B33208   9.656   1.467   7.343 -0.2155 -0.0959 -0.0377
20417POPS   C2B33209   9.785   1.640   7.691  0.5174 -0.0377 -0.2336
20417POPS   C3B33210   9.906   1.945   8.006  0.2611  0.3373  0.0567
20417POPS   C4B33211  10.170   2.142   8.441 -0.3643  0.1094  0.1769
20418POPS   CNO33212   2.891  13.000   6.279 -0.0383  0.0396 -0.0327
20418POPS   PO433213   2.751  12.933   6.671  0.0444 -0.1600  0.1334
20418POPS   GL133214   2.796  13.133   7.103  0.1207  0.1823 -0.0874
20418POPS   GL233215   3.125  13.145   7.125  0.1743  0.1638 -0.0531
20418POPS   C1A33216   2.628  13.344   7.387 -0.0455  0.0096  0.0399
20418POPS   D2A33217   2.741  13.834   7.556  0.1858  0.0708  0.4889
20418POPS   C3A33218   2.602  13.971   7.850 -0.1643  0.3356  0.1367
20418POPS   C4A33219   2.477  14.110   8.265  0.0137  0.1203  0.4307
20418POPS   C1B33220   3.058  13.109   7.569  0.0339 -0.3499  0.0638
20418POPS   C2B33221   2.772  13.334   7.892 -0.0016 -0.1429  0.2212
20418POPS   C3B33222   2.450  13.134   8.105 -0.1291 -0.1197  0.0208
20418POPS   C4B33223   2.307  13.045   8.557 -0.0701  0.0820 -0.0725
20419POPS   CNO33224   0.315   9.140   5.899  0.0902  0.0004 -0.1348
20419POPS   PO433225   0.194   9.264   6.393  0.2004  0.1986  0.0732
20419POPS   GL133226   0.070   9.272   6.778  0.2667  0.1267  0.0206
20419POPS   GL233227  -0.159   9.119   6.782 -0.2610 -0.1512  0.1771
20419POPS   C1A33228   0.284   9.373   7.109 -0.0055 -0.1223  0.0075
20419POPS   D2A33229   0.379   9.723   7.295  0.0876  0.1132 -0.1878
20419POPS   C3A33230   0.653   9.687   7.685  0.0114  0.2185  0.0154
20419POPS   C4A33231   0.978   9.591   7.915 -0.2025 -0.0126 -0.0538
20419POPS   C1B33232   0.036   8.946   7.183  0.0778  0.2767  0.2460
20419POPS   C2B33233   0.263   8.788   7.598 -0.0349  0.1861 -0.0978
20419POPS   C3B33234   0.434   8.788   8.006 -0.4512  0.1135  0.0590
20419POPS   C4B33235   0.407   8.711   8.351  0.0755 -0.2842 -0.0829
20420POPS   CNO33236   7.075  16.511   6.085  0.0001 -0.0856 -0.0968
20420POPS   PO433237   7.026  16.869   6.256 -0.3298  0.1453  0.1209
20420POPS   GL133238   6.953  16.889   6.815  0.4784  0.1512  0.1401
20420POPS   GL233239   6.677  16.704   6.995  0.0439  0.0848 -0.2979
20420POPS   C1A33240   6.851  17.167   7.153  0.2438 -0.0692 -0.1867
20420POPS   D2A33241   6.538  17.129   7.296 -0.2047  0.0995  0.4203
20420POPS   C3A33242   6.199  17.335   7.339  0.0403  0.1731 -0.3206
20420POPS   C4A33243   5.925  17.264   7.625 -0.1850  0.0130  0.1668
20420POPS   C1B33244   6.610  16.513   7.267  0.0396 -0.2010  0.1122
20420POPS   C2B33245   6.548  16.513   7.711 -0.2101  0.0208  0.3892
20420POPS   C3B33246   6.537  16.721   8.042  0.1279 -0.0090 -0.1695
20420POPS   C4B33247   6.193  16.965   8.245  0.2811  0.1527 -0.1004
20421POPS   CNO33248   7.828   1.532   6.203  0.0690  0.0127  0.0943
20421POPS   PO433249   8.095   1.244   6.562  0.1443  0.0034  0.1511
20421POPS   GL133250   8.107   1.023   6.955  0.0269  0.0968  0.0738
20421POPS   GL233251   8.197   1.294   7.151 -0.1975 -0.0710 -0.0871
20421POPS   C1A33252   8.269   0.962   7.475  0.1420 -0.1466  0.1028
20421POPS   D2A33253   8.272   1.010   7.920  0.2175 -0.1958 -0.0407
20421POPS   C3A33254   8.530   1.367   8.176  0.1568 -0.0873  0.0356
20421POPS   C4A33255   8.600   1.489   8.554  0.2761  0.0510  0.4572
20421POPS   C1B33256   8.352   1.520   7.501 -0.0709  0.1716 -0.0194
20421POPS   C2B33257   8.214   1.712   7.815 -0.3091  0.1375 -0.0824
20421POPS   C3B33258   8.009   1.852   8.157  0.0587 -0.0399  0.1599
20421POPS   C4B33259   7.776   2.126   8.397  0.0844  0.2784  0.0994
20422POPS   CNO33260  13.134  11.294   6.379  0.1569  0.2021  0.1246
20422POPS   PO433261  13.239  10.943   6.675  0.0791 -0.1515  0.1849
20422POPS   GL133262  13.214  10.882   7.088  0.0463 -0.1823  0.0465
20422POPS   GL233263  13.236  10.692   7.324  0.0609 -0.0102 -0.1380
20422POPS   C1A33264  13.345  11.157   7.571  0.1601 -0.1161  0.0642
20422POPS   D2A33265  13.288  11.020   7.959  0.1905  0.1923 -0.0350
20422POPS   C3A33266  13.166  10.637   8.097  0.0400 -0.1278  0.1310
20422POPS   C4A33267  13.157  10.412   8.468 -0.0365 -0.0612 -0.1098
20422POPS   C1B33268  12.893  10.666   7.683  0.1196 -0.0438 -0.2338
20422POPS   C2B33269  12.719  10.434   8.018 -0.2422  0.3246 -0.1715
20422POPS   C3B33270  12.569  10.172   8.215 -0.0096 -0.0075  0.0158
20422POPS   C4B33271  12.281   9.939   8.474  0.2008  0.1776  0.0335
20423POPS   CNO33272  14.441  17.472   6.091 -0.3365  0.2471  0.3655
20423POPS   PO433273  14.509  17.638   6.522  0.0842 -0.1864  0.1662
20423POPS   GL133274  14.638  17.616   6.921 -0.1198 -0.2316  0.1109
20423POPS   GL233275  14.984  17.739   6.895 -0.2315 -0.1926  0.2028
20423POPS   C1A33276  14.717  17.581   7.488 -0.0825  0.1815  0.0429
20423POPS   D2A33277  14.721  17.617   7.892 -0.2280 -0.0232 -0.0987
20423POPS   C3A33278  14.683  17.992   8.100  0.0123 -0.2423  0.1409
20423POPS   C4A33279  14.724  18.305   8.477 -0.1662 -0.1084 -0.0886
20423POPS   C1B33280  15.183  17.691   7.296  0.1163 -0.1688  0.1642
20423POPS   C2B33281  15.020  17.951   7.615  0.0225  0.2819 -0.0854
20423POPS   C3B33282  15.190  18.086   8.122 -0.0532 -0.0053  0.0208
20423POPS   C4B33283  15.197  18.500   8.366 -0.0328 -0.3419  0.0635
20424POPS   CNO33284   4.990   1.305   6.447 -0.1064 -0.0212 -0.1337
20424POPS   PO433285   5.005   1.581   6.800  0.1007 -0.0181 -0.2488
20424POPS   GL133286   4.918   1.348   7.163  0.1309  0.0922 -0.1363
20424POPS   GL233287   5.150   1.283   7.245  0.1992 -0.0871  0.3439
20424POPS   C1A33288   4.779   1.382   7.591 -0.3313  0.0018  0.0355
20424POPS   D2A33289   4.676   1.599   7.972  0.3072  0.1960 -0.1027
20424POPS   C3A33290   5.079   1.754   8.181 -0.2517  0.0339 -0.0365
20424POPS   C4A33291   5.313   1.980   8.586  0.2287 -0.1557 -0.0831
20424POPS   C1B33292   5.276   1.305   7.652 -0.0208  0.3949  0.2484
20424POPS   C2B33293   5.349   1.379   8.040 -0.0713  0.2372  0.1574
20424POPS   C3B33294   5.483   1.469   8.438 -0.0251 -0.0703  0.1082
20424POPS   C4B33295   5.664   1.562   8.809 -0.2246 -0.0081  0.0179
20425POPS   CNO33296   0.861   2.208   6.157 -0.1356  0.0944 -0.0568
20425POPS   PO433297   0.892   2.226   6.546 -0.2539 -0.0755 -0.0531
20425POPS   GL133298   1.092   2.328   7.029  0.0703  0.4567  0.0282
20425POPS   GL233299   1.092   2.595   7.231 -0.2329 -0.0074  0.1290
20425POPS   C1A33300   1.147   2.107   7.491 -0.2294 -0.1929 -0.1100
20425POPS   D2A33301   1.247   1.794   7.804  0.1358 -0.1373 -0.3534
20425POPS   C3A33302   1.077   1.832   8.195 -0.1707  0.2141 -0.1308
20425POPS   C4A33303   0.780   1.971   8.430  0.0640  0.0415 -0.0569
20425POPS   C1B33304   1.075   2.611   7.668  0.2856  0.0816 -0.0001
20425POPS   C2B33305   1.065   2.390   7.952  0.3994 -0.1268 -0.0093
20425POPS   C3B33306   1.056   2.524   8.397  0.0282  0.1308 -0.1651
20425POPS   C4B33307   0.826   2.456   8.733 -0.0757  0.2481  0.1078
20426POPS   CNO33308   9.308   8.178   6.917  0.0392 -0.2391  0.0597
20426POPS   PO433309   9.085   8.417   6.529  0.3493  0.1533  0.2994
20426POPS   GL133310   8.986   8.695   6.820  0.1343  0.0647  0.1028
20426POPS   GL233311   9.235   8.697   7.042  0.0986  0.1192  0.1036
20426POPS   C1A33312   8.735   8.593   7.188  0.1795 -0.0136  0.1388
20426POPS   D2A33313   8.859   8.368   7.403 -0.0596 -0.1712  0.1214
20426POPS   C3A33314   9.313   8.284   7.419 -0.0786  0.3936  0.4195
20426POPS   C4A33315   9.636   8.092   7.589 -0.2225 -0.0621 -0.3862
20426POPS   C1B33316   9.232   8.840   7.473  0.1524 -0.2382 -0.0722
20426POPS   C2B33317   9.331   8.920   7.884 -0.1926 -0.0977  0.2886
20426POPS   C3B33318   9.483   8.989   8.228  0.1057  0.0865 -0.1938
20426POPS   C4B33319   9.721   8.782   8.630 -0.1156 -0.0785 -0.3587
20427POPS   CNO33320   6.953  14.828   6.459 -0.0178 -0.2300 -0.1921
20427POPS   PO433321   6.842  14.506   6.749  0.2062 -0.1895  0.0485
20427POPS   GL133322   6.772  14.453   7.208 -0.2083  0.1799  0.0742
20427POPS   GL233323   6.838  14.779   7.335  0.1818 -0.0514 -0.5529
20427POPS   C1A33324   6.951  14.367   7.604  0.1244 -0.1646  0.3945
20427POPS   D2A33325   6.896  14.175   7.921 -0.0129  0.1539 -0.2406
20427POPS   C3A33326   7.064  14.299   8.252  0.0145  0.2006  0.0754
20427POPS   C4A33327   7.049  14.141   8.757 -0.1080 -0.1358 -0.1184
20427POPS   C1B33328   6.673  14.836   7.794  0.2311  0.2237  0.0899
20427POPS   C2B33329   6.600  14.700   8.204 -0.1137 -0.1273 -0.1399
20427POPS   C3B33330   6.536  14.981   8.557 -0.0125 -0.2748 -0.2077
20427POPS   C4B33331   6.544  15.426   8.586 -0.1306 -0.0429 -0.0731
20428POPS   CNO33332  13.311   3.531   6.109  0.2567  0.1587 -0.2425
20428POPS   PO433333  13.222   3.648   6.536  0.1100 -0.3292 -0.0940
20428POPS   GL133334  13.219   3.532   6.933  0.1219 -0.0712  0.4621
20428POPS   GL233335  13.446   3.572   7.130 -0.0001 -0.4225 -0.0896
20428POPS   C1A33336  12.961   3.610   7.423  0.2954  0.0579 -0.3258
20428POPS   D2A33337  12.882   3.657   7.875  0.2221  0.1295 -0.1460
20428POPS   C3A33338  12.656   3.334   8.171 -0.1151 -0.1956  0.0590
20428POPS   C4A33339  12.419   3.320   8.454  0.1500 -0.0684  0.0074
20428POPS   C1B33340  13.411   3.688   7.543  0.0278 -0.1616 -0.0092
20428POPS   C2B33341  13.363   3.759   8.019 -0.1387  0.0282 -0.0863
20428POPS   C3B33342  13.011   3.635   8.373 -0.0721  0.2747 -0.0450
20428POPS   C4B33343  12.575   3.729   8.728  0.0120 -0.1157  0.2730
20429YOPS   CNO33344  16.325   3.281   6.737 -0.0186 -0.4108  0.1902
20429YOPS   PO433345  16.715   3.288   6.580  0.0553 -0.2954  0.1165
20429YOPS   GL133346  16.802   3.223   7.012  0.0814 -0.0571  0.3629
20429YOPS   GL233347  16.862   3.447   7.332  0.1020  0.0268  0.0162
20429YOPS   C1A33348  16.605   2.882   7.237  0.1091  0.0003 -0.1630
20429YOPS   D2A33349  16.481   3.040   7.560  0.0647 -0.5094 -0.1858
20429YOPS   C3A33350  16.592   3.175   8.038  0.2606  0.0765 -0.0884
20429YOPS   C4A33351  16.377   2.873   8.276 -0.0442 -0.0665  0.2282
20429YOPS   C1B33352  16.834   3.533   7.795  0.2391  0.3988  0.2257
20429YOPS   C2B33353  16.943   3.520   8.295  0.0182 -0.1793  0.1401
20429YOPS   D3B33354  17.221   3.544   8.559  0.3373 -0.0367 -0.0633
20429YOPS   C4B33355  17.178   3.235   8.833 -0.0404  0.0020  0.0430
20430YOPS   CNO33356  16.916   8.143   6.938 -0.0875 -0.0158 -0.3050
20430YOPS   PO433357  16.565   8.276   6.828 -0.2175 -0.0250 -0.4582
20430YOPS   GL133358  16.689   8.445   7.285  0.2068  0.0574 -0.0838
20430YOPS   GL233359  16.602   8.726   7.248  0.1773 -0.0698  0.5037
20430YOPS   C1A33360  16.734   8.269   7.727 -0.0831 -0.3466 -0.0143
20430YOPS   D2A33361  16.838   8.194   8.098  0.2805 -0.0453 -0.0538
20430YOPS   C3A33362  16.968   7.875   8.336 -0.2126 -0.0868  0.3773
20430YOPS   C4A33363  17.077   7.604   8.481 -0.2322  0.1007 -0.0539
20430YOPS   C1B33364  16.847   8.737   7.645 -0.2527 -0.0161  0.0487
20430YOPS   C2B33365  17.038   8.680   8.056  0.1865  0.0804 -0.0513
20430YOPS   D3B33366  16.606   8.614   8.352 -0.1853 -0.0461 -0.1993
20430YOPS   C4B33367  16.441   8.910   8.687  0.1495  0.0339 -0.1846
20431YOPS   CNO33368   1.168  13.347   6.721 -0.0341 -0.1438  0.0236
20431YOPS   PO433369   1.477  13.761   6.766  0.1177 -0.1498  0.0579
20431YOPS   GL133370   1.358  13.963   7.153 -0.0964  0.2867 -0.1789
20431YOPS   GL233371   1.368  14.279   7.164  0.0531  0.2778 -0.0728
20431YOPS   C1A33372   1.365  14.034   7.601  0.1586 -0.0443 -0.0218
20431YOPS   D2A33373   1.442  14.181   8.009 -0.0925  0.0415  0.3778
20431YOPS   C3A33374   1.636  14.206   8.453 -0.1023  0.1246  0.0870
20431YOPS   C4A33375   1.688  14.120   8.930 -0.2696  0.2937 -0.0705
20431YOPS   C1B33376   1.285  14.716   7.172  0.2754 -0.1072 -0.0137
20431YOPS   C2B33377   1.532  14.964   7.344 -0.1099  0.1523  0.0100
20431YOPS   D3B33378   1.723  15.350   7.363 -0.2807  0.0954 -0.2548
20431YOPS   C4B33379   1.697  15.603   7.691  0.0982  0.2783 -0.0972
20432YOPS   CNO33380   8.086   7.260   6.284 -0.0368 -0.0553  0.0794
20432YOPS   PO433381   7.702   7.330   6.427 -0.0727  0.1611 -0.0195
20432YOPS   GL133382   7.776   7.201   6.772  0.1903  0.1883  0.0687
20432YOPS   GL233383   7.444   7.252   7.004 -0.2301  0.0858 -0.2414
20432YOPS   C1A33384   7.917   7.155   7.128 -0.1330 -0.2830 -0.1350
20432YOPS   D2A33385   8.340   7.287   7.280  0.0186 -0.1151 -0.2999
20432YOPS   C3A33386   8.360   7.509   7.609 -0.0175  0.2660 -0.1873
20432YOPS   C4A33387   8.050   7.911   7.660 -0.0551  0.0718  0.0414
20432YOPS   C1B33388   7.479   7.005   7.394 -0.0565 -0.1668 -0.0034
20432YOPS   C2B33389   7.614   6.769   7.665  0.1341 -0.0865  0.3018
20432YOPS   D3B33390   7.599   6.602   8.098 -0.0941 -0.0235  0.0047
20432YOPS   C4B33391   7.839   6.508   8.427 -0.0484 -0.3833 -0.2667
20433YOPS   CNO33392  15.873   2.826   6.249  0.4280 -0.3970  0.0905
20433YOPS   PO433393  15.460   3.014   6.617 -0.0411  0.2964 -0.3080
20433YOPS   GL133394  15.560   2.733   7.021  0.0722 -0.2784 -0.1086
20433YOPS   GL233395  15.474   2.957   7.138  0.1846 -0.0304  0.0577
20433YOPS   C1A33396  15.769   2.644   7.340  0.0164 -0.1178 -0.1021
20433YOPS   D2A33397  15.727   2.563   7.789  0.0196  0.1090 -0.1874
20433YOPS   C3A33398  15.709   2.433   8.242 -0.1433  0.0125 -0.0770
20433YOPS   C4A33399  15.689   2.596   8.566  0.1602 -0.0082  0.1383
20433YOPS   C1B33400  15.658   3.266   7.429  0.2637 -0.0623 -0.1383
20433YOPS   C2B33401  15.618   3.190   7.831  0.0319 -0.0547 -0.1382
20433YOPS   D3B33402  15.598   2.965   8.158  0.1203 -0.3253 -0.2291
20433YOPS   C4B33403  15.254   2.959   8.436  0.0727  0.1265 -0.2714
20434YOPS   CNO33404  11.640   4.775   6.323 -0.2312  0.0742 -0.2482
20434YOPS   PO433405  11.691   4.827   6.740 -0.0888  0.0698  0.2298
20434YOPS   GL133406  11.577   4.647   7.033  0.1768 -0.0982 -0.0709
20434YOPS   GL233407  11.565   4.354   7.002 -0.1105  0.0140  0.1142
20434YOPS   C1A33408  11.487   4.866   7.415 -0.3322 -0.0744  0.2956
20434YOPS   D2A33409  11.530   4.983   7.898 -0.1191 -0.1329 -0.1155
20434YOPS   C3A33410  11.459   5.115   8.232  0.0756 -0.1734  0.0580
20434YOPS   C4A33411  11.500   5.576   8.134  0.1661  0.3943  0.2084
20434YOPS   C1B33412  11.729   4.383   7.446  0.0894  0.4034  0.0268
20434YOPS   C2B33413  11.704   4.357   7.856  0.1874 -0.0006  0.1216
20434YOPS   D3B33414  11.927   4.395   8.221  0.0670 -0.1264  0.0300
20434YOPS   C4B33415  12.313   4.576   8.562 -0.2116  0.1357  0.1001
20435YOPS   CNO33416  13.421   7.548   6.207 -0.0836 -0.1151 -0.1071
20435YOPS   PO433417  13.248   7.374   6.588 -0.0952  0.0018  0.2235
20435YOPS   GL133418  13.501   7.533   6.887  0.0147 -0.2358  0.2928
20435YOPS   GL233419  13.584   7.847   6.995  0.1173 -0.0334 -0.0397
20435YOPS   C1A33420  13.692   7.293   7.211  0.1456 -0.1535 -0.1106
20435YOPS   D2A33421  13.984   7.015   7.373 -0.1049  0.2109 -0.0157
20435YOPS   C3A33422  14.013   6.863   7.761  0.2032 -0.0640 -0.1733
20435YOPS   C4A33423  13.577   6.892   7.859  0.0332  0.1373 -0.0043
20435YOPS   C1B33424  13.582   7.735   7.384  0.0951 -0.1912  0.1405
20435YOPS   C2B33425  13.597   7.770   7.844 -0.2031 -0.1229 -0.1430
20435YOPS   D3B33426  13.712   7.748   8.251 -0.2084  0.1332  0.1314
20435YOPS   C4B33427  13.450   7.490   8.554 -0.0597 -0.0164 -0.1979
20436YOPS   CNO33428  17.401   0.805   6.113  0.0340  0.3185  0.1355
20436YOPS   PO433429  17.878   0.682   6.173 -0.1640 -0.3808  0.3096
20436YOPS   GL133430  17.663   0.541   6.499  0.1933 -0.0523 -0.0354
20436YOPS   GL233431  17.926   0.587   6.681  0.3524 -0.0575 -0.2794
20436YOPS   C1A33432  17.413   0.604   6.875  0.2067  0.0882  0.1645
20436YOPS   D2A33433  17.216   0.482   7.384  0.1421  0.1432  0.1478
20436YOPS   C3A33434  16.926   0.502   7.665  0.1409 -0.1479 -0.0339
20436YOPS   C4A33435  16.898   0.328   8.050  0.0672 -0.0268  0.1346
20436YOPS   C1B33436  17.858   0.682   7.107  0.0411 -0.1177 -0.1788
20436YOPS   C2B33437  17.705   0.740   7.482 -0.3779  0.1047  0.0163
20436YOPS   D3B33438  17.882   0.731   7.902  0.4395 -0.0703  0.2994
20436YOPS   C4B33439  17.724   1.003   8.174 -0.1221 -0.0057 -0.0688
20437YOPS   CNO33440   6.261   5.508   6.360 -0.0317  0.2105 -0.0582
20437YOPS   PO433441   6.512   5.880   6.275 -0.1621 -0.2277 -0.2288
20437YOPS   GL133442   6.464   5.856   6.743 -0.1102  0.0042 -0.4581
20437YOPS   GL233443   6.592   5.584   6.777 -0.0086 -0.0879  0.0186
20437YOPS   C1A33444   6.256   6.050   7.176 -0.0928  0.0088  0.1968
20437YOPS   D2A33445   6.295   6.133   7.538 -0.0417 -0.6155 -0.1475
20437YOPS   C3A33446   6.294   6.404   7.877  0.0007 -0.2426  0.1683
20437YOPS   C4A33447   6.637   6.268   8.057  0.2112  0.0835  0.0174
20437YOPS   C1B33448   6.498   5.643   7.161  0.0884  0.1090 -0.0362
20437YOPS   C2B33449   6.540   5.697   7.577 -0.4066  0.0291  0.2888
20437YOPS   D3B33450   6.805   5.728   7.964 -0.2014 -0.2409  0.0505
20437YOPS   C4B33451   7.024   5.827   8.283 -0.2240  0.0684  0.2358
20438YOPS   CNO33452  14.819   9.404   6.130 -0.1801  0.0699  0.1016
20438YOPS   PO433453  14.732   9.410   6.613 -0.0025 -0.3821  0.0087
20438YOPS   GL133454  14.591   9.236   6.956  0.1196 -0.3669 -0.2555
20438YOPS   GL233455  14.507   8.855   7.038  0.1972 -0.2186  0.1229
20438YOPS   C1A33456  14.507   9.481   7.283 -0.2886 -0.0760 -0.0679
20438YOPS   D2A33457  14.826   9.741   7.543  0.0859  0.2044 -0.2370
20438YOPS   C3A33458  15.078   9.799   7.876  0.4210  0.3585  0.0170
20438YOPS   C4A33459  15.011   9.365   8.160  0.0938 -0.0620 -0.1389
20438YOPS   C1B33460  14.517   9.006   7.523 -0.1578 -0.0344  0.1769
20438YOPS   C2B33461  14.587   8.989   7.968 -0.1617 -0.0992 -0.2980
20438YOPS   D3B33462  14.397   9.211   8.349 -0.1214  0.0942  0.1098
20438YOPS   C4B33463  14.574   9.556   8.397 -0.1359  0.1205 -0.2313
20439YOPS   CNO33464  13.143   0.879   6.226 -0.1122 -0.1345  0.2666
20439YOPS   PO433465  13.308   0.527   6.473 -0.0368 -0.0358  0.0616
20439YOPS   GL133466  13.364   0.419   6.937 -0.1064 -0.2434 -0.1973
20439YOPS   GL233467  13.575   0.163   7.002 -0.0779 -0.0859  0.2832
20439YOPS   C1A33468  13.182   0.483   7.195  0.1142  0.1077 -0.1079
20439YOPS   D2A33469  13.109   0.619   7.593  0.0460  0.1613  0.3973
20439YOPS   C3A33470  13.228   0.782   7.945 -0.4071 -0.3409  0.0362
20439YOPS   C4A33471  13.120   1.081   8.181  0.2258  0.1863  0.0652
20439YOPS   C1B33472  13.640   0.316   7.405  0.0253  0.0240 -0.1806
20439YOPS   C2B33473  13.730   0.484   7.837 -0.0998  0.1187  0.3116
20439YOPS   D3B33474  13.722   0.593   8.239  0.0889 -0.0179  0.0414
20439YOPS   C4B33475  13.369   0.490   8.341 -0.0169  0.0252  0.1388
20440POPE   NH333476   7.766  14.733   6.868 -0.0533 -0.1299 -0.0772
20440POPE   PO433477   7.567  14.343   6.830 -0.1646  0.0916 -0.0332
20440POPE   GL133478   7.486  14.397   7.293  0.1561  0.0559  0.0179
20440POPE   GL233479   7.442  14.030   7.275 -0.1148 -0.0561  0.2500
20440POPE   C1A33480   7.331  14.743   7.473 -0.0785 -0.1851  0.0433
20440POPE   D2A33481   7.270  14.629   7.857 -0.0213  0.1544 -0.2649
20440POPE   C3A33482   7.078  14.811   8.212  0.1025  0.1006 -0.3306
20440POPE   C4A33483   6.989  14.691   8.654 -0.4224  0.1195  0.0113
20440POPE   C1B33484   7.430  14.164   7.735 -0.3723  0.0788  0.0544
20440POPE   C2B33485   7.505  14.249   8.095  0.1944  0.0172 -0.3938
20440POPE   C3B33486   7.448  14.043   8.470 -0.3225  0.0240 -0.2883
20440POPE   C4B33487   7.616  13.952   8.887  0.1877 -0.0082 -0.1947
20441POPE   NH333488  10.470   6.027   6.647  0.2073 -0.0306  0.1840
20441POPE   PO433489  10.620   6.456   6.587 -0.1013  0.1138  0.1580
20441POPE   GL133490  10.643   6.508   6.945 -0.1107 -0.1864  0.2241
20441POPE   GL233491  10.489   6.300   7.170 -0.2919  0.1957  0.0848
20441POPE   C1A33492  10.879   6.739   7.345  0.2099 -0.2902  0.0630
20441POPE   D2A33493  10.801   6.910   7.715 -0.0562  0.1738  0.2368
20441POPE   C3A33494  10.811   6.969   8.159 -0.0966 -0.1432  0.1866
20441POPE   C4A33495  10.468   7.149   8.298  0.0461  0.2295 -0.1834
20441POPE   C1B33496  10.601   6.385   7.545  0.1944  0.1109 -0.1570
20441POPE   C2B33497  10.665   6.422   7.999 -0.3023  0.0347 -0.0677
20441POPE   C3B33498  10.557   6.517   8.429  0.0827  0.2076  0.0814
20441POPE   C4B33499  10.645   6.663   8.869  0.0179  0.0823  0.1685
20442POPE   NH333500  13.927  14.839   7.032  0.0763 -0.2812  0.1283
20442POPE   PO433501  14.328  15.006   6.968  0.0774  0.0664  0.0051
20442POPE   GL133502  14.218  14.939   7.407  0.0251  0.0600  0.3417
20442POPE   GL233503  13.906  15.043   7.500  0.4211 -0.1544  0.1008
20442POPE   C1A33504  14.205  14.902   7.903  0.0695  0.0988  0.0205
20442POPE   D2A33505  13.996  15.167   8.274  0.1747  0.2017 -0.3833
20442POPE   C3A33506  14.117  14.911   8.631 -0.1131 -0.0600  0.1176
20442POPE   C4A33507  14.357  14.560   8.721  0.0888  0.0453  0.2294
20442POPE   C1B33508  13.671  15.057   7.915  0.1631  0.2366 -0.2159
20442POPE   C2B33509  13.453  15.309   8.172  0.2525 -0.0015  0.0885
20442POPE   C3B33510  13.443  15.539   8.529  0.0753 -0.0619 -0.3658
20442POPE   C4B33511  13.231  15.905   8.735 -0.0920  0.0168  0.0956
20443POPE   NH333512   5.879   9.417   6.407 -0.2909  0.2948  0.0527
20443POPE   PO433513   5.938   9.251   6.780  0.1707 -0.3422 -0.0922
20443POPE   GL133514   5.928   9.220   7.160  0.0132  0.1946 -0.0969
20443POPE   GL233515   6.040   8.856   7.081 -0.1661 -0.0745 -0.0486
20443POPE   C1A33516   6.034   9.082   7.604 -0.0084 -0.2583  0.2749
20443POPE   D2A33517   5.982   9.145   8.026 -0.0282  0.0850 -0.2659
20443POPE   C3A33518   5.878   8.764   8.336  0.0985 -0.3966 -0.2654
20443POPE   C4A33519   5.835   8.440   8.611 -0.2862  0.1937  0.1167
20443POPE   C1B33520   5.914   8.575   7.259  0.1647  0.1953 -0.1058
20443POPE   C2B33521   5.629   8.452   7.637 -0.2420  0.2237  0.1741
20443POPE   C3B33522   5.533   8.466   8.098  0.0052  0.2585 -0.2068
20443POPE   C4B33523   5.318   8.596   8.424 -0.0534 -0.1918  0.1875
20444POPE   NH333524   0.910   7.541   6.455 -0.1413 -0.1823 -0.1403
20444POPE   PO433525   1.277   7.794   6.545 -0.2495  0.2483 -0.1275
20444POPE   GL133526   1.284   7.650   6.907 -0.2596 -0.0394 -0.0272
20444POPE   GL233527   0.901   7.536   6.996  0.2054 -0.1093 -0.2174
20444POPE   C1A33528   1.287   7.430   7.357  0.1359  0.1142  0.2079
20444POPE   D2A33529   1.488   7.435   7.623  0.1976 -0.1056 -0.3588
20444POPE   C3A33530   1.638   7.104   7.912 -0.2789 -0.3176  0.2478
20444POPE   C4A33531   1.752   7.038   8.256  0.1561 -0.1116 -0.0911
20444POPE   C1B33532   0.873   7.215   7.257  0.1596  0.2059  0.1586
20444POPE   C2B33533   0.851   6.750   7.100  0.3549  0.0951  0.3563
20444POPE   C3B33534   0.701   6.391   7.376 -0.3560 -0.1991 -0.3346
20444POPE   C4B33535   0.294   6.456   7.457  0.0440 -0.1588  0.1772
20445POPE   NH333536  15.254   7.676   6.684  0.1325 -0.0572  0.0685
20445POPE   PO433537  15.705   7.589   6.870 -0.0391 -0.0879 -0.0098
20445POPE   GL133538  15.718   7.792   7.237 -0.0638 -0.0216  0.1476
20445POPE   GL233539  16.025   7.858   7.340 -0.1311  0.2415 -0.1270
20445POPE   C1A33540  15.462   7.882   7.514 -0.0635 -0.0697 -0.2259
20445POPE   D2A33541  15.210   7.666   7.875 -0.2153  0.3164  0.1837
20445POPE   C3A33542  14.933   7.744   8.240 -0.0361  0.4090 -0.0329
20445POPE   C4A33543  14.833   8.146   8.466  0.2395 -0.0640 -0.0008
20445POPE   C1B33544  16.237   7.823   7.656 -0.1722 -0.0729  0.1067
20445POPE   C2B33545  16.315   7.965   8.031 -0.0346 -0.1313  0.0490
20445POPE   C3B33546  16.353   8.155   8.398  0.1111  0.0783  0.0267
20445POPE   C4B33547  16.169   7.965   8.814  0.1177 -0.1547  0.2488
20446POPE   NH333548  16.941  12.327   7.070  0.1638 -0.1181  0.0423
20446POPE   PO433549  16.949  11.899   6.854 -0.1232 -0.3410  0.1976
20446POPE   GL133550  16.909  11.700   7.250 -0.1819  0.0503  0.0292
20446POPE   GL233551  16.775  11.960   7.411  0.0758  0.0468 -0.0825
20446POPE   C1A33552  16.827  11.575   7.731 -0.4164  0.0244  0.2812
20446POPE   D2A33553  16.900  11.448   8.223 -0.1743  0.1048  0.2505
20446POPE   C3A33554  16.786  11.526   8.725  0.0797  0.0578  0.0136
20446POPE   C4A33555  16.599  11.585   9.129 -0.1215  0.1392  0.0124
20446POPE   C1B33556  16.909  12.099   7.846 -0.2620 -0.0745  0.1540
20446POPE   C2B33557  16.859  12.018   8.265  0.0012  0.0923  0.0929
20446POPE   C3B33558  16.679  12.009   8.707 -0.0661 -0.2557  0.2367
20446POPE   C4B33559  16.473  12.064   9.170 -0.0043 -0.0330 -0.0808
20447POPE   NH333560   1.231  12.894   7.010 -0.0869 -0.2969  0.1019
20447POPE   PO433561   1.653  13.203   6.851  0.2933 -0.0249  0.2689
20447POPE   GL133562   1.662  12.945   7.275  0.3316 -0.1391  0.0310
20447POPE   GL233563   1.589  12.604   7.267  0.0572 -0.1196 -0.3721
20447POPE   C1A33564   1.538  12.976   7.667  0.1136  0.2721  0.0037
20447POPE   D2A33565   1.570  13.004   8.118 -0.1942 -0.0505  0.1585
20447POPE   C3A33566   1.273  12.903   8.406  0.0935 -0.2045 -0.2815
20447POPE   C4A33567   0.889  12.975   8.470 -0.1583  0.1198  0.0986
20447POPE   C1B33568   1.377  12.485   7.651  0.0712  0.1130 -0.4211
20447POPE   C2B33569   1.116  12.722   7.926 -0.1077  0.2158  0.3038
20447POPE   C3B33570   0.719  12.907   7.998 -0.1683 -0.0341 -0.0084
20447POPE   C4B33571   0.291  12.867   7.819  0.0129 -0.1840  0.2218
20448POPE   NH333572   7.582   4.773   6.347 -0.0403  0.0004 -0.0097
20448POPE   PO433573   7.260   4.462   6.472 -0.4422 -0.0577  0.1735
20448POPE   GL133574   7.478   4.612   6.823 -0.3285 -0.0473  0.0165
20448POPE   GL233575   7.401   4.938   6.833 -0.0653 -0.0545  0.1126
20448POPE   C1A33576   7.348   4.692   7.277 -0.3496  0.1108 -0.1039
20448POPE   D2A33577   7.047   4.863   7.386 -0.1171  0.1120 -0.0524
20448POPE   C3A33578   6.731   4.765   7.338 -0.1835  0.0517  0.0308
20448POPE   C4A33579   6.427   4.639   7.628  0.0825  0.2134  0.0652
20448POPE   C1B33580   7.319   5.244   7.124 -0.5431 -0.0629 -0.1183
20448POPE   C2B33581   7.370   5.435   7.473  0.1730 -0.3144 -0.1599
20448POPE   C3B33582   7.258   5.516   7.871  0.0029  0.1971  0.1248
20448POPE   C4B33583   7.147   5.334   8.267 -0.1544 -0.4444 -0.2204
20449POPE   NH333584   8.649  15.364   7.046  0.2088  0.2191 -0.1803
20449POPE   PO433585   9.078  15.463   6.887 -0.0053 -0.1134  0.1970
20449POPE   GL133586   9.010  15.537   7.370 -0.3124  0.2965 -0.1372
20449POPE   GL233587   9.102  15.937   7.393  0.1898 -0.0236  0.3872
20449POPE   C1A33588   8.973  15.573   7.782 -0.0872  0.1798 -0.2395
20449POPE   D2A33589   8.831  15.650   8.265  0.0952 -0.3195  0.2023
20449POPE   C3A33590   9.024  15.844   8.570 -0.4320  0.2080  0.1392
20449POPE   C4A33591   8.947  16.050   8.940 -0.0396  0.0920  0.1702
20449POPE   C1B33592   9.281  15.997   7.728 -0.1253  0.0613  0.2321
20449POPE   C2B33593   9.337  15.739   8.091  0.1762  0.0529 -0.0369
20449POPE   C3B33594   9.482  15.620   8.648  0.1803 -0.2117  0.2926
20449POPE   C4B33595   9.437  15.257   8.858  0.1421 -0.0941 -0.0549
20450POPE   NH333596   2.542   0.687   6.471  0.0444  0.0029  0.1305
20450POPE   PO433597   2.982   0.636   6.598 -0.0509  0.0886  0.0605
20450POPE   GL133598   3.236   0.881   6.858  0.2412 -0.0455 -0.1022
20450POPE   GL233599   3.377   0.709   7.040 -0.1061  0.0106  0.0714
20450POPE   C1A33600   3.158   1.106   7.298 -0.0412  0.1793  0.0223
20450POPE   D2A33601   3.004   1.339   7.591 -0.4308  0.1653 -0.2389
20450POPE   C3A33602   2.877   1.413   7.992 -0.1409  0.5011 -0.0665
20450POPE   C4A33603   2.555   1.372   8.283 -0.1150 -0.1403  0.4318
20450POPE   C1B33604   3.516   0.603   7.480 -0.1194 -0.3075 -0.2587
20450POPE   C2B33605   3.677   0.294   7.819 -0.4496 -0.0544 -0.2244
20450POPE   C3B33606   3.681   0.184   8.220  0.5198 -0.0546  0.0329
20450POPE   C4B33607   3.482  -0.135   8.439 -0.1655  0.0243  0.0389
20451YOPE   NH333608   1.539  15.495   6.832  0.0570 -0.2850  0.2109
20451YOPE   PO433609   1.104  15.567   6.703  0.1914  0.1491  0.0859
20451YOPE   GL133610   1.079  15.403   7.218  0.4522  0.4170  0.0260
20451YOPE   GL233611   1.344  15.639   7.237 -0.3000  0.0833 -0.2850
20451YOPE   C1A33612   1.188  15.300   7.627  0.0559 -0.2808 -0.1363
20451YOPE   D2A33613   1.348  15.471   8.021 -0.0603  0.2466  0.2960
20451YOPE   C3A33614   1.067  15.460   8.402 -0.1859 -0.0009  0.1907
20451YOPE   C4A33615   0.948  15.102   8.634 -0.0690  0.1206 -0.2984
20451YOPE   C1B33616   1.212  15.844   7.736 -0.0275  0.2218  0.3621
20451YOPE   C2B33617   1.203  15.912   8.159 -0.2305 -0.4420  0.0149
20451YOPE   D3B33618   1.117  15.916   8.524 -0.0328  0.0496  0.1183
20451YOPE   C4B33619   1.416  15.995   8.849  0.0928  0.3641  0.1561
20452YOPE   NH333620  16.790  14.385   6.943 -0.2217  0.4378 -0.0881
20452YOPE   PO433621  16.596  14.222   7.250 -0.0915 -0.0634 -0.3490
20452YOPE   GL133622  16.420  14.391   7.551 -0.1909  0.1512  0.0924
20452YOPE   GL233623  16.095  14.359   7.512 -0.1883 -0.1566  0.0139
20452YOPE   C1A33624  16.517  14.366   7.958 -0.2370  0.1585  0.1982
20452YOPE   D2A33625  16.400  14.339   8.345  0.3354 -0.2925  0.1919
20452YOPE   C3A33626  16.423  14.570   8.832 -0.1023 -0.0414 -0.1009
20452YOPE   C4A33627  16.591  14.609   9.162 -0.0824 -0.1668 -0.0648
20452YOPE   C1B33628  16.016  14.231   7.892 -0.0731  0.1703 -0.1222
20452YOPE   C2B33629  15.798  14.020   8.304  0.1035 -0.0633 -0.0101
20452YOPE   D3B33630  15.627  13.955   8.683 -0.0456  0.0157  0.1031
20452YOPE   C4B33631  15.425  13.763   8.957 -0.0015  0.1566  0.0660
20453YOPE   NH333632   8.092  11.045   6.716  0.3849 -0.0701  0.0919
20453YOPE   PO433633   7.881  10.819   6.925 -0.2101 -0.0674 -0.1237
20453YOPE   GL133634   8.024  10.684   7.302  0.3549  0.3629  0.1414
20453YOPE   GL233635   8.258  10.376   7.450  0.2084 -0.2131  0.3272
20453YOPE   C1A33636   7.914  10.688   7.698  0.1506  0.1747  0.2118
20453YOPE   D2A33637   7.811  10.716   8.117 -0.1209 -0.1458  0.0759
20453YOPE   C3A33638   8.221  10.754   8.334  0.0226  0.3812  0.1005
20453YOPE   C4A33639   8.309  10.340   8.718 -0.2946 -0.0452  0.0252
20453YOPE   C1B33640   8.220  10.315   7.957 -0.0539  0.3171 -0.0558
20453YOPE   C2B33641   8.054  10.195   8.325  0.0099 -0.3643  0.0781
20453YOPE   D3B33642   8.087   9.923   8.600 -0.0445 -0.0337  0.0812
20453YOPE   C4B33643   8.006   9.979   9.101 -0.1558 -0.2154 -0.4652
20454YOPE   NH333644   1.049   5.334   6.584 -0.1783  0.0448 -0.1151
20454YOPE   PO433645   0.655   5.184   6.678 -0.0197  0.2291 -0.1168
20454YOPE   GL133646   0.847   5.196   7.055  0.1515 -0.1478 -0.1140
20454YOPE   GL233647   1.048   5.513   7.194 -0.4284 -0.4387  0.0031
20454YOPE   C1A33648   0.726   4.959   7.399  0.1494  0.4443 -0.1684
20454YOPE   D2A33649   0.626   4.659   7.766  0.1638  0.3064  0.1034
20454YOPE   C3A33650   0.507   4.800   8.160 -0.2173 -0.0710 -0.3445
20454YOPE   C4A33651   0.708   4.798   8.549 -0.0568  0.2157 -0.0074
20454YOPE   C1B33652   0.886   5.482   7.576 -0.0192 -0.2006  0.0550
20454YOPE   C2B33653   1.004   5.521   7.979 -0.4022  0.1049 -0.2378
20454YOPE   D3B33654   1.277   5.691   8.283  0.0592  0.1639 -0.2229
20454YOPE   C4B33655   1.618   5.746   8.659 -0.0229  0.0358 -0.0098
20455YOPE   NH333656   0.146  12.409   7.215  0.1196  0.2879  0.0610
20455YOPE   PO433657   0.205  12.876   7.020 -0.1269 -0.3638  0.1703
20455YOPE   GL133658  -0.086  12.887   7.401  0.0925  0.1412 -0.0654
20455YOPE   GL233659  -0.161  12.660   7.571  0.2360  0.1147 -0.0682
20455YOPE   C1A33660  -0.133  13.117   7.751  0.2951  0.2521  0.0919
20455YOPE   D2A33661  -0.076  13.228   8.081  0.0932 -0.0793 -0.0261
20455YOPE   C3A33662  -0.114  13.020   8.407  0.0886  0.0205  0.2542
20455YOPE   C4A33663  -0.348  12.874   8.795 -0.1684  0.1348  0.0272
20455YOPE   C1B33664  -0.138  12.696   8.041  0.3359 -0.1658  0.0676
20455YOPE   C2B33665  -0.125  12.530   8.521 -0.1009  0.1071 -0.2954
20455YOPE   D3B33666  -0.159  12.412   9.026 -0.0223  0.0405  0.2301
20455YOPE   C4B33667  -0.339  12.086   9.275  0.1670  0.1651  0.0081
20456YOPE   NH333668   4.496   1.423   6.782  0.1419 -0.2936  0.0490
20456YOPE   PO433669   4.163   1.246   7.075 -0.1309 -0.2680 -0.0432
20456YOPE   GL133670   3.939   1.591   7.240  0.1093  0.3223  0.1826
20456YOPE   GL233671   3.741   1.533   7.060  0.0907 -0.2233  0.0687
20456YOPE   C1A33672   3.870   1.840   7.523  0.0767  0.2506 -0.0279
20456YOPE   D2A33673   3.890   1.854   7.960  0.1545 -0.0032  0.1623
20456YOPE   C3A33674   4.209   1.822   8.143  0.0718 -0.1181  0.0773
20456YOPE   C4A33675   4.294   2.170   8.395  0.1340  0.0435  0.0841
20456YOPE   C1B33676   3.501   1.433   7.426 -0.0619 -0.1366 -0.3324
20456YOPE   C2B33677   3.404   1.591   7.841 -0.0472 -0.2163  0.1179
20456YOPE   D3B33678   3.262   1.511   8.329 -0.0921  0.1247 -0.0507
20456YOPE   C4B33679   2.968   1.300   8.684 -0.0185  0.1193 -0.0663
20457YOPE   NH333680   7.195  16.334   6.637 -0.1284  0.1905  0.0922
20457YOPE   PO433681   7.409  16.665   6.503 -0.1708  0.0514  0.0570
20457YOPE   GL133682   7.519  16.831   6.922 -0.0481  0.0372 -0.3837
20457YOPE   GL233683   7.386  17.080   6.983  0.1805 -0.0773 -0.1582
20457YOPE   C1A33684   7.658  16.693   7.369 -0.1411  0.2834  0.4393
20457YOPE   D2A33685   8.053  16.933   7.671 -0.2611 -0.0205 -0.0888
20457YOPE   C3A33686   8.056  17.213   8.013  0.1272 -0.0671  0.2368
20457YOPE   C4A33687   8.203  17.337   8.355 -0.0334 -0.3323 -0.0193
20457YOPE   C1B33688   7.326  17.104   7.391 -0.0132  0.0828  0.2883
20457YOPE   C2B33689   7.610  16.974   7.819 -0.1569  0.0582 -0.0583
20457YOPE   D3B33690   7.585  17.021   8.208 -0.0795 -0.0091 -0.3894
20457YOPE   C4B33691   7.321  17.192   8.426  0.1459 -0.1367  0.2571
20458YOPE   NH333692   6.597  15.914   6.535 -0.0784 -0.2088  0.0226
20458YOPE   PO433693   6.707  15.671   6.845 -0.0996  0.1952  0.0972
20458YOPE   GL133694   6.725  15.788   7.290  0.0484 -0.0914  0.3049
20458YOPE   GL233695   6.868  16.133   7.439  0.4291  0.2646  0.1001
20458YOPE   C1A33696   6.406  15.961   7.662  0.0180 -0.0337 -0.1089
20458YOPE   D2A33697   6.351  15.943   7.973 -0.2110  0.0085  0.2197
20458YOPE   C3A33698   6.544  16.246   8.160  0.0171  0.0495 -0.1596
20458YOPE   C4A33699   6.882  16.434   8.147 -0.1646 -0.0110  0.2436
20458YOPE   C1B33700   6.854  16.019   7.802 -0.0412 -0.2698  0.6623
20458YOPE   C2B33701   6.848  15.792   8.165  0.1969 -0.0538  0.0617
20458YOPE   D3B33702   6.713  15.932   8.565 -0.1670 -0.3616 -0.1570
20458YOPE   C4B33703   6.486  16.199   8.766  0.0207 -0.2174  0.1964
20459YOPE   NH333704   5.281  12.653   6.649 -0.1452  0.0050 -0.2636
20459YOPE   PO433705   5.756  12.557   6.706 -0.2081 -0.0362 -0.1331
20459YOPE   GL133706   5.861  12.602   7.092 -0.0905 -0.1591 -0.0854
20459YOPE   GL233707   6.106  12.817   7.168 -0.1238 -0.2979 -0.0875
20459YOPE   C1A33708   5.867  12.554   7.504 -0.2129  0.1654  0.0478
20459YOPE   D2A33709   5.623  12.477   7.833 -0.1753  0.0787 -0.2618
20459YOPE   C3A33710   5.412  12.734   8.136  0.1066  0.4602  0.2866
20459YOPE   C4A33711   5.169  12.730   8.521 -0.2556 -0.2225  0.2461
20459YOPE   C1B33712   6.250  13.065   7.553 -0.0597  0.0171 -0.0414
20459YOPE   C2B33713   6.069  12.821   7.882 -0.1589 -0.1988  0.1021
20459YOPE   D3B33714   5.835  13.000   8.159 -0.1282  0.2500 -0.0295
20459YOPE   C4B33715   5.769  13.199   8.649  0.3201  0.0785 -0.1892
20460YOPE   NH333716   5.091   7.429   6.795 -0.0944 -0.0208  0.2472
20460YOPE   PO433717   4.915   6.933   6.811 -0.2913 -0.1473  0.0296
20460YOPE   GL133718   4.965   7.136   7.217  0.3234 -0.0195 -0.1543
20460YOPE   GL233719   4.697   7.302   7.088 -0.1358 -0.1139 -0.2344
20460YOPE   C1A33720   5.132   7.002   7.618  0.2753 -0.2786 -0.0229
20460YOPE   D2A33721   5.394   6.942   8.029 -0.2556 -0.3104  0.0287
20460YOPE   C3A33722   5.459   7.191   8.446 -0.1561 -0.5240  0.2380
20460YOPE   C4A33723   5.528   7.086   8.848  0.2766 -0.0135  0.3324
20460YOPE   C1B33724   4.467   7.101   7.280 -0.0060 -0.1403 -0.0328
20460YOPE   C2B33725   4.171   6.872   7.638  0.0273 -0.2389  0.2353
20460YOPE   D3B33726   3.864   6.505   7.524  0.0138 -0.1231  0.3355
20460YOPE   C4B33727   3.868   6.058   7.762  0.2431 -0.0491 -0.2472
20461YOPE   NH333728   9.362   0.624   6.452 -0.2264 -0.1878  0.0934
20461YOPE   PO433729   8.963   0.441   6.536  0.1592 -0.0159  0.1719
20461YOPE   GL133730   9.252   0.517   6.973  0.2374  0.2249 -0.0141
20461YOPE   GL233731   9.162   0.830   6.949  0.0776 -0.0309  0.0207
20461YOPE   C1A33732   9.590   0.479   7.203 -0.3332 -0.0167 -0.1523
20461YOPE   D2A33733   9.850   0.091   7.283  0.1255  0.1499  0.2684
20461YOPE   C3A33734   9.914   0.135   7.698 -0.0891 -0.0065 -0.1110
20461YOPE   C4A33735  10.303   0.139   7.764 -0.0522  0.3079 -0.0074
20461YOPE   C1B33736   9.407   1.002   7.235 -0.2010 -0.5394 -0.2245
20461YOPE   C2B33737   9.366   1.111   7.622  0.0849  0.3019  0.0048
20461YOPE   D3B33738   9.522   1.318   7.987  0.0747  0.0939  0.2473
20461YOPE   C4B33739   9.913   1.353   8.161 -0.0091  0.1278  0.0263
20462YOPE   NH333740  12.724   9.250   6.629  0.1274 -0.0559 -0.5960
20462YOPE   PO433741  12.905   9.603   6.434  0.1486  0.1829  0.1079
20462YOPE   GL133742  12.888   9.700   6.865  0.2707 -0.2458 -0.2467
20462YOPE   GL233743  13.157   9.735   6.937 -0.2871  0.0118  0.3353
20462YOPE   C1A33744  12.569   9.814   7.135  0.0174  0.2386 -0.0982
20462YOPE   D2A33745  12.178   9.736   7.442 -0.0422  0.0889  0.1764
20462YOPE   C3A33746  12.130   9.369   7.686 -0.1012 -0.3933 -0.0639
20462YOPE   C4A33747  12.196   8.975   7.858  0.0205  0.0384  0.3318
20462YOPE   C1B33748  13.091   9.812   7.311 -0.0833  0.1097 -0.1417
20462YOPE   C2B33749  12.810   9.898   7.626  0.0447 -0.0503  0.1475
20462YOPE   D3B33750  12.461   9.724   7.857 -0.2279 -0.1269 -0.2542
20462YOPE   C4B33751  12.292   9.524   8.177  0.1761  0.5019  0.0177
20463YOPE   NH333752   3.593  11.098   5.930 -0.0367 -0.0452 -0.2095
20463YOPE   PO433753   3.304  11.065   6.187  0.1864  0.0258  0.4551
20463YOPE   GL133754   3.061  10.901   6.587  0.1230 -0.3522 -0.2279
20463YOPE   GL233755   2.809  10.764   6.679 -0.1295  0.0091  0.1145
20463YOPE   C1A33756   3.188  10.793   6.979  0.0566  0.1049  0.1022
20463YOPE   D2A33757   3.398  10.605   7.264  0.0470 -0.0914 -0.1462
20463YOPE   C3A33758   3.346  10.185   7.299  0.1889 -0.1321 -0.0664
20463YOPE   C4A33759   3.096   9.770   7.353  0.2090  0.3705 -0.1776
20463YOPE   C1B33760   2.545  10.746   6.992 -0.1376 -0.0759  0.0835
20463YOPE   C2B33761   2.538  10.755   7.397  0.0592 -0.0049 -0.1155
20463YOPE   D3B33762   2.556  10.934   7.829 -0.0916  0.0778  0.0379
20463YOPE   C4B33763   2.521  10.659   8.200 -0.0658 -0.1087  0.0421
20464YOPE   NH333764   7.221   7.365   6.531 -0.2535 -0.0253  0.0667
20464YOPE   PO433765   7.260   6.968   6.343  0.1462 -0.0163  0.2303
20464YOPE   GL133766   7.475   6.792   6.704 -0.0427 -0.1592 -0.0411
20464YOPE   GL233767   7.776   6.701   6.592  0.0607  0.2540 -0.1581
20464YOPE   C1A33768   7.640   6.660   7.069  0.5157 -0.0240 -0.2071
20464YOPE   D2A33769   7.876   6.297   7.236  0.1383  0.0359  0.0284
20464YOPE   C3A33770   8.186   6.378   7.583 -0.0627  0.2454 -0.3127
20464YOPE   C4A33771   8.091   6.622   7.930 -0.0141 -0.1537 -0.1271
20464YOPE   C1B33772   8.093   6.672   6.933 -0.3351 -0.2318 -0.0855
20464YOPE   C2B33773   8.139   6.870   7.407 -0.0974  0.3451  0.2047
20464YOPE   D3B33774   7.951   7.131   7.638  0.1020 -0.1124 -0.0416
20464YOPE   C4B33775   7.979   7.473   7.941 -0.0025 -0.0977  0.2307
20465YOPE   NH333776   2.435   0.104   6.598 -0.1231 -0.0219  0.0197
20465YOPE   PO433777   2.584   0.380   6.852 -0.0778 -0.1964 -0.1814
20465YOPE   GL133778   2.764   0.228   7.379  0.0255 -0.0624 -0.0413
20465YOPE   GL233779   3.089   0.443   7.433  0.0514  0.2017  0.1950
20465YOPE   C1A33780   2.722   0.055   7.729  0.2394 -0.0180  0.0970
20465YOPE   D2A33781   2.788  -0.175   8.132 -0.0491 -0.1242 -0.1232
20465YOPE   C3A33782   2.894  -0.033   8.457 -0.0002  0.0490 -0.1529
20465YOPE   C4A33783   2.916   0.115   8.829 -0.1731 -0.2327 -0.1800
20465YOPE   C1B33784   3.047   0.764   7.739 -0.0599 -0.4358 -0.1387
20465YOPE   C2B33785   3.301   0.570   8.076 -0.0067 -0.1339  0.0392
20465YOPE   D3B33786   3.220   0.182   8.008  0.0292 -0.0380 -0.0787
20465YOPE   C4B33787   3.250   0.017   7.609 -0.2081 -0.1944  0.1859
20466YOPE   NH333788   8.670   9.186   6.671 -0.2616  0.0098 -0.1438
20466YOPE   PO433789   8.202   8.958   6.406 -0.4110 -0.0896 -0.0081
20466YOPE   GL133790   8.245   8.871   6.787  0.1569  0.1755 -0.0328
20466YOPE   GL233791   8.319   8.589   6.932 -0.0719  0.3064  0.1876
20466YOPE   C1A33792   8.088   9.113   7.182 -0.1483  0.0940  0.0378
20466YOPE   D2A33793   7.798   9.083   7.538  0.3811 -0.0360  0.0225
20466YOPE   C3A33794   7.872   9.356   7.874 -0.0157  0.0608 -0.1907
20466YOPE   C4A33795   8.040   9.384   8.209 -0.1412  0.2213 -0.0267
20466YOPE   C1B33796   8.268   8.718   7.415 -0.1316  0.1113  0.1586
20466YOPE   C2B33797   8.254   8.583   7.747 -0.0664  0.1248 -0.2319
20466YOPE   D3B33798   7.993   8.810   8.021 -0.0835 -0.1309 -0.1145
20466YOPE   C4B33799   7.610   8.986   8.015  0.0203 -0.1286 -0.1322
20467YOPE   NH333800   0.978  10.934   6.326 -0.0183  0.0811  0.0397
20467YOPE   PO433801   0.783  10.506   6.410 -0.1707 -0.1508  0.0083
20467YOPE   GL133802   0.603  10.217   6.804 -0.1723 -0.1323  0.1640
20467YOPE   GL233803   0.422  10.149   7.120  0.0169 -0.1879  0.1013
20467YOPE   C1A33804   0.771   9.862   7.010  0.2175  0.0170 -0.1896
20467YOPE   D2A33805   0.785   9.426   7.041 -0.2383 -0.2803  0.1935
20467YOPE   C3A33806   1.020   9.140   7.030  0.0805 -0.0279  0.0298
20467YOPE   C4A33807   1.396   9.118   7.235 -0.0635 -0.3565  0.1717
20467YOPE   C1B33808   0.663  10.207   7.502  0.2516  0.0360 -0.1085
20467YOPE   C2B33809   0.761  10.132   7.931  0.1512  0.0269  0.1778
20467YOPE   D3B33810   0.700  10.200   8.344  0.0878 -0.2596  0.1389
20467YOPE   C4B33811   0.415  10.321   8.714 -0.0641  0.1683 -0.1348
20468YOPE   NH333812   8.566  14.566   7.059 -0.2709 -0.1135  0.1698
20468YOPE   PO433813   8.201  14.413   6.945  0.0162  0.1490  0.3418
20468YOPE   GL133814   7.926  14.169   7.187  0.3541 -0.0287  0.2203
20468YOPE   GL233815   7.838  13.769   7.150 -0.1079  0.0609  0.0767
20468YOPE   C1A33816   7.852  14.084   7.624 -0.0523 -0.1851  0.1746
20468YOPE   D2A33817   8.028  14.174   8.049  0.1946 -0.0301 -0.0075
20468YOPE   C3A33818   7.916  14.194   8.402  0.0514  0.3361 -0.2970
20468YOPE   C4A33819   8.057  14.084   8.802  0.0452 -0.1255 -0.2122
20468YOPE   C1B33820   7.704  13.634   7.535  0.1744  0.0325  0.2127
20468YOPE   C2B33821   7.743  13.755   8.001  0.0871  0.0726 -0.4970
20468YOPE   D3B33822   7.791  13.700   8.407  0.0568 -0.0025 -0.1212
20468YOPE   C4B33823   7.897  13.569   8.766 -0.0658 -0.3396 -0.2224
20469YOPE   NH333824  11.297  15.727   6.914 -0.0792 -0.2212  0.4017
20469YOPE   PO433825  11.217  15.416   6.722 -0.0563  0.2050  0.1587
20469YOPE   GL133826  11.330  15.239   7.103 -0.1994  0.1639  0.0764
20469YOPE   GL233827  11.450  14.969   7.266  0.3116  0.1436 -0.1561
20469YOPE   C1A33828  11.409  15.332   7.636  0.1113  0.0151 -0.5995
20469YOPE   D2A33829  11.314  15.346   8.030  0.0161 -0.1251 -0.2047
20469YOPE   C3A33830  11.709  15.324   8.270 -0.0691  0.0993  0.3048
20469YOPE   C4A33831  12.090  15.059   8.175  0.2125 -0.2758 -0.1824
20469YOPE   C1B33832  11.266  14.825   7.669 -0.1268 -0.2101  0.1393
20469YOPE   C2B33833  11.285  14.882   8.158  0.1976  0.1380  0.2243
20469YOPE   D3B33834  11.691  14.869   8.408  0.1192 -0.0307 -0.0279
20469YOPE   C4B33835  11.732  14.918   8.883  0.1955 -0.1728 -0.2440
20470YOPE   NH333836   5.089  11.705   6.753 -0.2508  0.3943  0.0542
20470YOPE   PO433837   5.048  12.158   6.969  0.1070  0.1826  0.1860
20470YOPE   GL133838   5.193  11.905   7.345 -0.0409 -0.2845  0.1776
20470YOPE   GL233839   5.049  11.647   7.299  0.0761 -0.2150  0.2161
20470YOPE   C1A33840   5.314  11.897   7.794 -0.0610  0.1876  0.0931
20470YOPE   D2A33841   5.332  11.661   8.104  0.0368 -0.0819  0.0596
20470YOPE   C3A33842   5.310  11.684   8.427 -0.2558  0.2102 -0.2193
20470YOPE   C4A33843   5.284  11.747   8.915 -0.1393 -0.2266 -0.2054
20470YOPE   C1B33844   5.018  11.493   7.742  0.2596  0.4331 -0.1123
20470YOPE   C2B33845   4.936  11.362   8.259  0.0590 -0.1116  0.3786
20470YOPE   D3B33846   4.944  11.336   8.752  0.1209  0.0740 -0.0716
20470YOPE   C4B33847   4.915  11.326   9.150  0.0086 -0.1778  0.1005
20471YOPE   NH333848  13.354  11.448   6.857 -0.2546 -0.0674  0.1197
20471YOPE   PO433849  13.748  11.655   6.729  0.3347  0.1670 -0.1306
20471YOPE   GL133850  13.790  11.756   7.129  0.4100 -0.0961 -0.0662
20471YOPE   GL233851  14.034  11.824   7.329 -0.1780  0.2598 -0.1716
20471YOPE   C1A33852  13.488  11.638   7.484  0.2059  0.3560  0.0337
20471YOPE   D2A33853  13.145  11.699   7.634 -0.1224 -0.0946 -0.1380
20471YOPE   C3A33854  12.839  11.639   8.012 -0.1309  0.3005 -0.0285
20471YOPE   C4A33855  13.117  11.426   8.153 -0.1638 -0.0280 -0.1561
20471YOPE   C1B33856  13.966  11.771   7.691  0.3783 -0.1978  0.0410
20471YOPE   C2B33857  14.035  11.743   8.159  0.4648  0.1692  0.0117
20471YOPE   D3B33858  14.195  11.518   8.530  0.4518  0.2252  0.2011
20471YOPE   C4B33859  13.849  11.648   8.747  0.0916  0.0235  0.0613
20472YOPE   NH333860  11.228  10.046   6.860  0.1024  0.0764 -0.1525
20472YOPE   PO433861  10.920   9.787   7.049  0.0163  0.1529  0.0597
20472YOPE   GL133862  10.711   9.886   7.409  0.0674 -0.0226 -0.1652
20472YOPE   GL233863  10.465  10.071   7.294 -0.2307 -0.1020 -0.2024
20472YOPE   C1A33864  10.763   9.764   7.721 -0.3540  0.3376 -0.0587
20472YOPE   D2A33865  10.752  10.056   8.102 -0.1387 -0.1288  0.1287
20472YOPE   C3A33866  10.867   9.913   8.483  0.2155 -0.3490  0.3353
20472YOPE   C4A33867  10.633  10.077   8.734 -0.2139  0.2379 -0.1624
20472YOPE   C1B33868  10.347  10.144   7.737  0.1505 -0.1156  0.2784
20472YOPE   C2B33869  10.229   9.929   8.114  0.0865  0.1211  0.1114
20472YOPE   D3B33870  10.307   9.813   8.461  0.1855 -0.0459  0.1121
20472YOPE   C4B33871  10.035   9.983   8.823  0.0563 -0.1039  0.0082
20473YOPE   NH333872   4.970  17.139   6.949 -0.1483 -0.4657 -0.1227
20473YOPE   PO433873   5.427  17.005   6.713  0.0234  0.0475  0.0624
20473YOPE   GL133874   5.454  17.014   7.119  0.0577  0.1119 -0.1070
20473YOPE   GL233875   5.134  16.947   7.378  0.1891 -0.1434 -0.0385
20473YOPE   C1A33876   5.458  17.318   7.392 -0.0601 -0.2987 -0.0237
20473YOPE   D2A33877   5.533  17.587   7.881  0.0809  0.3091  0.1121
20473YOPE   C3A33878   5.481  17.551   8.267  0.0573 -0.1233  0.1143
20473YOPE   C4A33879   5.641  17.263   8.538  0.1489 -0.2218  0.1795
20473YOPE   C1B33880   5.234  17.110   7.813 -0.0579 -0.1123 -0.2261
20473YOPE   C2B33881   5.191  16.927   8.158 -0.1559  0.0716 -0.1987
20473YOPE   D3B33882   5.531  16.680   8.377  0.4743 -0.0406 -0.0948
20473YOPE   C4B33883   5.878  16.806   8.668 -0.0302 -0.0392 -0.3071
20474YOPE   NH333884   7.167   8.061   6.580  0.0800 -0.0947  0.1933
20474YOPE   PO433885   6.683   8.186   6.514  0.0037  0.0477 -0.0642
20474YOPE   GL133886   6.670   7.841   6.799 -0.2719  0.1345 -0.1510
20474YOPE   GL233887   6.800   7.583   6.658  0.0063 -0.1044 -0.2909
20474YOPE   C1A33888   6.680   7.873   7.264 -0.1653 -0.1380  0.0200
20474YOPE   D2A33889   6.581   7.726   7.689 -0.0312  0.1168 -0.1909
20474YOPE   C3A33890   6.639   7.484   7.998  0.0688  0.0344  0.1379
20474YOPE   C4A33891   6.638   7.227   8.340  0.0411  0.0768  0.2048
20474YOPE   C1B33892   6.591   7.335   6.916  0.0944 -0.0161  0.0606
20474YOPE   C2B33893   6.547   6.958   7.172 -0.0386 -0.0040 -0.1771
20474YOPE   D3B33894   6.548   6.525   7.113 -0.0910 -0.1939 -0.3549
20474YOPE   C4B33895   6.728   6.123   7.034 -0.0608 -0.2116  0.3295
20475YOPE   NH333896   5.204   4.002   6.737 -0.0212  0.0397  0.2337
20475YOPE   PO433897   5.594   4.016   6.745 -0.2636 -0.0223  0.0071
20475YOPE   GL133898   5.459   3.839   7.162 -0.0841  0.1566  0.1825
20475YOPE   GL233899   5.653   4.032   7.278  0.0247  0.0392 -0.0533
20475YOPE   C1A33900   5.369   3.728   7.630  0.0323 -0.0967  0.0985
20475YOPE   D2A33901   5.406   3.782   8.101  0.2119 -0.5572 -0.1894
20475YOPE   C3A33902   5.393   3.992   8.436  0.0182  0.0033  0.3402
20475YOPE   C4A33903   5.728   4.270   8.680  0.1769 -0.0399  0.2293
20475YOPE   C1B33904   5.590   4.148   7.735  0.0005 -0.0820 -0.2526
20475YOPE   C2B33905   5.611   4.364   8.156  0.1071  0.0694 -0.1960
20475YOPE   D3B33906   5.357   4.494   8.450 -0.0721  0.0565 -0.1025
20475YOPE   C4B33907   5.287   4.404   8.857  0.1479 -0.3862  0.6046
20476YOPE   NH333908   6.691  13.530   6.704  0.1511 -0.0889  0.0297
20476YOPE   PO433909   7.115  13.482   6.570 -0.3444 -0.4351 -0.1768
20476YOPE   GL133910   7.120  13.562   7.018 -0.1803 -0.0308 -0.1818
20476YOPE   GL233911   6.857  13.322   7.152 -0.2548  0.0778 -0.2724
20476YOPE   C1A33912   7.194  13.671   7.451 -0.0316 -0.1546 -0.2113
20476YOPE   D2A33913   7.200  13.815   7.973 -0.1254  0.0662 -0.2804
20476YOPE   C3A33914   6.980  13.758   8.344 -0.0605 -0.1623  0.2249
20476YOPE   C4A33915   6.603  13.834   8.738  0.0881  0.0919  0.1188
20476YOPE   C1B33916   6.836  13.313   7.614  0.0663  0.0673  0.0312
20476YOPE   C2B33917   6.806  13.349   8.022 -0.0610  0.1467 -0.0685
20476YOPE   D3B33918   6.732  13.317   8.492  0.1038 -0.0856  0.0086
20476YOPE   C4B33919   6.447  13.361   8.842 -0.2219 -0.0093 -0.0158
20477YOPE   NH333920  15.763   5.969   6.589 -0.1558  0.0119  0.1244
20477YOPE   PO433921  15.894   6.381   6.625  0.1325 -0.2006  0.0443
20477YOPE   GL133922  15.954   6.111   6.992 -0.1224 -0.0813 -0.0539
20477YOPE   GL233923  15.834   6.246   7.207  0.2132 -0.0798  0.1212
20477YOPE   C1A33924  16.176   5.954   7.359  0.1132  0.1046  0.1429
20477YOPE   D2A33925  16.366   5.899   7.756 -0.1520 -0.3192  0.2260
20477YOPE   C3A33926  16.149   5.900   8.134  0.3154  0.1522 -0.1291
20477YOPE   C4A33927  16.064   6.080   8.584 -0.0627 -0.1082  0.1708
20477YOPE   C1B33928  15.805   6.187   7.646 -0.0027 -0.0343  0.0446
20477YOPE   C2B33929  15.944   6.304   8.013 -0.0170  0.2694 -0.0717
20477YOPE   D3B33930  16.278   6.505   8.354  0.1687 -0.2219 -0.0046
20477YOPE   C4B33931  16.580   6.245   8.633  0.2108  0.1105  0.0522
20478POPC   NC333932  10.546  13.760   6.998 -0.0746  0.0983 -0.2407
20478POPC   PO433933  10.554  14.133   6.707 -0.0467  0.0008  0.0178
20478POPC   GL133934  10.732  14.287   7.075  0.0262  0.5260 -0.0363
20478POPC   GL233935  10.534  14.158   7.237  0.0824 -0.1352 -0.3000
20478POPC   C1A33936  10.890  14.569   7.437 -0.0339 -0.0251 -0.1579
20478POPC   D2A33937  10.935  14.530   7.930  0.1324  0.0488 -0.0218
20478POPC   C3A33938  11.074  14.382   8.199  0.0789  0.3252  0.0129
20478POPC   C4A33939  11.078  14.327   8.593 -0.0041 -0.0610  0.0882
20478POPC   C1B33940  10.468  14.192   7.684 -0.3598  0.0175 -0.2552
20478POPC   C2B33941  10.487  14.245   8.112  0.1346  0.1641 -0.2234
20478POPC   C3B33942  10.381  14.232   8.514 -0.2362  0.2392 -0.1701
20478POPC   C4B33943  10.361  14.047   8.885 -0.1834 -0.0732  0.1587
20479POPC   NC333944   3.497  13.886   6.139  0.1094  0.3830  0.0196
20479POPC   PO433945   3.421  13.820   6.590  0.1878 -0.1699  0.0546
20479POPC   GL133946   3.450  13.646   6.960 -0.1627 -0.0663 -0.1154
20479POPC   GL233947   3.727  13.518   7.111 -0.1297 -0.0459 -0.2208
20479POPC   C1A33948   3.225  13.574   7.338  0.0080  0.1083 -0.0044
20479POPC   D2A33949   3.382  13.527   7.772 -0.1705  0.2760 -0.2632
20479POPC   C3A33950   3.520  13.261   8.163 -0.0172 -0.2743  0.1732
20479POPC   C4A33951   3.431  13.086   8.586  0.2847  0.0740 -0.1158
20479POPC   C1B33952   3.617  13.213   7.485  0.0715 -0.1290  0.0133
20479POPC   C2B33953   3.541  12.913   7.795  0.1260 -0.4960 -0.1461
20479POPC   C3B33954   3.465  12.703   8.239  0.0870  0.0831 -0.1280
20479POPC   C4B33955   3.473  12.363   8.515 -0.1842  0.0865  0.0792
20480POPC   NC333956   0.179   4.743   6.543  0.0691 -0.1099 -0.4254
20480POPC   PO433957   0.361   4.293   6.837  0.1898 -0.2362  0.4330
20480POPC   GL133958   0.429   4.552   7.150 -0.0889  0.2000 -0.1005
20480POPC   GL233959   0.728   4.644   6.947  0.0942 -0.0681 -0.3477
20480POPC   C1A33960   0.249   4.945   7.534  0.2591 -0.0892  0.0622
20480POPC   D2A33961   0.069   5.040   7.996 -0.4512 -0.1108 -0.4124
20480POPC   C3A33962  -0.283   5.222   8.244 -0.0984  0.3864  0.0208
20480POPC   C4A33963  -0.417   5.229   8.650  0.2581 -0.3033 -0.2889
20480POPC   C1B33964   0.913   4.492   7.341  0.0627  0.0525  0.1469
20480POPC   C2B33965   1.029   4.395   7.724 -0.0973 -0.0535 -0.0821
20480POPC   C3B33966   0.926   4.536   8.151  0.0835  0.1505 -0.1517
20480POPC   C4B33967   1.221   4.730   8.444  0.1710 -0.0616 -0.0703
20481POPC   NC333968  10.195   3.441   6.078  0.2620 -0.1575  0.2668
20481POPC   PO433969  10.473   3.560   6.369 -0.0051  0.3568 -0.0828
20481POPC   GL133970  10.339   3.571   6.761 -0.0775 -0.1440  0.0735
20481POPC   GL233971  10.259   3.889   6.841  0.0646  0.0664  0.0503
20481POPC   C1A33972  10.318   3.258   7.147  0.2392  0.0182 -0.0547
20481POPC   D2A33973  10.412   3.459   7.584  0.2346  0.0199  0.4733
20481POPC   C3A33974  10.185   3.212   7.980  0.1180 -0.0153 -0.1022
20481POPC   C4A33975  10.094   3.080   8.384 -0.3112 -0.1387  0.1574
20481POPC   C1B33976  10.387   3.850   7.214 -0.3050 -0.1029  0.2054
20481POPC   C2B33977  10.328   3.996   7.557 -0.0918 -0.2921 -0.1500
20481POPC   C3B33978  10.413   3.837   7.906 -0.0409 -0.1030  0.0683
20481POPC   C4B33979  10.578   3.970   8.307 -0.2485  0.0087 -0.0840
20482POPC   NC333980   9.081   2.997   6.332 -0.0083 -0.0977 -0.2254
20482POPC   PO433981   8.718   3.145   6.190 -0.1382  0.0219  0.0163
20482POPC   GL133982   8.901   3.432   6.486  0.0448  0.1117  0.1347
20482POPC   GL233983   8.672   3.410   6.690 -0.2782 -0.0911  0.0435
20482POPC   C1A33984   9.125   3.557   6.914 -0.1059  0.0637  0.0930
20482POPC   D2A33985   9.394   3.467   7.319  0.3268  0.2452  0.2258
20482POPC   C3A33986   9.376   3.669   7.833 -0.2918  0.1858 -0.0670
20482POPC   C4A33987   9.293   3.612   8.224 -0.1583 -0.1120 -0.0472
20482POPC   C1B33988   8.610   3.733   7.033  0.0391 -0.0236  0.1770
20482POPC   C2B33989   8.737   4.213   7.164  0.1988  0.1690 -0.0690
20482POPC   C3B33990   8.858   4.256   7.649 -0.0595 -0.3997  0.1004
20482POPC   C4B33991   9.292   4.191   7.792  0.2340 -0.1299 -0.2381
20483POPC   NC333992  16.334   2.016   6.643 -0.3515 -0.0393 -0.2171
20483POPC   PO433993  16.567   2.078   6.373  0.0419  0.1357 -0.0455
20483POPC   GL133994  16.836   2.063   6.878 -0.1619  0.1989 -0.1064
20483POPC   GL233995  16.920   2.409   6.903 -0.0294  0.1830  0.3335
20483POPC   C1A33996  16.873   1.890   7.293  0.4138 -0.1383 -0.0562
20483POPC   D2A33997  16.667   1.649   7.682  0.2109 -0.1455  0.0931
20483POPC   C3A33998  16.597   1.246   7.732 -0.0224 -0.1693  0.1664
20483POPC   C4A33999  16.656   0.861   7.919  0.1052 -0.1885 -0.4211
20483POPC   C1B34000  16.674   2.389   7.282  0.2815 -0.2520  0.1359
20483POPC   C2B34001  16.677   2.183   7.654  0.0910 -0.2396 -0.0607
20483POPC   C3B34002  16.566   2.030   8.032 -0.1356  0.1894 -0.0378
20483POPC   C4B34003  16.281   1.986   8.394 -0.1974 -0.0011 -0.2401
20484POPC   NC334004  15.929   1.315   6.222 -0.1136  0.2723  0.1027
20484POPC   PO434005  15.874   1.609   6.567  0.0763  0.0464 -0.2795
20484POPC   GL134006  15.990   1.618   7.035 -0.1632 -0.0454  0.1247
20484POPC   GL234007  15.740   1.492   7.302 -0.0603  0.1062  0.0461
20484POPC   C1A34008  16.178   1.462   7.587 -0.0013 -0.3826 -0.2641
20484POPC   D2A34009  16.256   1.595   8.015 -0.1037  0.0593  0.5204
20484POPC   C3A34010  16.622   1.473   8.184 -0.2073 -0.3155  0.0520
20484POPC   C4A34011  16.823   1.135   8.308  0.1208  0.2603 -0.0090
20484POPC   C1B34012  15.709   1.299   7.805  0.0097 -0.2441 -0.0845
20484POPC   C2B34013  15.791   1.402   8.216 -0.0980 -0.1756  0.0277
20484POPC   C3B34014  16.066   1.564   8.582  0.2797  0.1850 -0.2646
20484POPC   C4B34015  16.443   1.493   8.690  0.2074  0.0092 -0.0851
20485POPC   NC334016  16.019  11.652   6.562  0.1247  0.0645  0.2648
20485POPC   PO434017  15.692  11.467   6.809  0.0227 -0.0047 -0.1835
20485POPC   GL134018  15.516  11.400   7.236  0.0931 -0.2959  0.2259
20485POPC   GL234019  15.478  11.158   7.425 -0.3224  0.0518  0.1592
20485POPC   C1A34020  15.288  11.492   7.746  0.1267 -0.0923  0.0202
20485POPC   D2A34021  15.330  11.501   8.172  0.0561  0.1732 -0.0155
20485POPC   C3A34022  15.506  11.271   8.513  0.1024  0.1650  0.0326
20485POPC   C4A34023  15.411  11.106   8.886 -0.0780 -0.2288  0.0667
20485POPC   C1B34024  15.571  11.135   7.767 -0.1941  0.2468 -0.1040
20485POPC   C2B34025  15.678  10.978   8.140  0.0832 -0.1361 -0.0089
20485POPC   C3B34026  15.623  10.709   8.540 -0.2585  0.0665 -0.1313
20485POPC   C4B34027  15.778  10.750   8.849  0.2180  0.0336  0.2164
20486POPC   NC334028  15.580  17.498   6.326 -0.0243  0.2350 -0.1469
20486POPC   PO434029  16.001  17.682   6.272  0.0766 -0.2702  0.0063
20486POPC   GL134030  16.195  17.766   6.702  0.2071  0.2230  0.0095
20486POPC   GL234031  16.478  17.763   6.904 -0.0286  0.0303  0.0053
20486POPC   C1A34032  16.235  18.175   6.932 -0.2333 -0.1564 -0.3148
20486POPC   D2A34033  16.070  18.580   7.068 -0.0916 -0.1409 -0.1564
20486POPC   C3A34034  16.351  18.877   7.162  0.0646  0.0946  0.0737
20486POPC   C4A34035  16.519  19.199   7.211 -0.3000  0.0722  0.4834
20486POPC   C1B34036  16.478  17.955   7.374 -0.1189  0.3306  0.1811
20486POPC   C2B34037  16.354  17.948   7.786 -0.0288 -0.1472  0.0012
20486POPC   C3B34038  16.421  17.884   8.154  0.1574 -0.0453  0.3763
20486POPC   C4B34039  16.609  17.944   8.553  0.0962  0.1048 -0.3493
20487POPC   NC334040   3.660   3.501   6.495  0.0769 -0.2704  0.0649
20487POPC   PO434041   3.630   3.170   6.870  0.0618 -0.0689  0.0810
20487POPC   GL134042   3.604   2.923   7.236 -0.0065  0.1187 -0.2255
20487POPC   GL234043   3.898   3.010   7.329 -0.1512  0.1292 -0.1522
20487POPC   C1A34044   3.746   2.918   7.789 -0.0042  0.2981  0.0780
20487POPC   D2A34045   3.735   3.189   8.150  0.1044  0.2522 -0.0059
20487POPC   C3A34046   3.953   3.218   8.306  0.3586  0.1512  0.3017
20487POPC   C4A34047   4.393   3.081   8.373  0.0241 -0.1857 -0.1557
20487POPC   C1B34048   4.199   3.458   7.339 -0.1863  0.1547 -0.3210
20487POPC   C2B34049   4.426   3.600   7.683  0.0629 -0.1757  0.1695
20487POPC   C3B34050   4.496   3.502   8.077  0.1781  0.1128 -0.2343
20487POPC   C4B34051   4.282   3.556   8.461 -0.1979 -0.0605  0.3099
20488POPC   NC334052   2.091   0.376   6.302 -0.1267 -0.1447 -0.1008
20488POPC   PO434053   1.872   0.063   6.540 -0.1126 -0.1547 -0.1650
20488POPC   GL134054   2.097  -0.187   6.822  0.1628  0.0303  0.1555
20488POPC   GL234055   2.274   0.059   7.065  0.3741  0.2763  0.3683
20488POPC   C1A34056   2.358  -0.435   7.233 -0.0967 -0.0866 -0.0324
20488POPC   D2A34057   2.535  -0.358   7.556 -0.0400 -0.0982  0.1014
20488POPC   C3A34058   2.281  -0.279   7.786 -0.2819  0.0053 -0.2332
20488POPC   C4A34059   1.857  -0.039   7.806 -0.1311 -0.2618 -0.0746
20488POPC   C1B34060   2.212   0.142   7.475  0.3218  0.0772 -0.1436
20488POPC   C2B34061   2.294   0.214   7.973  0.2316 -0.0099  0.0494
20488POPC   C3B34062   2.395  -0.006   8.448 -0.2679 -0.4053  0.0517
20488POPC   C4B34063   2.520  -0.112   8.839  0.2451 -0.2450  0.0395
20489POPC   NC334064  13.361   9.685   6.526 -0.0672  0.1531  0.0607
20489POPC   PO434065  13.333   9.258   6.529  0.3374  0.4034  0.1229
20489POPC   GL134066  13.087   9.121   6.925  0.3889  0.1236  0.1138
20489POPC   GL234067  13.041   8.821   7.011 -0.0452 -0.0918 -0.0431
20489POPC   C1A34068  13.036   9.278   7.301  0.2818 -0.0795 -0.0617
20489POPC   D2A34069  13.079   9.220   7.721 -0.0604 -0.0848 -0.0662
20489POPC   C3A34070  13.114   9.519   7.957  0.3779  0.0888  0.2304
20489POPC   C4A34071  12.877   9.683   8.237  0.1495  0.3450 -0.1236
20489POPC   C1B34072  13.057   8.657   7.468  0.1848 -0.0418 -0.1727
20489POPC   C2B34073  13.097   8.613   7.810  0.1923 -0.4037 -0.0304
20489POPC   C3B34074  12.974   8.872   8.136 -0.2099  0.0576 -0.0985
20489POPC   C4B34075  12.900   9.139   8.376 -0.0552 -0.0695 -0.1103
20490POPC   NC334076  16.675  11.455   6.815 -0.0458 -0.1787 -0.0182
20490POPC   PO434077  16.260  11.450   7.023  0.3705 -0.1280  0.2459
20490POPC   GL134078  16.408  11.621   7.407 -0.2953  0.4014  0.0288
20490POPC   GL234079  16.270  11.956   7.532  0.5674 -0.3099  0.0407
20490POPC   C1A34080  16.330  11.408   7.705 -0.0992  0.0866  0.0901
20490POPC   D2A34081  16.105  11.017   7.833 -0.1186 -0.2821 -0.2277
20490POPC   C3A34082  16.080  10.768   8.250  0.1068 -0.0716  0.1699
20490POPC   C4A34083  16.264  10.636   8.651 -0.0565  0.2651  0.0500
20490POPC   C1B34084  16.445  11.871   7.964  0.0037 -0.0233  0.1510
20490POPC   C2B34085  16.507  11.671   8.318  0.1705 -0.0810 -0.0670
20490POPC   C3B34086  16.247  11.683   8.737 -0.1241  0.0493 -0.0868
20490POPC   C4B34087  16.054  11.634   9.138  0.1176 -0.1728  0.0330
20491POPC   NC334088  12.090  17.230   6.697  0.2901  0.0745  0.0010
20491POPC   PO434089  11.844  16.921   6.884  0.0508 -0.0379 -0.1068
20491POPC   GL134090  12.026  16.867   7.230 -0.1246  0.2830  0.1677
20491POPC   GL234091  11.890  17.004   7.423 -0.2877 -0.0011 -0.1571
20491POPC   C1A34092  12.430  16.845   7.512 -0.0828  0.0236  0.2093
20491POPC   D2A34093  12.801  17.056   7.774 -0.0920 -0.1389  0.0859
20491POPC   C3A34094  12.945  16.942   8.187 -0.1334  0.1421 -0.1963
20491POPC   C4A34095  13.196  16.925   8.568  0.0195  0.1784  0.2376
20491POPC   C1B34096  11.851  16.993   7.816 -0.2149  0.0003  0.2884
20491POPC   C2B34097  11.871  16.808   8.175  0.0013  0.0709 -0.1030
20491POPC   C3B34098  11.874  16.823   8.554  0.1584  0.3912  0.0652
20491POPC   C4B34099  12.100  17.002   8.842  0.0364  0.0217 -0.1344
20492POPC   NC334100  12.964  13.315   6.908 -0.0247  0.0803  0.1483
20492POPC   PO434101  12.529  13.575   7.023  0.1886 -0.2770  0.1282
20492POPC   GL134102  12.523  13.618   7.503 -0.3117 -0.2183  0.0831
20492POPC   GL234103  12.505  13.940   7.586 -0.0115  0.2283  0.0902
20492POPC   C1A34104  12.572  13.625   8.004 -0.3781 -0.0906 -0.2033
20492POPC   D2A34105  12.701  13.762   8.432 -0.0700  0.1334  0.2280
20492POPC   C3A34106  13.043  13.495   8.698  0.2772  0.1058 -0.1479
20492POPC   C4A34107  13.177  13.655   8.984 -0.1363  0.3489  0.0139
20492POPC   C1B34108  12.441  14.218   8.039 -0.1226  0.0344 -0.2665
20492POPC   C2B34109  12.504  14.280   8.440 -0.4163  0.0282 -0.1995
20492POPC   C3B34110  12.515  14.511   8.758 -0.0948 -0.1031  0.2371
20492POPC   C4B34111  12.466  14.416   9.205 -0.0166  0.0457 -0.1206
20493YOPC   NC334112  11.893   9.591   6.511  0.1480 -0.2313 -0.1266
20493YOPC   PO434113  11.458   9.571   6.644 -0.2306 -0.1695 -0.1050
20493YOPC   GL134114  11.409   9.581   7.172  0.1370  0.3674  0.2579
20493YOPC   GL234115  11.630   9.492   7.391 -0.0464  0.1581  0.3404
20493YOPC   C1A34116  11.272   9.944   7.514 -0.0843  0.1025  0.1211
20493YOPC   D2A34117  11.379  10.344   7.749 -0.2160 -0.2345 -0.2099
20493YOPC   C3A34118  11.647  10.368   8.118 -0.2904  0.0969 -0.0163
20493YOPC   C4A34119  11.654  10.428   8.506  0.4846  0.2857  0.0189
20493YOPC   C1B34120  11.660   9.709   7.679 -0.1568  0.2279  0.0957
20493YOPC   C2B34121  11.399   9.916   8.004 -0.1850  0.0451 -0.2311
20493YOPC   D3B34122  11.359   9.809   8.450 -0.0431 -0.1043 -0.0305
20493YOPC   C4B34123  11.468  10.027   8.866 -0.2558  0.2044 -0.2098
20494YOPC   NC334124  15.222   9.257   6.440 -0.2686  0.1255 -0.0419
20494YOPC   PO434125  15.420   8.987   6.738  0.0847  0.2153  0.0633
20494YOPC   GL134126  15.585   8.821   7.207  0.1119 -0.1652  0.1927
20494YOPC   GL234127  15.723   8.488   7.072  0.2377 -0.0099 -0.0997
20494YOPC   C1A34128  15.577   8.660   7.709 -0.0521  0.1768  0.2573
20494YOPC   D2A34129  15.719   8.605   7.977 -0.1051  0.1632  0.2067
20494YOPC   C3A34130  15.544   8.576   8.347 -0.1337 -0.0783 -0.0434
20494YOPC   C4A34131  15.178   8.524   8.596  0.0860 -0.1236 -0.2479
20494YOPC   C1B34132  15.818   8.272   7.523 -0.2354 -0.0581 -0.1196
20494YOPC   C2B34133  15.804   8.059   7.891  0.1892  0.0973 -0.2267
20494YOPC   D3B34134  15.850   8.151   8.281 -0.0731  0.1926  0.1357
20494YOPC   C4B34135  15.737   8.253   8.703 -0.2229  0.2174  0.0809
20495YOPC   NC334136  16.555   9.929   6.492 -0.1262 -0.0598 -0.1227
20495YOPC   PO434137  16.802   9.996   6.780  0.0836 -0.2347 -0.0720
20495YOPC   GL134138  17.101   9.905   7.173  0.0786 -0.2341  0.3143
20495YOPC   GL234139  17.308  10.083   7.355  0.2792 -0.1181  0.4993
20495YOPC   C1A34140  17.093   9.733   7.634 -0.1650  0.0520 -0.0979
20495YOPC   D2A34141  17.340   9.713   7.984 -0.2337  0.2228  0.1399
20495YOPC   C3A34142  17.439   9.445   8.202 -0.2304 -0.1737 -0.0993
20495YOPC   C4A34143  17.458   9.024   7.988 -0.1137 -0.1079  0.0172
20495YOPC   C1B34144  17.393  10.214   7.783  0.0267 -0.1109  0.2878
20495YOPC   C2B34145  17.422  10.165   8.227 -0.1879 -0.1666  0.0813
20495YOPC   D3B34146  17.346   9.895   8.484  0.2035 -0.0513 -0.1753
20495YOPC   C4B34147  17.360   9.490   8.701  0.0806  0.0704  0.1877
20496YOPC   NC334148  11.896  10.532   6.512  0.0249 -0.1501  0.0057
20496YOPC   PO434149  11.810  11.030   6.479  0.0835  0.0943 -0.1361
20496YOPC   GL134150  11.934  11.193   6.899  0.0213 -0.2244 -0.2030
20496YOPC   GL234151  11.637  11.225   7.062  0.1158 -0.3009 -0.1957
20496YOPC   C1A34152  12.079  10.868   7.303 -0.0102  0.0572 -0.0148
20496YOPC   D2A34153  12.410  10.692   7.533 -0.3552  0.1292  0.1397
20496YOPC   C3A34154  12.648  10.430   7.349  0.3952 -0.0737  0.2595
20496YOPC   C4A34155  12.991  10.267   7.154 -0.2998 -0.1523  0.0060
20496YOPC   C1B34156  11.547  11.200   7.500 -0.0860 -0.0121 -0.0373
20496YOPC   C2B34157  11.507  11.289   7.965 -0.1549  0.0848 -0.0950
20496YOPC   D3B34158  11.482  11.330   8.413 -0.2148  0.1486 -0.2460
20496YOPC   C4B34159  11.395  11.461   8.813  0.5443  0.0741  0.1904
20497YOPC   NC334160   0.070   6.490   6.511 -0.3475  0.5462  0.1934
20497YOPC   PO434161  -0.091   6.735   6.862 -0.1763  0.0586 -0.0868
20497YOPC   GL134162  -0.164   6.597   7.227  0.0606  0.2584 -0.0001
20497YOPC   GL234163  -0.401   6.435   7.168  0.2135  0.1613 -0.2197
20497YOPC   C1A34164  -0.229   6.497   7.685  0.2132 -0.2896 -0.0608
20497YOPC   D2A34165  -0.242   6.398   8.091  0.1459  0.2135 -0.0333
20497YOPC   C3A34166   0.178   6.230   8.195  0.3632 -0.0962  0.0018
20497YOPC   C4A34167   0.347   6.326   8.602  0.1579  0.2256 -0.2092
20497YOPC   C1B34168  -0.464   6.115   7.533  0.0585  0.1287  0.1683
20497YOPC   C2B34169  -0.647   6.142   7.839 -0.2619 -0.0958  0.0147
20497YOPC   D3B34170  -0.510   5.942   8.172 -0.2092  0.0589 -0.1092
20497YOPC   C4B34171  -0.255   6.001   8.535  0.1356 -0.2429 -0.3162
20498YOPC   NC334172   9.358  13.472   7.245 -0.0272  0.0224  0.0568
20498YOPC   PO434173   9.053  13.778   7.162 -0.2119  0.1389  0.1723
20498YOPC   GL134174   9.206  13.942   7.528 -0.0584 -0.1441  0.3531
20498YOPC   GL234175   9.129  14.210   7.517  0.0256 -0.0785  0.0364
20498YOPC   C1A34176   9.503  14.080   7.805 -0.1717 -0.0281 -0.0667
20498YOPC   D2A34177   9.395  14.152   8.311 -0.2205 -0.1476  0.2739
20498YOPC   C3A34178   9.272  13.830   8.498  0.2158  0.1440  0.2094
20498YOPC   C4A34179   9.371  13.611   8.807 -0.2136 -0.0748 -0.1304
20498YOPC   C1B34180   9.081  14.122   7.968 -0.1606 -0.1499  0.3247
20498YOPC   C2B34181   8.877  14.248   8.395 -0.0431 -0.3444  0.3053
20498YOPC   D3B34182   9.030  14.175   8.745  0.3548  0.0924 -0.1326
20498YOPC   C4B34183   9.002  13.901   9.029 -0.1923 -0.2623 -0.0566
20499YOPC   NC334184   0.636   8.850   6.218  0.2112  0.1660  0.0007
20499YOPC   PO434185   0.898   8.644   6.486 -0.3424 -0.2129  0.1136
20499YOPC   GL134186   0.810   8.687   6.878  0.0540  0.0534  0.1954
20499YOPC   GL234187   0.569   8.410   6.834 -0.2257  0.0662  0.2935
20499YOPC   C1A34188   0.582   8.919   7.160  0.1589 -0.0145 -0.2215
20499YOPC   D2A34189   0.743   9.239   7.494  0.2213  0.0211  0.1372
20499YOPC   C3A34190   0.716   9.176   7.913  0.1168  0.2024  0.0947
20499YOPC   C4A34191   0.968   9.183   8.225  0.0555 -0.0348  0.0605
20499YOPC   C1B34192   0.541   8.323   7.345 -0.2852 -0.0441  0.0891
20499YOPC   C2B34193   0.397   7.971   7.658  0.0059 -0.2978  0.0213
20499YOPC   D3B34194   0.432   7.743   7.876 -0.0965 -0.3250 -0.2273
20499YOPC   C4B34195   0.247   7.706   8.299 -0.0043  0.2193 -0.1614
20500YOPC   NC334196  12.219  16.830   6.471 -0.1065  0.1512 -0.1216
20500YOPC   PO434197  12.195  16.539   6.839  0.0473 -0.0819  0.0564
20500YOPC   GL134198  12.328  16.417   7.257 -0.0163  0.3310  0.1228
20500YOPC   GL234199  12.017  16.373   7.389 -0.0126  0.1665 -0.0222
20500YOPC   C1A34200  12.532  16.283   7.671 -0.0148  0.1528  0.0872
20500YOPC   D2A34201  12.639  16.615   7.998  0.0091  0.0269  0.0459
20500YOPC   C3A34202  12.793  16.569   8.461 -0.0449  0.2733  0.1556
20500YOPC   C4A34203  13.109  16.456   8.706 -0.2664  0.2034  0.0512
20500YOPC   C1B34204  12.095  16.021   7.476  0.0672  0.2492 -0.1143
20500YOPC   C2B34205  12.089  16.015   7.934 -0.2745  0.1945 -0.3673
20500YOPC   D3B34206  12.351  16.279   8.154  0.3017  0.0711  0.1446
20500YOPC   C4B34207  12.299  16.615   8.339 -0.0734  0.2762  0.1404
20501YOPC   NC334208   1.407  17.611   6.403  0.0587  0.0004  0.1267
20501YOPC   PO434209   0.913  17.510   6.654 -0.0609  0.3419  0.2050
20501YOPC   GL134210   1.208  17.429   6.988 -0.1938 -0.0815 -0.0366
20501YOPC   GL234211   1.567  17.552   6.928 -0.1842 -0.1942 -0.0478
20501YOPC   C1A34212   1.369  17.444   7.495 -0.0525 -0.0179 -0.2232
20501YOPC   D2A34213   1.428  17.481   8.004 -0.1325 -0.0251 -0.1677
20501YOPC   C3A34214   1.603  17.873   8.192  0.1922  0.1415  0.4393
20501YOPC   C4A34215   1.528  18.059   8.545  0.1756 -0.0261 -0.0722
20501YOPC   C1B34216   1.783  17.715   7.282  0.3664 -0.1815 -0.0074
20501YOPC   C2B34217   1.961  18.183   7.296  0.0571 -0.0572 -0.0096
20501YOPC   D3B34218   1.566  18.421   7.264 -0.3769  0.1094  0.4907
20501YOPC   C4B34219   1.125  18.413   7.021 -0.0637 -0.0383 -0.2677
20502YOPC   NC334220  13.665   0.188   6.460  0.1387 -0.5054 -0.1561
20502YOPC   PO434221  13.563  -0.233   6.636  0.3104  0.0093  0.4211
20502YOPC   GL134222  13.227  -0.229   6.991  0.2120  0.1225 -0.0692
20502YOPC   GL234223  13.248  -0.514   7.153  0.3460 -0.2066 -0.1284
20502YOPC   C1A34224  13.256  -0.003   7.316  0.1262  0.0502  0.2036
20502YOPC   D2A34225  13.324   0.171   7.784 -0.0149  0.3129 -0.3883
20502YOPC   C3A34226  13.033   0.190   8.056  0.2131  0.0659 -0.1035
20502YOPC   C4A34227  12.722   0.150   8.400  0.1787 -0.0821  0.3204
20502YOPC   C1B34228  13.291  -0.560   7.545  0.0027 -0.0503  0.2617
20502YOPC   C2B34229  13.207  -0.393   7.909 -0.0512  0.0100 -0.2740
20502YOPC   D3B34230  13.094  -0.266   8.308 -0.2808  0.1957 -0.0510
20502YOPC   C4B34231  12.870  -0.378   8.615  0.0388 -0.1584  0.3933
20503YOPC   NC334232  11.559   4.231   6.536 -0.1140 -0.2804  0.0466
20503YOPC   PO434233  11.877   3.863   6.444 -0.1222  0.0678  0.0119
20503YOPC   GL134234  11.801   3.941   6.877 -0.1185 -0.1146  0.3265
20503YOPC   GL234235  11.439   3.891   6.983  0.1556 -0.3430 -0.1100
20503YOPC   C1A34236  11.975   4.005   7.200 -0.0209  0.0700  0.1933
20503YOPC   D2A34237  12.249   4.304   7.372 -0.1872 -0.1063  0.0902
20503YOPC   C3A34238  12.539   4.016   7.648 -0.2737 -0.1195 -0.0676
20503YOPC   C4A34239  12.532   3.812   8.198  0.0346 -0.0478  0.2088
20503YOPC   C1B34240  11.471   3.885   7.383 -0.1233 -0.0593 -0.1566
20503YOPC   C2B34241  11.504   3.764   7.842 -0.2189  0.6459 -0.1332
20503YOPC   D3B34242  11.550   4.051   8.348  0.2878  0.2645  0.0394
20503YOPC   C4B34243  11.790   4.326   8.695 -0.1104  0.0733  0.0232
20504YOPC   NC334244  17.261  13.647   6.978  0.3031  0.0614  0.4119
20504YOPC   PO434245  17.171  14.069   7.014  0.1454 -0.0723  0.0040
20504YOPC   GL134246  17.185  14.137   7.468  0.0286  0.2313 -0.2230
20504YOPC   GL234247  17.140  14.453   7.383  0.0453  0.3044  0.4820
20504YOPC   C1A34248  17.365  14.070   7.747 -0.1627  0.2461  0.2055
20504YOPC   D2A34249  17.439  14.139   8.172 -0.1018 -0.0578  0.0073
20504YOPC   C3A34250  17.820  14.266   8.297  0.2566 -0.0384  0.1546
20504YOPC   C4A34251  18.347  14.264   8.467 -0.2268 -0.0472  0.0527
20504YOPC   C1B34252  17.153  14.433   7.845 -0.0679 -0.0159 -0.0261
20504YOPC   C2B34253  17.108  14.502   8.274  0.0182 -0.3323  0.1490
20504YOPC   D3B34254  17.420  14.303   8.686 -0.1696  0.1726  0.0106
20504YOPC   C4B34255  17.580  13.980   9.054  0.1413  0.2634 -0.2424
20505YOPC   NC334256   1.702   3.285   6.217 -0.1615 -0.0660 -0.0316
20505YOPC   PO434257   1.931   3.487   6.583  0.0007  0.2641  0.1472
20505YOPC   GL134258   2.028   3.516   7.080  0.0754 -0.1738  0.1264
20505YOPC   GL234259   2.400   3.438   7.089 -0.2654 -0.1877 -0.1063
20505YOPC   C1A34260   2.338   3.837   7.315 -0.0666  0.1986  0.0319
20505YOPC   D2A34261   2.377   4.024   7.696  0.0325 -0.0542  0.0570
20505YOPC   C3A34262   2.757   4.071   7.844 -0.1045  0.0001  0.0216
20505YOPC   C4A34263   2.873   4.176   8.260  0.1584 -0.2823 -0.0382
20505YOPC   C1B34264   2.319   3.318   7.446  0.3410  0.4818 -0.2655
20505YOPC   C2B34265   2.558   3.102   7.818  0.2119  0.6157  0.0295
20505YOPC   D3B34266   2.887   3.282   8.059 -0.2307  0.0080 -0.4408
20505YOPC   C4B34267   3.318   3.438   8.048  0.0862  0.0379  0.1149
20506YOPC   NC334268  14.932  10.156   6.619  0.0830 -0.0986  0.1159
20506YOPC   PO434269  14.626  10.289   6.864 -0.1053 -0.2149  0.4853
20506YOPC   GL134270  14.612  10.524   7.217 -0.3800 -0.1194 -0.0826
20506YOPC   GL234271  14.554  10.753   7.264 -0.0547 -0.3076 -0.0727
20506YOPC   C1A34272  14.678  10.574   7.709  0.2323  0.0572  0.0511
20506YOPC   D2A34273  14.874  10.582   8.073  0.3480 -0.2922  0.2362
20506YOPC   C3A34274  14.819  10.480   8.350 -0.0391 -0.1741 -0.1575
20506YOPC   C4A34275  14.469  10.289   8.502 -0.1528  0.1553 -0.1677
20506YOPC   C1B34276  14.225  10.539   7.555 -0.2574  0.1407 -0.1012
20506YOPC   C2B34277  14.139  10.327   8.094 -0.1475  0.0374  0.0125
20506YOPC   D3B34278  14.143   9.972   8.343  0.3620  0.0821 -0.1669
20506YOPC   C4B34279  14.081   9.586   8.538  0.0016  0.0310 -0.2752
20507YOPC   NC334280  10.203   8.313   6.416 -0.0450 -0.0159  0.2372
20507YOPC   PO434281  10.065   8.611   6.694 -0.0133 -0.1015  0.4685
20507YOPC   GL134282  10.184   8.519   7.052  0.3572  0.2967  0.0071
20507YOPC   GL234283  10.203   8.197   7.040 -0.1618 -0.0332  0.0238
20507YOPC   C1A34284  10.424   8.637   7.395  0.3153  0.1997  0.4227
20507YOPC   D2A34285  10.760   8.948   7.474  0.0871 -0.5157 -0.0049
20507YOPC   C3A34286  10.788   9.241   7.849  0.3344  0.0719 -0.1394
20507YOPC   C4A34287  10.857   9.546   8.148  0.0204  0.3183 -0.0580
20507YOPC   C1B34288  10.134   8.203   7.447 -0.1519  0.2496  0.2775
20507YOPC   C2B34289  10.338   8.465   7.820  0.0867 -0.1447 -0.0663
20507YOPC   D3B34290  10.468   8.358   8.260  0.3376  0.1171 -0.2241
20507YOPC   C4B34291  10.620   8.081   8.525  0.0560 -0.3226 -0.1301
20508YOPC   NC334292   3.409   7.169   6.102 -0.0465  0.0813 -0.2921
20508YOPC   PO434293   3.074   7.002   6.327 -0.1536  0.0556  0.1003
20508YOPC   GL134294   3.163   6.844   6.832  0.0717  0.1835 -0.1481
20508YOPC   GL234295   3.180   7.166   7.031 -0.0101  0.1092 -0.1176
20508YOPC   C1A34296   3.343   6.770   7.247 -0.1741 -0.0182 -0.2118
20508YOPC   D2A34297   3.179   6.977   7.610 -0.1976  0.0626 -0.2891
20508YOPC   C3A34298   2.979   6.833   7.947 -0.0039 -0.1959  0.0476
20508YOPC   C4A34299   2.880   6.582   8.257  0.0545  0.1742  0.0493
20508YOPC   C1B34300   2.787   7.073   7.266 -0.4056  0.0765  0.0441
20508YOPC   C2B34301   2.626   6.880   7.569  0.2094 -0.0620 -0.3141
20508YOPC   D3B34302   2.326   6.790   7.488  0.1534 -0.1026 -0.0705
20508YOPC   C4B34303   2.074   6.683   7.212  0.0063 -0.1935  0.2186
20509YOPC   NC334304  14.722   7.275   6.296  0.2157 -0.1559  0.1159
20509YOPC   PO434305  14.542   6.933   6.462 -0.0700  0.1991 -0.1237
20509YOPC   GL134306  14.564   6.910   6.924 -0.1408  0.2305 -0.0339
20509YOPC   GL234307  14.289   6.717   7.060 -0.1033  0.2583  0.0285
20509YOPC   C1A34308  14.906   6.936   7.191 -0.0227 -0.0868  0.2067
20509YOPC   D2A34309  14.904   6.873   7.675 -0.0037  0.0827  0.3913
20509YOPC   C3A34310  15.022   6.840   8.148 -0.4034 -0.0045  0.0526
20509YOPC   C4A34311  15.009   6.942   8.607 -0.1791  0.0635  0.1904
20509YOPC   C1B34312  14.444   6.665   7.482 -0.3204 -0.0055 -0.0632
20509YOPC   C2B34313  14.472   6.645   7.930  0.2178 -0.0100 -0.1225
20509YOPC   D3B34314  14.158   6.377   8.218  0.0807  0.2697 -0.0585
20509YOPC   C4B34315  13.879   6.646   8.253  0.1985 -0.0707 -0.0152
20510YOPC   NC334316   6.617   3.496   6.960 -0.1282  0.0973  0.0277
20510YOPC   PO434317   6.695   3.797   6.714  0.1003  0.1989  0.1140
20510YOPC   GL134318   6.585   4.028   7.120 -0.1429 -0.0541  0.0787
20510YOPC   GL234319   6.587   3.799   7.345  0.1110 -0.0317  0.0031
20510YOPC   C1A34320   6.807   4.274   7.425  0.1662 -0.1653 -0.1796
20510YOPC   D2A34321   6.960   4.472   7.761  0.1192  0.1190  0.1096
20510YOPC   C3A34322   7.325   4.329   8.118 -0.3218 -0.0568 -0.1137
20510YOPC   C4A34323   7.408   4.469   8.624 -0.1092  0.0361  0.1057
20510YOPC   C1B34324   6.354   3.698   7.804  0.1018 -0.2264  0.1322
20510YOPC   C2B34325   6.688   3.713   8.188  0.2689 -0.0676  0.1045
20510YOPC   D3B34326   6.480   3.963   8.435  0.0794  0.1479  0.2177
20510YOPC   C4B34327   6.448   3.857   8.853  0.1181  0.2636  0.0585
20511YOPC   NC334328  14.439   3.346   6.304 -0.1112 -0.1864 -0.0391
20511YOPC   PO434329  14.196   3.677   6.497  0.0960 -0.0597 -0.0937
20511YOPC   GL134330  14.259   3.481   6.874  0.0059 -0.3740 -0.1783
20511YOPC   GL234331  14.406   3.230   6.881  0.1031  0.0210  0.0327
20511YOPC   C1A34332  14.269   3.386   7.333 -0.2401  0.0354  0.0807
20511YOPC   D2A34333  14.163   3.288   7.735  0.0183  0.0005  0.0109
20511YOPC   C3A34334  14.194   3.116   8.170  0.0055 -0.1623  0.1274
20511YOPC   C4A34335  14.272   2.781   8.496 -0.1519 -0.2237 -0.0557
20511YOPC   C1B34336  14.789   3.452   7.099 -0.0707 -0.0936  0.2338
20511YOPC   C2B34337  15.130   3.260   7.516  0.1437  0.3224  0.0026
20511YOPC   D3B34338  15.247   2.869   7.656  0.0839  0.2442 -0.0177
20511YOPC   C4B34339  15.250   2.636   8.051 -0.0592 -0.3550  0.0270
20512YOPC   NC334340   2.805   2.128   6.735 -0.1101  0.4548  0.1343
20512YOPC   PO434341   2.602   2.396   6.962  0.2896  0.1308 -0.1515
20512YOPC   GL134342   2.629   2.108   7.281 -0.2033  0.3085 -0.0664
20512YOPC   GL234343   2.271   2.014   7.259  0.0396  0.1505 -0.0941
20512YOPC   C1A34344   2.728   2.207   7.632  0.0213 -0.2695  0.3678
20512YOPC   D2A34345   2.584   2.307   8.031 -0.3893  0.1194 -0.0915
20512YOPC   C3A34346   2.771   2.361   8.407  0.2072 -0.0978  0.0006
20512YOPC   C4A34347   3.196   2.525   8.523 -0.1641 -0.0851  0.1642
20512YOPC   C1B34348   2.242   2.084   7.735 -0.1503 -0.1755 -0.1786
20512YOPC   C2B34349   1.949   2.305   8.039  0.1752  0.1718  0.1346
20512YOPC   D3B34350   1.827   2.070   8.410 -0.0085  0.0969 -0.1508
20512YOPC   C4B34351   1.336   1.995   8.573 -0.0776  0.0606  0.2671
20513YOPC   NC334352  16.970   2.089   6.114 -0.1793 -0.2273  0.0637
20513YOPC   PO434353  17.234   2.152   6.502 -0.0199  0.0662 -0.1891
20513YOPC   GL134354  17.360   1.892   6.836  0.0846 -0.0112  0.2411
20513YOPC   GL234355  17.673   2.012   6.984  0.2566 -0.2061 -0.0621
20513YOPC   C1A34356  17.372   1.757   7.323 -0.0991  0.1079  0.1104
20513YOPC   D2A34357  17.562   1.806   7.673  0.3924  0.1624 -0.0502
20513YOPC   C3A34358  17.543   1.553   8.054  0.0427  0.0020  0.0378
20513YOPC   C4A34359  17.250   1.297   8.307 -0.0801  0.2737  0.1247
20513YOPC   C1B34360  17.817   2.165   7.289  0.1175  0.1623 -0.1710
20513YOPC   C2B34361  17.806   2.333   7.698  0.2758  0.1079  0.1650
20513YOPC   D3B34362  17.640   2.133   8.098 -0.1427 -0.0323 -0.0235
20513YOPC   C4B34363  17.482   2.099   8.520  0.2643  0.0769  0.1214
20514YOPC   NC334364   1.938   5.512   6.408  0.1260  0.3336 -0.1722
20514YOPC   PO434365   1.884   5.961   6.211 -0.0376 -0.0704 -0.2543
20514YOPC   GL134366   1.914   6.109   6.616  0.1048  0.3559 -0.5899
20514YOPC   GL234367   1.806   6.388   6.565  0.2442  0.0822  0.1438
20514YOPC   C1A34368   2.109   6.121   7.038 -0.1615  0.1359  0.0843
20514YOPC   D2A34369   1.952   6.271   7.431 -0.0339 -0.1859  0.2722
20514YOPC   C3A34370   1.687   6.300   7.829 -0.1933  0.3761 -0.1044
20514YOPC   C4A34371   1.462   6.625   8.012 -0.0068  0.0314  0.3483
20514YOPC   C1B34372   1.697   6.372   7.052 -0.0681 -0.0463 -0.1567
20514YOPC   C2B34373   1.507   6.061   7.366  0.0229  0.0359  0.1058
20514YOPC   D3B34374   1.269   6.283   7.587  0.1535 -0.1565 -0.0974
20514YOPC   C4B34375   1.464   6.645   7.394 -0.2310  0.0544  0.2875
20515YOPC   NC334376  10.367  17.332   6.467 -0.0117 -0.1233  0.0102
20515YOPC   PO434377  10.582  17.568   6.732 -0.1079 -0.0215 -0.1761
20515YOPC   GL134378  10.228  17.534   6.934 -0.3876 -0.0090  0.0976
20515YOPC   GL234379   9.998  17.279   7.098 -0.3963  0.0908 -0.3126
20515YOPC   C1A34380  10.336  17.471   7.361  0.0987  0.0667  0.0150
20515YOPC   D2A34381  10.130  17.310   7.741  0.1491 -0.0001 -0.1123
20515YOPC   C3A34382   9.813  17.251   7.615  0.0158  0.0997  0.1507
20515YOPC   C4A34383   9.593  17.433   7.495  0.2123 -0.0802 -0.0574
20515YOPC   C1B34384  10.124  16.894   7.457  0.0930 -0.0482 -0.0317
20515YOPC   C2B34385  10.397  16.868   7.729  0.1295 -0.1210 -0.1606
20515YOPC   D3B34386   9.993  16.973   8.065  0.4396 -0.0873  0.1447
20515YOPC   C4B34387   9.566  16.966   8.234  0.0357  0.0938 -0.2367
20516YOPC   NC334388  13.935  12.246   6.961 -0.2422  0.1257 -0.0237
20516YOPC   PO434389  13.506  12.099   6.825 -0.1163 -0.1319 -0.0416
20516YOPC   GL134390  13.540  12.218   7.205 -0.0510 -0.2249 -0.0744
20516YOPC   GL234391  13.692  12.481   7.344 -0.0793 -0.0568  0.2547
20516YOPC   C1A34392  13.358  12.198   7.587  0.1629 -0.1928 -0.0996
20516YOPC   D2A34393  13.331  11.939   7.973 -0.1158 -0.0865  0.2763
20516YOPC   C3A34394  13.359  12.161   8.390 -0.2819  0.4653 -0.3010
20516YOPC   C4A34395  13.582  12.114   8.758  0.1684 -0.4830 -0.0748
20516YOPC   C1B34396  13.498  12.660   7.668  0.1400 -0.0972 -0.3494
20516YOPC   C2B34397  13.197  12.434   8.000 -0.0749 -0.0535 -0.1159
20516YOPC   D3B34398  12.921  12.469   8.287 -0.3515 -0.3094 -0.2172
20516YOPC   C4B34399  12.703  12.461   8.728 -0.0410  0.0765  0.0018
20517YOPC   NC334400  14.105  16.136   6.747 -0.1486  0.1002 -0.0196
20517YOPC   PO434401  13.860  15.727   6.616 -0.0205 -0.1756  0.1551
20517YOPC   GL134402  13.525  15.746   6.909 -0.2428 -0.1031 -0.0265
20517YOPC   GL234403  13.713  16.075   7.138 -0.0734  0.0741  0.2789
20517YOPC   C1A34404  13.142  15.708   7.066 -0.1423 -0.0568 -0.3854
20517YOPC   D2A34405  13.028  15.347   7.206 -0.0322 -0.1214 -0.0218
20517YOPC   C3A34406  12.719  15.184   7.547 -0.0847  0.0231 -0.0515
20517YOPC   C4A34407  12.400  15.208   7.822  0.3162  0.1362  0.3978
20517YOPC   C1B34408  13.770  16.272   7.398  0.3197 -0.0335  0.2362
20517YOPC   C2B34409  14.155  16.492   7.593  0.2090 -0.2595 -0.1056
20517YOPC   D3B34410  14.180  16.980   7.868  0.0272  0.0078  0.1737
20517YOPC   C4B34411  14.052  17.183   8.253 -0.1870 -0.0107  0.1295
20518YOPC   NC334412   8.012  16.919   6.169 -0.3595  0.1871 -0.0098
20518YOPC   PO434413   7.799  17.000   6.557  0.0263 -0.0985  0.1953
20518YOPC   GL134414   7.891  17.194   6.959  0.4103  0.2141 -0.3114
20518YOPC   GL234415   7.864  17.186   7.258  0.0851 -0.1554  0.0058
20518YOPC   C1A34416   7.698  17.660   7.165  0.2943  0.0349 -0.0416
20518YOPC   D2A34417   7.545  18.039   7.292  0.2226 -0.1959  0.0069
20518YOPC   C3A34418   7.524  18.147   7.805  0.0823  0.0440  0.0943
20518YOPC   C4A34419   7.663  18.176   8.224  0.1515  0.0529  0.1236
20518YOPC   C1B34420   7.838  17.446   7.638  0.0101  0.1402  0.0269
20518YOPC   C2B34421   7.861  17.769   7.899  0.2096  0.3144 -0.1554
20518YOPC   D3B34422   8.073  17.806   8.312 -0.2725 -0.1261 -0.0354
20518YOPC   C4B34423   8.178  17.652   8.731  0.1136  0.2120 -0.1503
20519YOPC   NC334424  13.472   2.075   6.136  0.1726 -0.0256 -0.0053
20519YOPC   PO434425  13.828   2.335   6.330 -0.2024  0.1131 -0.1038
20519YOPC   GL134426  13.894   2.185   6.829 -0.1074 -0.3278 -0.1200
20519YOPC   GL234427  14.015   2.432   6.947  0.1715 -0.0691  0.1870
20519YOPC   C1A34428  13.968   1.908   7.087  0.2110  0.1872 -0.1484
20519YOPC   D2A34429  14.190   1.982   7.468  0.0543  0.2395  0.1524
20519YOPC   C3A34430  14.257   1.724   7.812 -0.0150 -0.1029 -0.0029
20519YOPC   C4A34431  14.269   1.612   8.331  0.2699  0.0495  0.2213
20519YOPC   C1B34432  13.886   2.394   7.377  0.1567  0.1115 -0.0908
20519YOPC   C2B34433  13.812   2.444   7.779 -0.2433 -0.0935 -0.1688
20519YOPC   D3B34434  13.428   2.383   8.075 -0.1889  0.0509  0.1356
20519YOPC   C4B34435  13.253   2.035   8.289  0.0951 -0.1510  0.3264
20520YOPC   NC334436   1.685   1.080   6.526 -0.1607  0.3410 -0.2128
20520YOPC   PO434437   2.071   0.859   6.487 -0.4901 -0.0973 -0.3000
20520YOPC   GL134438   1.952   0.932   6.926 -0.2375  0.0262 -0.0632
20520YOPC   GL234439   2.243   0.886   7.068  0.2957 -0.2749 -0.0571
20520YOPC   C1A34440   1.805   1.259   7.225 -0.1150 -0.1472  0.0704
20520YOPC   D2A34441   1.910   1.712   7.430  0.0816 -0.3051  0.0610
20520YOPC   C3A34442   1.973   1.669   7.885 -0.2200 -0.0924  0.2665
20520YOPC   C4A34443   1.602   1.651   8.203  0.1287  0.1825  0.1663
20520YOPC   C1B34444   2.124   1.001   7.466  0.0514  0.0030 -0.3116
20520YOPC   C2B34445   2.152   0.738   7.875  0.2668 -0.0525  0.0427
20520YOPC   D3B34446   2.383   0.831   8.258  0.2393  0.1562  0.0261
20520YOPC   C4B34447   2.210   0.767   8.682  0.0096  0.0112  0.0222
20521YOPC   NC334448  12.157   3.286   6.626 -0.1098 -0.1680  0.0871
20521YOPC   PO434449  12.513   3.235   6.422 -0.1348  0.2107 -0.4308
20521YOPC   GL134450  12.620   3.527   6.848  0.1291  0.2442 -0.1268
20521YOPC   GL234451  12.205   3.580   7.000  0.3205 -0.0041 -0.3649
20521YOPC   C1A34452  12.600   3.931   7.112  0.0602  0.1402  0.1578
20521YOPC   D2A34453  12.592   4.290   7.043 -0.0342 -0.0807 -0.1365
20521YOPC   C3A34454  12.779   4.535   7.438 -0.1626 -0.0181  0.1090
20521YOPC   C4A34455  13.011   4.727   7.668 -0.1809 -0.1351  0.2980
20521YOPC   C1B34456  12.383   3.614   7.446 -0.1094  0.0866  0.2124
20521YOPC   C2B34457  12.327   3.558   7.838  0.1767  0.1029 -0.1454
20521YOPC   D3B34458  11.875   3.468   7.893  0.0747  0.0532 -0.0431
20521YOPC   C4B34459  11.891   3.358   8.326  0.1496  0.0343  0.0748
20522YOPC   NC334460  17.480   2.850   6.281  0.0594 -0.0296  0.1086
20522YOPC   PO434461  17.649   3.020   6.583  0.2062  0.1442 -0.1349
20522YOPC   GL134462  17.570   3.017   6.995  0.2611  0.1139  0.1726
20522YOPC   GL234463  17.230   2.935   7.054  0.0679  0.1362  0.0596
20522YOPC   C1A34464  17.570   2.889   7.478  0.2416  0.0382  0.0945
20522YOPC   D2A34465  17.413   2.713   7.779 -0.1495  0.0669  0.0331
20522YOPC   C3A34466  17.221   2.455   8.053 -0.1275 -0.2084 -0.0020
20522YOPC   C4A34467  17.137   2.390   8.402  0.1534 -0.2347 -0.0332
20522YOPC   C1B34468  17.048   2.933   7.421  0.0748 -0.2851  0.0396
20522YOPC   C2B34469  16.921   2.817   7.701 -0.0004 -0.1757  0.1983
20522YOPC   D3B34470  16.563   2.626   7.878  0.3725  0.0184 -0.0909
20522YOPC   C4B34471  16.182   2.479   8.076  0.1224  0.0218 -0.0196
20523YOPC   NC334472   9.588  12.696   6.653  0.0154  0.1787  0.0979
20523YOPC   PO434473   9.903  12.824   6.988  0.1534 -0.4367 -0.5464
20523YOPC   GL134474   9.840  12.958   7.486  0.3632 -0.1211  0.0419
20523YOPC   GL234475   9.714  13.280   7.626  0.1886  0.0863  0.0261
20523YOPC   C1A34476  10.022  12.900   7.931  0.2236 -0.0249  0.0174
20523YOPC   D2A34477  10.170  12.838   8.391  0.1356 -0.1848  0.0316
20523YOPC   C3A34478  10.326  12.999   8.801 -0.0366 -0.1478 -0.0786
20523YOPC   C4A34479  10.300  13.149   9.169 -0.2503 -0.0975  0.2900
20523YOPC   C1B34480   9.908  13.338   8.131 -0.0756 -0.1740 -0.0234
20523YOPC   C2B34481  10.253  13.366   8.428 -0.0775  0.2048  0.1081
20523YOPC   D3B34482  10.244  13.546   8.911 -0.2244 -0.2444  0.1158
20523YOPC   C4B34483  10.160  13.763   9.208  0.1366 -0.2130 -0.2894
20524YOPC   NC334484   3.444   6.737   6.420 -0.0357  0.0356 -0.1835
20524YOPC   PO434485   3.512   7.154   6.634 -0.0641 -0.1041  0.1295
20524YOPC   GL134486   3.699   7.049   7.059  0.1529  0.2288 -0.0436
20524YOPC   GL234487   4.051   6.970   7.128 -0.1296  0.1540  0.0811
20524YOPC   C1A34488   3.688   7.011   7.501 -0.2229  0.0490 -0.1518
20524YOPC   D2A34489   3.579   6.886   7.915 -0.0524  0.2065 -0.1350
20524YOPC   C3A34490   3.650   6.462   8.022 -0.0715 -0.0312 -0.0304
20524YOPC   C4A34491   3.790   6.069   8.353 -0.3086 -0.0824 -0.4476
20524YOPC   C1B34492   4.192   6.649   7.207 -0.3403 -0.0757  0.2121
20524YOPC   C2B34493   4.277   6.294   7.457 -0.0412  0.2078 -0.0739
20524YOPC   D3B34494   4.333   6.242   7.916 -0.0533 -0.1086  0.3861
20524YOPC   C4B34495   4.390   6.374   8.362 -0.1776 -0.0337  0.0876
20525YOPC   NC334496  15.698  15.003   7.077  0.0652 -0.0625 -0.2154
20525YOPC   PO434497  15.854  15.527   7.086 -0.1398  0.0473 -0.0565
20525YOPC   GL134498  15.971  15.615   7.466  0.3534 -0.0709  0.3557
20525YOPC   GL234499  16.070  15.890   7.417  0.1173  0.2726 -0.1455
20525YOPC   C1A34500  16.296  15.389   7.670  0.0799 -0.0297  0.3789
20525YOPC   D2A34501  16.357  15.272   8.084  0.0150 -0.2293  0.4969
20525YOPC   C3A34502  16.635  15.387   8.500  0.2230 -0.0821 -0.0017
20525YOPC   C4A34503  16.508  15.701   8.809  0.1062 -0.3256 -0.0922
20525YOPC   C1B34504  16.086  16.113   7.727  0.1687  0.0177 -0.1019
20525YOPC   C2B34505  15.697  16.173   8.085 -0.1011  0.0750  0.0103
20525YOPC   D3B34506  15.720  16.022   8.532  0.0560 -0.0098  0.2269
20525YOPC   C4B34507  15.757  16.157   8.984 -0.2084  0.3629  0.0297
20526YOPC   NC334508   8.915   2.236   5.861 -0.0933  0.1918 -0.0805
20526YOPC   PO434509   8.733   2.594   6.166 -0.0156 -0.2471 -0.0566
20526YOPC   GL134510   8.833   2.621   6.634  0.1877  0.0501 -0.0719
20526YOPC   GL234511   8.716   2.894   6.686  0.2749 -0.0274 -0.0389
20526YOPC   C1A34512   8.981   2.657   7.073 -0.1743  0.0886 -0.2443
20526YOPC   D2A34513   9.040   2.807   7.501 -0.1904  0.0799  0.1010
20526YOPC   C3A34514   9.360   2.643   7.734  0.0142 -0.2375  0.1784
20526YOPC   C4A34515   9.613   2.362   8.035 -0.3050 -0.2204  0.4248
20526YOPC   C1B34516   8.842   3.075   6.991  0.2013 -0.2832 -0.0023
20526YOPC   C2B34517   8.894   3.305   7.415  0.0268  0.1480 -0.4359
20526YOPC   D3B34518   8.804   3.503   7.850  0.1390  0.0319  0.1102
20526YOPC   C4B34519   8.956   3.899   8.016  0.1837 -0.0213  0.0374
20527YOPC   NC334520   3.720  15.049   7.042  0.1684  0.0277 -0.0477
20527YOPC   PO434521   4.184  14.924   6.876 -0.1655  0.2983  0.1145
20527YOPC   GL134522   4.243  15.142   7.217  0.0833  0.3892  0.0442
20527YOPC   GL234523   4.104  14.985   7.399  0.1164  0.0434 -0.0378
20527YOPC   C1A34524   4.406  15.376   7.664 -0.2118 -0.1195 -0.2099
20527YOPC   D2A34525   4.505  15.328   8.115 -0.1460  0.0181 -0.0384
20527YOPC   C3A34526   4.701  15.756   8.349  0.2498  0.3276  0.3078
20527YOPC   C4A34527   4.602  16.189   8.309  0.1593  0.2036  0.3228
20527YOPC   C1B34528   4.151  15.015   7.849  0.1898  0.0295  0.2706
20527YOPC   C2B34529   4.411  14.821   8.251  0.2918 -0.2966 -0.2727
20527YOPC   D3B34530   4.793  15.034   8.431 -0.0394 -0.0236  0.1824
20527YOPC   C4B34531   4.909  15.387   8.683 -0.0559  0.0324 -0.1577
20528YOPC   NC334532   2.241  14.802   6.478 -0.1260  0.1665 -0.0441
20528YOPC   PO434533   2.483  14.833   6.831 -0.1764  0.3758  0.1880
20528YOPC   GL134534   2.555  14.815   7.268 -0.0651 -0.0193 -0.2004
20528YOPC   GL234535   2.855  14.850   7.341  0.1441  0.2260  0.0450
20528YOPC   C1A34536   2.571  14.938   7.729  0.0533  0.3648  0.3499
20528YOPC   D2A34537   2.217  14.915   8.093  0.1153  0.0824 -0.0754
20528YOPC   C3A34538   2.326  15.075   8.521 -0.0957  0.1050 -0.1396
20528YOPC   C4A34539   2.088  15.007   8.945 -0.0396 -0.0680 -0.1276
20528YOPC   C1B34540   3.083  14.959   7.717  0.1069 -0.2510  0.0731
20528YOPC   C2B34541   3.198  15.065   8.118 -0.1708 -0.2589  0.0776
20528YOPC   D3B34542   3.540  15.380   8.163 -0.0669  0.0940  0.1005
20528YOPC   C4B34543   3.943  15.323   8.222 -0.4593 -0.0525 -0.0411
20529YOPC   NC334544   0.685   0.530   6.441 -0.0654  0.2712 -0.0415
20529YOPC   PO434545   0.559   0.957   6.438 -0.3728  0.0497  0.1016
20529YOPC   GL134546   0.596   0.876   6.840 -0.0144  0.2989 -0.2314
20529YOPC   GL234547   0.300   1.106   6.888  0.1364  0.0882 -0.0344
20529YOPC   C1A34548   0.678   0.690   7.204 -0.0873  0.1941 -0.2379
20529YOPC   D2A34549   1.022   0.600   7.486 -0.0242  0.2424  0.0133
20529YOPC   C3A34550   1.082   0.586   7.937  0.0400 -0.0955 -0.0085
20529YOPC   C4A34551   1.326   0.791   8.225  0.1972 -0.1301 -0.1799
20529YOPC   C1B34552   0.420   1.143   7.377 -0.1445 -0.0695  0.0422
20529YOPC   C2B34553   0.619   0.915   7.681 -0.0761  0.0683  0.0251
20529YOPC   D3B34554   0.648   0.926   8.048  0.2794  0.2803 -0.3066
20529YOPC   C4B34555   0.896   0.998   8.362  0.0289  0.0548 -0.0958
20530YOPC   NC334556   4.776  10.580   6.184 -0.2681 -0.0416 -0.1047
20530YOPC   PO434557   4.711  10.810   6.481  0.3592  0.1626 -0.3791
20530YOPC   GL134558   4.642  10.976   6.884 -0.1282  0.1783 -0.0598
20530YOPC   GL234559   4.664  11.286   6.871 -0.0581  0.1404  0.0129
20530YOPC   C1A34560   4.301  11.167   7.162 -0.2451 -0.0821  0.1565
20530YOPC   D2A34561   3.903  11.195   7.097  0.0010 -0.0226  0.3916
20530YOPC   C3A34562   3.715  10.970   7.495 -0.0198  0.0930 -0.0189
20530YOPC   C4A34563   3.888  10.861   7.962 -0.0045  0.1711 -0.2764
20530YOPC   C1B34564   4.759  11.187   7.373  0.2577 -0.0734 -0.1276
20530YOPC   C2B34565   4.797  11.067   7.691 -0.2846  0.0501  0.1172
20530YOPC   D3B34566   4.622  11.065   7.995 -0.1250 -0.2062  0.0073
20530YOPC   C4B34567   4.604  11.122   8.447  0.1456 -0.1791 -0.0411
20531YOPC   NC334568   0.938  11.978   7.116  0.0202 -0.1468  0.1362
20531YOPC   PO434569   0.562  12.123   7.070  0.0547  0.0283 -0.1316
20531YOPC   GL134570   0.569  11.966   7.485 -0.2436 -0.1417  0.3835
20531YOPC   GL234571   0.941  11.900   7.574 -0.3084  0.1257  0.0185
20531YOPC   C1A34572   0.484  11.921   7.932  0.1583 -0.0691 -0.0607
20531YOPC   D2A34573   0.456  11.679   8.184  0.1494  0.0643  0.0284
20531YOPC   C3A34574   0.294  11.798   8.426 -0.0341  0.3053  0.0046
20531YOPC   C4A34575   0.060  11.735   8.668 -0.0177 -0.1207  0.0277
20531YOPC   C1B34576   1.016  11.878   7.924  0.2545 -0.0084 -0.2669
20531YOPC   C2B34577   0.908  11.904   8.279  0.0699  0.1998  0.3594
20531YOPC   D3B34578   1.241  11.940   8.447  0.1309 -0.1149  0.1202
20531YOPC   C4B34579   1.574  12.231   8.525 -0.0755 -0.1787  0.1347
20532YOPC   NC334580   7.155  13.080   6.875  0.2600 -0.1761 -0.1539
20532YOPC   PO434581   6.706  13.030   6.820  0.3522 -0.0231  0.0884
20532YOPC   GL134582   6.955  12.814   7.192 -0.0169 -0.2315 -0.2449
20532YOPC   GL234583   6.683  12.768   7.324 -0.0331  0.1178 -0.0198
20532YOPC   C1A34584   7.107  12.879   7.660 -0.0218 -0.0939 -0.1590
20532YOPC   D2A34585   7.097  12.998   8.142  0.0518  0.1814 -0.2379
20532YOPC   C3A34586   6.730  12.860   8.339 -0.0629 -0.1428 -0.1663
20532YOPC   C4A34587   6.578  12.476   8.554  0.0504 -0.0295 -0.0734
20532YOPC   C1B34588   6.599  12.813   7.809 -0.0096 -0.0764 -0.2472
20532YOPC   C2B34589   6.513  12.527   8.036  0.0845  0.1933  0.0718
20532YOPC   D3B34590   6.217  12.708   8.343 -0.1741 -0.1687 -0.0370
20532YOPC   C4B34591   6.173  12.952   8.673 -0.1366  0.0952  0.1457
20533YOPC   NC334592   4.291   4.296   6.604 -0.0795  0.3803  0.3333
20533YOPC   PO434593   4.029   4.557   6.525 -0.5080 -0.1473 -0.4681
20533YOPC   GL134594   3.957   4.693   6.835 -0.0771  0.0943  0.1550
20533YOPC   GL234595   3.617   4.788   6.867  0.2774 -0.3017  0.0014
20533YOPC   C1A34596   3.882   4.847   7.247  0.1734 -0.0600 -0.1131
20533YOPC   D2A34597   3.676   5.110   7.595  0.0788  0.0013 -0.0176
20533YOPC   C3A34598   3.412   5.371   7.534  0.1751  0.4762 -0.2041
20533YOPC   C4A34599   3.017   5.549   7.553  0.1866  0.1386  0.3107
20533YOPC   C1B34600   3.418   4.620   7.288  0.3174 -0.0279  0.1985
20533YOPC   C2B34601   3.658   4.632   7.728  0.2311 -0.2373  0.0919
20533YOPC   D3B34602   3.568   4.928   8.113 -0.0932  0.1960  0.1718
20533YOPC   C4B34603   3.635   4.973   8.505  0.1075  0.2689 -0.0076
20534YOPC   NC334604   9.528  17.352   6.472  0.2815 -0.0368  0.1415
20534YOPC   PO434605   9.901  17.240   6.603  0.1498  0.1830 -0.2324
20534YOPC   GL134606   9.587  17.099   6.882  0.1255 -0.0220 -0.1782
20534YOPC   GL234607   9.486  17.323   7.005 -0.3781 -0.1082 -0.1686
20534YOPC   C1A34608   9.544  16.856   7.332  0.0035 -0.0248 -0.1690
20534YOPC   D2A34609   9.555  16.834   7.737  0.1576 -0.1619  0.1252
20534YOPC   C3A34610   9.347  17.238   7.887 -0.1363 -0.0765 -0.1218
20534YOPC   C4A34611   9.284  17.653   8.010  0.0014  0.1433 -0.1213
20534YOPC   C1B34612   9.265  17.755   7.273 -0.1716 -0.1975 -0.0411
20534YOPC   C2B34613   9.359  17.927   7.631  0.3727 -0.0628  0.5895
20534YOPC   D3B34614   9.622  18.320   7.682  0.2960 -0.1094 -0.0373
20534YOPC   C4B34615   9.869  18.593   7.877  0.0324  0.0136 -0.1300
20535YOPC   NC334616  15.386   1.621   6.393  0.0659 -0.2200 -0.1431
20535YOPC   PO434617  15.328   1.136   6.440 -0.1970 -0.0784  0.1897
20535YOPC   GL134618  15.151   1.168   6.795 -0.0089 -0.1457 -0.2039
20535YOPC   GL234619  15.195   1.429   6.853  0.0022 -0.1050 -0.0568
20535YOPC   C1A34620  15.108   1.101   7.140 -0.0247  0.0106 -0.1181
20535YOPC   D2A34621  15.284   1.315   7.496  0.1996  0.1525 -0.1984
20535YOPC   C3A34622  14.938   1.452   7.732 -0.0693 -0.0934  0.0306
20535YOPC   C4A34623  14.704   1.695   8.119 -0.0019  0.3272 -0.1469
20535YOPC   C1B34624  14.933   1.559   7.222 -0.0282 -0.0436  0.3910
20535YOPC   C2B34625  14.588   1.413   7.412  0.0345 -0.0114  0.0933
20535YOPC   D3B34626  14.301   1.482   7.155 -0.0323  0.0037  0.4467
20535YOPC   C4B34627  14.203   1.539   6.762 -0.1375 -0.0083  0.2561
20536YOPC   NC334628   4.333  15.698   6.251 -0.0196  0.1425  0.0823
20536YOPC   PO434629   4.555  15.986   6.624 -0.2254  0.1791  0.4243
20536YOPC   GL134630   4.730  15.675   6.968 -0.1345  0.1448  0.0619
20536YOPC   GL234631   4.534  15.691   7.137 -0.3176 -0.3684  0.0259
20536YOPC   C1A34632   5.183  15.423   7.058 -0.4010  0.0166 -0.1146
20536YOPC   D2A34633   5.552  15.201   7.083  0.0412 -0.0254 -0.0061
20536YOPC   C3A34634   5.741  15.184   7.445 -0.2058 -0.0126  0.4052
20536YOPC   C4A34635   5.892  15.384   7.769  0.0341 -0.3213 -0.1061
20536YOPC   C1B34636   4.693  15.817   7.457  0.4448  0.0492  0.0930
20536YOPC   C2B34637   4.746  15.988   7.853 -0.2560 -0.2008  0.1557
20536YOPC   D3B34638   5.096  15.980   8.068 -0.2715  0.0188  0.2417
20536YOPC   C4B34639   5.472  15.705   7.983  0.1640  0.0693  0.0369
20537YOPC   NC334640  14.450  11.734   7.064  0.2376  0.1185  0.4871
20537YOPC   PO434641  14.458  12.181   6.920  0.3253  0.0055 -0.1268
20537YOPC   GL134642  14.382  12.194   7.349 -0.3140  0.1138  0.1958
20537YOPC   GL234643  14.614  12.347   7.589  0.0445  0.1556 -0.2998
20537YOPC   C1A34644  13.983  12.237   7.632 -0.0125  0.1489  0.0315
20537YOPC   D2A34645  13.698  12.312   7.955  0.1229 -0.1636 -0.0840
20537YOPC   C3A34646  13.894  12.237   8.399  0.4399 -0.1630 -0.0026
20537YOPC   C4A34647  14.187  11.994   8.717 -0.0642  0.1658 -0.1029
20537YOPC   C1B34648  14.403  12.062   7.918  0.0837  0.1817 -0.2356
20537YOPC   C2B34649  14.542  11.872   8.302  0.1274  0.0737  0.0256
20537YOPC   D3B34650  14.655  12.179   8.621  0.2077  0.0895 -0.4048
20537YOPC   C4B34651  14.571  12.461   9.054  0.2214 -0.0125  0.1261
20538YOPC   NC334652   2.258  10.373   6.251 -0.1960 -0.0540  0.3702
20538YOPC   PO434653   1.999   9.995   6.364 -0.0803 -0.2113  0.1330
20538YOPC   GL134654   2.207  10.099   6.678  0.1602  0.0800 -0.1296
20538YOPC   GL234655   2.174  10.404   6.761 -0.0372 -0.1613  0.1127
20538YOPC   C1A34656   2.489   9.834   7.027 -0.2171 -0.0824 -0.3347
20538YOPC   D2A34657   2.642   9.601   7.420  0.0317 -0.3367 -0.1496
20538YOPC   C3A34658   2.747   9.872   7.790  0.0411  0.1596 -0.0533
20538YOPC   C4A34659   2.758  10.102   8.212  0.1564 -0.1183  0.0181
20538YOPC   C1B34660   2.380  10.340   7.142  0.2205 -0.2556  0.2011
20538YOPC   C2B34661   2.506  10.147   7.395  0.0619  0.1079 -0.0006
20538YOPC   D3B34662   2.288   9.980   7.701 -0.4996 -0.1808 -0.0940
20538YOPC   C4B34663   2.241  10.000   8.128  0.1582 -0.0587  0.1065
20539YOPC   NC334664   1.442  10.080   6.319 -0.0129  0.1973 -0.4131
20539YOPC   PO434665   1.473   9.708   6.559  0.0716  0.2762  0.1889
20539YOPC   GL134666   1.266   9.572   6.957 -0.0885  0.3853 -0.0489
20539YOPC   GL234667   1.620   9.682   7.113  0.0757  0.1823  0.0103
20539YOPC   C1A34668   1.102   9.818   7.410 -0.2783 -0.0957  0.1822
20539YOPC   D2A34669   1.271   9.956   7.780 -0.0631 -0.0786 -0.1666
20539YOPC   C3A34670   1.195  10.034   8.200  0.0373  0.1935  0.1043
20539YOPC   C4A34671   1.182  10.064   8.658 -0.1047  0.1269  0.1800
20539YOPC   C1B34672   1.562   9.519   7.493  0.2418  0.1540 -0.4219
20539YOPC   C2B34673   1.454   9.533   7.983  0.0424 -0.0553  0.2939
20539YOPC   D3B34674   1.292   9.514   8.392 -0.1999  0.0598 -0.0080
20539YOPC   C4B34675   1.028   9.326   8.742  0.0464  0.2133 -0.2211
20540YOPC   NC334676   2.352   6.296   6.443  0.1262  0.0610  0.2320
20540YOPC   PO434677   2.782   6.133   6.360 -0.2983  0.0379 -0.1478
20540YOPC   GL134678   2.575   6.017   6.774 -0.1223 -0.1290 -0.0584
20540YOPC   GL234679   2.557   6.315   6.943  0.2045  0.1251 -0.0218
20540YOPC   C1A34680   2.627   5.708   7.149 -0.1831  0.1189  0.2798
20540YOPC   D2A34681   2.504   5.510   7.550  0.1458  0.0463 -0.3910
20540YOPC   C3A34682   2.355   5.741   7.925  0.3019 -0.0967  0.1220
20540YOPC   C4A34683   2.425   5.700   8.409 -0.0816 -0.0461  0.3752
20540YOPC   C1B34684   2.452   6.298   7.339 -0.3109  0.2757 -0.3417
20540YOPC   C2B34685   2.417   6.453   7.857 -0.0414 -0.0416  0.2671
20540YOPC   D3B34686   2.510   6.825   8.073  0.0305 -0.0344  0.1511
20540YOPC   C4B34687   2.270   7.180   8.253  0.0392 -0.2318 -0.0958
20541YOPC   NC334688   8.712  16.161   6.716  0.3127 -0.0380 -0.0812
20541YOPC   PO434689   8.515  15.883   7.028  0.0548  0.1631  0.1747
20541YOPC   GL134690   8.492  15.797   7.376 -0.1388 -0.0805  0.2673
20541YOPC   GL234691   8.529  15.424   7.500  0.3175  0.0988  0.2200
20541YOPC   C1A34692   8.215  15.941   7.701 -0.1903 -0.0076 -0.1455
20541YOPC   D2A34693   7.964  15.948   8.167  0.0433 -0.1073  0.0999
20541YOPC   C3A34694   7.804  16.199   8.406 -0.1406 -0.1385  0.1362
20541YOPC   C4A34695   7.612  16.330   8.877  0.1039  0.0257  0.1518
20541YOPC   C1B34696   8.527  15.471   7.935  0.0231  0.1467  0.1637
20541YOPC   C2B34697   8.314  15.546   8.287  0.0321  0.2249 -0.1274
20541YOPC   D3B34698   8.486  15.455   8.643  0.0691 -0.2344  0.1379
20541YOPC   C4B34699   8.181  15.341   8.955  0.1849  0.4069  0.0089
20542YOPC   NC334700  14.116  14.347   6.859 -0.0202 -0.0514  0.0218
20542YOPC   PO434701  13.681  14.381   7.035 -0.0556  0.1043 -0.2831
20542YOPC   GL134702  13.908  14.482   7.394  0.0124 -0.0515 -0.0070
20542YOPC   GL234703  14.230  14.408   7.360 -0.0848  0.2834 -0.0666
20542YOPC   C1A34704  13.792  14.564   7.685  0.0996 -0.1582 -0.0560
20542YOPC   D2A34705  13.856  14.591   8.111 -0.2614 -0.0276  0.3654
20542YOPC   C3A34706  13.858  14.394   8.523 -0.0100 -0.1038 -0.0249
20542YOPC   C4A34707  13.769  13.956   8.696  0.1805  0.2888 -0.4221
20542YOPC   C1B34708  14.203  14.386   7.836  0.1406 -0.1898 -0.0056
20542YOPC   C2B34709  14.370  14.434   8.236 -0.1746 -0.1662  0.1701
20542YOPC   D3B34710  14.240  14.044   8.632  0.0552 -0.0998  0.1701
20542YOPC   C4B34711  14.365  13.785   9.022 -0.1084  0.0974 -0.1241
20543YOPC   NC334712   7.883  16.520   6.533 -0.4305  0.0444 -0.2217
20543YOPC   PO434713   8.298  16.460   6.497 -0.0019  0.1358  0.0905
20543YOPC   GL134714   8.297  16.447   6.989  0.3269  0.1741 -0.0506
20543YOPC   GL234715   8.000  16.621   7.050  0.2166 -0.5672 -0.1465
20543YOPC   C1A34716   8.323  16.529   7.392  0.2255  0.0085  0.1741
20543YOPC   D2A34717   8.383  16.573   7.883  0.0627 -0.0188  0.1782
20543YOPC   C3A34718   8.697  16.495   7.994 -0.2661 -0.0012 -0.1612
20543YOPC   C4A34719   8.972  16.111   8.116  0.0211 -0.2189  0.1687
20543YOPC   C1B34720   8.295  17.024   7.212  0.0405  0.1023 -0.0664
20543YOPC   C2B34721   8.420  17.292   7.566  0.2988 -0.2201 -0.2211
20543YOPC   D3B34722   8.506  17.050   7.897  0.1887  0.0557 -0.1223
20543YOPC   C4B34723   8.524  16.968   8.265 -0.0363 -0.2548  0.0877
20544YOPC   NC334724   0.325   5.513   6.558  0.1857  0.0678 -0.2060
20544YOPC   PO434725   0.005   5.202   6.613 -0.0020 -0.0227 -0.0728
20544YOPC   GL134726   0.004   5.192   7.106  0.3477 -0.0731 -0.0619
20544YOPC   GL234727   0.312   5.025   7.006 -0.2010 -0.1072  0.0032
20544YOPC   C1A34728  -0.208   5.061   7.464 -0.2850  0.3400 -0.1881
20544YOPC   D2A34729  -0.434   5.303   7.774  0.1671  0.0083  0.4188
20544YOPC   C3A34730  -0.389   5.668   7.838 -0.3904 -0.2506  0.1309
20544YOPC   C4A34731  -0.124   5.952   7.873 -0.0195 -0.1207  0.0426
20544YOPC   C1B34732  -0.040   4.737   7.143 -0.0516 -0.0138  0.2347
20544YOPC   C2B34733  -0.264   4.472   7.472  0.0311  0.0358 -0.0155
20544YOPC   D3B34734  -0.367   4.794   7.893  0.1334 -0.0197 -0.1342
20544YOPC   C4B34735  -0.785   4.998   8.098  0.2621 -0.2390  0.1644
20545YOPC   NC334736   3.587  14.144   6.971  0.1809 -0.2325 -0.0247
20545YOPC   PO434737   3.434  14.555   7.005  0.0173  0.0814  0.2163
20545YOPC   GL134738   3.184  14.458   7.292  0.2217 -0.1079  0.1452
20545YOPC   GL234739   3.172  14.090   7.227  0.4043 -0.1440  0.1423
20545YOPC   C1A34740   3.281  14.532   7.683 -0.1527  0.1312 -0.2778
20545YOPC   D2A34741   3.334  14.427   8.124 -0.0156 -0.0433  0.1644
20545YOPC   C3A34742   3.717  14.320   8.276  0.0759 -0.1198 -0.1711
20545YOPC   C4A34743   3.820  14.140   8.700  0.0971 -0.0215  0.2881
20545YOPC   C1B34744   3.361  14.019   7.619 -0.1638 -0.4221 -0.1020
20545YOPC   C2B34745   3.104  13.919   8.026  0.1680  0.0247 -0.0019
20545YOPC   D3B34746   3.022  13.541   8.242  0.2896 -0.2363 -0.1765
20545YOPC   C4B34747   3.329  13.577   8.645 -0.0562 -0.0023  0.1212
20546YOPC   NC334748   7.902   9.864   6.261  0.1605  0.1380 -0.2365
20546YOPC   PO434749   8.117  10.012   6.673 -0.0050  0.0901  0.1507
20546YOPC   GL134750   8.084   9.786   7.045  0.1162 -0.0798  0.0863
20546YOPC   GL234751   8.084   9.983   7.180  0.2787 -0.0658  0.3230
20546YOPC   C1A34752   8.119   9.542   7.505 -0.0742  0.3852  0.1049
20546YOPC   D2A34753   8.276   9.159   7.691 -0.1902  0.2791  0.1030
20546YOPC   C3A34754   8.419   9.180   8.019  0.0747  0.2728  0.1281
20546YOPC   C4A34755   8.341   9.303   8.622  0.0201  0.0003  0.2642
20546YOPC   C1B34756   7.940   9.973   7.570  0.0524  0.1425 -0.1177
20546YOPC   C2B34757   7.951   9.817   7.993  0.2854  0.1074  0.0485
20546YOPC   D3B34758   7.638   9.850   8.272  0.0753 -0.1596 -0.1528
20546YOPC   C4B34759   7.243   9.862   8.492  0.3119 -0.0390 -0.1728
20547YOPC   NC334760  13.382  13.876   6.332 -0.3005 -0.2232  0.1934
20547YOPC   PO434761  13.238  13.668   6.715 -0.0498  0.0156 -0.4545
20547YOPC   GL134762  13.200  13.745   7.183  0.0719 -0.1952 -0.0916
20547YOPC   GL234763  13.460  13.943   7.293 -0.3104  0.0022 -0.0465
20547YOPC   C1A34764  13.018  13.770   7.523 -0.0614 -0.2786  0.1196
20547YOPC   D2A34765  12.925  14.250   7.668 -0.4611  0.3482  0.0760
20547YOPC   C3A34766  12.919  14.400   8.150  0.1135  0.0473  0.1425
20547YOPC   C4A34767  12.989  14.210   8.509  0.0359 -0.1762  0.2789
20547YOPC   C1B34768  13.687  14.065   7.598 -0.0941 -0.1455  0.1378
20547YOPC   C2B34769  13.415  14.306   7.888  0.0164 -0.4063 -0.0458
20547YOPC   D3B34770  13.451  14.115   8.384  0.1405  0.3602  0.2227
20547YOPC   C4B34771  13.424  13.642   8.429  0.0398  0.0695  0.0735
20548YOPC   NC334772   9.912  15.004   7.035 -0.2241  0.0450  0.2544
20548YOPC   PO434773  10.351  15.169   7.053  0.1108 -0.1455  0.1519
20548YOPC   GL134774  10.353  14.992   7.425  0.0461  0.3140 -0.0484
20548YOPC   GL234775  10.537  14.923   7.655 -0.0032  0.2610 -0.2204
20548YOPC   C1A34776  10.091  14.830   7.761  0.3030  0.1850  0.0262
20548YOPC   D2A34777   9.744  14.900   7.945 -0.0099  0.1531 -0.2284
20548YOPC   C3A34778   9.649  14.983   8.500 -0.0412 -0.0231 -0.0470
20548YOPC   C4A34779   9.809  14.907   8.981 -0.2970 -0.1006 -0.0670
20548YOPC   C1B34780  10.525  14.768   8.069 -0.2559  0.0262 -0.1859
20548YOPC   C2B34781  10.717  14.608   8.430  0.2528  0.3153  0.1164
20548YOPC   D3B34782  11.079  14.822   8.621 -0.3298  0.0711  0.0590
20548YOPC   C4B34783  11.288  15.130   8.578  0.0933  0.1466 -0.2619
20549YOPC   NC334784   6.580  10.868   6.630  0.0627 -0.2422 -0.0375
20549YOPC   PO434785   6.139  10.834   6.610 -0.1668  0.0706 -0.2167
20549YOPC   GL134786   6.104  10.888   7.025 -0.2135 -0.1783 -0.3675
20549YOPC   GL234787   6.096  10.542   7.042 -0.2357  0.0290  0.0111
20549YOPC   C1A34788   6.207  10.877   7.542  0.0771  0.0194 -0.0385
20549YOPC   D2A34789   6.295  10.745   7.915 -0.0603 -0.0194 -0.0801
20549YOPC   C3A34790   6.135  10.684   8.230  0.1944 -0.0114 -0.1652
20549YOPC   C4A34791   6.122  10.884   8.729 -0.1565  0.1373  0.0865
20549YOPC   C1B34792   6.070  10.281   7.390 -0.0022 -0.1849 -0.0059
20549YOPC   C2B34793   5.777  10.487   7.715 -0.2008 -0.1617 -0.1005
20549YOPC   D3B34794   5.751  10.337   8.076  0.1966  0.2645  0.0226
20549YOPC   C4B34795   5.844  10.430   8.603 -0.1334 -0.1926  0.1283
20550YOPC   NC334796   8.386   0.448   6.635 -0.1853 -0.2286  0.1203
20550YOPC   PO434797   8.652   0.767   6.871  0.1658 -0.0436 -0.0236
20550YOPC   GL134798   8.584   0.582   7.307 -0.0155 -0.0223  0.3401
20550YOPC   GL234799   8.884   0.584   7.279  0.2063  0.1648 -0.3580
20550YOPC   C1A34800   8.649   0.690   7.761  0.1266 -0.2935 -0.2413
20550YOPC   D2A34801   8.738   0.793   8.037  0.0422 -0.0833 -0.0758
20550YOPC   C3A34802   8.592   0.978   8.402 -0.1122 -0.1275  0.0333
20550YOPC   C4A34803   8.908   1.086   8.777  0.0877  0.2023 -0.2021
20550YOPC   C1B34804   9.105   0.628   7.497  0.1584  0.1624 -0.0984
20550YOPC   C2B34805   9.205   0.699   7.912  0.3098 -0.0129 -0.1747
20550YOPC   D3B34806   9.524   0.368   8.088 -0.1565  0.0688  0.0450
20550YOPC   C4B34807   9.912   0.357   8.239  0.0502  0.0765  0.0161
20551YOPC   NC334808  11.717   5.789   6.495 -0.0549  0.0731 -0.0017
20551YOPC   PO434809  11.241   5.645   6.556  0.0070 -0.0367  0.1131
20551YOPC   GL134810  11.221   5.643   6.967 -0.0497 -0.0363 -0.0274
20551YOPC   GL234811  11.140   5.341   6.973 -0.1207 -0.2103  0.3888
20551YOPC   C1A34812  11.438   5.909   7.237  0.2196 -0.3230 -0.3121
20551YOPC   D2A34813  11.464   5.791   7.657 -0.2092 -0.0570 -0.1406
20551YOPC   C3A34814  11.561   6.095   7.976  0.0079  0.1970  0.1502
20551YOPC   C4A34815  11.671   6.338   8.329 -0.2017  0.2557  0.1678
20551YOPC   C1B34816  11.142   5.285   7.420 -0.2430  0.2521 -0.0694
20551YOPC   C2B34817  11.179   5.303   7.859 -0.1541  0.1310  0.0461
20551YOPC   D3B34818  10.971   5.346   8.114  0.2632 -0.2696  0.0559
20551YOPC   C4B34819  10.920   5.634   8.453 -0.1484  0.1502  0.2953
20552YOPC   NC334820   7.010  15.258   6.813  0.2737 -0.1075  0.0351
20552YOPC   PO434821   7.336  15.355   6.988 -0.2660  0.0762  0.0858
20552YOPC   GL134822   7.140  15.230   7.307  0.1562 -0.1030  0.3533
20552YOPC   GL234823   7.091  15.510   7.398 -0.0652  0.0133  0.1798
20552YOPC   C1A34824   7.093  15.132   7.749  0.3184  0.0225  0.0035
20552YOPC   D2A34825   6.932  15.270   8.208  0.0226  0.0247  0.3777
20552YOPC   C3A34826   7.197  15.582   8.482  0.0396  0.1168 -0.0738
20552YOPC   C4A34827   7.510  15.860   8.715 -0.3129  0.3356  0.0969
20552YOPC   C1B34828   7.227  15.673   7.748 -0.0674 -0.0002 -0.0876
20552YOPC   C2B34829   7.486  15.886   7.987 -0.2507 -0.1342 -0.1213
20552YOPC   D3B34830   7.269  16.123   8.285  0.0473 -0.0728 -0.0331
20552YOPC   C4B34831   7.152  16.292   8.681 -0.1747 -0.2561 -0.5235
20553YOPC   NC334832   9.518   2.778   6.036 -0.0575  0.3077  0.1018
20553YOPC   PO434833   9.592   3.075   6.331 -0.1534  0.2449  0.0902
20553YOPC   GL134834   9.595   3.016   6.701 -0.2522  0.0559 -0.0040
20553YOPC   GL234835   9.357   3.016   6.817 -0.1359  0.0310 -0.0097
20553YOPC   C1A34836   9.727   3.437   6.977 -0.4931 -0.1088 -0.0914
20553YOPC   D2A34837   9.875   3.666   7.284 -0.0727 -0.0757  0.0261
20553YOPC   C3A34838   9.913   3.589   7.759 -0.3123 -0.2451  0.1805
20553YOPC   C4A34839   9.808   3.452   8.160 -0.2028  0.0896  0.0927
20553YOPC   C1B34840   9.451   2.896   7.211 -0.3821  0.2888  0.3110
20553YOPC   C2B34841   9.381   2.413   7.338  0.0962 -0.0879  0.0098
20553YOPC   D3B34842   9.684   2.104   7.575  0.2257  0.2524  0.2834
20553YOPC   C4B34843  10.067   2.052   7.453  0.3010 -0.0441 -0.2889
20554YOPC   NC334844   9.278  16.962   6.556  0.1234  0.1712 -0.1754
20554YOPC   PO434845   9.087  17.011   6.868 -0.2093 -0.3045 -0.1764
20554YOPC   GL134846   9.086  17.171   7.305 -0.0616 -0.0112 -0.4020
20554YOPC   GL234847   8.795  17.016   7.465 -0.0641  0.0825 -0.0614
20554YOPC   C1A34848   9.013  17.464   7.579  0.3574  0.3174 -0.0768
20554YOPC   D2A34849   8.890  17.895   7.768  0.0599  0.0887 -0.2398
20554YOPC   C3A34850   9.002  18.039   8.213  0.2160 -0.1331  0.0872
20554YOPC   C4A34851   9.114  18.476   8.413  0.2111  0.1138 -0.4206
20554YOPC   C1B34852   8.984  16.927   7.772 -0.0779  0.1625  0.0488
20554YOPC   C2B34853   9.106  16.815   8.202 -0.1013 -0.1811  0.1853
20554YOPC   D3B34854   8.970  16.481   8.453 -0.0792  0.2414 -0.4085
20554YOPC   C4B34855   8.599  16.089   8.565 -0.2470  0.0922  0.2141
20555ERGO   ROH34856   5.065   8.208   7.181  0.0294  0.1122  0.1760
20555ERGO    R134857   4.986   8.244   7.451 -0.0702 -0.0602  0.1714
20555ERGO    R234858   4.961   8.033   7.627  0.1512 -0.1447  0.1051
20555ERGO    R334859   5.131   8.182   7.779 -0.0588  0.0226  0.1822
20555ERGO    R434860   5.081   7.941   7.939  0.4036 -0.2146 -0.0097
20555ERGO    R534861   5.056   8.148   8.004  0.0623 -0.3067  0.1783
20555ERGO    C134862   5.310   8.027   8.262  0.3536 -0.0982 -0.0041
20555ERGO    C234863   5.512   8.079   8.571 -0.2261  0.3050  0.2959
20556ERGO   ROH34864   8.184  12.042  10.922  0.1061  0.3519 -0.0591
20556ERGO    R134865   8.241  11.890  10.690  0.0404  0.1399  0.0587
20556ERGO    R234866   8.056  11.851  10.488  0.0511  0.1492  0.0298
20556ERGO    R334867   8.255  11.949  10.332  0.1773 -0.1138  0.0238
20556ERGO    R434868   8.044  11.873  10.144  0.0590  0.2490  0.0372
20556ERGO    R534869   8.252  11.810  10.137 -0.0452 -0.0567 -0.0035
20556ERGO    C134870   8.224  11.978   9.796  0.1820  0.0602  0.0358
20556ERGO    C234871   8.143  12.075   9.423  0.2687  0.0999 -0.1352
20557ERGO   ROH34872   7.313   4.474  10.460 -0.0084 -0.1245 -0.0087
20557ERGO    R134873   7.168   4.447  10.219 -0.0645 -0.0640  0.0189
20557ERGO    R234874   7.150   4.650  10.033 -0.0771 -0.0314  0.0588
20557ERGO    R334875   7.242   4.459   9.863 -0.1416 -0.0149  0.0038
20557ERGO    R434876   7.113   4.658   9.689  0.0785  0.1708  0.0440
20557ERGO    R534877   7.073   4.444   9.694 -0.0819  0.1946 -0.0810
20557ERGO    C134878   7.178   4.483   9.329  0.1086  0.3040 -0.0163
20557ERGO    C234879   7.070   4.346   8.991 -0.1685 -0.2389  0.0051
20558ERGO   ROH34880   0.091   6.958  10.778 -0.0603  0.0411 -0.0423
20558ERGO    R134881  -0.091   6.977  10.562 -0.0384 -0.0160 -0.0671
20558ERGO    R234882  -0.080   7.181  10.376 -0.1235  0.0355 -0.0207
20558ERGO    R334883  -0.071   6.976  10.199  0.0248  0.0742 -0.0649
20558ERGO    R434884  -0.050   7.218  10.034 -0.0250  0.1245 -0.0031
20558ERGO    R534885  -0.194   7.056  10.009  0.0504  0.0639 -0.0880
20558ERGO    C134886  -0.024   7.046   9.668  0.1717  0.2126 -0.0344
20558ERGO    C234887   0.062   7.010   9.504 -0.0704  0.0179  0.0469
20559ERGO   ROH34888   8.959   7.965   8.483 -0.1325  0.1152 -0.0765
20559ERGO    R134889   9.237   8.005   8.515 -0.1493  0.0854  0.1236
20559ERGO    R234890   9.399   7.826   8.650 -0.2273 -0.0441  0.0506
20559ERGO    R334891   9.542   7.831   8.419 -0.0952  0.1746  0.1355
20559ERGO    R434892   9.740   7.775   8.628 -0.2398 -0.1879  0.1770
20559ERGO    R534893   9.749   7.934   8.480 -0.0751 -0.0056  0.3813
20559ERGO    C134894  10.073   7.750   8.398 -0.1231 -0.0664  0.3303
20559ERGO    C234895  10.416   7.635   8.387 -0.1382 -0.0711  0.0095
20560ERGO   ROH34896   8.530   9.935   7.418  0.0305  0.3090  0.0645
20560ERGO    R134897   8.397   9.933   7.668 -0.0275  0.0223  0.0360
20560ERGO    R234898   8.403   9.715   7.839  0.3064 -0.0161 -0.0137
20560ERGO    R334899   8.493   9.899   8.018 -0.0446  0.1010  0.0475
20560ERGO    R434900   8.439   9.660   8.178  0.2638 -0.0042 -0.0078
20560ERGO    R534901   8.361   9.860   8.214 -0.0600 -0.1275 -0.0080
20560ERGO    C134902   8.544   9.801   8.543 -0.0906  0.1126  0.0531
20560ERGO    C234903   8.485   9.749   8.906 -0.0685  0.0482  0.0750
20561ERGO   ROH34904   0.952   1.205   7.111  0.2565 -0.1775  0.0301
20561ERGO    R134905   0.948   1.133   7.385  0.2104 -0.1331  0.0425
20561ERGO    R234906   1.177   1.116   7.538  0.1765  0.0154  0.1207
20561ERGO    R334907   1.043   1.287   7.701  0.0315 -0.0256  0.0439
20561ERGO    R434908   1.252   1.172   7.870  0.1387  0.2479  0.0909
20561ERGO    R534909   1.038   1.176   7.913  0.1399  0.0770  0.0972
20561ERGO    C134910   1.169   1.365   8.217 -0.0195  0.3447  0.0014
20561ERGO    C234911   1.193   1.483   8.597 -0.0907 -0.0166  0.0251
20562ERGO   ROH34912   9.726   2.521   6.809 -0.2376  0.1366  0.1613
20562ERGO    R134913   9.756   2.450   7.082 -0.2574  0.1113  0.1560
20562ERGO    R234914   9.981   2.515   7.229 -0.1785 -0.0890  0.1161
20562ERGO    R334915   9.799   2.625   7.397 -0.0504  0.0736  0.1521
20562ERGO    R434916  10.050   2.628   7.548 -0.0364 -0.3124  0.1677
20562ERGO    R534917   9.861   2.544   7.614 -0.1564 -0.1038  0.1231
20562ERGO    C134918   9.920   2.798   7.892  0.1665 -0.2898  0.2314
20562ERGO    C234919   9.721   2.932   8.110 -0.1978 -0.1431 -0.0404
20563ERGO   ROH34920   6.405   1.673   7.436 -0.0775 -0.0052 -0.0186
20563ERGO    R134921   6.396   1.864   7.645  0.0009 -0.0645  0.0395
20563ERGO    R234922   6.296   1.806   7.896 -0.0275 -0.0986  0.0190
20563ERGO    R334923   6.538   1.899   7.978  0.0109 -0.2257  0.0533
20563ERGO    R434924   6.369   1.910   8.218 -0.0558 -0.0243  0.0020
20563ERGO    R534925   6.485   2.074   8.133  0.0778 -0.1305 -0.0283
20563ERGO    C134926   6.639   2.058   8.482 -0.0361 -0.1004  0.0241
20563ERGO    C234927   6.614   1.804   8.746  0.2534  0.1945  0.2512
20564ERGO   ROH34928   1.961   2.278  10.646  0.2683  0.1666 -0.0050
20564ERGO    R134929   2.029   2.179  10.390  0.1446  0.0003  0.0257
20564ERGO    R234930   2.004   1.912  10.322 -0.1368  0.0016  0.1277
20564ERGO    R334931   1.857   2.011  10.117 -0.0513  0.0750  0.1005
20564ERGO    R434932   2.030   1.809   9.993 -0.2510 -0.1479  0.1637
20564ERGO    R534933   2.009   2.017   9.932 -0.0486 -0.1434  0.0892
20564ERGO    C134934   1.907   1.843   9.609 -0.2373 -0.1661  0.1590
20564ERGO    C234935   1.816   1.793   9.396  0.1487 -0.0464 -0.2194
20565ERGO   ROH34936  11.533  16.730   7.236  0.0327  0.2920 -0.0006
20565ERGO    R134937  11.469  16.607   7.482  0.0142  0.2967 -0.0025
20565ERGO    R234938  11.583  16.367   7.563 -0.0945  0.2230 -0.0505
20565ERGO    R334939  11.649  16.512   7.784  0.0242  0.1684 -0.0506
20565ERGO    R434940  11.710  16.236   7.856 -0.0659  0.1491 -0.0961
20565ERGO    R534941  11.585  16.373   7.968  0.0241  0.1808 -0.0482
20565ERGO    C134942  11.846  16.294   8.234  0.0623  0.0547 -0.1228
20565ERGO    C234943  11.979  16.271   8.601  0.1226 -0.0702 -0.1980
20566ERGO   ROH34944   4.701   6.593   7.132  0.1875 -0.0477 -0.0022
20566ERGO    R134945   4.769   6.708   7.382  0.1163  0.0306 -0.0185
20566ERGO    R234946   4.606   6.688   7.604  0.1182 -0.0202 -0.0218
20566ERGO    R334947   4.831   6.589   7.720  0.1679  0.1199  0.0041
20566ERGO    R434948   4.644   6.631   7.942  0.0245 -0.2202 -0.0434
20566ERGO    R534949   4.848   6.708   7.927 -0.0413 -0.0059  0.0976
20566ERGO    C134950   4.878   6.505   8.249  0.0165 -0.2051 -0.0316
20566ERGO    C234951   4.814   6.375   8.590 -0.1218  0.0977 -0.2026
20567ERGO   ROH34952  15.188  12.804   7.312  0.0556  0.1303  0.0891
20567ERGO    R134953  15.266  12.843   7.581  0.0117 -0.0227  0.1247
20567ERGO    R234954  15.255  13.089   7.705  0.2669 -0.0340  0.1749
20567ERGO    R334955  15.107  12.955   7.889  0.0400  0.1015  0.0940
20567ERGO    R434956  15.270  13.142   8.046  0.1324 -0.0566  0.1847
20567ERGO    R534957  15.255  12.926   8.075 -0.0874 -0.0438  0.1740
20567ERGO    C134958  15.139  13.047   8.417 -0.1589  0.0576  0.1145
20567ERGO    C234959  14.904  13.117   8.637 -0.1874 -0.1343 -0.0729
20568ERGO   ROH34960   6.359   4.724  10.337 -0.2655 -0.0184  0.0900
20568ERGO    R134961   6.254   4.893  10.136 -0.3215  0.1652  0.2685
20568ERGO    R234962   6.220   4.811   9.874  0.1118  0.5612  0.0644
20568ERGO    R334963   5.964   4.892   9.916 -0.0787  0.0543 -0.0526
20568ERGO    R434964   5.998   4.900   9.625  0.0695  0.2407 -0.0155
20568ERGO    R534965   5.929   5.063   9.752 -0.3196  0.0538  0.0070
20568ERGO    C134966   5.629   5.029   9.519 -0.1340 -0.4218 -0.1718
20568ERGO    C234967   5.415   5.100   9.269 -0.3917 -0.1784  0.1842
20569ERGO   ROH34968   8.398   2.429   6.789 -0.1693 -0.0701  0.0347
20569ERGO    R134969   8.331   2.559   7.031 -0.0943 -0.2207  0.1393
20569ERGO    R234970   8.448   2.495   7.272  0.2732 -0.1085  0.0031
20569ERGO    R334971   8.504   2.760   7.280 -0.1038 -0.0237 -0.0131
20569ERGO    R434972   8.516   2.674   7.560  0.0690  0.0085 -0.0199
20569ERGO    R534973   8.397   2.838   7.480 -0.1779 -0.1646 -0.0020
20569ERGO    C134974   8.609   3.028   7.734 -0.4037  0.1562 -0.0486
20569ERGO    C234975   8.663   3.169   8.149 -0.1018  0.2949 -0.0074
20570ERGO   ROH34976   1.318   8.502  10.688 -0.1645  0.1412  0.1646
20570ERGO    R134977   1.166   8.630  10.486 -0.1787  0.1279  0.1674
20570ERGO    R234978   1.280   8.728  10.254 -0.1933  0.1297  0.1643
20570ERGO    R334979   1.092   8.572  10.134 -0.1881  0.1185  0.1699
20570ERGO    R434980   1.200   8.739   9.918 -0.1154  0.0469  0.1425
20570ERGO    R534981   0.990   8.717   9.973 -0.1336  0.0896  0.1053
20570ERGO    C134982   0.977   8.599   9.610 -0.0653 -0.0119  0.1350
20570ERGO    C234983   0.915   8.598   9.292 -0.0653 -0.0128  0.1219
20571ERGO   ROH34984  16.092   6.636   6.976 -0.0282 -0.0693  0.1188
20571ERGO    R134985  16.250   6.629   7.211  0.0887 -0.2512  0.0362
20571ERGO    R234986  16.141   6.638   7.464  0.2390  0.0970  0.0920
20571ERGO    R334987  16.284   6.410   7.500 -0.1801 -0.1710  0.1320
20571ERGO    R434988  16.313   6.556   7.752  0.1933 -0.1085  0.0626
20571ERGO    R534989  16.474   6.479   7.628  0.0064 -0.4746  0.0311
20571ERGO    C134990  16.548   6.294   7.953 -0.2267 -0.4796  0.0830
20571ERGO    C234991  16.678   6.083   8.204 -0.2266  0.0706  0.3861
20572ERGO   ROH34992  15.312   8.319   7.275 -0.0532  0.0059  0.0826
20572ERGO    R134993  15.248   8.370   7.545  0.0065 -0.0163  0.1020
20572ERGO    R234994  15.123   8.183   7.707 -0.0798  0.0148  0.0789
20572ERGO    R334995  15.336   8.229   7.869 -0.0315 -0.1369  0.0590
20572ERGO    R434996  15.133   8.111   8.044 -0.0641 -0.0568  0.0628
20572ERGO    R534997  15.238   8.299   8.077  0.0426 -0.1258  0.0864
20572ERGO    C134998  15.338   8.112   8.394 -0.0098 -0.2410  0.0347
20572ERGO    C234999  15.398   7.864   8.487 -0.1350 -0.0266 -0.1811
20573ERGO   ROH35000  11.827  17.403   7.045  0.0914  0.2910  0.0926
20573ERGO    R135001  11.858  17.534   7.293 -0.1059  0.2278  0.1521
20573ERGO    R235002  11.646  17.579   7.465 -0.1823 -0.1395  0.1605
20573ERGO    R335003  11.806  17.452   7.644 -0.0149  0.0026  0.1147
20573ERGO    R435004  11.561  17.510   7.793  0.0230 -0.0984  0.2243
20573ERGO    R535005  11.763  17.562   7.852  0.0257  0.0371  0.1064
20573ERGO    C135006  11.661  17.349   8.151  0.2997  0.0587  0.2184
20573ERGO    C235007  11.614  17.190   8.517 -0.0518 -0.4958  0.1183
20574ERGO   ROH35008   3.786  15.791  10.614  0.1279 -0.0457  0.0612
20574ERGO    R135009   3.674  15.848  10.360  0.0508 -0.0409  0.0956
20574ERGO    R235010   3.823  15.952  10.152 -0.0135 -0.0283  0.0534
20574ERGO    R335011   3.727  15.736  10.018 -0.0457 -0.0281  0.0770
20574ERGO    R435012   3.869  15.892   9.815 -0.0935 -0.0334  0.0435
20574ERGO    R535013   3.663  15.823   9.804 -0.0946 -0.0316  0.0918
20574ERGO    C135014   3.805  15.655   9.492 -0.1703 -0.0362  0.0600
20574ERGO    C235015   3.748  15.617   9.127  0.1306 -0.2406 -0.1440
20575ERGO   ROH35016  14.414   2.030   6.850  0.1272  0.4310 -0.2524
20575ERGO    R135017  14.551   1.930   7.077 -0.0037  0.1646 -0.2880
20575ERGO    R235018  14.797   2.026   7.157 -0.0467  0.0645 -0.0408
20575ERGO    R335019  14.670   2.062   7.394 -0.1723 -0.2049 -0.0609
20575ERGO    R435020  14.949   2.006   7.466 -0.1138  0.0855 -0.0059
20575ERGO    R535021  14.772   1.903   7.541 -0.0246 -0.1670 -0.1128
20575ERGO    C135022  14.918   2.029   7.870 -0.2707 -0.1552 -0.0045
20575ERGO    C235023  14.920   2.131   8.286 -0.0932  0.0817 -0.1282
20576ERGO   ROH35024  17.200  15.246  11.010 -0.1546  0.0871  0.0272
20576ERGO    R135025  17.227  15.343  10.745 -0.0567 -0.0348 -0.0083
20576ERGO    R235026  17.247  15.175  10.526 -0.1377 -0.1356  0.0626
20576ERGO    R335027  17.037  15.322  10.435 -0.0314 -0.0333 -0.0257
20576ERGO    R435028  17.182  15.242  10.193 -0.1012 -0.3254  0.0160
20576ERGO    R535029  17.127  15.445  10.250  0.0599 -0.2337 -0.1224
20576ERGO    C135030  16.947  15.420   9.914  0.0201 -0.3397 -0.0940
20576ERGO    C235031  16.738  15.474   9.677 -0.2638  0.2091  0.2084
20577ERGO   ROH35032   6.660  15.324   7.197 -0.0244 -0.0540 -0.1208
20577ERGO    R135033   6.626  15.239   7.465  0.0543 -0.0093 -0.0955
20577ERGO    R235034   6.683  15.403   7.681  0.0140  0.0706 -0.1389
20577ERGO    R335035   6.427  15.342   7.752  0.0474 -0.0312 -0.0927
20577ERGO    R435036   6.530  15.502   7.975 -0.0509  0.2165 -0.2219
20577ERGO    R535037   6.438  15.305   7.988  0.0693  0.1675 -0.0610
20577ERGO    C135038   6.201  15.503   8.212 -0.0573  0.2060 -0.2267
20577ERGO    C235039   6.223  15.786   8.492  0.4117  0.0373 -0.0835
20578ERGO   ROH35040   5.105  10.772   6.881  0.2485  0.2596  0.1241
20578ERGO    R135041   5.204  10.754   7.145  0.0828  0.1675  0.1819
20578ERGO    R235042   5.039  10.734   7.366 -0.0556 -0.0131  0.0659
20578ERGO    R335043   5.189  10.513   7.418  0.0016  0.0217  0.0497
20578ERGO    R435044   5.063  10.581   7.674 -0.0602 -0.0652  0.0404
20578ERGO    R535045   5.276  10.551   7.637 -0.0463  0.0054  0.0709
20578ERGO    C135046   5.218  10.284   7.903 -0.0093 -0.0627  0.0104
20578ERGO    C235047   5.000  10.155   8.248 -0.0505 -0.2552  0.2510
20579ERGO   ROH35048  14.056   0.137   6.750  0.1466 -0.2006 -0.1811
20579ERGO    R135049  14.051   0.066   7.024  0.1981 -0.2778 -0.1990
20579ERGO    R235050  14.275   0.080   7.186  0.1540  0.0076 -0.1534
20579ERGO    R335051  14.113   0.233   7.341 -0.1018 -0.2622 -0.1468
20579ERGO    R435052  14.318   0.133   7.524  0.0144 -0.0018 -0.1341
20579ERGO    R535053  14.102   0.116   7.550  0.0315 -0.3244 -0.1758
20579ERGO    C135054  14.191   0.307   7.868 -0.3070 -0.2605 -0.1167
20579ERGO    C235055  14.251   0.473   8.250 -0.1074 -0.0015 -0.1979
20580ERGO   ROH35056   2.395   4.440   7.405 -0.0010 -0.1989  0.1618
20580ERGO    R135057   2.257   4.557   7.622  0.0208  0.1681 -0.0143
20580ERGO    R235058   2.298   4.479   7.884 -0.4186  0.1441  0.0550
20580ERGO    R335059   2.344   4.744   7.922  0.1240  0.0648  0.0209
20580ERGO    R435060   2.296   4.638   8.191 -0.3746  0.2351  0.0085
20580ERGO    R535061   2.194   4.806   8.098  0.0783  0.4415 -0.1427
20580ERGO    C135062   2.339   4.980   8.405  0.1605  0.2136 -0.0507
20580ERGO    C235063   2.311   5.223   8.552 -0.2743 -0.0300 -0.1620
20581ERGO   ROH35064   6.368   7.125   9.526  0.3579 -0.1777  0.1193
20581ERGO    R135065   6.511   7.241   9.311  0.0968 -0.0588  0.0028
20581ERGO    R235066   6.781   7.194   9.270  0.1457  0.2769 -0.1211
20581ERGO    R335067   6.696   7.121   9.022  0.1033  0.0801 -0.0517
20581ERGO    R435068   6.988   7.113   9.005  0.1138  0.4433 -0.1972
20581ERGO    R535069   6.853   7.221   8.872 -0.0973  0.2298 -0.1698
20581ERGO    C135070   7.028   6.997   8.618  0.0554  0.3556 -0.1763
20581ERGO    C235071   7.163   6.726   8.461  0.2462  0.0227  0.0063
20582ERGO   ROH35072   8.242  13.879   7.492 -0.1026 -0.0744  0.0030
20582ERGO    R135073   8.155  13.702   7.695  0.1853 -0.1802  0.0395
20582ERGO    R235074   8.324  13.521   7.817  0.5017  0.1536  0.1162
20582ERGO    R335075   8.235  13.640   8.045  0.2501  0.0634  0.0694
20582ERGO    R435076   8.395  13.413   8.138  0.4450  0.2337  0.1564
20582ERGO    R535077   8.190  13.458   8.194  0.3636  0.0149  0.0456
20582ERGO    C135078   8.354  13.462   8.538  0.1758  0.1956  0.1359
20582ERGO    C235079   8.486  13.412   8.907  0.0771  0.2034 -0.1141
20583ERGO   ROH35080   7.530   5.583  10.152 -0.1917  0.2386  0.0744
20583ERGO    R135081   7.388   5.585   9.907 -0.1707  0.2386  0.0606
20583ERGO    R235082   7.415   5.788   9.721 -0.1246  0.2258  0.0394
20583ERGO    R335083   7.472   5.582   9.553 -0.1335  0.1978  0.0729
20583ERGO    R435084   7.363   5.791   9.379 -0.1129  0.1508  0.0374
20583ERGO    R535085   7.294   5.585   9.393 -0.1185  0.1683  0.0693
20583ERGO    C135086   7.386   5.600   9.023 -0.1144  0.0809  0.0678
20583ERGO    C235087   7.232   5.685   8.684  0.0971 -0.0712 -0.2788
20584ERGO   ROH35088  17.544  17.035   7.130 -0.1165 -0.0017  0.1307
20584ERGO    R135089  17.566  16.815   7.306 -0.0303 -0.1287 -0.0370
20584ERGO    R235090  17.731  16.599   7.255  0.3036  0.1264 -0.0520
20584ERGO    R335091  17.831  16.658   7.500 -0.0376  0.0408  0.1151
20584ERGO    R435092  17.836  16.366   7.487  0.0512  0.0410 -0.0197
20584ERGO    R535093  17.744  16.487   7.643 -0.1912 -0.0520 -0.0791
20584ERGO    C135094  17.990  16.286   7.854 -0.4161 -0.0893  0.1561
20584ERGO    C235095  18.085  16.093   8.050  0.0512  0.3092  0.2094
20585ERGO   ROH35096   2.092   4.028  10.483 -0.0959 -0.3831  0.0270
20585ERGO    R135097   2.221   4.068  10.234  0.0118 -0.3178  0.0936
20585ERGO    R235098   2.374   3.873  10.113 -0.0640 -0.3366  0.0390
20585ERGO    R335099   2.209   3.919   9.903  0.0385 -0.1219  0.0011
20585ERGO    R435100   2.450   3.800   9.784 -0.1239 -0.5791  0.0758
20585ERGO    R535101   2.355   3.989   9.726  0.1976 -0.4248 -0.0009
20585ERGO    C135102   2.338   3.802   9.394 -0.0626 -0.5188  0.0616
20585ERGO    C235103   2.571   3.627   9.056  0.1652  0.1982  0.0760
20586ERGO   ROH35104  15.577  11.954   7.585  0.0634  0.2928  0.0926
20586ERGO    R135105  15.710  11.733   7.702 -0.0121  0.1524 -0.0839
20586ERGO    R235106  15.940  11.759   7.853 -0.0566 -0.0359  0.0172
20586ERGO    R335107  15.795  11.623   8.038 -0.1374 -0.1994 -0.1620
20586ERGO    R435108  16.075  11.553   8.095 -0.1296  0.0178  0.1049
20586ERGO    R535109  15.910  11.414   8.060  0.0153 -0.1122 -0.0985
20586ERGO    C135110  16.018  11.304   8.410 -0.2480 -0.1044 -0.0122
20586ERGO    C235111  16.133  11.227   8.725  0.2215 -0.0256 -0.0509
20587ERGO   ROH35112  17.264   9.460   7.177 -0.0493 -0.0315  0.1784
20587ERGO    R135113  17.509   9.408   7.309 -0.0069 -0.1581  0.0537
20587ERGO    R235114  17.609   9.572   7.507  0.2546 -0.1265 -0.0969
20587ERGO    R335115  17.616   9.341   7.650  0.1511 -0.0541  0.0248
20587ERGO    R435116  17.825   9.509   7.770  0.3405 -0.1438 -0.1720
20587ERGO    R535117  17.849   9.306   7.695  0.1480 -0.2046 -0.0746
20587ERGO    C135118  17.956   9.255   8.058  0.2931 -0.0859 -0.1015
20587ERGO    C235119  18.183   9.208   8.362  0.0870 -0.3295 -0.0568
20588ERGO   ROH35120   5.536   2.404  10.449  0.1385  0.0392  0.0378
20588ERGO    R135121   5.509   2.330  10.177  0.0846  0.0220  0.0494
20588ERGO    R235122   5.522   2.513   9.971 -0.0335  0.0112  0.0377
20588ERGO    R335123   5.714   2.346   9.877 -0.0135  0.0744 -0.0128
20588ERGO    R435124   5.642   2.511   9.647 -0.1112  0.0511  0.0071
20588ERGO    R535125   5.645   2.294   9.654 -0.0478  0.0598  0.0040
20588ERGO    C135126   5.893   2.353   9.370 -0.1377  0.1337 -0.0582
20588ERGO    C235127   6.073   2.563   9.161 -0.3410  0.2954 -0.0422
20589ERGO   ROH35128  11.715   1.392  10.727 -0.0343 -0.2257 -0.0608
20589ERGO    R135129  11.694   1.268  10.474  0.1824 -0.1298 -0.1256
20589ERGO    R235130  11.526   1.362  10.275  0.1587 -0.2129 -0.1290
20589ERGO    R335131  11.754   1.361  10.127  0.2063  0.0883 -0.0672
20589ERGO    R435132  11.538   1.339   9.931  0.2648 -0.3049 -0.1220
20589ERGO    R535133  11.710   1.206   9.950  0.4753 -0.0474 -0.0332
20589ERGO    C135134  11.759   1.326   9.591  0.3713 -0.0758 -0.0599
20589ERGO    C235135  11.748   1.287   9.261  0.1351  0.2152 -0.1659
20590ERGO   ROH35136   9.645  12.164  11.201  0.2104 -0.0928  0.0306
20590ERGO    R135137   9.593  12.090  10.932  0.1091  0.0841  0.0002
20590ERGO    R235138   9.593  12.273  10.725  0.3169  0.1754  0.0819
20590ERGO    R335139   9.773  12.100  10.616  0.1079  0.0064 -0.0043
20590ERGO    R435140   9.631  12.215  10.386  0.2245  0.2850  0.0519
20590ERGO    R535141   9.657  12.003  10.430 -0.0253  0.2275 -0.0438
20590ERGO    C135142   9.822  12.020  10.087 -0.0255  0.1901 -0.0464
20590ERGO    C235143   9.902  12.091   9.698  0.1616  0.2728  0.0088
20591ERGO   ROH35144   0.061  11.927   7.467 -0.0004  0.0456  0.0405
20591ERGO    R135145   0.134  11.739   7.666  0.0216  0.0549  0.0416
20591ERGO    R235146   0.022  11.739   7.919 -0.0004  0.0245  0.0335
20591ERGO    R335147  -0.034  11.480   7.859  0.0579  0.0153  0.0196
20591ERGO    R435148  -0.049  11.494   8.151  0.1081 -0.0181  0.0218
20591ERGO    R535149   0.071  11.354   8.034  0.1229  0.0259 -0.0127
20591ERGO    C135150  -0.143  11.107   8.230  0.2259 -0.0515  0.0020
20591ERGO    C235151  -0.257  10.729   8.405  0.2171 -0.0614  0.1799
20592ERGO   ROH35152  14.557  14.042   7.074 -0.0656  0.0766 -0.0792
20592ERGO    R135153  14.722  14.064   7.302 -0.1817  0.0317  0.0110
20592ERGO    R235154  14.638  14.185   7.536 -0.2727  0.0637 -0.0338
20592ERGO    R335155  14.714  13.948   7.647 -0.4057  0.0414  0.0090
20592ERGO    R435156  14.731  14.143   7.866 -0.1199  0.1021 -0.0713
20592ERGO    R535157  14.889  14.008   7.800 -0.2706 -0.0515 -0.1113
20592ERGO    C135158  14.855  13.897   8.163 -0.1557  0.1036 -0.0529
20592ERGO    C235159  14.703  14.043   8.467 -0.3800  0.0112 -0.1016
20593ERGO   ROH35160  17.018  17.070   7.092  0.1168 -0.0706 -0.0230
20593ERGO    R135161  16.923  17.111   7.355  0.0665 -0.2044 -0.0174
20593ERGO    R235162  16.980  16.938   7.563  0.2060 -0.2040 -0.0426
20593ERGO    R335163  17.071  17.164   7.684  0.0104 -0.1463 -0.0042
20593ERGO    R435164  17.029  16.973   7.903  0.0973 -0.1743 -0.0310
20593ERGO    R535165  16.947  17.175   7.889 -0.0421 -0.2406 -0.0385
20593ERGO    C135166  17.142  17.206   8.215 -0.1496 -0.1030  0.0118
20593ERGO    C235167  17.242  17.322   8.448  0.0524  0.0544  0.1482
20594ERGO   ROH35168  17.353   3.512   7.228  0.1356 -0.3664 -0.1882
20594ERGO    R135169  17.431   3.370   7.460 -0.0059 -0.1166  0.0175
20594ERGO    R235170  17.377   3.462   7.716 -0.3064  0.0838 -0.1097
20594ERGO    R335171  17.263   3.217   7.745 -0.1955  0.0438 -0.0061
20594ERGO    R435172  17.279   3.324   8.017 -0.1832  0.1362 -0.0453
20594ERGO    R535173  17.356   3.132   7.949 -0.1163  0.1478  0.0008
20594ERGO    C135174  17.115   3.014   8.220 -0.0073  0.1292  0.0896
20594ERGO    C235175  16.887   2.909   8.355 -0.0068  0.0579  0.1116
20595ERGO   ROH35176   2.142   5.659   6.802 -0.0726 -0.0294  0.0238
20595ERGO    R135177   1.975   5.657   7.030 -0.0958 -0.0937  0.0067
20595ERGO    R235178   2.047   5.533   7.267 -0.0118  0.0513  0.0601
20595ERGO    R335179   1.994   5.778   7.373 -0.2350  0.0459 -0.0341
20595ERGO    R435180   1.967   5.590   7.598  0.1143  0.1290  0.0780
20595ERGO    R535181   1.819   5.736   7.531 -0.0953 -0.0776  0.0886
20595ERGO    C135182   1.870   5.853   7.891 -0.0217  0.1690  0.0001
20595ERGO    C235183   1.723   5.824   8.149 -0.2104 -0.1991 -0.4220
20596ERGO   ROH35184   9.756  10.597   7.203 -0.0816  0.1768 -0.0008
20596ERGO    R135185   9.660  10.398   7.380 -0.1717  0.1122 -0.1204
20596ERGO    R235186   9.797  10.324   7.609 -0.1997 -0.0955 -0.1693
20596ERGO    R335187   9.560  10.381   7.730 -0.1682 -0.0561 -0.1262
20596ERGO    R435188   9.725  10.267   7.942 -0.0654  0.1346 -0.0991
20596ERGO    R535189   9.526  10.202   7.884 -0.0744  0.0487  0.0202
20596ERGO    C135190   9.460  10.289   8.249  0.0425  0.3056 -0.0176
20596ERGO    C235191   9.187  10.364   8.472  0.1798  0.0006  0.1810
20597ERGO   ROH35192  17.278  14.229  10.851 -0.0799 -0.1902 -0.0347
20597ERGO    R135193  17.250  14.283  10.575 -0.1800  0.0317  0.0165
20597ERGO    R235194  17.334  14.107  10.379 -0.1320  0.2425 -0.1583
20597ERGO    R335195  17.078  14.131  10.292 -0.1692  0.1775 -0.0693
20597ERGO    R435196  17.237  14.101  10.048 -0.2421  0.3085 -0.1278
20597ERGO    R535197  17.095  14.261  10.092 -0.2837  0.2430 -0.0354
20597ERGO    C135198  16.940  14.121   9.773 -0.3411  0.2859 -0.0266
20597ERGO    C235199  16.763  13.907   9.676  0.1444  0.0120  0.0159
20598ERGO   ROH35200   4.200  13.449  10.586  0.2073  0.1498 -0.1450
20598ERGO    R135201   4.139  13.342  10.331 -0.0379  0.2059 -0.1118
20598ERGO    R235202   4.022  13.493  10.130  0.2366  0.3966 -0.1311
20598ERGO    R335203   4.237  13.408   9.987  0.0586 -0.0714 -0.1404
20598ERGO    R435204   4.029  13.459   9.786  0.1116  0.2450 -0.1201
20598ERGO    R535205   4.143  13.275   9.812 -0.2293  0.0323 -0.0706
20598ERGO    C135206   4.235  13.359   9.451 -0.1284 -0.2827 -0.1224
20598ERGO    C235207   4.380  13.270   9.111  0.0708 -0.1515  0.2729
20599ERGO   ROH35208  16.299  15.618  11.000  0.1449 -0.1547 -0.2480
20599ERGO    R135209  16.204  15.808  10.813  0.1123 -0.0662 -0.1419
20599ERGO    R235210  16.332  15.857  10.573 -0.0042 -0.0504 -0.1962
20599ERGO    R335211  16.088  15.803  10.468 -0.0845  0.0779 -0.0807
20599ERGO    R435212  16.239  15.926  10.248 -0.0119 -0.2656 -0.2409
20599ERGO    R535213  16.044  15.989  10.322  0.0591 -0.0088 -0.2459
20599ERGO    C135214  15.954  15.915   9.959 -0.0920 -0.2704 -0.1587
20599ERGO    C235215  15.845  15.917   9.522 -0.0956 -0.2123 -0.0759
20600ERGO   ROH35216   2.322   9.412  10.360 -0.1198 -0.0128 -0.1200
20600ERGO    R135217   2.366   9.279  10.114 -0.0444 -0.0309 -0.0973
20600ERGO    R235218   2.188   9.294   9.903 -0.0847 -0.2221 -0.0772
20600ERGO    R335219   2.407   9.376   9.765 -0.1699 -0.0730 -0.1252
20600ERGO    R435220   2.197   9.344   9.562 -0.1789 -0.3082 -0.0921
20600ERGO    R535221   2.396   9.253   9.559 -0.0973 -0.1423 -0.0912
20600ERGO    C135222   2.409   9.450   9.233 -0.3138 -0.2181 -0.1459
20600ERGO    C235223   2.230   9.455   8.963 -0.1483  0.0417 -0.1183
20601ERGO   ROH35224  15.637  16.548   7.207 -0.2223 -0.1025  0.1001
20601ERGO    R135225  15.734  16.497   7.467 -0.2776 -0.0301  0.1348
20601ERGO    R235226  15.987  16.572   7.549 -0.1496 -0.3595  0.0383
20601ERGO    R335227  15.851  16.695   7.749  0.0668  0.0353 -0.0459
20601ERGO    R435228  16.122  16.659   7.855 -0.0241 -0.5860  0.0492
20601ERGO    R535229  15.936  16.595   7.949 -0.2266 -0.1197  0.0137
20601ERGO    C135230  16.073  16.824   8.222  0.2521 -0.3474 -0.0235
20601ERGO    C235231  16.005  17.064   8.566 -0.0042 -0.2726 -0.0973
20602ERGO   ROH35232  13.716  10.682   7.200  0.1289  0.0494 -0.0698
20602ERGO    R135233  13.708  10.802   7.456  0.0883  0.0499 -0.0710
20602ERGO    R235234  13.603  10.675   7.677  0.0267  0.0615 -0.0930
20602ERGO    R335235  13.846  10.732   7.785  0.0103  0.0336 -0.0417
20602ERGO    R435236  13.670  10.691   8.016 -0.1096  0.3282 -0.0760
20602ERGO    R535237  13.795  10.865   7.978 -0.0053  0.2322 -0.1792
20602ERGO    C135238  13.936  10.753   8.315 -0.2044  0.4573 -0.0177
20602ERGO    C235239  14.026  10.630   8.561 -0.3929  0.0242 -0.2428
20603ERGO   ROH35240   4.220   1.988   7.180 -0.1640  0.2333 -0.1282
20603ERGO    R135241   4.385   2.069   7.395  0.0540  0.0453 -0.2203
20603ERGO    R235242   4.283   2.173   7.630  0.3100  0.2656 -0.2048
20603ERGO    R335243   4.430   1.975   7.744  0.0631  0.0730 -0.2129
20603ERGO    R435244   4.488   2.213   7.905  0.2987 -0.0135 -0.1527
20603ERGO    R535245   4.633   2.082   7.810  0.1747 -0.1640 -0.1497
20603ERGO    C135246   4.745   2.051   8.173  0.0603 -0.3567 -0.1302
20603ERGO    C235247   4.780   2.141   8.624  0.0261 -0.0215 -0.0989
20604ERGO   ROH35248   3.817  12.511  10.477 -0.2847 -0.0023 -0.0074
20604ERGO    R135249   3.834  12.377  10.228 -0.1204 -0.0230  0.0141
20604ERGO    R235250   3.650  12.415  10.025 -0.1045 -0.1963 -0.0339
20604ERGO    R335251   3.871  12.472   9.878 -0.1145 -0.0402  0.0097
20604ERGO    R435252   3.658  12.439   9.680 -0.0875 -0.0323 -0.0231
20604ERGO    R535253   3.850  12.336   9.683 -0.0460  0.0415 -0.0561
20604ERGO    C135254   3.871  12.506   9.342 -0.0870  0.2098  0.0244
20604ERGO    C235255   3.858  12.469   9.025 -0.0524  0.3557  0.1415
20605ERGO   ROH35256  13.089   3.882  10.875 -0.1555 -0.2170 -0.0003
20605ERGO    R135257  13.174   3.958  10.616 -0.0783  0.0730  0.1049
20605ERGO    R235258  13.225   3.774  10.415  0.3617  0.2652  0.0136
20605ERGO    R335259  13.048   3.926  10.277  0.2206  0.0734 -0.0037
20605ERGO    R435260  13.239   3.838  10.076  0.0185 -0.0941 -0.0762
20605ERGO    R535261  13.180   4.042  10.116  0.0286 -0.0816 -0.2585
20605ERGO    C135262  13.081   4.018   9.748 -0.3139 -0.4833 -0.1448
20605ERGO    C235263  13.086   3.989   9.397  0.2048  0.0941 -0.1210
20606ERGO   ROH35264   0.695  15.726   7.200  0.0718  0.1889 -0.0018
20606ERGO    R135265   0.636  15.616   7.454  0.1566  0.0156 -0.0562
20606ERGO    R235266   0.824  15.598   7.655  0.1362  0.1882 -0.0224
20606ERGO    R335267   0.637  15.732   7.800 -0.0759 -0.1108 -0.0107
20606ERGO    R435268   0.841  15.653   7.996  0.1821  0.3925 -0.0566
20606ERGO    R535269   0.627  15.613   8.008  0.2574 -0.0349  0.0565
20606ERGO    C135270   0.675  15.811   8.330  0.0096  0.2308 -0.0655
20606ERGO    C235271   0.451  15.851   8.684 -0.0034 -0.2289  0.1956
20607ERGO   ROH35272   5.642   6.319   7.053  0.3624 -0.0784 -0.0671
20607ERGO    R135273   5.790   6.250   7.284  0.2294 -0.0631  0.0226
20607ERGO    R235274   5.702   6.308   7.539 -0.0016 -0.2030 -0.0260
20607ERGO    R335275   5.739   6.042   7.578  0.1360 -0.1941 -0.0835
20607ERGO    R435276   5.710   6.153   7.848 -0.1557 -0.2894 -0.0637
20607ERGO    R535277   5.874   6.029   7.776 -0.0126 -0.1652  0.0260
20607ERGO    C135278   5.749   5.813   8.065 -0.1162 -0.3313 -0.1395
20607ERGO    C235279   5.925   5.762   8.352 -0.1866 -0.3289 -0.2340
20608ERGO   ROH35280   2.790  14.332   7.559  0.2839  0.0682  0.0240
20608ERGO    R135281   2.693  14.483   7.778  0.1572  0.1221 -0.0694
20608ERGO    R235282   2.769  14.434   8.039 -0.1669  0.0395  0.0106
20608ERGO    R335283   2.835  14.697   8.035  0.0378 -0.0076  0.1080
20608ERGO    R435284   2.798  14.635   8.319  0.0849 -0.1118  0.0973
20608ERGO    R535285   2.701  14.795   8.208  0.1690  0.0175  0.2007
20608ERGO    C135286   2.876  15.000   8.478  0.4235 -0.2441  0.2393
20608ERGO    C235287   3.026  15.120   8.741  0.1237  0.2072 -0.1463
20609ERGO   ROH35288  15.143  16.472   7.374  0.0757  0.1405 -0.1041
20609ERGO    R135289  15.221  16.606   7.610  0.1474  0.1057 -0.1081
20609ERGO    R235290  15.139  16.526   7.861  0.0305  0.2099 -0.1139
20609ERGO    R335291  15.406  16.524   7.913  0.0209 -0.0122 -0.0614
20609ERGO    R435292  15.279  16.559   8.175 -0.0028  0.3366 -0.1116
20609ERGO    R535293  15.434  16.686   8.087  0.1439  0.1118 -0.1915
20609ERGO    C135294  15.612  16.577   8.407 -0.0312  0.2017 -0.0610
20609ERGO    C235295  15.947  16.522   8.599 -0.0115  0.0635  0.3420
20610ERGO   ROH35296   1.658   6.608  10.346 -0.0510 -0.1322  0.0917
20610ERGO    R135297   1.729   6.468  10.110 -0.1154 -0.2136  0.1199
20610ERGO    R235298   1.548   6.319   9.965 -0.2162 -0.0598  0.0821
20610ERGO    R335299   1.632   6.475   9.759 -0.0187 -0.1469  0.0947
20610ERGO    R435300   1.582   6.211   9.639 -0.5539 -0.0227  0.0303
20610ERGO    R535301   1.767   6.328   9.626 -0.3420 -0.3540 -0.0114
20610ERGO    C135302   1.681   6.295   9.255 -0.5652 -0.0830  0.0122
20610ERGO    C235303   1.687   6.069   9.064 -0.1098  0.1786 -0.0443
20611ERGO   ROH35304   5.740   5.084   7.171  0.0989 -0.1823 -0.1964
20611ERGO    R135305   5.722   5.046   7.451 -0.0072  0.0483 -0.1696
20611ERGO    R235306   5.938   4.972   7.606 -0.1192 -0.0638 -0.0649
20611ERGO    R335307   5.871   5.193   7.749  0.0791  0.1184 -0.2466
20611ERGO    R435308   6.045   5.040   7.928 -0.3370 -0.0758  0.0116
20611ERGO    R535309   5.845   5.114   7.973 -0.2759  0.2643 -0.2279
20611ERGO    C135310   6.044   5.287   8.249 -0.2777  0.0881 -0.1145
20611ERGO    C235311   6.140   5.435   8.648 -0.2489 -0.1257 -0.0042
20612ERGO   ROH35312  15.466   1.139  10.446 -0.0981  0.2056 -0.1075
20612ERGO    R135313  15.516   0.993  10.208 -0.1717  0.2060 -0.1241
20612ERGO    R235314  15.380   1.041   9.972 -0.0633  0.3862 -0.1550
20612ERGO    R335315  15.631   1.068   9.871 -0.0063  0.1698 -0.0757
20612ERGO    R435316  15.473   0.958   9.650  0.0374  0.0565 -0.0440
20612ERGO    R535317  15.659   0.877   9.730 -0.0390  0.0329  0.1044
20612ERGO    C135318  15.762   0.934   9.367  0.1496 -0.3385  0.0952
20612ERGO    C235319  15.921   0.808   9.094 -0.0651  0.0371 -0.1314
20613ERGO   ROH35320   0.570  10.780  10.475  0.4133 -0.2014 -0.0450
20613ERGO    R135321   0.440  10.671  10.248  0.2700 -0.0986 -0.0133
20613ERGO    R235322   0.200  10.770  10.153  0.2481 -0.0007  0.1385
20613ERGO    R335323   0.338  10.789   9.919  0.1394  0.0304  0.0706
20613ERGO    R435324   0.059  10.833   9.843  0.1040  0.0638  0.2152
20613ERGO    R535325   0.196  10.687   9.757  0.0533  0.0671  0.1209
20613ERGO    C135326   0.107  10.886   9.444 -0.0818  0.1304  0.1960
20613ERGO    C235327  -0.161  11.115   9.233 -0.0284  0.2098  0.1941
20614ERGO   ROH35328  10.300   6.804   7.179  0.0157  0.0797 -0.0210
20614ERGO    R135329  10.347   6.758   7.454  0.0067 -0.1265 -0.0523
20614ERGO    R235330  10.261   6.932   7.651  0.3223 -0.0787  0.0503
20614ERGO    R335331  10.145   6.708   7.752 -0.0105  0.0505 -0.0327
20614ERGO    R435332  10.155   6.894   7.978  0.0692  0.0300 -0.0170
20614ERGO    R535333  10.232   6.691   7.975 -0.1695 -0.0652  0.0235
20614ERGO    C135334   9.984   6.663   8.264 -0.3906  0.2146 -0.1341
20614ERGO    C235335  10.132   6.707   8.637  0.0025 -0.1617 -0.3608
20615ERGO   ROH35336  14.962  11.022   7.278 -0.0772  0.1571 -0.1285
20615ERGO    R135337  14.824  11.008   7.525 -0.0934  0.2017 -0.1344
20615ERGO    R235338  14.954  11.007   7.769 -0.0887 -0.0918 -0.1320
20615ERGO    R335339  14.790  11.217   7.821  0.1765  0.0928 -0.0247
20615ERGO    R435340  14.823  11.082   8.079 -0.1066 -0.1641 -0.1222
20615ERGO    R535341  14.635  11.133   7.982 -0.0024  0.1734 -0.1557
20615ERGO    C135342  14.592  11.324   8.309  0.1319 -0.0330 -0.0158
20615ERGO    C235343  14.555  11.269   8.689  0.1559 -0.0396 -0.3266
20616ERGO   ROH35344  12.109   2.202  10.764  0.0869  0.0023 -0.1125
20616ERGO    R135345  11.973   2.223  10.517  0.0956  0.0707 -0.1134
20616ERGO    R235346  12.004   2.439  10.348  0.1897  0.0694 -0.1103
20616ERGO    R335347  12.064   2.247  10.166  0.1115  0.0453 -0.1090
20616ERGO    R435348  12.001   2.484  10.005 -0.2283 -0.0675 -0.1295
20616ERGO    R535349  11.912   2.286   9.985 -0.1167 -0.1298  0.0466
20616ERGO    C135350  12.057   2.329   9.635 -0.5450 -0.1699 -0.1393
20616ERGO    C235351  12.149   2.288   9.413  0.2096 -0.2164 -0.0373
20617ERGO   ROH35352   4.478  15.981  10.849 -0.0258 -0.1782 -0.0509
20617ERGO    R135353   4.624  16.090  10.632 -0.1074 -0.0378 -0.0350
20617ERGO    R235354   4.790  15.938  10.472 -0.0305  0.1031 -0.0818
20617ERGO    R335355   4.638  16.041  10.272 -0.1019  0.0623 -0.0504
20617ERGO    R435356   4.850  15.890  10.136 -0.1529  0.0035 -0.0906
20617ERGO    R535357   4.797  16.099  10.102 -0.1530  0.0058 -0.1254
20617ERGO    C135358   4.742  15.959   9.751 -0.2912 -0.0928 -0.0663
20617ERGO    C235359   4.719  15.944   9.329 -0.1284  0.0024  0.0086
20618ERGO   ROH35360   2.788  12.608  10.704  0.0830 -0.0529  0.1341
20618ERGO    R135361   2.699  12.646  10.438  0.0401  0.0160  0.1580
20618ERGO    R235362   2.812  12.833  10.269  0.1730 -0.1025  0.1128
20618ERGO    R335363   2.843  12.619  10.104 -0.0835 -0.1460  0.1169
20618ERGO    R435364   2.820  12.849   9.924 -0.0014 -0.1489  0.1057
20618ERGO    R535365   2.701  12.666   9.918 -0.1480 -0.0566  0.1891
20618ERGO    C135366   2.853  12.657   9.568 -0.3437 -0.2169  0.1055
20618ERGO    C235367   2.956  12.979   9.436  0.1702  0.1492  0.0160
20619ERGO   ROH35368   3.652  16.856  10.610 -0.2148 -0.0709 -0.0567
20619ERGO    R135369   3.579  16.953  10.355 -0.2462 -0.2395 -0.1107
20619ERGO    R235370   3.755  17.092  10.193 -0.4193  0.0996  0.0044
20619ERGO    R335371   3.687  16.901  10.011  0.0842 -0.0508 -0.0440
20619ERGO    R435372   3.779  17.128   9.850 -0.5544  0.3022  0.0127
20619ERGO    R535373   3.589  17.024   9.830 -0.2927 -0.2392  0.0083
20619ERGO    C135374   3.730  16.971   9.480 -0.1605  0.2790 -0.0277
20619ERGO    C235375   3.814  16.888   9.132 -0.0431 -0.0147 -0.0795
20620ERGO   ROH35376   0.627  17.430   7.049 -0.0262  0.0491 -0.0120
20620ERGO    R135377   0.805  17.458   7.268 -0.0099  0.0939 -0.0306
20620ERGO    R235378   0.870  17.704   7.377 -0.1073  0.1075  0.0014
20620ERGO    R335379   0.787  17.587   7.608 -0.0257  0.0305 -0.0077
20620ERGO    R435380   0.983  17.789   7.692  0.0775 -0.0708 -0.0148
20620ERGO    R535381   0.984  17.577   7.743  0.0379 -0.0928 -0.1105
20620ERGO    C135382   0.971  17.729   8.093  0.2616 -0.2469 -0.0327
20620ERGO    C235383   1.135  17.867   8.313 -0.6410  0.2963 -0.1482
20621ERGO   ROH35384   6.100  16.267  10.476 -0.0441  0.2482  0.0970
20621ERGO    R135385   6.092  16.095  10.251  0.0208  0.1417  0.1738
20621ERGO    R235386   5.983  16.171  10.008 -0.0136 -0.0096  0.1333
20621ERGO    R335387   6.226  16.096   9.913  0.0181  0.0449  0.1739
20621ERGO    R435388   6.041  16.036   9.696  0.0623 -0.1076  0.1906
20621ERGO    R535389   6.182  15.898   9.786  0.1056 -0.0165  0.2471
20621ERGO    C135390   6.303  15.886   9.425  0.1363 -0.1135  0.2620
20621ERGO    C235391   6.359  15.834   9.085 -0.2409  0.1059 -0.0245
20622ERGO   ROH35392  12.698  11.508   7.560 -0.2684  0.1964 -0.0749
20622ERGO    R135393  12.606  11.269   7.681 -0.2078  0.1917 -0.0386
20622ERGO    R235394  12.758  11.126   7.861 -0.0484  0.0930 -0.2486
20622ERGO    R335395  12.539  11.154   8.020  0.1350  0.1182  0.0075
20622ERGO    R435396  12.668  10.908   8.114  0.0854 -0.0307 -0.3060
20622ERGO    R535397  12.460  10.930   8.052  0.0301  0.1437 -0.0695
20622ERGO    C135398  12.410  10.806   8.410  0.3357 -0.0791 -0.0990
20622ERGO    C235399  12.539  10.548   8.586 -0.3458 -0.0015  0.0665
20623ERGO   ROH35400  15.690   7.444   7.553  0.0434  0.0037 -0.0436
20623ERGO    R135401  15.808   7.526   7.797  0.1027 -0.0802 -0.0442
20623ERGO    R235402  15.661   7.566   8.028  0.1154  0.1208 -0.0722
20623ERGO    R335403  15.840   7.392   8.134 -0.0849 -0.0564 -0.0151
20623ERGO    R435404  15.787   7.584   8.349  0.0620  0.0217 -0.0447
20623ERGO    R535405  15.982   7.528   8.270  0.0264 -0.1869  0.0035
20623ERGO    C135406  16.030   7.430   8.635 -0.1571 -0.2024  0.0251
20623ERGO    C235407  16.048   7.360   8.958  0.2949  0.2000  0.4333
20624ERGO   ROH35408   8.428   7.348  10.090 -0.2559 -0.2036  0.0621
20624ERGO    R135409   8.328   7.235   9.851 -0.2005 -0.2194  0.0457
20624ERGO    R235410   8.285   7.384   9.622 -0.2581 -0.2099  0.0592
20624ERGO    R335411   8.444   7.195   9.508 -0.1716 -0.1287  0.0456
20624ERGO    R435412   8.306   7.322   9.282 -0.2546 -0.2050  0.0589
20624ERGO    R535413   8.314   7.108   9.327 -0.1406 -0.1985  0.0592
20624ERGO    C135414   8.468   7.108   8.978 -0.1714 -0.1260  0.0460
20624ERGO    C235415   8.543   7.137   8.723 -0.0607  0.0651 -0.2139
20625ERGO   ROH35416  14.254  17.176  10.892  0.0400 -0.1025  0.0511
20625ERGO    R135417  14.338  17.229  10.627 -0.1161 -0.0209  0.0163
20625ERGO    R235418  14.535  17.080  10.500  0.1140  0.2818  0.0068
20625ERGO    R335419  14.343  17.050  10.310  0.1126 -0.0973  0.0604
20625ERGO    R435420  14.594  17.055  10.161  0.0894  0.0238  0.0196
20625ERGO    R535421  14.420  17.180  10.125 -0.0499 -0.1869 -0.0750
20625ERGO    C135422  14.448  17.011   9.785  0.0737 -0.4822  0.0776
20625ERGO    C235423  14.474  17.077   9.398 -0.0207  0.1167  0.0241
20626ERGO   ROH35424   5.803   9.742   7.315 -0.0327 -0.1625 -0.0684
20626ERGO    R135425   5.627   9.554   7.431 -0.2546  0.0176 -0.1061
20626ERGO    R235426   5.663   9.455   7.687 -0.2923 -0.1723 -0.1759
20626ERGO    R335427   5.408   9.541   7.721 -0.1649  0.1669 -0.0293
20626ERGO    R435428   5.478   9.415   7.976 -0.2654 -0.1688 -0.1575
20626ERGO    R535429   5.304   9.370   7.853 -0.3719  0.1894 -0.1541
20626ERGO    C135430   5.131   9.472   8.177 -0.1302  0.1516 -0.0092
20626ERGO    C235431   5.078   9.522   8.523  0.0151 -0.1863  0.2230
20627ERGO   ROH35432   3.942   7.520  10.531  0.0656  0.0832 -0.1308
20627ERGO    R135433   3.995   7.343  10.315  0.0234 -0.1182  0.0202
20627ERGO    R235434   3.805   7.168  10.217 -0.0544 -0.0861  0.1026
20627ERGO    R335435   3.863   7.289   9.981  0.0854 -0.3006  0.0261
20627ERGO    R435436   3.687   7.067   9.908 -0.2908 -0.0501  0.1792
20627ERGO    R535437   3.883   7.109   9.825 -0.2434 -0.4115  0.1098
20627ERGO    C135438   3.672   7.121   9.507 -0.2973 -0.2304  0.1519
20627ERGO    C235439   3.520   7.228   9.204 -0.1648  0.0045  0.2458
20628ERGO   ROH35440   5.918  14.575  10.602 -0.1130  0.0849 -0.0128
20628ERGO    R135441   5.989  14.577  10.328 -0.0740  0.1378 -0.0026
20628ERGO    R235442   5.969  14.353  10.167  0.1135  0.1234 -0.0085
20628ERGO    R335443   5.820  14.518  10.011  0.0159  0.0154 -0.0276
20628ERGO    R435444   5.945  14.330   9.823  0.2759  0.1840 -0.0247
20628ERGO    R535445   5.952  14.548   9.813  0.0670  0.1934  0.0329
20628ERGO    C135446   5.791  14.471   9.476  0.2788  0.1179 -0.0522
20628ERGO    C235447   5.836  14.485   9.143  0.3480  0.2600  0.1368
20629ERGO   ROH35448   9.716   6.033  10.595  0.1829 -0.3627  0.0777
20629ERGO    R135449   9.801   6.139  10.347  0.1131 -0.1753  0.1356
20629ERGO    R235450  10.017   6.037  10.207 -0.0385 -0.1749 -0.0729
20629ERGO    R335451   9.836   6.018  10.005 -0.1483  0.1420 -0.0152
20629ERGO    R435452  10.095   6.034   9.870 -0.1314 -0.2170 -0.0965
20629ERGO    R535453   9.922   6.161   9.834  0.0280  0.0667 -0.0101
20629ERGO    C135454   9.971   6.014   9.485 -0.2884  0.0559 -0.0563
20629ERGO    C235455   9.953   6.056   9.168  0.0003  0.2319 -0.2056
20630ERGO   ROH35456   6.491  17.198  10.394  0.1685  0.2282 -0.0625
20630ERGO    R135457   6.620  17.114  10.157  0.0963  0.3100 -0.1309
20630ERGO    R235458   6.582  16.863  10.048  0.2418  0.2689 -0.0744
20630ERGO    R335459   6.519  17.004   9.825 -0.0113  0.1856 -0.0601
20630ERGO    R435460   6.570  16.731   9.729  0.3090  0.2286 -0.0611
20630ERGO    R535461   6.664  16.914   9.655  0.0576  0.3543 -0.1008
20630ERGO    C135462   6.504  16.787   9.333  0.1106  0.1271 -0.0399
20630ERGO    C235463   6.342  16.647   9.020  0.1799  0.0602  0.1057
20631ERGO   ROH35464   1.986  11.699   7.114 -0.2921 -0.1539 -0.0641
20631ERGO    R135465   1.840  11.656   7.353 -0.2343 -0.3124 -0.0557
20631ERGO    R235466   1.830  11.410   7.479  0.2624 -0.2688  0.0937
20631ERGO    R335467   1.916  11.553   7.694 -0.0526  0.0479  0.0170
20631ERGO    R435468   1.788  11.316   7.809  0.0668  0.0575  0.1663
20631ERGO    R535469   1.744  11.523   7.857 -0.1665  0.0737 -0.0983
20631ERGO    C135470   1.844  11.395   8.202 -0.3427  0.5448  0.1366
20631ERGO    C235471   1.818  11.263   8.493  0.0789  0.1831 -0.2409
20632ERGO   ROH35472   6.607   8.198  10.477  0.2021  0.1250  0.1315
20632ERGO    R135473   6.539   8.308  10.225 -0.0507 -0.0184  0.1310
20632ERGO    R235474   6.701   8.490  10.094 -0.2403  0.0157 -0.0698
20632ERGO    R335475   6.682   8.310   9.890 -0.3002 -0.0897  0.0183
20632ERGO    R435476   6.752   8.564   9.760 -0.2095 -0.1587 -0.1024
20632ERGO    R535477   6.583   8.434   9.711 -0.2626 -0.1358 -0.0427
20632ERGO    C135478   6.765   8.438   9.375 -0.2479 -0.3594 -0.0386
20632ERGO    C235479   6.730   8.582   9.164 -0.1334 -0.0510 -0.0493
20633W        W35480  15.134   2.543   2.114 -0.0360 -0.4536 -0.0200
20634W        W35481   4.364  14.300  15.229 -0.1063 -0.2667 -0.2400
20635W        W35482  16.509   9.593  16.864  0.1985 -0.1756  0.0480
20636W        W35483  13.972  11.587  14.360  0.0293  0.0871 -0.0562
20637W        W35484   3.370  16.664   3.976 -0.1373  0.3978  0.3430
20638W        W35485  17.135  15.349  16.455 -0.0223 -0.1166  0.1872
20639W        W35486  15.374   8.219  13.215  0.1444 -0.0610  0.1203
20640W        W35487  15.564   8.174  16.478  0.2861  0.0541  0.0300
20641W        W35488   9.738  17.119   2.777 -0.0955 -0.1063  0.0508
20642W        W35489  11.380   1.479  14.724 -0.1976 -0.0797  0.1284
20643W        W35490   0.669   3.618  15.967  0.1575  0.1175  0.3186
20644W        W35491   0.981   9.022  15.592 -0.1992 -0.0706  0.4030
20645W        W35492   7.094   5.908  12.348  0.1652  0.2469 -0.0914
20646W        W35493   4.830   3.361  13.281  0.1523 -0.1297 -0.0094
20647W        W35494   5.486   8.362  12.936  0.0745 -0.3333  0.2369
20648W        W35495   0.336  10.414  16.600 -0.0667  0.0794  0.2043
20649W        W35496   2.203   6.341   1.512 -0.2279  0.2233 -0.0091
20650W        W35497   8.092  14.828  14.643 -0.3815  0.2534 -0.0967
20651W        W35498   3.297   4.810   0.186 -0.2456 -0.0352  0.1077
20652W        W35499  13.945   5.424  17.543  0.1959 -0.1334  0.1398
20653W        W35500   9.214   0.440  16.937  0.0011  0.1855  0.1968
20654W        W35501   7.320  12.265   5.203 -0.0394 -0.1397  0.0556
20655W        W35502   3.244  11.190   2.137  0.0414  0.0940  0.0375
20656W        W35503   7.084  16.148   1.600 -0.0507 -0.1277  0.1102
20657W        W35504  13.924   9.539  17.522 -0.2976  0.1639  0.3422
20658W        W35505  17.074  12.209  14.258 -0.0959 -0.0869  0.0124
20659W        W35506  14.544   4.303   1.937  0.0868  0.0359  0.4437
20660W        W35507  12.081   4.909  14.681  0.1166 -0.0958  0.0615
20661W        W35508  11.625   0.037   0.788 -0.0953  0.0947  0.2776
20662W        W35509  17.075   2.332  11.806 -0.3218  0.1572  0.0863
20663W        W35510   0.798   7.907  17.391  0.1947  0.1475  0.1230
20664W        W35511   3.734  16.194   5.693  0.1313 -0.2745  0.0070
20665W        W35512  10.667  12.890   1.805  0.1453 -0.0104 -0.1925
20666W        W35513   3.758   2.510   2.910 -0.1975  0.0157 -0.1033
20667W        W35514  16.704  10.948  16.602 -0.0125 -0.4469  0.1011
20668W        W35515   0.563   4.512  16.275  0.0880  0.1264  0.1817
20669W        W35516   8.108   4.927  15.858  0.2037 -0.2143 -0.1290
20670W        W35517   0.472   2.258  17.619 -0.1157 -0.4686 -0.3561
20671W        W35518  15.903  17.233  15.755  0.3553 -0.0116  0.1474
20672W        W35519   8.827   5.153   1.185 -0.0528 -0.0298 -0.0794
20673W        W35520   8.708  12.923  17.308 -0.0912 -0.1217 -0.2138
20674W        W35521  14.950   5.623  13.337  0.0294  0.2064 -0.0034
20675W        W35522  10.712  17.229  15.674  0.3039  0.0720 -0.0742
20676W        W35523   0.837   8.942   0.179  0.0113 -0.4076 -0.0545
20677W        W35524   8.623  13.699   5.672  0.0374 -0.2326  0.1310
20678W        W35525  15.846  10.329  13.866  0.1249  0.0380  0.2795
20679W        W35526   0.911   4.763   3.447  0.0747  0.0439 -0.2785
20680W        W35527  17.562   6.562  14.048 -0.0348 -0.0294 -0.1280
20681W        W35528   2.391  16.200  13.546 -0.0716  0.1618 -0.2357
20682W        W35529  13.403  14.617  14.859 -0.1807 -0.2635 -0.0294
20683W        W35530   4.499   7.208  14.134 -0.1263  0.0459 -0.0679
20684W        W35531  16.664  10.886  15.277 -0.0075 -0.2698 -0.1902
20685W        W35532   2.054   6.735  13.188 -0.0663 -0.1366 -0.4819
20686W        W35533   9.964  12.637   2.509 -0.1814  0.0498 -0.0274
20687W        W35534  15.906   6.202   1.823  0.1127 -0.0056 -0.0579
20688W        W35535  12.391   3.612  14.845 -0.1016  0.5104  0.1525
20689W        W35536  16.804   6.147   0.219 -0.0217 -0.0752 -0.1457
20690W        W35537   6.736   6.284   6.555  0.5046 -0.1088 -0.2106
20691W        W35538  14.854   9.250  14.509  0.0880  0.0048 -0.3495
20692W        W35539   4.958   2.042  17.022 -0.3133  0.4075 -0.0558
20693W        W35540  12.159   8.297  16.941  0.1600  0.4261 -0.2614
20694W        W35541   6.485   6.447  12.102  0.2240  0.3788 -0.0716
20695W        W35542  15.695   7.595   3.711 -0.0897 -0.2260  0.3046
20696W        W35543   4.006   7.143  16.201 -0.0103 -0.0439 -0.2823
20697W        W35544  15.274   2.372   6.728  0.2175  0.0520 -0.1065
20698W        W35545   4.688  12.232  16.403  0.2738  0.2810  0.0543
20699W        W35546   5.268  12.067  13.484  0.2610  0.0939 -0.1366
20700W        W35547   1.298  12.240   4.672  0.1483  0.0229  0.1512
20701W        W35548   4.691   2.928  17.038  0.0129 -0.2695 -0.1663
20702W        W35549  10.503   2.252  17.226  0.0925  0.0232  0.0725
20703W        W35550   3.007  13.260  12.902  0.3178  0.4112 -0.1327
20704W        W35551   3.685   4.082   3.499 -0.5080 -0.0535 -0.0318
20705W        W35552  15.756   5.172   5.091  0.1228 -0.2724 -0.1353
20706W        W35553   8.288   7.388   1.547 -0.0531  0.0573  0.1637
20707W        W35554   2.212  16.764  13.613  0.0786  0.3113  0.3398
20708W        W35555  13.944  13.097   4.554 -0.1094 -0.1645 -0.1498
20709W        W35556  10.064   8.660  17.370 -0.0576  0.2014 -0.2891
20710W        W35557  10.511  16.363   2.534 -0.2946 -0.1180 -0.0876
20711W        W35558  15.694  10.947   3.571 -0.3783 -0.1194  0.1962
20712W        W35559  13.107  15.142  17.012 -0.1434 -0.0664 -0.0576
20713W        W35560   3.021   5.624  17.313 -0.0548  0.0617  0.0291
20714W        W35561   4.970   5.037   5.019  0.4116  0.0697 -0.2724
20715W        W35562   7.839  15.777   3.351  0.1417 -0.2322  0.2280
20716W        W35563  11.871  10.397   5.355  0.2318  0.0246  0.2317
20717W        W35564   5.750  14.541   1.341  0.0163 -0.1297 -0.2920
20718W        W35565   1.295  11.222  15.273 -0.2173  0.3269 -0.0272
20719W        W35566   1.437  10.154  15.669 -0.1734  0.0450  0.0982
20720W        W35567  13.397  14.192  13.506 -0.0274  0.1050  0.1257
20721W        W35568   4.789   1.688   3.384  0.0709  0.2107 -0.3030
20722W        W35569  16.083  15.775   5.718 -0.0723  0.1983 -0.1987
20723W        W35570   2.090  15.457   5.206  0.2686  0.1908  0.0257
20724W        W35571   6.279   3.851   3.038  0.0296 -0.1103  0.0013
20725W        W35572  14.869   5.102  17.420 -0.1570 -0.1543 -0.0192
20726W        W35573   1.200   6.579  13.505  0.1572 -0.3015  0.0758
20727W        W35574  13.034   2.842  13.285  0.0471  0.2760 -0.1029
20728W        W35575   1.329   2.336   4.703 -0.0834 -0.0257 -0.2904
20729W        W35576  11.822  12.465  16.262 -0.1594  0.4595  0.0423
20730W        W35577  14.826   4.892   5.017 -0.0182  0.0522 -0.0995
20731W        W35578   6.813   3.061   0.882  0.1225  0.3023 -0.0333
20732W        W35579   2.789  10.152  16.690  0.2619 -0.1700 -0.2259
20733W        W35580   6.955   6.833   1.446 -0.0124  0.2531  0.0157
20734W        W35581   3.952   0.705   1.291  0.4590  0.1653  0.0223
20735W        W35582   3.675  17.020   5.209 -0.1045  0.0755 -0.0983
20736W        W35583   3.325   0.713   5.009  0.0478 -0.1567  0.1786
20737W        W35584   0.687  10.700   3.743 -0.0353 -0.0228 -0.1538
20738W        W35585   9.122   5.348   3.734  0.0305  0.1424 -0.2407
20739W        W35586  17.103   8.868   2.201  0.1970 -0.3148 -0.1692
20740W        W35587   8.366   9.447  15.804 -0.0279  0.0061  0.1079
20741W        W35588   8.474   6.738  14.149  0.1370 -0.4027  0.1036
20742W        W35589  12.952   4.519   5.397  0.0899 -0.3192  0.0536
20743W        W35590   6.216  16.085   4.352 -0.3229  0.1884  0.0085
20744W        W35591  13.405  15.102  16.617 -0.1259 -0.1884 -0.3433
20745W        W35592  13.521  11.764  14.549  0.3802 -0.0959  0.2550
20746W        W35593   8.796   7.254  12.293 -0.0347  0.0252 -0.2890
20747W        W35594   2.615   7.939  13.463  0.0396  0.0614 -0.1637
20748W        W35595   4.116   9.864  11.228  0.1879  0.0250  0.1915
20749W        W35596  15.201  10.645  13.352  0.1964 -0.0188 -0.3996
20750W        W35597  12.631  14.074  14.526 -0.0005 -0.2733  0.0211
20751W        W35598   2.898  15.785   1.601 -0.0840 -0.1940  0.1268
20752W        W35599   8.996  15.044  16.095 -0.0149  0.1744 -0.0083
20753W        W35600   0.435  17.270   5.098 -0.3031 -0.4006  0.3005
20754W        W35601  14.725  11.602   3.340 -0.2274  0.1590  0.0593
20755W        W35602  12.910  13.120   3.500  0.2733  0.2206  0.0445
20756W        W35603   1.206  11.625   0.154  0.0930  0.1601  0.2517
20757W        W35604   2.019   1.479   6.513  0.0726  0.0375 -0.3008
20758W        W35605   7.711   4.886  16.531  0.1164  0.0598  0.0061
20759W        W35606  12.475   2.141  14.892  0.1691 -0.0038  0.1401
20760W        W35607  11.625  14.940   0.544 -0.2634  0.3313  0.0258
20761W        W35608   2.909   2.126  15.429 -0.0575 -0.1365  0.1136
20762W        W35609  14.978   9.050  15.912 -0.2088  0.1812 -0.1395
20763W        W35610  13.566  13.739   2.393 -0.2074 -0.2442  0.0722
20764W        W35611   0.080  14.404  15.291 -0.2900  0.1604 -0.1249
20765W        W35612  13.992   2.419  16.236 -0.1076 -0.0232  0.0415
20766W        W35613   9.967   0.564  16.622  0.0968 -0.2173  0.0537
20767W        W35614   0.357  13.312   4.786 -0.1516 -0.2347 -0.0561
20768W        W35615  10.393   6.412   4.807  0.0216 -0.0851  0.0726
20769W        W35616   4.784  14.665  15.270 -0.1560  0.1094 -0.0980
20770W        W35617   1.421  13.644   0.010 -0.3095 -0.1941 -0.2904
20771W        W35618   8.433   5.631  15.345 -0.1156  0.2209 -0.0373
20772W        W35619   0.127   4.950   2.391 -0.0455  0.2268 -0.1108
20773W        W35620   8.197   9.266   5.310 -0.2794 -0.1633  0.0421
20774W        W35621   3.813  17.173   3.167 -0.0754 -0.2385  0.4074
20775W        W35622   1.076  13.775  12.266  0.0260 -0.1611  0.0256
20776W        W35623   7.863   9.094  15.057  0.1206  0.0829  0.2454
20777W        W35624   0.607  10.929  17.471  0.0655 -0.0827 -0.2388
20778W        W35625   6.663   0.386   2.181  0.2874  0.2720 -0.0343
20779W        W35626   7.512   4.071   6.832  0.0940 -0.2365 -0.0687
20780W        W35627  14.143  16.005  15.228  0.0571  0.1291  0.1290
20781W        W35628   7.366   1.560  15.997 -0.2559  0.3556  0.2932
20782W        W35629  13.963   9.964   5.018  0.0552  0.2536 -0.0412
20783W        W35630   9.741  17.669   5.573 -0.1547  0.0143 -0.1106
20784W        W35631  16.860   3.515  12.350 -0.3245 -0.0890 -0.2381
20785W        W35632   8.693  12.862   0.824  0.1126  0.2335  0.3693
20786W        W35633   6.824   6.903   2.960  0.0453  0.2747  0.2025
20787W        W35634  10.918  15.125  15.579 -0.0572 -0.0002  0.0887
20788W        W35635   0.046   1.813   5.847 -0.2249 -0.4688  0.1577
20789W        W35636   2.778  13.000   2.627 -0.1799 -0.1675  0.2161
20790W        W35637  11.459   6.100  16.870 -0.0309 -0.4515 -0.1230
20791W        W35638   7.668  10.496   2.185 -0.0211 -0.2369 -0.0626
20792W        W35639  14.328  13.197  13.096  0.4325  0.3157 -0.0480
20793W        W35640  14.819  16.873   4.355  0.0860  0.4689 -0.1138
20794W        W35641   5.452   9.428  14.155  0.0254  0.2634 -0.0943
20795W        W35642   1.748   9.488  17.254  0.1261  0.1134  0.2505
20796W        W35643  13.711   7.470  16.776  0.1000 -0.0225 -0.0740
20797W        W35644   3.708   4.496   1.557  0.1534 -0.0967  0.1527
20798W        W35645  17.225  12.259  17.554 -0.0618  0.0023 -0.1967
20799W        W35646  12.106   1.562  15.543  0.0338 -0.0350  0.2166
20800W        W35647   1.351  15.795  17.387  0.4462  0.0370 -0.1254
20801W        W35648   3.050  13.490   2.800 -0.1655  0.1324  0.2866
20802W        W35649  14.360  17.406  12.350 -0.2378  0.1474 -0.1310
20803W        W35650   9.326  13.661   5.995 -0.0656 -0.3691 -0.0384
20804W        W35651  11.148  15.164   3.936 -0.0957  0.1465 -0.1456
20805W        W35652   9.119  11.319   0.062 -0.1974 -0.0012  0.2317
20806W        W35653   8.438   7.583   6.420  0.0854 -0.0070 -0.0244
20807W        W35654   0.859   6.307   0.770 -0.3520 -0.0215  0.3182
20808W        W35655  13.722  17.274   5.692  0.0632 -0.1652  0.0294
20809W        W35656   7.944  13.221  16.863  0.0004  0.1422  0.0816
20810W        W35657  16.138   7.398   1.070  0.2928  0.1421  0.0458
20811W        W35658   6.221   2.912  13.339 -0.0078 -0.1024  0.1211
20812W        W35659  10.649   5.867  11.462 -0.1713 -0.0406 -0.0956
20813W        W35660  10.365  16.471  16.314  0.0248  0.1208  0.0860
20814W        W35661   9.427   0.139   3.100 -0.0668 -0.2508  0.0278
20815W        W35662   0.107   1.047  13.214 -0.2118  0.3164  0.0382
20816W        W35663   7.483   2.036   3.076  0.2549  0.3671 -0.0884
20817W        W35664  17.547   8.556  12.304 -0.1193  0.3602  0.1599
20818W        W35665  17.466   3.087   1.471  0.0464  0.0805  0.0083
20819W        W35666   9.276   9.535   4.438 -0.0238  0.0184 -0.1009
20820W        W35667  15.985  15.386  11.787 -0.3674  0.2182 -0.1287
20821W        W35668  10.422   3.847  14.504 -0.0774  0.0735 -0.1228
20822W        W35669   5.272  13.787   3.019 -0.1134 -0.1938  0.1219
20823W        W35670   6.572   2.430   6.802  0.1861 -0.1881  0.3469
20824W        W35671   6.141   9.166   5.932 -0.1142  0.0367  0.1290
20825W        W35672   2.371  17.580   4.666  0.0605 -0.0827 -0.0782
20826W        W35673  16.243  17.547   2.835  0.1572 -0.1457 -0.0059
20827W        W35674  11.245   4.831  16.692 -0.1940 -0.1279 -0.1799
20828W        W35675   8.014  14.122   0.295  0.2207 -0.0054  0.2233
20829W        W35676  13.412   6.713  13.135  0.0667  0.2262  0.0365
20830W        W35677   1.215   1.851   5.009 -0.3361 -0.0199  0.1187
20831W        W35678  12.687   6.856   0.932  0.2229  0.0440  0.0244
20832W        W35679   1.350   2.874   1.284  0.0064  0.1123  0.0408
20833W        W35680  15.319  14.371   4.034 -0.0543 -0.0964  0.0388
20834W        W35681   5.933   7.123   4.223  0.2214  0.4055  0.1720
20835W        W35682   9.147   3.172  12.333 -0.1194 -0.1464  0.1997
20836W        W35683   4.661   7.829   3.860  0.0754  0.2223  0.0940
20837W        W35684  10.241   5.467   0.496  0.2836 -0.1159 -0.1327
20838W        W35685  12.408  13.693  13.587 -0.0667 -0.1973  0.1088
20839W        W35686  13.196   0.333  12.648 -0.2481  0.1508  0.1690
20840W        W35687   8.346  14.622   1.038  0.0543  0.4249  0.0088
20841W        W35688  17.363   9.084  16.391 -0.2038 -0.0566  0.0291
20842W        W35689  17.171   4.617  14.135 -0.1024 -0.0600 -0.0026
20843W        W35690  13.728   0.984   2.967 -0.1653  0.0474 -0.1484
20844W        W35691   8.947   3.972   6.625  0.0278  0.0839 -0.1162
20845W        W35692  11.266   9.587   3.766 -0.1145  0.0551 -0.0044
20846W        W35693   6.525   2.552   1.060  0.0541 -0.0492  0.2068
20847W        W35694   6.912   2.927  16.786 -0.3092  0.0718  0.3217
20848W        W35695   9.674   5.941   1.149  0.1966  0.0395  0.0939
20849W        W35696  17.305   3.389   6.699 -0.1158 -0.0509  0.0427
20850W        W35697   6.482   9.005   2.285 -0.2307  0.1439 -0.0618
20851W        W35698   2.473  11.054  15.397  0.2108  0.1900  0.3024
20852W        W35699  10.376  17.621  11.094 -0.0423 -0.0871  0.1639
20853W        W35700   0.838   8.799  17.392  0.1941  0.0434 -0.3369
20854W        W35701   4.820   6.581  15.200 -0.0687 -0.0852  0.0357
20855W        W35702   1.311   6.479   0.327  0.1811  0.4280  0.2445
20856W        W35703  17.426  14.025   0.073 -0.0836  0.0059  0.3391
20857W        W35704  16.929   2.673  16.467 -0.2676 -0.1099  0.3362
20858W        W35705   6.930   1.798   3.698  0.0051 -0.1344 -0.2185
20859W        W35706  14.380   1.249  11.926 -0.2513  0.0239 -0.1056
20860W        W35707   5.049   1.860  12.713  0.2725  0.0152 -0.0135
20861W        W35708  15.977  11.866  13.916 -0.0849 -0.1169 -0.2361
20862W        W35709  14.979  15.716   1.335  0.1473  0.1956  0.1033
20863W        W35710   7.061   2.003   5.678  0.0785  0.3535 -0.3333
20864W        W35711  13.885  12.853  13.984  0.0008 -0.1175 -0.0551
20865W        W35712   9.097  14.397  13.291  0.2328 -0.1774  0.3468
20866W        W35713  14.530   0.796   5.853  0.1567  0.0479  0.2748
20867W        W35714   1.247   8.594  16.888 -0.1206  0.0916 -0.0090
20868W        W35715   2.670   8.360   5.151  0.4206 -0.0595 -0.0494
20869W        W35716  12.913   9.209   1.407  0.0032 -0.0915 -0.1861
20870W        W35717   9.940   3.069  15.717 -0.1348  0.2022  0.1009
20871W        W35718   4.575  15.792   0.795  0.1644  0.4015 -0.0674
20872W        W35719  10.786   3.624   0.699  0.0754 -0.0244  0.1028
20873W        W35720   5.500  13.034  13.329 -0.2542  0.1134 -0.1073
20874W        W35721   3.333   7.377   2.130 -0.2307  0.0005  0.2620
20875W        W35722   2.228   9.818   1.579 -0.1707 -0.0279 -0.0225
20876W        W35723  15.745  13.103  13.951 -0.0654 -0.0556  0.0603
20877W        W35724   9.677   0.551   5.737  0.0521 -0.1243  0.0276
20878W        W35725  14.155   6.594   6.189 -0.1488 -0.1745  0.0646
20879W        W35726   1.143  15.869   5.002  0.1885 -0.2659  0.2617
20880W        W35727  14.507   4.339  15.275  0.0860 -0.0473  0.1301
20881W        W35728   1.721   5.619   5.177 -0.0108 -0.1810  0.0264
20882W        W35729   2.652  12.557   3.070  0.0994  0.0153  0.0209
20883W        W35730   7.300   3.376  16.913  0.0827 -0.1738 -0.0875
20884W        W35731   0.990  15.699   5.640 -0.2611  0.2334  0.2000
20885W        W35732   3.457   9.237  12.489  0.2942 -0.0035 -0.0078
20886W        W35733   8.118  15.926   0.519  0.1081 -0.0670 -0.1648
20887W        W35734   4.183  13.620   4.052 -0.3642  0.0307 -0.1256
20888W        W35735   1.043   1.004   1.595 -0.1848 -0.0142  0.0692
20889W        W35736   5.800  16.941  11.283 -0.2159  0.0768 -0.0905
20890W        W35737   9.386  15.516   2.925 -0.0835  0.2332 -0.1722
20891W        W35738  13.197   4.869  13.397 -0.0354 -0.0025 -0.0952
20892W        W35739   2.877  12.440  14.893 -0.1554  0.2538 -0.4832
20893W        W35740   3.124  13.406   1.430 -0.0937 -0.2971  0.0082
20894W        W35741  12.493  11.898   1.728 -0.0486  0.0196  0.1612
20895W        W35742   8.268   2.830   4.903  0.1524  0.0684  0.1672
20896W        W35743   9.386   2.361   0.699  0.3558 -0.2943  0.1880
20897W        W35744  15.678  15.258  13.861  0.1107 -0.2582  0.1856
20898W        W35745   8.755   8.200  15.126  0.0185 -0.0281  0.0239
20899W        W35746   0.477   2.755  17.498 -0.0253 -0.0538 -0.3138
20900W        W35747   1.513  16.322  13.202  0.0889  0.2691  0.1977
20901W        W35748   8.306   2.341   5.042 -0.2776 -0.4551 -0.0138
20902W        W35749  14.887  17.557  12.473 -0.2371 -0.0740  0.1112
20903W        W35750  14.346  17.008   6.264 -0.2872  0.0425  0.4167
20904W        W35751   0.435   0.559   5.262  0.2003  0.1290  0.1388
20905W        W35752  13.661  11.081   1.285  0.2349 -0.0386  0.3516
20906W        W35753  12.159   1.483  16.486  0.0379 -0.1678 -0.1089
20907W        W35754   7.636  16.260  14.901  0.1004  0.1620 -0.0124
20908W        W35755  15.328   4.026  13.257 -0.2265  0.0548 -0.1051
20909W        W35756   8.091  10.854   0.363 -0.3471 -0.0406 -0.1274
20910W        W35757   2.941   7.492   4.439  0.0802  0.1399 -0.0386
20911W        W35758   7.136  12.762   6.464 -0.3583 -0.0656  0.0801
20912W        W35759  15.035   2.285   1.106  0.0556  0.0805  0.0149
20913W        W35760  12.193  17.194   3.248  0.2822 -0.1683  0.0532
20914W        W35761  17.297   4.743   2.439 -0.2984  0.0178  0.2074
20915W        W35762  10.313  17.650   2.889 -0.1767  0.0587 -0.0655
20916W        W35763   5.937   9.365   3.805 -0.1439 -0.0668  0.0352
20917W        W35764   1.474   8.287   0.610  0.0317  0.1052  0.1080
20918W        W35765  13.686  10.472   4.218  0.0075 -0.3149 -0.1212
20919W        W35766  10.336  15.899   2.678 -0.3413  0.1359  0.0757
20920W        W35767  15.680  12.525   2.043  0.0115 -0.1054 -0.0353
20921W        W35768  15.220   2.317   3.011 -0.0911  0.2798  0.0202
20922W        W35769   3.664  17.441  17.036  0.0611  0.1241  0.2901
20923W        W35770   8.387   2.989  14.869  0.1671 -0.2171 -0.0786
20924W        W35771   3.747   6.087   2.917  0.0692  0.1999  0.1020
20925W        W35772  10.238   8.059   2.555 -0.1002 -0.3864 -0.1693
20926W        W35773  12.779  16.790  12.845 -0.0831 -0.0897 -0.0840
20927W        W35774   1.461   4.547   0.587 -0.1495  0.1327  0.0478
20928W        W35775   4.177   5.579   4.095 -0.0847 -0.0741 -0.0849
20929W        W35776   7.827  10.417  11.656 -0.0181 -0.1313  0.3238
20930W        W35777   7.192  15.026  14.719  0.2606 -0.1737 -0.1632
20931W        W35778   2.046   4.249   2.751  0.6138  0.1962 -0.0956
20932W        W35779   8.771   4.713   5.074  0.1699  0.2421 -0.0742
20933W        W35780  12.937   0.421  17.467  0.2935  0.1190  0.0874
20934W        W35781  17.249   6.922  13.930  0.1754  0.2405  0.1093
20935W        W35782  13.532   8.140   1.988  0.6354  0.2176  0.1261
20936W        W35783  12.152   0.969   1.614 -0.1063  0.0910 -0.1457
20937W        W35784   6.372   1.238   2.775 -0.1579  0.4799 -0.0955
20938W        W35785   4.605  10.222  12.992 -0.1180 -0.0504  0.2492
20939W        W35786   2.425   4.690   4.636 -0.0075 -0.2166  0.0953
20940W        W35787  17.481  11.011   1.745  0.4232  0.0209 -0.0022
20941W        W35788  17.568  16.239   3.166 -0.2493  0.0087  0.0606
20942W        W35789   4.039  10.382  14.426 -0.0475  0.2348 -0.0821
20943W        W35790  11.334   8.187  16.905  0.4635  0.1600 -0.2584
20944W        W35791   5.088  10.959   2.902 -0.0256 -0.0945  0.1272
20945W        W35792  17.121   6.252   2.207  0.4009  0.1406 -0.3198
20946W        W35793   4.763   0.171   0.130  0.1996  0.1684 -0.1753
20947W        W35794   4.993   0.413  14.161 -0.1508 -0.1004 -0.0804
20948W        W35795   8.704   4.031   3.551  0.0670  0.1955 -0.3013
20949W        W35796   2.635  10.378  12.131  0.4798 -0.2945  0.0987
20950W        W35797  11.841   9.183   1.655 -0.2083 -0.2349  0.1754
20951W        W35798   4.637  11.240  15.834  0.1446 -0.0347  0.1190
20952W        W35799  16.739   1.200  15.939 -0.2290 -0.4296 -0.1275
20953W        W35800   5.024  17.593   2.588 -0.2865 -0.2597 -0.1654
20954W        W35801  11.860  17.487   0.425  0.2795  0.0477  0.0033
20955W        W35802  17.536   9.255   0.520  0.0654  0.2521 -0.0648
20956W        W35803   4.991   1.249   3.957  0.0438 -0.0918 -0.2089
20957W        W35804   8.299  10.046  12.546 -0.1516 -0.1589  0.0493
20958W        W35805   9.747   6.687   3.241  0.1627 -0.0064 -0.0746
20959W        W35806   6.908   5.439   0.357  0.2742 -0.0171 -0.0159
20960W        W35807   0.028  14.256   5.614  0.1657  0.1322  0.0221
20961W        W35808  11.173  13.546   6.461  0.1359 -0.3399 -0.1158
20962W        W35809  15.940  10.387   6.382 -0.2255  0.1164 -0.1164
20963W        W35810   3.240   3.358  12.630  0.1488  0.1193 -0.3927
20964W        W35811   4.687  13.632  15.990 -0.0288 -0.0060 -0.0187
20965W        W35812   9.323   5.187   1.533  0.0457  0.1585 -0.1341
20966W        W35813  17.109  16.968   2.693 -0.1339 -0.0376  0.0759
20967W        W35814  15.018   0.124   3.122  0.2051 -0.1485 -0.1713
20968W        W35815  16.658   9.786  13.142 -0.1871 -0.0065 -0.0008
20969W        W35816  10.390  10.654   5.012 -0.1261 -0.2356 -0.1794
20970W        W35817   4.690  10.151  14.335  0.1132 -0.0987  0.1300
20971W        W35818  13.795  11.889  13.991 -0.2681  0.3049  0.1012
20972W        W35819   5.675  12.059   4.558  0.3450  0.4327 -0.1831
20973W        W35820  14.080  16.986   4.423 -0.2528 -0.2746  0.5473
20974W        W35821  13.625   8.269  13.714 -0.2052  0.3761  0.2369
20975W        W35822  11.538   8.322   0.039  0.1419 -0.1534 -0.1860
20976W        W35823   1.226  13.807  13.673 -0.2992 -0.1174 -0.0451
20977W        W35824  16.458   5.285   4.698  0.1987  0.0633  0.1081
20978W        W35825   1.660  11.146   2.421  0.1945  0.2840  0.0888
20979W        W35826  11.482  10.177  16.646 -0.0351 -0.1870 -0.2952
20980W        W35827   5.620   5.129   5.907  0.0445 -0.1217  0.1414
20981W        W35828  10.539  14.926  13.630  0.2285 -0.0174  0.2506
20982W        W35829   4.023  13.060  14.758 -0.1956 -0.0098 -0.0332
20983W        W35830  16.490   2.905   3.447 -0.0486  0.1436  0.1212
20984W        W35831  15.725   1.180   1.830 -0.0804 -0.1694 -0.0300
20985W        W35832  13.972  10.780  14.963 -0.1798  0.0765  0.0863
20986W        W35833  14.972   9.189   0.924  0.0768 -0.4879 -0.1225
20987W        W35834  11.103  16.133  14.331  0.0621  0.4096  0.1411
20988W        W35835   0.953   2.100   0.029  0.2650  0.1193 -0.1598
20989W        W35836   7.316  11.529   4.130 -0.2197 -0.0717 -0.0429
20990W        W35837   6.212   4.665   0.446 -0.0927 -0.3613 -0.1536
20991W        W35838  10.340   5.117  14.025  0.1173 -0.0037  0.1195
20992W        W35839   1.070  11.169  17.582 -0.0876  0.3498 -0.1425
20993W        W35840   3.200  13.289  14.885 -0.0964 -0.1423  0.1278
20994W        W35841  17.125  16.945  11.989  0.0266  0.2022 -0.1126
20995W        W35842   4.568  16.887  16.193 -0.0071 -0.2060 -0.2278
20996W        W35843   0.219  17.299   1.610 -0.1874 -0.3215 -0.0338
20997W        W35844  14.196  16.107   1.830  0.0008 -0.0586 -0.1525
20998W        W35845   7.201  17.336  12.199 -0.1307 -0.3309  0.0445
20999W        W35846   0.401   2.502   1.193 -0.0991 -0.1510  0.1536
21000W        W35847   1.966  14.035   6.553  0.0729  0.0585  0.1105
21001W        W35848  10.145  14.473  14.456  0.3605  0.1472  0.1113
21002W        W35849  12.069   5.523   0.767  0.0724  0.1891  0.0568
21003W        W35850   4.494   6.236   4.283 -0.1951 -0.0726  0.1926
21004W        W35851  12.816   1.406   1.078 -0.1750  0.2183  0.1068
21005W        W35852  15.441   6.519   5.955 -0.1769  0.1999  0.0316
21006W        W35853   7.297   6.004   4.801  0.4425 -0.2292  0.3016
21007W        W35854   1.107   2.194  15.387  0.2821 -0.0272  0.0713
21008W        W35855   8.612  12.479   5.321  0.1902  0.0905 -0.1388
21009W        W35856   9.560   1.029  16.894  0.0768  0.0645 -0.1846
21010W        W35857  11.007  14.336  16.012  0.0032  0.3346  0.2548
21011W        W35858  13.528   8.956   6.212  0.0468  0.1392  0.2325
21012W        W35859  12.606  10.429   4.034  0.0161 -0.5777  0.1739
21013W        W35860   9.003   6.552  14.663 -0.0373 -0.0079 -0.1025
21014W        W35861   9.297   8.311   0.015 -0.0140  0.1792  0.2027
21015W        W35862  10.924   0.797  15.644 -0.1212  0.0173  0.0376
21016W        W35863   9.305  15.904  14.775 -0.2475  0.0495  0.0049
21017W        W35864   9.507  11.737  13.267  0.0590  0.0588 -0.0593
21018W        W35865   8.960   9.538  17.277  0.0017 -0.1468  0.0712
21019W        W35866  11.355  10.605   2.178  0.1452  0.0150 -0.0080
21020W        W35867   4.100   2.147  16.071 -0.0031  0.0106 -0.0031
21021W        W35868   5.696  10.641  15.529  0.1153 -0.0047  0.2338
21022W        W35869   1.201  15.452   5.284 -0.1016  0.0501  0.1275
21023W        W35870  13.842   6.522  17.325  0.1551 -0.0019  0.2184
21024W        W35871   9.871  10.883  13.506  0.2777 -0.1247 -0.0152
21025W        W35872  17.338  15.575  11.886 -0.3585 -0.1122  0.2701
21026W        W35873  10.558   0.962  15.882 -0.0693  0.0518 -0.1579
21027W        W35874  11.927  17.551   1.141 -0.0863  0.0962 -0.0058
21028W        W35875   5.186   7.468  12.394 -0.1071 -0.5082  0.5139
21029W        W35876   4.116  13.041  11.855 -0.0408 -0.1324 -0.0005
21030W        W35877   8.458   5.299  14.689 -0.1930  0.1546 -0.1720
21031W        W35878   0.745   2.401  13.224  0.0991  0.0647  0.5102
21032W        W35879   8.145   7.148  15.121 -0.2073 -0.0367 -0.1585
21033W        W35880   9.436   7.837   0.090  0.0466 -0.2805 -0.0514
21034W        W35881  13.485   9.482   3.439 -0.0612 -0.0324 -0.1657
21035W        W35882   0.899  13.520  16.714  0.0906  0.1887 -0.1663
21036W        W35883   9.387   7.305  15.455 -0.0286 -0.0813  0.0987
21037W        W35884   9.886  15.863   4.904  0.0514  0.1520  0.0179
21038W        W35885  12.370   9.660   6.695  0.0927  0.1402  0.2345
21039W        W35886   5.499   9.597   5.583 -0.0046  0.3153  0.0856
21040W        W35887   8.330   1.632   6.295 -0.0877 -0.2159  0.1435
21041W        W35888   2.223   7.363   5.868  0.0086 -0.1888 -0.2115
21042W        W35889   9.906  12.292  14.703  0.2085 -0.2219  0.0199
21043W        W35890  15.981   2.207   4.871  0.2188 -0.0912  0.0591
21044W        W35891   0.928   5.030   1.663 -0.1918  0.1632 -0.0858
21045W        W35892   0.643   4.675   6.472  0.1637 -0.0134  0.0541
21046W        W35893  14.547  13.530  13.878 -0.1632 -0.4039 -0.0908
21047W        W35894  13.460  10.303  16.197  0.2013  0.0244  0.2213
21048W        W35895   6.085   5.689   3.586  0.0260  0.2725  0.0247
21049W        W35896  11.778  16.551   4.986  0.0982  0.2927 -0.1221
21050W        W35897  12.732  14.027   2.969 -0.1780 -0.1409 -0.0035
21051W        W35898   9.842   6.867   6.004 -0.0083 -0.2105  0.3603
21052W        W35899  15.078   3.819  14.201  0.0849 -0.2378  0.0123
21053W        W35900  15.133  16.167  15.495  0.0586  0.2786  0.3459
21054W        W35901   6.997   8.838   2.157 -0.1130 -0.0411 -0.1095
21055W        W35902   9.337  12.714   4.067 -0.2592  0.1671 -0.3630
21056W        W35903  13.743   3.217   0.842  0.0150  0.0887 -0.0777
21057W        W35904  16.615  16.219   2.281  0.0440  0.3861 -0.1562
21058W        W35905  16.011   3.826  16.303  0.2121  0.0446 -0.2504
21059W        W35906  14.856   3.250   1.363 -0.3305 -0.1928  0.0569
21060W        W35907   4.899  13.415  14.798 -0.1093  0.2756  0.0237
21061W        W35908   2.897  16.782   0.617 -0.1449  0.0804  0.2864
21062W        W35909  14.770  10.196  15.011 -0.0596 -0.3218  0.2474
21063W        W35910   3.252   4.792  11.515  0.2181 -0.3128  0.0705
21064W        W35911   5.872   7.066   0.815  0.0849 -0.3039  0.0630
21065W        W35912   3.592   3.318   0.690  0.0413 -0.0193  0.1008
21066W        W35913   1.125  15.467   2.219  0.3607 -0.3084  0.0738
21067W        W35914   2.403  15.758  14.475  0.1657  0.3100  0.0472
21068W        W35915  15.323   5.126   2.621  0.1538  0.1425  0.1095
21069W        W35916   1.661   4.343   3.698 -0.0783  0.3451  0.0300
21070W        W35917   8.645  16.191   2.233 -0.2932  0.1878  0.1792
21071W        W35918   2.850   6.923   1.496  0.1366  0.0821 -0.2025
21072W        W35919   3.710   0.881   5.783  0.1613  0.3108 -0.0644
21073W        W35920  10.863   4.890  12.548  0.0530 -0.1057  0.0909
21074W        W35921  11.410  15.323  13.165  0.0682 -0.1551 -0.2151
21075W        W35922   6.951  13.610  15.426 -0.1967  0.2402 -0.0041
21076W        W35923   2.393  15.058  13.180 -0.2248 -0.1491 -0.1649
21077W        W35924   5.417   1.472   2.419  0.1622 -0.1344  0.2618
21078W        W35925  13.089  13.746   0.645  0.0763  0.0100  0.4034
21079W        W35926  14.710   8.551  14.583  0.0901  0.0514 -0.2558
21080W        W35927   1.631  13.582   3.926  0.0699  0.3238 -0.0669
21081W        W35928   2.210   7.150  16.230  0.0721  0.0175  0.3092
21082W        W35929   6.429   9.432   2.080 -0.0638 -0.1046 -0.0406
21083W        W35930   1.605  11.554   4.824 -0.3197  0.3100 -0.0448
21084W        W35931   0.105   6.421   3.268  0.1194  0.0640 -0.2295
21085W        W35932   4.389  14.466  17.668  0.0766  0.0304 -0.1812
21086W        W35933   2.467  14.564   3.109 -0.0516 -0.0066 -0.1026
21087W        W35934   3.460   6.613   0.076  0.0634  0.0815  0.1271
21088W        W35935  14.869   9.874   1.873 -0.0058  0.3082 -0.2596
21089W        W35936   6.054   2.642  11.754 -0.2578  0.1111  0.1022
21090W        W35937   6.960   8.010   4.577  0.1512 -0.1646 -0.2961
21091W        W35938  10.124   7.616   2.196  0.0610  0.1744 -0.2529
21092W        W35939  11.447   1.758   3.330 -0.0805  0.1050 -0.0217
21093W        W35940  14.678  13.225   0.107  0.0230  0.0469 -0.2205
21094W        W35941  14.306   8.608   6.186 -0.2205  0.1615  0.0011
21095W        W35942   3.893   0.494  17.402  0.0701 -0.2679 -0.3736
21096W        W35943   1.232   0.055  13.709  0.1859 -0.1890 -0.2207
21097W        W35944   5.380  16.168   6.140 -0.1397  0.1649 -0.0182
21098W        W35945   0.689   6.663  13.653 -0.0607  0.2081 -0.1360
21099W        W35946  10.828  10.077   3.773  0.0428  0.2800  0.3350
21100W        W35947   3.624  10.126   0.652 -0.2023 -0.3169  0.0515
21101W        W35948  13.165   0.371   5.189 -0.0076 -0.2704 -0.0660
21102W        W35949  14.366   8.495  16.257 -0.0247  0.0986 -0.1170
21103W        W35950  11.943   6.030  14.723  0.2141  0.4326  0.1631
21104W        W35951   9.874  11.750  12.810 -0.4885 -0.1123 -0.0491
21105W        W35952  15.833  12.562   0.318  0.3554 -0.0420 -0.0083
21106W        W35953  10.387   1.710  13.392  0.3042 -0.0492 -0.2092
21107W        W35954   1.962  11.776  13.992  0.2064 -0.1321 -0.1438
21108W        W35955  14.203   8.902  13.827  0.4579  0.1945 -0.1909
21109W        W35956   7.631   6.545  14.962  0.1364  0.0472 -0.0768
21110W        W35957  13.136  17.249  15.039  0.0063  0.0601  0.1055
21111W        W35958   5.563   0.577   3.666  0.0841  0.1929  0.0278
21112W        W35959   7.523  10.203  12.077  0.0710 -0.0238 -0.0538
21113W        W35960   7.621   2.298  13.770 -0.1430 -0.1615  0.0931
21114W        W35961   7.075   9.250  15.235 -0.0152 -0.3167 -0.2882
21115W        W35962   6.416  12.929  11.791  0.0660  0.0103 -0.0271
21116W        W35963   5.260  12.436  15.278 -0.1239  0.1063  0.2518
21117W        W35964  14.272   3.421   4.107 -0.0174  0.2704 -0.1203
21118W        W35965   9.715   3.258  17.619 -0.1714 -0.0413  0.2489
21119W        W35966  14.073   5.074  14.881  0.1563  0.0115 -0.1574
21120W        W35967  10.815   5.891   0.250 -0.0037  0.1733 -0.1239
21121W        W35968   8.782  17.016  13.417 -0.0558 -0.0617  0.0082
21122W        W35969   9.826  10.219   3.603  0.1389 -0.0991  0.1231
21123W        W35970  13.799  15.045  14.625 -0.0551 -0.2420 -0.1918
21124W        W35971  11.814  10.603   0.366 -0.1126  0.1524 -0.0529
21125W        W35972  17.509  11.051   5.679  0.0047  0.3259 -0.2458
21126W        W35973   6.818  11.186  12.677  0.0348  0.0475  0.1623
21127W        W35974   9.079   0.361   1.307 -0.2168  0.1674 -0.2585
21128W        W35975   7.505   8.896   1.346 -0.3719  0.3016 -0.3477
21129W        W35976  15.766  10.349   4.398 -0.1682 -0.1306 -0.1429
21130W        W35977   7.274   2.131   3.609  0.0881  0.1216 -0.2637
21131W        W35978   1.706   7.500   3.128 -0.3108  0.3356  0.0355
21132W        W35979  15.882   7.728  13.702  0.2114  0.2264  0.0112
21133W        W35980   4.259   1.554   2.381  0.1184 -0.0576  0.0133
21134W        W35981  15.007   8.013  12.901 -0.1362 -0.3718  0.1663
21135W        W35982   5.743  10.593  11.987 -0.1761 -0.0186 -0.0766
21136W        W35983   0.370  11.559   6.532 -0.0506  0.1085  0.1760
21137W        W35984  11.677   4.536   0.763  0.3078  0.1257 -0.3234
21138W        W35985   7.456   6.700  17.513  0.1189 -0.0005  0.4508
21139W        W35986   9.966  12.091   2.624 -0.1520  0.0390  0.3082
21140W        W35987  12.082   0.379  12.811  0.0273  0.0951  0.0382
21141W        W35988   5.137   7.884   5.812 -0.0849  0.2147 -0.1505
21142W        W35989  17.423  14.966  13.287  0.0165  0.3210 -0.2684
21143W        W35990   9.395   0.926   1.735 -0.0116  0.0259  0.1179
21144W        W35991   5.130   7.697   6.266 -0.1860  0.0559  0.2449
21145W        W35992   2.762  11.299  14.044  0.0327 -0.0273  0.3153
21146W        W35993  10.663  13.888  17.155 -0.0975 -0.0614  0.0733
21147W        W35994   8.428   1.898  13.291  0.0244 -0.2155  0.4418
21148W        W35995  17.645   3.710   2.579  0.1724  0.3628 -0.3023
21149W        W35996   2.493   4.586   1.503  0.0838 -0.4568  0.1266
21150W        W35997   3.484  12.753   5.296  0.0764  0.3438  0.2708
21151W        W35998   6.637  16.465  17.179 -0.3099 -0.2114  0.0787
21152W        W35999   4.664   3.672  14.215 -0.0873  0.0315  0.0861
21153W        W36000  12.100   0.877   6.287  0.1001  0.1056 -0.1095
21154W        W36001  12.787  14.735   4.053  0.0466  0.1236  0.2265
21155W        W36002   9.049  13.532   1.963  0.1658  0.0136  0.3895
21156W        W36003   0.783   1.962   5.166  0.4587  0.2318  0.1179
21157W        W36004  17.276   7.513   0.495  0.0214 -0.0675  0.3432
21158W        W36005  16.986  10.700  17.506 -0.2212 -0.3129 -0.2092
21159W        W36006   2.284   2.523   3.516 -0.1955 -0.2088  0.1499
21160W        W36007   4.153   8.694   3.086 -0.0560 -0.1999  0.2125
21161W        W36008   8.593   6.432  16.712 -0.1633  0.0078  0.0023
21162W        W36009  10.769   1.112   0.062 -0.0555 -0.2957  0.1428
21163W        W36010   3.815   7.548   6.119 -0.1032  0.2142 -0.0659
21164W        W36011   2.775   0.383  15.488 -0.0776 -0.3143  0.1759
21165W        W36012  16.533   7.742   0.868  0.1950  0.0653  0.3452
21166W        W36013  16.758  12.411   1.840 -0.4338  0.1554 -0.0694
21167W        W36014  17.307   7.266  12.508 -0.2168 -0.0225 -0.0311
21168W        W36015  13.098  12.513   2.230  0.3436 -0.0699  0.0854
21169W        W36016   9.222  17.482  14.893  0.1677 -0.0479  0.3824
21170W        W36017  11.690   6.519   2.487  0.1493 -0.1054 -0.0502
21171W        W36018   1.889   9.169   4.397 -0.2896  0.3438 -0.0760
21172W        W36019   0.735  10.028   6.071 -0.0045  0.3580 -0.0349
21173W        W36020   6.618   0.068   3.773  0.0648 -0.1252 -0.0524
21174W        W36021   1.696   9.189   0.479 -0.0430 -0.1227  0.0565
21175W        W36022  12.226  16.170   4.820 -0.0171 -0.1936  0.1902
21176W        W36023  17.618  10.121  16.315  0.0757  0.2143 -0.2238
21177W        W36024   4.917   4.318   3.861  0.3287  0.2528  0.2209
21178W        W36025  14.395   1.794   6.320  0.1072 -0.1411  0.1930
21179W        W36026   7.723   4.038  17.092 -0.0777 -0.0104 -0.0919
21180W        W36027  16.944  15.601   0.166 -0.0193  0.0214  0.2916
21181W        W36028   1.216  10.483   5.212 -0.0485  0.1620 -0.1489
21182W        W36029   9.082   3.530  14.962 -0.1583 -0.2719 -0.0152
21183W        W36030  12.216  15.901   4.365  0.0472  0.1788 -0.1188
21184W        W36031   6.117  11.690   5.528 -0.0053 -0.0206 -0.2056
21185W        W36032  17.474   3.298   5.131 -0.2085 -0.1479  0.0698
21186W        W36033   4.968   8.175   1.211  0.3447 -0.1801  0.1397
21187W        W36034   0.774   1.704   5.857  0.0134  0.0401  0.3564
21188W        W36035  10.126   1.327   1.490 -0.1349 -0.0633 -0.3957
21189W        W36036   2.313  12.787  16.746  0.0909  0.3618  0.0462
21190W        W36037  13.173   8.168   2.298 -0.2227  0.1588  0.0043
21191W        W36038   1.434   7.265   3.506 -0.0004  0.1100 -0.0546
21192W        W36039   2.154  14.374  16.540  0.0879  0.0314  0.0994
21193W        W36040  12.052  13.871   6.031  0.0627  0.1327  0.0552
21194W        W36041   5.148   1.283   2.019 -0.0611 -0.2553  0.1248
21195W        W36042   2.679  12.814  14.165  0.0469  0.1604  0.3530
21196W        W36043  16.705  16.957  17.320  0.1978  0.1682  0.0068
21197W        W36044   9.403   3.719  15.345  0.1237  0.0639 -0.0881
21198W        W36045   5.103  17.356   6.512  0.0911  0.0674  0.0263
21199W        W36046  13.136   9.001  17.186 -0.1530  0.0493  0.1323
21200W        W36047   2.816   3.076   6.544 -0.1213 -0.0708 -0.1278
21201W        W36048   1.728   0.426  14.491  0.1554  0.0094  0.0805
21202W        W36049  17.043   6.764   2.160  0.4969  0.1856 -0.0260
21203W        W36050   3.666   9.284  15.679  0.4213  0.2291 -0.1213
21204W        W36051   0.819   5.777   1.055  0.1030 -0.2631  0.0988
21205W        W36052   7.676  11.224  14.502  0.1654  0.0822  0.1673
21206W        W36053  11.612  11.063   2.352 -0.0294  0.1804  0.2429
21207W        W36054   8.562   2.337  16.658  0.1396 -0.2638 -0.2641
21208W        W36055   8.838  13.711  15.820  0.0600  0.0598  0.0694
21209W        W36056  17.639   1.101  17.129  0.0641  0.1090 -0.1701
21210W        W36057   7.467  13.210  15.054 -0.1677  0.0775 -0.1708
21211W        W36058   6.502   0.992   3.410  0.1867  0.3113 -0.1619
21212W        W36059  13.042   0.110  15.371  0.0545  0.2492 -0.1306
21213W        W36060   0.939   9.285   5.996 -0.3401  0.3367 -0.0017
21214W        W36061   2.035  10.824  14.554 -0.1614 -0.2564  0.1053
21215W        W36062   1.242  10.032  16.616  0.0494  0.3089  0.1602
21216W        W36063   2.786  12.976  17.103  0.1793  0.0505 -0.0300
21217W        W36064   4.003   8.515  13.867 -0.0872  0.1827 -0.0435
21218W        W36065  13.400  13.280   2.476 -0.1480  0.3285 -0.0611
21219W        W36066  13.657  10.482   2.984  0.2143  0.0371  0.1455
21220W        W36067   0.595  14.422  13.396 -0.1735 -0.1341  0.2422
21221W        W36068  15.170   4.796   0.896  0.0525 -0.2015  0.0706
21222W        W36069   3.010   0.989   0.256 -0.0939 -0.3578 -0.0367
21223W        W36070  14.217   8.092  17.503  0.0724  0.0461  0.0692
21224W        W36071   3.730  14.230  14.067  0.0029  0.2227  0.0328
21225W        W36072   4.297  12.951   3.280  0.0177  0.1082  0.1718
21226W        W36073   0.069   2.136   3.243  0.2485  0.2204 -0.3088
21227W        W36074   7.844   3.750  13.890 -0.3669  0.0223  0.0891
21228W        W36075   0.731   1.888  11.861 -0.1306  0.1938  0.2272
21229W        W36076   5.695   1.001  17.460 -0.0896 -0.0842 -0.1429
21230W        W36077   9.693  11.523  12.433 -0.3019 -0.0279 -0.1607
21231W        W36078  15.362  17.675   2.376 -0.0990  0.0374  0.0166
21232W        W36079  16.004  17.051  16.802  0.0649  0.0690 -0.0555
21233W        W36080   5.219   6.751   0.161 -0.2846  0.0976 -0.0714
21234W        W36081   4.999   5.476  11.668 -0.0810  0.0943 -0.1141
21235W        W36082   4.624   8.779   0.096  0.1945 -0.2827 -0.0802
21236W        W36083   2.110   5.308   5.213 -0.0710 -0.1284  0.0415
21237W        W36084  17.147  15.361   3.920 -0.1748 -0.0147  0.1653
21238W        W36085   6.440  10.982   0.306 -0.3360  0.1322  0.1750
21239W        W36086   9.941   3.340  15.273  0.1856  0.1733 -0.3396
21240W        W36087   4.315   1.193   0.062  0.0492 -0.1888  0.1125
21241W        W36088  10.780  17.614   2.099  0.1653  0.1155 -0.1200
21242W        W36089  13.635  10.794   5.613  0.0941  0.0453  0.1159
21243W        W36090  14.095  11.450   1.772 -0.2269  0.0532 -0.0613
21244W        W36091   4.980   0.262  15.498 -0.3032 -0.0116  0.0200
21245W        W36092   5.705  11.473   5.421  0.2165  0.2696 -0.1206
21246W        W36093  12.863   4.295  15.324  0.1408  0.1986 -0.0109
21247W        W36094  16.938   5.156  16.677  0.2793 -0.1031 -0.1185
21248W        W36095  15.873   3.344   6.402  0.1875 -0.2605  0.0100
21249W        W36096   1.937  17.644  12.789 -0.0946 -0.1443  0.0300
21250W        W36097   3.474  10.095  14.388 -0.1206 -0.0815 -0.3544
21251W        W36098   4.171   3.401  14.338  0.1981 -0.4097  0.1768
21252W        W36099   1.952  14.286   1.861  0.1270  0.1576  0.1876
21253W        W36100   9.051   4.038   2.633 -0.1410  0.1405  0.0436
21254W        W36101  15.307   2.936  17.045 -0.0440  0.0156  0.4687
21255W        W36102   9.377   9.789   6.183  0.1537  0.2754  0.2741
21256W        W36103  14.390  14.663  17.327 -0.0183 -0.0715 -0.2265
21257W        W36104   6.064   7.894  17.552 -0.3962  0.2659  0.1112
21258W        W36105  12.704  15.055   5.799  0.0215 -0.0145 -0.1371
21259W        W36106   7.277  16.905  12.851  0.1182 -0.0339 -0.2039
21260W        W36107  10.818   7.324  14.937  0.2101 -0.1238 -0.0571
21261W        W36108  16.437   2.346   3.665  0.1125  0.0685  0.0670
21262W        W36109  10.449   1.785   1.802  0.1464 -0.1799  0.0496
21263W        W36110   2.803  11.101  11.779 -0.2689  0.1780  0.0215
21264W        W36111   1.367  17.376  14.004 -0.1892  0.0054  0.0866
21265W        W36112  15.068   3.494  15.451 -0.0352 -0.0215 -0.1346
21266W        W36113   9.117   3.720   3.579  0.1044 -0.0676  0.0979
21267W        W36114   3.935  14.612   0.136 -0.1828  0.2975 -0.1028
21268W        W36115  10.796  14.585   6.648 -0.2096  0.0832 -0.1814
21269W        W36116   2.196   0.524   1.128  0.2086 -0.0132 -0.0657
21270W        W36117   9.080   6.269  12.160  0.1432  0.2094 -0.0337
21271W        W36118  15.164  17.142   0.899 -0.0189 -0.0667  0.3307
21272W        W36119  15.526   1.245   0.354 -0.1825 -0.1518 -0.1729
21273W        W36120  15.842   3.886  13.939 -0.1036 -0.0877 -0.3835
21274W        W36121   1.287  12.986   0.293 -0.5069 -0.2262  0.2242
21275W        W36122   3.850   6.109   4.249 -0.2353  0.2755  0.0684
21276W        W36123   2.164  13.950   0.685  0.0434 -0.1116 -0.0417
21277W        W36124  16.229  11.291   3.699 -0.0556 -0.2120 -0.2457
21278W        W36125  11.986   4.346  12.990 -0.0290 -0.1404  0.0781
21279W        W36126  15.413   2.718  13.425 -0.2957 -0.0075 -0.2748
21280W        W36127   7.146   0.860   5.666 -0.0830  0.1432 -0.0457
21281W        W36128   5.063  16.370   0.140 -0.2531 -0.0838  0.2305
21282W        W36129   4.098  16.706  17.248  0.0624  0.2283 -0.1656
21283W        W36130   7.842   5.906   6.190 -0.1715 -0.1345 -0.3089
21284W        W36131   3.574   6.531   0.745  0.0855  0.2510  0.1501
21285W        W36132  15.299   7.398   3.215  0.2354 -0.1788 -0.5135
21286W        W36133   4.707  13.438   5.058 -0.0208  0.0736  0.2579
21287W        W36134   0.090   8.116   2.512  0.1480  0.1622 -0.0838
21288W        W36135   3.701   9.416   0.769  0.4553 -0.1022 -0.0382
21289W        W36136   2.722   2.659  11.684  0.1085  0.1343  0.0781
21290W        W36137   5.473   8.262   0.392  0.1714 -0.6125  0.1171
21291W        W36138   7.965  11.287  14.883 -0.2063 -0.2447  0.0038
21292W        W36139   7.072  11.322   3.311  0.1213  0.0666  0.0041
21293W        W36140  14.617  12.372  14.380 -0.2813  0.2212  0.0108
21294W        W36141  15.166   2.326  14.982 -0.0661  0.2934 -0.2313
21295W        W36142   2.696   1.356   0.936  0.0383  0.1786  0.1812
21296W        W36143   7.801  12.723  15.841  0.0681  0.1320 -0.2096
21297W        W36144   8.236   3.249   1.469 -0.1530 -0.0360 -0.2665
21298W        W36145   5.208   0.848   5.203  0.0139 -0.1129 -0.1867
21299W        W36146  12.409  11.285   5.704 -0.0388 -0.0544  0.3151
21300W        W36147   4.969  13.971   0.729 -0.0001 -0.0624 -0.1016
21301W        W36148  16.232   6.295   4.361 -0.0446 -0.1721 -0.0111
21302W        W36149  14.276  15.623   0.679 -0.2047  0.4783 -0.0515
21303W        W36150   1.282  17.183   1.872  0.3653  0.0195 -0.4145
21304W        W36151  10.128   3.715   0.375 -0.1104  0.1810  0.0291
21305W        W36152   0.831  14.321   3.008 -0.4897 -0.1751 -0.1743
21306W        W36153  17.481   4.224  14.381  0.0538  0.0609 -0.2219
21307W        W36154   4.482  15.494  14.317  0.2914 -0.2123 -0.1202
21308W        W36155  13.000   1.685  13.424  0.1434  0.0216  0.3535
21309W        W36156  11.844   2.699   4.786 -0.0172 -0.0430  0.1180
21310W        W36157  10.280   9.659  15.759  0.0686  0.1214  0.2895
21311W        W36158   5.829  14.771  13.709 -0.0396  0.1711  0.0473
21312W        W36159   6.215   9.818   1.642  0.1268 -0.0708  0.2319
21313W        W36160  13.285   7.382  14.395 -0.0193  0.1516 -0.0519
21314W        W36161   1.033   8.326  17.647 -0.1756  0.3043  0.1808
21315W        W36162  14.047  10.928   5.368 -0.1880 -0.0852  0.4062
21316W        W36163   3.240   6.769  12.754  0.1915  0.3354  0.0965
21317W        W36164  10.504  17.054   0.879 -0.0072 -0.0137  0.2348
21318W        W36165  10.280   6.037  15.047 -0.0396  0.1543  0.3793
21319W        W36166  15.064   3.892   3.797  0.1346  0.0107  0.3330
21320W        W36167  10.025   2.744   2.504  0.3170 -0.1479 -0.1476
21321W        W36168   4.420   3.933  16.324 -0.2512  0.4080 -0.0489
21322W        W36169   1.577  10.648   7.023 -0.0684  0.4471  0.4846
21323W        W36170   2.954   8.546   6.495 -0.1552  0.0703  0.2592
21324W        W36171   7.621  11.659  16.081  0.1711 -0.0437  0.4443
21325W        W36172   1.518  15.747   2.034 -0.3589  0.0511  0.0168
21326W        W36173  11.150  13.182   5.870 -0.1325  0.3499  0.1347
21327W        W36174   8.720  10.829  16.068  0.4290 -0.0676  0.0175
21328W        W36175   7.529   7.726  13.542  0.0108  0.1471 -0.5054
21329W        W36176  12.751  12.650  12.558  0.1362 -0.4020 -0.0830
21330W        W36177  13.744   2.539   0.371 -0.4116  0.1162  0.3397
21331W        W36178   6.309   9.122  14.829  0.0370  0.3657 -0.2069
21332W        W36179   9.665   6.317  12.875 -0.3144 -0.1673  0.2946
21333W        W36180   3.775   5.931   6.432 -0.1768  0.1344  0.0029
21334W        W36181   5.422   1.508  16.516  0.1688 -0.4717  0.0718
21335W        W36182   0.835  15.992  17.556  0.0531 -0.1473  0.0193
21336W        W36183   9.851   9.966   7.201  0.0574  0.1241 -0.1049
21337W        W36184   7.600   4.899  12.330 -0.3408  0.0440 -0.2515
21338W        W36185   8.907   9.680   3.675  0.1417  0.0550  0.0905
21339W        W36186   3.175  11.664  13.434 -0.1619 -0.0396 -0.1358
21340W        W36187   1.277  12.118  17.549 -0.1582 -0.1598  0.0385
21341W        W36188   4.123  13.084  17.117 -0.1961  0.0908  0.0628
21342W        W36189   5.838   6.675   2.851  0.1052  0.0863 -0.2022
21343W        W36190   0.873  15.276  13.328 -0.2071 -0.1659 -0.5883
21344W        W36191   4.829   8.078  12.609  0.0736 -0.0209 -0.0042
21345W        W36192   9.200  17.094   3.458  0.1410 -0.1093 -0.0814
21346W        W36193   5.294  10.541   5.384 -0.0737  0.1080  0.1482
21347W        W36194   7.988   6.757   1.243 -0.4162 -0.2542  0.2324
21348W        W36195   8.159   5.073  16.460 -0.1190  0.1930 -0.1775
21349W        W36196   8.266   3.641  15.797  0.0979 -0.2103  0.0760
21350W        W36197  10.810   4.629  13.380  0.1259 -0.1750 -0.0165
21351W        W36198   5.461   7.594   5.500 -0.1500 -0.0864  0.3302
21352W        W36199  11.867  14.738   3.907 -0.0400 -0.2221 -0.0177
21353W        W36200  15.706  13.192   4.599 -0.2420  0.0296 -0.0560
21354W        W36201   2.328   4.744   6.064 -0.1592 -0.0565 -0.0440
21355W        W36202   4.524   9.719   2.824  0.0060 -0.1769 -0.2705
21356W        W36203   6.098   3.324   5.553 -0.3602 -0.1205 -0.0342
21357W        W36204  17.492   5.900   2.688 -0.0026  0.1283  0.1783
21358W        W36205  13.284   1.499  16.301  0.0986  0.1848 -0.0494
21359W        W36206   6.277  11.180  12.838 -0.2708  0.1430  0.1446
21360W        W36207   5.791   9.699   5.075 -0.3264 -0.1588  0.2046
21361W        W36208  10.985   3.213  15.221 -0.1958  0.1024 -0.0015
21362W        W36209   0.308  16.670   5.086  0.1999  0.2855  0.2556
21363W        W36210  10.432  16.038  15.697  0.2989  0.0280 -0.0183
21364W        W36211  11.083   7.057  14.087  0.0056 -0.0868  0.2317
21365W        W36212   7.025   4.455  16.140 -0.0528  0.1618 -0.0066
21366W        W36213   2.831  17.199  14.295  0.0472 -0.1169  0.0227
21367W        W36214  11.175   9.044   3.829  0.0184  0.1050  0.3835
21368W        W36215   6.855  10.849  13.578 -0.0337 -0.2121 -0.0115
21369W        W36216  15.195  12.847   0.205  0.1198 -0.2427  0.0869
21370W        W36217  14.846  13.119  13.879 -0.0288  0.0539  0.0416
21371W        W36218  14.816  15.481   3.280  0.0044  0.0555  0.0047
21372W        W36219   0.381   9.762  12.970  0.0657  0.2956 -0.0937
21373W        W36220   4.011   6.062  16.032  0.1008 -0.1369 -0.1049
21374W        W36221  13.062  14.181  16.120  0.2960 -0.1496  0.2964
21375W        W36222  16.296   8.857  14.256  0.0506 -0.2250 -0.1625
21376W        W36223   2.091  11.089  13.453 -0.2722  0.0820 -0.1148
21377W        W36224   6.645   9.951   5.093  0.0974  0.0093 -0.2750
21378W        W36225  10.289   2.946  12.723 -0.0474  0.0519 -0.0488
21379W        W36226   4.082  10.079   3.963 -0.5109  0.0157 -0.0655
21380W        W36227   2.406   8.256   6.941 -0.3270 -0.5466  0.0017
21381W        W36228   7.450  14.414   4.313 -0.1662 -0.1068 -0.0190
21382W        W36229   6.676   6.734  15.636 -0.1045  0.0725 -0.0147
21383W        W36230  14.761  11.547  16.011  0.1215  0.1353 -0.1478
21384W        W36231   8.252   2.507   6.366  0.0442 -0.1043  0.1620
21385W        W36232   6.619   3.187  16.348 -0.1426  0.0562  0.1090
21386W        W36233   8.938  14.642   4.579  0.0065  0.1275 -0.0231
21387W        W36234  16.280  16.922   3.300  0.6141 -0.1779  0.1491
21388W        W36235   1.380  16.035   4.156  0.0212  0.0984 -0.0371
21389W        W36236  15.997  15.329   0.400 -0.0989 -0.0733  0.0462
21390W        W36237   3.929  12.453  17.357  0.2003  0.2445 -0.0443
21391W        W36238   7.242  14.292   2.899  0.0027 -0.0602  0.0274
21392W        W36239   8.143   7.355   4.191 -0.3257  0.1823  0.1638
21393W        W36240  17.306  13.334   6.202  0.1170 -0.2465  0.0395
21394W        W36241   3.494   1.820  11.958 -0.1940  0.2457  0.1861
21395W        W36242   9.024  12.526   5.551 -0.2861  0.0490  0.3027
21396W        W36243  15.468  16.867  14.602 -0.0518  0.1316 -0.1285
21397W        W36244   0.541  12.323  13.215 -0.1771  0.1246 -0.1407
21398W        W36245   3.411   7.775  12.131  0.2277 -0.1170 -0.1045
21399W        W36246  10.897  12.912  15.647 -0.0368  0.3317 -0.0054
21400W        W36247  13.313  10.341   0.139  0.0668  0.0502 -0.1814
21401W        W36248   0.092   3.233   2.449  0.0218  0.1901  0.2795
21402W        W36249  12.149   7.363   3.203 -0.1337 -0.1727 -0.2419
21403W        W36250  16.852   3.293   5.302 -0.0767 -0.3435  0.1017
21404W        W36251   2.420   5.811   1.555 -0.0596 -0.2508 -0.2079
21405W        W36252   2.845   6.026  14.219  0.2857 -0.1303 -0.0306
21406W        W36253   4.231  11.624  11.796 -0.0711 -0.0025  0.1505
21407W        W36254   1.403   6.014   4.152  0.1149  0.2551  0.0527
21408W        W36255   0.802   0.332  16.355 -0.2904 -0.3073  0.1297
21409W        W36256   8.517  14.778   4.104 -0.0329  0.0159  0.3484
21410W        W36257  10.846  12.637   6.121 -0.3175  0.1581 -0.2426
21411W        W36258   7.411  15.412   3.509  0.0803  0.2397 -0.0423
21412W        W36259  10.218   0.641  16.099  0.0262  0.0341 -0.2747
21413W        W36260   1.333   1.062   6.080  0.2732  0.1635  0.1314
21414W        W36261  13.510   2.090   2.330  0.0442 -0.1442  0.0643
21415W        W36262  14.690   8.353  17.457  0.1825  0.2256  0.0857
21416W        W36263  10.559  16.733   5.861 -0.0005 -0.1324 -0.2473
21417W        W36264  13.144   5.020   4.861  0.0476 -0.1756 -0.1510
21418W        W36265   3.656   9.327  15.153  0.0691 -0.1993  0.2475
21419W        W36266  14.480   6.085  13.914  0.0366 -0.0241  0.0337
21420W        W36267  13.889  13.191  15.174  0.0005  0.0410  0.1710
21421W        W36268  16.325  12.206   1.532  0.2897  0.3310 -0.0190
21422W        W36269  14.767   6.424   3.124 -0.0215  0.0387  0.0724
21423W        W36270   6.693   8.719   3.855 -0.0119  0.1046  0.0231
21424W        W36271  12.016  11.597  14.252 -0.2590  0.0769 -0.0890
21425W        W36272   1.594  10.827  14.338  0.0360 -0.1745 -0.1100
21426W        W36273   4.351   3.923  13.520  0.1701 -0.2629 -0.0739
21427W        W36274   7.506   7.149   5.131  0.1181  0.2815  0.1036
21428W        W36275   3.578   0.366   3.097 -0.4293  0.1991  0.1494
21429W        W36276   3.948  15.000   3.947  0.1454  0.2413  0.2491
21430W        W36277   8.596  16.224   3.650  0.1903 -0.3008  0.2042
21431W        W36278  14.072   6.843   0.787 -0.2212 -0.0593  0.1652
21432W        W36279   8.239   1.297   5.936 -0.1419  0.2175 -0.1207
21433W        W36280  11.425   8.327   4.444 -0.0984 -0.3249 -0.3725
21434W        W36281  14.933   4.330  15.611 -0.0477  0.1768 -0.2290
21435W        W36282   5.933   3.354   1.168 -0.4184  0.1444 -0.1536
21436W        W36283   8.037   6.975  11.985 -0.0525  0.3078 -0.2609
21437W        W36284  15.086   8.123   4.206 -0.0912 -0.0269  0.3534
21438W        W36285  14.694   8.468   1.281 -0.2392  0.1435  0.1316
21439W        W36286  16.197  12.132  14.685 -0.0695 -0.1581 -0.3060
21440W        W36287   1.782   5.982  11.269  0.0940 -0.2005  0.0206
21441W        W36288   6.958   1.383   2.609  0.0838 -0.2520 -0.1329
21442W        W36289   8.981  11.571   2.340 -0.0067  0.3176 -0.1964
21443W        W36290  10.932   8.813   5.527  0.1134  0.4806 -0.2412
21444W        W36291  10.761  11.912   6.375 -0.1562  0.0482 -0.2011
21445W        W36292  17.474   3.638  13.033 -0.1738  0.0354  0.1820
21446W        W36293   4.662  13.633   5.520  0.0510 -0.1127  0.1525
21447W        W36294   5.354   4.990   4.632  0.3681 -0.1817  0.0382
21448W        W36295   0.350   0.959  14.635  0.0042 -0.0597  0.1396
21449W        W36296   5.003   6.761  13.837 -0.0158  0.1605  0.2004
21450W        W36297  13.625   8.414  15.172 -0.1623  0.1174 -0.1839
21451W        W36298   0.814   0.108   2.589  0.2296  0.0928  0.2025
21452W        W36299   7.164  11.921   4.397 -0.1194  0.0335 -0.1764
21453W        W36300  13.580  15.605  17.645  0.2130  0.0832 -0.1106
21454W        W36301  12.063   0.080   6.734 -0.2412  0.5985  0.0099
21455W        W36302   9.172  14.456  13.966  0.2825 -0.1169  0.0173
21456W        W36303  16.445   8.234  16.541 -0.0739  0.2084  0.1010
21457W        W36304   4.164   9.244  15.296 -0.2418 -0.0075  0.1974
21458W        W36305   0.641   6.889   4.573  0.3571  0.1149 -0.2414
21459W        W36306   8.314   0.295   5.818 -0.1966  0.1932  0.0288
21460W        W36307  12.651  13.168   2.034  0.1074 -0.2338 -0.0715
21461W        W36308   4.523  12.882   3.904 -0.0306  0.1843  0.0640
21462W        W36309  16.733   5.919  15.095  0.1204 -0.0753 -0.5275
21463W        W36310   7.430  10.607   6.172 -0.0830 -0.0985  0.0959
21464W        W36311   4.241  12.320  13.522  0.0919  0.0247 -0.0750
21465W        W36312  15.158   0.784   0.615 -0.2252  0.0682  0.0399
21466W        W36313   9.711  14.030  11.491  0.2161 -0.0429  0.0818
21467W        W36314  15.674   9.460   1.859  0.1366 -0.1569  0.1238
21468W        W36315   3.596   2.738   3.351 -0.2883  0.0012  0.1131
21469W        W36316  12.458  11.904   0.836  0.1760 -0.0725 -0.0700
21470W        W36317   5.159   4.550   2.594 -0.0197 -0.0084  0.0684
21471W        W36318  13.986  12.176  17.306  0.2756  0.1577 -0.0604
21472W        W36319   1.376  13.599  16.474 -0.0646  0.1317 -0.0047
21473W        W36320   9.276  14.813   2.116 -0.3995  0.0557 -0.2430
21474W        W36321  10.346   9.799   2.368  0.1868  0.0640 -0.0725
21475W        W36322   8.400   3.864   5.833 -0.0127 -0.0079  0.1076
21476W        W36323   9.451   3.448   4.443  0.0446  0.2113  0.1337
21477W        W36324  10.631   9.278   2.532  0.1205 -0.0336  0.3026
21478W        W36325   3.304  11.175  14.768  0.2805 -0.3571  0.2354
21479W        W36326  15.939  10.642  17.588 -0.3097  0.0669  0.0650
21480W        W36327   8.914   3.718   2.975 -0.1691  0.0656 -0.1426
21481W        W36328  14.274   9.607   3.288 -0.3397 -0.0147  0.1816
21482W        W36329   3.805  17.074  15.447 -0.1960  0.0385  0.2405
21483W        W36330  16.456   9.967   1.234  0.1415 -0.2625  0.0799
21484W        W36331   4.571   6.807   2.396  0.0276 -0.0444  0.1251
21485W        W36332   3.770   9.739   3.235  0.3513 -0.1680  0.2467
21486W        W36333  13.410   3.311   0.493  0.0017  0.1646  0.0262
21487W        W36334   2.638  10.730   1.432 -0.0009 -0.1186  0.1777
21488W        W36335  10.041  11.704  13.395  0.0050  0.1619  0.0202
21489W        W36336   8.137  15.043  16.932 -0.0056 -0.0293  0.0395
21490W        W36337   2.691  14.505  16.558  0.1209  0.1551 -0.3248
21491W        W36338   6.336   1.938   7.017  0.1579  0.0375  0.2084
21492W        W36339  14.423  15.586   1.512 -0.1130 -0.0948  0.4650
21493W        W36340   5.292   1.656  13.718  0.0678 -0.0927  0.1697
21494W        W36341   1.730  17.294  14.391  0.1164  0.0457 -0.2974
21495W        W36342  13.283   5.419   6.374  0.1961 -0.2424 -0.0851
21496W        W36343  13.902  14.228   1.867 -0.0147  0.0650 -0.0258
21497W        W36344   6.345   2.929   0.669 -0.0899  0.0791 -0.1153
21498W        W36345   0.306   3.799   6.073 -0.1663 -0.2242  0.0242
21499W        W36346   1.762   8.949  11.995 -0.0517  0.1878 -0.2739
21500W        W36347   4.519  16.730   4.720  0.1796  0.1259 -0.3152
21501W        W36348   0.574  16.086   4.225 -0.0007  0.0346  0.1714
21502W        W36349   5.718   5.469  17.217  0.0851 -0.0099  0.0301
21503W        W36350  17.090   5.440   1.653 -0.0950  0.0034  0.2213
21504W        W36351  16.165   5.825  15.304 -0.1158 -0.4288  0.1401
21505W        W36352   3.228   5.903  13.079 -0.1707 -0.0556 -0.2957
21506W        W36353   0.674   5.469   6.222 -0.0156  0.0457  0.0115
21507W        W36354   0.509   6.505  15.066 -0.2590  0.1624 -0.2604
21508W        W36355  11.045  16.321   4.427 -0.3230 -0.0969  0.0038
21509W        W36356  11.350  14.672   1.842  0.3927 -0.2292  0.5869
21510W        W36357   0.264   1.344  17.434  0.1121 -0.1133  0.0930
21511W        W36358   3.456   3.456  16.439  0.1574 -0.3203 -0.2434
21512W        W36359   4.904   4.480  15.604  0.2760 -0.1969 -0.2053
21513W        W36360   0.049   5.682   5.207  0.1552  0.0000 -0.1371
21514W        W36361  10.062   5.615   2.430  0.1150  0.2125 -0.0417
21515W        W36362  15.643  13.340   2.700  0.0280  0.3248  0.1789
21516W        W36363   1.957   9.229  13.540  0.0844 -0.2493  0.0081
21517W        W36364   9.335  10.699   2.364  0.3050 -0.0604 -0.0109
21518W        W36365   2.676  11.032  11.249  0.1460  0.1206 -0.1264
21519W        W36366   7.578   8.248  13.485  0.3859 -0.0662  0.1941
21520W        W36367  13.492   7.875  16.502  0.3020  0.0256  0.2837
21521W        W36368   3.434   2.923  13.135 -0.2332 -0.4228  0.0033
21522W        W36369   0.476   3.285  14.255  0.1290 -0.1192  0.1084
21523W        W36370   2.293   0.475   4.276 -0.2346 -0.1642  0.1057
21524W        W36371   8.223   4.294   1.993 -0.0918 -0.2123  0.1860
21525W        W36372  12.699  12.174  15.371 -0.1465 -0.2953 -0.3553
21526W        W36373   8.660   1.830   5.988  0.1938  0.0462 -0.1284
21527W        W36374   5.879  11.450   2.058  0.3196  0.1058  0.1248
21528W        W36375  16.081   8.810   7.168  0.1922 -0.1121 -0.4074
21529W        W36376   8.026   1.436   2.790  0.2562  0.1292  0.0558
21530W        W36377  17.105  15.093   2.407  0.2981  0.0843 -0.0161
21531W        W36378   5.025   9.632  16.526 -0.1956 -0.0019  0.0085
21532W        W36379  11.054   3.100  14.736 -0.0192 -0.1138  0.0899
21533W        W36380  11.537   8.081  14.638  0.0536  0.3557 -0.2610
21534W        W36381   9.555  12.352  16.531 -0.2037  0.0740 -0.0514
21535W        W36382   8.318  12.506  16.821 -0.2858  0.2048 -0.0535
21536W        W36383  13.334   8.937  13.518  0.2247  0.0615  0.1991
21537W        W36384  15.629   2.891   0.410 -0.0398  0.2106 -0.2184
21538W        W36385   8.452  15.687   5.029  0.1847 -0.1117 -0.0360
21539W        W36386  15.662  13.471   1.439 -0.0911  0.0835  0.2067
21540W        W36387  10.499   9.850   0.591  0.1448 -0.1205  0.1041
21541W        W36388   0.666  11.448   2.178  0.0801 -0.1374 -0.0559
21542W        W36389   9.394   2.428  17.153  0.2965  0.0026 -0.1147
21543W        W36390  15.055   7.971   5.149 -0.2302  0.1069 -0.0940
21544W        W36391  10.256   7.188   5.246  0.2516  0.0096 -0.0324
21545W        W36392  13.217  15.171   1.225  0.1771 -0.1839 -0.0202
21546W        W36393  12.608   3.539  17.450  0.0706  0.0889 -0.2615
21547W        W36394  16.972   7.331  17.303  0.1815  0.0616  0.1082
21548W        W36395   4.329  12.627  17.218  0.2259  0.1018  0.1235
21549W        W36396   2.703  11.988  17.459  0.1488  0.0724  0.0543
21550W        W36397   5.218  15.597  11.308 -0.0016 -0.0374  0.0172
21551W        W36398   9.574   2.991   4.071  0.3661 -0.1161  0.0635
21552W        W36399  12.299  12.907   6.427 -0.0161 -0.1535  0.1180
21553W        W36400   1.446  11.701  11.645  0.1025 -0.0847 -0.2224
21554W        W36401   4.633  12.686   5.865  0.3847 -0.0430 -0.2857
21555W        W36402  17.573  12.819   1.110  0.1605 -0.0509 -0.2015
21556W        W36403   5.318  13.752  12.200  0.0242 -0.0575  0.0115
21557W        W36404  13.592  12.180   0.978 -0.1946  0.1027 -0.0264
21558W        W36405   0.831  17.116   4.176 -0.2584 -0.0562 -0.1046
21559W        W36406  16.577  11.845   6.528  0.2108  0.0642 -0.2171
21560W        W36407   9.698  11.983   1.846 -0.0142 -0.0695  0.2362
21561W        W36408   7.913  12.135  13.648  0.0311  0.1178 -0.1203
21562W        W36409   5.476   5.941   4.190  0.0412 -0.0457  0.1920
21563W        W36410  17.129  16.876   5.506 -0.2646  0.0684  0.1242
21564W        W36411  11.647  12.657  15.066 -0.1330 -0.0635  0.1153
21565W        W36412  10.855   8.246   0.981 -0.0724  0.1492  0.1790
21566W        W36413   1.283  17.001   5.690  0.0054 -0.1760 -0.0345
21567W        W36414   2.554   4.141   4.883  0.2613 -0.0106 -0.1973
21568W        W36415   4.593  10.599  12.108 -0.2266 -0.1821 -0.2381
21569W        W36416  17.424  17.176   4.447 -0.3960 -0.1943  0.2640
21570W        W36417  11.116  17.565  15.977 -0.1463 -0.1177 -0.1934
21571W        W36418   1.985  16.852  14.242  0.0818 -0.4063  0.3300
21572W        W36419  11.066  12.679   3.352  0.2650 -0.0776 -0.0792
21573W        W36420   1.660   9.300   6.782  0.0998  0.0739  0.1507
21574W        W36421   3.061   3.721   4.732 -0.0936 -0.2580  0.0442
21575W        W36422   3.596   1.004   0.463  0.0712 -0.0644  0.1858
21576W        W36423   1.073   7.596  13.233  0.2539  0.1824  0.2026
21577W        W36424   3.753  10.189  12.372  0.0058 -0.0918 -0.0293
21578W        W36425   7.720  13.664  17.395  0.0556 -0.2175  0.1047
21579W        W36426   4.906   2.736   6.583 -0.1576  0.0604  0.0097
21580W        W36427   0.235  16.704  12.065  0.2605 -0.1237  0.1740
21581W        W36428  10.849   2.598  12.326  0.1471 -0.1428 -0.1206
21582W        W36429   3.821  12.684   5.750 -0.1675  0.1892 -0.0271
21583W        W36430   4.196   8.852   5.908 -0.4281 -0.1463  0.2328
21584W        W36431   9.841  16.397  14.248  0.0220  0.0808  0.1238
21585W        W36432   1.970  12.352  14.721 -0.1033 -0.1700  0.1376
21586W        W36433  14.136  14.345   6.282  0.2420 -0.0622 -0.0171
21587W        W36434   6.488  14.200   1.936  0.0543  0.1298  0.1036
21588W        W36435  11.022   1.785   4.598  0.0409 -0.0869 -0.3083
21589W        W36436  11.173   3.898   0.920  0.2187 -0.0237 -0.2172
21590W        W36437  11.866  12.531   1.916 -0.1289  0.2161  0.0691
21591W        W36438   8.837   6.236   3.210 -0.2417  0.1187 -0.0552
21592W        W36439   7.745  12.927  12.678 -0.0928  0.1241  0.0357
21593W        W36440   7.055   4.039   4.172 -0.3232 -0.1308 -0.2064
21594W        W36441   8.963   3.305   4.030  0.0379  0.0760 -0.3641
21595W        W36442  11.404   0.502   0.964 -0.0750  0.0805 -0.1362
21596W        W36443  14.138  11.577   5.172 -0.1576 -0.0883  0.2394
21597W        W36444   6.959  12.477  14.796  0.0038 -0.0683 -0.0231
21598W        W36445   3.120   9.220  10.553 -0.1539  0.1299 -0.1244
21599W        W36446  15.257   7.108  17.528 -0.0653 -0.3377  0.1890
21600W        W36447   8.312  12.238   4.991 -0.0119  0.0634  0.0760
21601W        W36448  10.091   9.538  14.852  0.0500  0.0547  0.0087
21602W        W36449  13.090   8.729   1.857 -0.1260 -0.2928  0.1297
21603W        W36450  16.498   0.480  11.296  0.3634  0.1021  0.2558
21604W        W36451  13.286  14.317  17.245 -0.3184 -0.1630 -0.0407
21605W        W36452  12.570  13.894   0.425 -0.2229 -0.2090  0.0509
21606W        W36453  12.498   0.365  17.114 -0.3343  0.0388  0.2128
21607W        W36454   7.915   3.294   4.190 -0.2184  0.2474 -0.0380
21608W        W36455   8.867  14.710  13.586  0.1599 -0.0242  0.0313
21609W        W36456   7.823   3.333  15.718 -0.2739  0.1182  0.0773
21610W        W36457   4.631  12.240   0.837  0.0872 -0.1514 -0.1799
21611W        W36458  16.763   1.879   2.198 -0.3143  0.0009  0.0426
21612W        W36459   4.452   1.413  17.173  0.0355 -0.2101  0.1339
21613W        W36460   5.623   9.299  12.118  0.0643  0.0301 -0.3474
21614W        W36461   8.027   0.781  15.894 -0.2340  0.0499  0.2034
21615W        W36462   1.021  16.751  14.896 -0.1569 -0.1320 -0.2609
21616W        W36463  16.140  16.687   5.417  0.1929 -0.1359  0.0689
21617W        W36464   5.464   6.742  16.934  0.0030 -0.1180  0.0046
21618W        W36465   0.806   0.717  17.492  0.0866  0.0383  0.1140
21619W        W36466  16.450   3.137   2.425  0.1478 -0.0177  0.2989
21620W        W36467   1.589   9.439   3.523 -0.1631 -0.0547 -0.2369
21621W        W36468   9.493   5.358  11.898 -0.0622 -0.0525 -0.1822
21622W        W36469   9.651  15.637  14.145  0.3541  0.0947  0.1910
21623W        W36470   2.405   4.166  13.613 -0.0192 -0.1913 -0.3573
21624W        W36471   7.014   9.891  13.279  0.0402 -0.3417  0.5450
21625W        W36472   1.740  10.933   0.346 -0.0412  0.1157  0.3328
21626W        W36473   8.713   3.322   1.429 -0.2848  0.1856 -0.1083
21627W        W36474   8.611  11.890   2.426 -0.2448 -0.2433  0.0343
21628W        W36475   3.361   8.821  16.349 -0.0718  0.2055  0.1661
21629W        W36476  12.618   7.219  14.497  0.1338  0.0136 -0.0978
21630W        W36477  12.460   5.781  12.423 -0.1085 -0.0478 -0.2501
21631W        W36478   2.645   2.150   3.456 -0.1758 -0.2253 -0.1064
21632W        W36479  10.206   9.868   3.408  0.1147 -0.3217 -0.2925
21633W        W36480   3.040  16.751   3.560 -0.1339 -0.1326 -0.3483
21634W        W36481   4.990  12.815  11.668  0.5124  0.1399  0.2054
21635W        W36482  15.932  12.713   3.840  0.1957  0.1678  0.1293
21636W        W36483   9.285   7.936   6.493  0.2703  0.0350  0.1621
21637W        W36484   9.785  16.708   5.432 -0.0426 -0.0062 -0.2284
21638W        W36485   0.731  10.188   1.290 -0.2531 -0.2358  0.2862
21639W        W36486   2.123  10.413   0.427 -0.1055 -0.1395  0.2334
21640W        W36487   0.009   5.922  14.636 -0.1587  0.0953 -0.1709
21641W        W36488   0.966   2.686   3.978 -0.0722  0.4065 -0.0702
21642W        W36489  13.531   3.025  13.085 -0.0470  0.0845 -0.2420
21643W        W36490  14.977   1.721  13.314  0.2681 -0.1002 -0.1542
21644W        W36491   5.749  13.803  15.244  0.1681  0.1083  0.4994
21645W        W36492   1.601   8.887  13.504  0.0696  0.0585  0.0646
21646W        W36493   1.890  17.353   0.428 -0.2034  0.1210 -0.0669
21647W        W36494   2.541   7.864   4.238  0.0228 -0.1099 -0.0693
21648W        W36495  14.757   3.298  11.844 -0.1903  0.0756 -0.3161
21649W        W36496   6.771  13.331  11.608  0.2531 -0.1231 -0.0592
21650W        W36497  11.492   8.885   4.332 -0.0675  0.1015  0.0256
21651W        W36498   2.253  11.378  15.707 -0.0137 -0.0228 -0.0812
21652W        W36499   9.680   2.508  14.735  0.3581  0.0006  0.0908
21653W        W36500   5.649   3.247   1.987  0.2450 -0.1815 -0.0630
21654W        W36501   7.650  10.920  13.347  0.0543  0.0013  0.1214
21655W        W36502  12.478   5.474  13.659 -0.3754 -0.0145  0.2685
21656W        W36503   4.633   9.059   4.586 -0.0252  0.0211 -0.1087
21657W        W36504   7.778   3.242   6.201  0.1583 -0.0103 -0.2262
21658W        W36505  13.515   7.209   2.260 -0.0036  0.0605  0.2416
21659W        W36506   6.101  11.587   3.572  0.0514  0.1782  0.1087
21660W        W36507  10.749  17.281  13.301  0.2733  0.2428  0.3027
21661W        W36508   0.978   4.868  14.013 -0.3036 -0.0123 -0.1273
21662W        W36509  15.229   4.722   3.005 -0.3333  0.1252  0.0667
21663W        W36510   4.934  12.526   1.485 -0.0489  0.0762 -0.2658
21664W        W36511   2.778  14.536   6.443  0.2895  0.0083 -0.2393
21665W        W36512   2.721  16.934  12.564 -0.1514  0.0216 -0.0103
21666W        W36513   2.642  15.074   6.395 -0.0163 -0.1172 -0.3817
21667W        W36514  16.682   8.179   1.012  0.0129  0.1448  0.2272
21668W        W36515  14.344  15.543  15.661 -0.1279  0.2047 -0.0774
21669W        W36516   2.911   2.818  16.689  0.1924  0.0289 -0.2246
21670W        W36517   4.258   2.674   3.163  0.1232 -0.0658  0.0556
21671W        W36518   7.732  12.807   6.109 -0.0117 -0.0329  0.1600
21672W        W36519  14.310  10.666   0.565 -0.0519 -0.1172  0.0423
21673W        W36520  16.156  15.158   2.666  0.1131  0.2271  0.0682
21674W        W36521  10.998   2.232   3.366 -0.0577 -0.0670  0.1661
21675W        W36522  11.391   6.347   2.884 -0.4163  0.1836 -0.0064
21676W        W36523  14.660   6.697  12.461  0.3258 -0.0730  0.0645
21677W        W36524   4.486  12.520  15.951 -0.2099 -0.3993 -0.1712
21678W        W36525  14.016   3.015  12.315  0.0988 -0.1480 -0.0083
21679W        W36526   4.003  10.873  13.117  0.0218  0.2259  0.3124
21680W        W36527  12.014   2.595   2.562  0.1338  0.1791  0.0280
21681W        W36528   7.208   2.699  13.366  0.0673 -0.0474  0.0156
21682W        W36529   5.309   7.464   1.681 -0.0535 -0.2023  0.2985
21683W        W36530  11.942   0.197   4.414  0.0653  0.0860 -0.0311
21684W        W36531   1.248  14.797   1.671  0.0693 -0.0223 -0.2610
21685W        W36532   2.699   7.226  11.266 -0.3595 -0.0449 -0.0433
21686W        W36533   3.302  17.336  14.130  0.2592 -0.0949 -0.1246
21687W        W36534  10.808   3.420   5.357  0.2545  0.0229  0.0069
21688W        W36535  15.757   7.406   4.180 -0.0684  0.1234  0.2783
21689W        W36536   0.323  15.696   6.215 -0.2569 -0.1496  0.0708
21690W        W36537   1.052   0.816  15.630  0.0524  0.1885  0.1802
21691W        W36538  12.985   7.470  14.827 -0.2845  0.3775 -0.2616
21692W        W36539  11.887   7.185  13.238  0.1034  0.0870  0.1387
21693W        W36540   5.862   8.067   3.710  0.1731  0.0521  0.1310
21694W        W36541  15.146  15.451  13.055  0.3708  0.2358 -0.0370
21695W        W36542  17.637  13.716   2.353 -0.1953  0.0808  0.0237
21696W        W36543  15.852   6.063  16.432 -0.0792  0.0199 -0.0478
21697W        W36544  13.416  15.479  15.267 -0.0561  0.3537 -0.2155
21698W        W36545  10.123  14.552  12.765 -0.0488  0.1471 -0.2686
21699W        W36546   5.868   4.481   1.984  0.0302  0.3724 -0.0835
21700W        W36547   5.064   9.199   2.192  0.0345 -0.2632 -0.5009
21701W        W36548   9.411  14.208  16.755  0.0578  0.0001 -0.0112
21702W        W36549   7.633  17.390  14.800 -0.0488 -0.0145  0.0961
21703W        W36550   1.346   5.132  13.766 -0.1062 -0.0017 -0.0083
21704W        W36551   8.736   8.027   0.915 -0.2836 -0.3193 -0.0681
21705W        W36552   0.513   0.045  14.101  0.0029  0.2729  0.3025
21706W        W36553   3.796   8.881  15.332 -0.0300  0.0712  0.0632
21707W        W36554   5.042  17.635  15.887  0.1946 -0.1430 -0.1508
21708W        W36555  13.182   1.634  11.949 -0.0751  0.2406  0.5074
21709W        W36556  16.825   6.954  15.409  0.1234  0.0148  0.0146
21710W        W36557   1.329  16.731   2.042 -0.0345 -0.3721 -0.0551
21711W        W36558   6.507  13.545  15.190 -0.0379 -0.2446 -0.2990
21712W        W36559   8.088   9.118  13.373 -0.0462  0.3217  0.1968
21713W        W36560   7.047   0.179   3.392  0.2813 -0.1912 -0.0695
21714W        W36561  13.972   6.202  16.393  0.0637 -0.1741 -0.2641
21715W        W36562   1.775   9.002  12.969  0.0378 -0.1692 -0.3364
21716W        W36563  15.052  11.911  16.805 -0.2790  0.2169  0.5638
21717W        W36564   2.584   6.935  17.435  0.1003  0.0477 -0.1319
21718W        W36565   6.237  16.695   1.156 -0.0936  0.1370 -0.1064
21719W        W36566  15.259  10.011   1.480  0.0085  0.4159  0.1185
21720W        W36567   4.964  17.078  11.760  0.0104  0.4287 -0.2086
21721W        W36568  12.143   5.094  13.605  0.4173 -0.0990  0.2629
21722W        W36569   3.960   9.915   1.584  0.1907  0.1652 -0.1189
21723W        W36570   4.360  14.862  15.054 -0.1582 -0.1274 -0.1418
21724W        W36571   9.923   4.705  14.321  0.0766 -0.4177 -0.1627
21725W        W36572  12.050   3.819  16.610 -0.0493 -0.0758 -0.2753
21726W        W36573  17.615  14.980  17.457 -0.1314  0.0867  0.3158
21727W        W36574   2.702  14.517   3.695 -0.1155 -0.0063 -0.3460
21728W        W36575  12.618  10.924   3.795  0.3965 -0.0262 -0.2888
21729W        W36576   1.058   4.512  12.543  0.1825 -0.0865 -0.0533
21730W        W36577   4.037  14.608   1.780 -0.1167  0.1350 -0.0676
21731W        W36578  16.140  16.801  14.611 -0.1101  0.0474  0.1215
21732W        W36579   6.292  10.082  12.727  0.1738  0.0850  0.3702
21733W        W36580  10.266   1.438   6.157 -0.1443  0.0467  0.1269
21734W        W36581   8.713   5.393  17.213  0.1215 -0.1118  0.0260
21735W        W36582   6.407  11.399   4.556 -0.2468  0.4363  0.3785
21736W        W36583  14.231   8.967   0.030 -0.0292  0.0235 -0.2977
21737W        W36584  10.768   3.109   3.859 -0.2614  0.1642 -0.2378
21738W        W36585   4.236   8.034  17.389  0.0736  0.2747 -0.1835
21739W        W36586   4.395   6.961   6.772  0.1189 -0.0226 -0.2249
21740W        W36587   7.468  12.761   2.165 -0.1006  0.1388 -0.6019
21741W        W36588   8.982   4.865   3.962 -0.0886 -0.2785 -0.1483
21742W        W36589   6.280   9.550   3.350  0.2458  0.2379 -0.1159
21743W        W36590   8.583  12.973  13.035 -0.1501 -0.0394 -0.3384
21744W        W36591   3.784   5.180  15.498 -0.0847  0.1036  0.2286
21745W        W36592  13.993  17.592   1.891 -0.0424  0.2513 -0.1303
21746W        W36593   8.142   4.347  17.198  0.0880 -0.0735  0.2655
21747W        W36594   9.219  12.064   2.666 -0.2169 -0.3466 -0.0053
21748W        W36595  10.070  14.262   6.628 -0.1938 -0.0354 -0.0543
21749W        W36596  11.526   3.906  15.932  0.3281  0.3550  0.1623
21750W        W36597  15.775  10.423   5.919 -0.0699  0.0563  0.3620
21751W        W36598  14.568  11.187   5.231 -0.0616 -0.3932 -0.0295
21752W        W36599   3.898  10.523   4.838 -0.1659  0.1132  0.0355
21753W        W36600   6.042   2.265   6.563  0.0913  0.0390 -0.0468
21754W        W36601   3.099   2.290   1.649  0.1052  0.0332  0.0811
21755W        W36602   0.906  10.159  16.252  0.0025 -0.0620  0.0895
21756W        W36603   8.815  14.696   1.209 -0.1067 -0.2669  0.0671
21757W        W36604   9.538   8.671   1.290  0.2410 -0.3080 -0.2620
21758W        W36605  16.325  12.025  16.208  0.0690  0.2011 -0.5244
21759W        W36606   5.581  10.063  13.352  0.3892  0.0067  0.0185
21760W        W36607   9.288  11.461  16.806 -0.2913 -0.0317 -0.1221
21761W        W36608   6.044   3.318   0.702  0.0237  0.1868 -0.4744
21762W        W36609   5.249   5.440   4.965  0.0397  0.0484  0.0741
21763W        W36610  11.884  16.348   4.483 -0.2886  0.2484  0.1872
21764W        W36611  16.802   8.768  14.472  0.1243 -0.2720 -0.0211
21765W        W36612  16.914  11.095  14.346 -0.0310  0.0729  0.3865
21766W        W36613   2.731  11.343  12.479  0.2428  0.3620  0.2315
21767W        W36614   3.171  15.372  14.337 -0.0221 -0.0316  0.2102
21768W        W36615  17.128  16.173   2.396 -0.2496  0.1396 -0.0375
21769W        W36616  13.492   0.135  15.625  0.1935  0.5973 -0.1123
21770W        W36617   7.143  12.079   1.641 -0.2109 -0.1033 -0.1678
21771W        W36618   2.856   2.905   2.110 -0.0359 -0.2356 -0.2177
21772W        W36619  16.765  15.035  14.549  0.0263  0.1959 -0.1592
21773W        W36620   0.981   1.998  13.400 -0.2249  0.0681 -0.2567
21774W        W36621  11.160  11.889  13.799  0.0526 -0.1294  0.1851
21775W        W36622   2.719   0.304  14.030  0.0874  0.0626  0.1515
21776W        W36623   7.906   7.676   4.506 -0.2548  0.0177  0.1400
21777W        W36624   5.386   4.715  17.001  0.1453  0.1774  0.1615
21778W        W36625  13.544   4.757  15.610  0.0316 -0.2949  0.2248
21779W        W36626   4.608   0.883   5.922  0.3477 -0.0430  0.0157
21780W        W36627   7.506  16.098  17.276 -0.1477  0.0469  0.0930
21781W        W36628  16.629   7.885   5.843  0.0503 -0.3259 -0.0431
21782W        W36629   2.336   3.041   0.177 -0.0697  0.1448 -0.0429
21783W        W36630  15.471  12.119  12.695  0.0688  0.2027  0.0786
21784W        W36631   6.914   3.096  15.903 -0.1078  0.2080 -0.0161
21785W        W36632   8.009   0.620  16.535  0.0016  0.3996 -0.1890
21786W        W36633  17.287  10.528   5.003 -0.2949 -0.1480  0.1115
21787W        W36634   5.534  12.905   5.528  0.0059 -0.1525 -0.3590
21788W        W36635  16.008   7.912  16.734 -0.2059 -0.2771  0.0486
21789W        W36636  12.187   6.835  13.497  0.0456  0.1468  0.1026
21790W        W36637   8.829  16.304   0.275  0.1614  0.2843 -0.3082
21791W        W36638   7.970  12.201   1.708 -0.1103  0.3768 -0.0344
21792W        W36639  10.445  11.968   2.788  0.2184  0.1364 -0.1772
21793W        W36640   2.175  14.262   1.139  0.1917 -0.2760  0.1181
21794W        W36641   6.619   5.363   0.895 -0.0486 -0.3187 -0.1026
21795W        W36642   6.888  14.732  12.993 -0.2071  0.4682 -0.1055
21796W        W36643  12.597  14.596  14.662 -0.0250  0.1845  0.2214
21797W        W36644   8.120   3.330   2.628 -0.1411 -0.0660 -0.2538
21798W        W36645   4.247   3.556   1.338 -0.0377  0.2605  0.0962
21799W        W36646   7.375  13.115   3.132 -0.0581 -0.0000  0.1712
21800W        W36647   4.687   9.887  16.709  0.1217  0.1492  0.2763
21801W        W36648   4.295   7.159   5.307  0.0537 -0.0566  0.0652
21802W        W36649  16.866  13.845   0.766 -0.1220 -0.1349 -0.3184
21803W        W36650  12.776   7.277   0.629  0.0748  0.0555 -0.0277
21804W        W36651  13.556  14.927   4.692  0.0351  0.0933  0.0507
21805W        W36652  14.235   3.716   5.985 -0.0597 -0.1457 -0.2431
21806W        W36653   8.530  11.275   1.084  0.0115 -0.0274 -0.3245
21807W        W36654   2.466   3.270  14.301 -0.0638 -0.6248  0.0382
21808W        W36655  12.632   2.689   0.342 -0.0067 -0.2567  0.1811
21809W        W36656   1.029  14.590  11.850  0.1478  0.2297  0.3187
21810W        W36657   3.977  17.244   6.113  0.2681  0.0260 -0.1030
21811W        W36658   0.223   8.058  12.225  0.0875 -0.0069 -0.2924
21812W        W36659   4.194  15.125   3.499 -0.1437  0.2427  0.0080
21813W        W36660   0.939   2.896   0.637  0.0384 -0.0200 -0.0912
21814W        W36661  13.063   2.212  16.415 -0.0586 -0.1452 -0.1078
21815W        W36662   6.071   4.973   0.079 -0.0896 -0.1580  0.0187
21816W        W36663   7.012  17.513  16.559  0.1840  0.2106  0.0359
21817W        W36664  10.926  13.732  15.298 -0.2454  0.1387  0.1287
21818W        W36665   1.329  11.556  14.036 -0.1599 -0.3021 -0.1136
21819W        W36666   5.335  15.994  15.934 -0.0093  0.0275  0.1229
21820W        W36667  11.607   4.640  14.159 -0.0596  0.1515 -0.3289
21821W        W36668   0.423   6.004  16.862 -0.1229 -0.0317 -0.1110
21822W        W36669  10.719  10.653   0.876  0.2878  0.0762 -0.1538
21823W        W36670  13.129   8.172  17.528 -0.0710 -0.2148  0.0326
21824W        W36671   2.911  14.128  16.751 -0.4136  0.1744  0.0042
21825W        W36672   4.535  12.982  16.822 -0.3227  0.1509 -0.1253
21826W        W36673   8.468   4.925  15.001  0.0503 -0.2683 -0.3071
21827W        W36674  12.578   8.716   6.661 -0.0184  0.0711 -0.2139
21828W        W36675  14.187  15.085  14.928  0.2166  0.1146  0.0873
21829W        W36676   5.403   7.977   0.840  0.5295 -0.0596 -0.2224
21830W        W36677   7.862  11.858  16.438 -0.1476  0.2179 -0.1591
21831W        W36678   2.462   6.201   3.653  0.0105  0.0088 -0.1057
21832W        W36679   6.761   3.446   6.243 -0.0400 -0.0390 -0.2258
21833W        W36680  10.568   6.682   2.440  0.1113 -0.3093 -0.0006
21834W        W36681   0.282  11.922  13.891 -0.1882  0.0279 -0.3689
21835W        W36682   0.269   9.758   4.915  0.1420  0.2575  0.0669
21836W        W36683  11.422   0.213  17.253 -0.0844 -0.0052  0.0273
21837W        W36684   5.608   6.361  16.017  0.0857 -0.0534  0.4810
21838W        W36685  12.911  14.469  17.567 -0.0637 -0.2117 -0.3109
21839W        W36686  10.424   0.581  17.115  0.1170 -0.2240 -0.2183
21840W        W36687   7.383  16.764   2.463  0.0832  0.0453  0.1224
21841W        W36688  10.430   1.466   1.030  0.1742  0.0967  0.1740
21842W        W36689   7.700   9.012   4.662  0.2132 -0.4159 -0.2157
21843W        W36690   9.540   6.270   4.178 -0.0126  0.0974 -0.0721
21844W        W36691  14.693   8.691   1.953  0.0788 -0.1328 -0.1273
21845W        W36692   2.041   2.904  16.668  0.3897  0.1556 -0.2145
21846W        W36693   7.859  16.734   5.721  0.2090  0.0200  0.0497
21847W        W36694   3.873   6.717  13.754  0.0679  0.0102  0.3756
21848W        W36695   1.226  11.801  12.099  0.0310 -0.3211 -0.1543
21849W        W36696   2.143   7.817   2.734  0.0012 -0.1883  0.2228
21850W        W36697   3.759  12.109  13.009 -0.1614  0.2798  0.1599
21851W        W36698  10.490  13.283   0.943 -0.1737  0.1102 -0.0350
21852W        W36699   8.834  10.112  14.567 -0.3286 -0.3487 -0.0027
21853W        W36700   8.923   0.863   3.791 -0.0535 -0.0330 -0.1112
21854W        W36701   3.964   0.812  12.945 -0.0034 -0.1617  0.0435
21855W        W36702   9.146  12.302   5.962  0.3133 -0.0634  0.1506
21856W        W36703   6.463  16.828   0.163  0.0530  0.2203 -0.1411
21857W        W36704   6.328  11.074   6.198 -0.1809  0.1950  0.1691
21858W        W36705  12.585   5.630   5.785 -0.0339 -0.0363  0.2993
21859W        W36706  11.920   7.026  15.721  0.0755  0.1016 -0.2567
21860W        W36707   1.299   0.113   4.551 -0.2387  0.3609  0.0967
21861W        W36708   2.853  17.391  16.090 -0.1689 -0.2657 -0.1307
21862W        W36709  14.664   3.773   6.268  0.3398  0.1243 -0.3512
21863W        W36710  16.822   7.239  14.141  0.2317  0.1777  0.0141
21864W        W36711   1.660  14.950   6.862  0.0307  0.1005 -0.0038
21865W        W36712   8.422  17.002  13.982 -0.0668 -0.1496  0.1095
21866W        W36713   8.630   7.839   1.620 -0.2541 -0.1971  0.3362
21867W        W36714  14.790  11.376  15.395 -0.0143  0.1874  0.0943
21868W        W36715   8.335   9.072   4.429  0.0556 -0.1584 -0.0090
21869W        W36716  14.170  15.507   6.920  0.0248 -0.1569  0.1614
21870W        W36717   4.547  15.598   0.114  0.2941  0.2082  0.0405
21871W        W36718   2.331   7.244  11.633 -0.1232  0.1283  0.2539
21872W        W36719  11.457  14.460  15.395 -0.0254  0.2799 -0.1286
21873W        W36720  10.707  13.868  15.776 -0.0999  0.1130 -0.2433
21874W        W36721  12.713  15.173  16.170  0.0704 -0.1412  0.1770
21875W        W36722   0.786  11.676  16.950  0.1089 -0.1733  0.0856
21876W        W36723   9.193   0.666  16.082  0.0590  0.1187 -0.3431
21877W        W36724   2.388   4.043   0.622  0.2318 -0.2957 -0.2106
21878W        W36725  12.562   2.701  14.721 -0.1208 -0.0102  0.0321
21879W        W36726   1.032  17.556   2.195 -0.0212  0.0218 -0.0594
21880W        W36727  10.221   1.870   0.692  0.0089 -0.1736 -0.2185
21881W        W36728  12.571   1.804   2.465 -0.2258  0.0264  0.1577
21882W        W36729   3.087  12.747   1.234 -0.0846 -0.1078 -0.0552
21883W        W36730  10.983   1.087   4.161  0.0498  0.4965  0.0765
21884W        W36731  14.394   2.798   5.568 -0.3023 -0.2460  0.0721
21885W        W36732  13.336   5.695  16.834 -0.1041 -0.2225  0.1142
21886W        W36733   7.287   7.138   1.709 -0.0053 -0.1611 -0.1821
21887W        W36734  17.069  13.340   0.105 -0.1125  0.3788 -0.1720
21888W        W36735   1.928   0.624  16.969 -0.1474  0.2050  0.0911
21889W        W36736   3.225   5.807   6.510 -0.2671  0.0068  0.1466
21890W        W36737   7.767  11.008  13.980 -0.2570 -0.3388 -0.1588
21891W        W36738  17.525   1.589  17.181  0.1488 -0.1856  0.0831
21892W        W36739   9.451   7.485   5.302 -0.2032 -0.1524 -0.1610
21893W        W36740   0.404   0.783   3.404 -0.0150 -0.2259 -0.0165
21894W        W36741  13.899   8.965   1.364  0.1228 -0.1153 -0.2259
21895W        W36742   3.956   4.960   0.709 -0.1258  0.0719  0.2881
21896W        W36743   8.501   5.871   3.165 -0.0468  0.0543  0.1695
21897W        W36744   9.210  12.506   6.401  0.0684 -0.4292  0.1420
21898W        W36745   9.662   3.605  17.156 -0.0392 -0.1999 -0.0450
21899W        W36746   0.076  17.401   5.547  0.1038  0.0811  0.0347
21900W        W36747   2.332   7.448  15.765 -0.0409  0.0678  0.1348
21901W        W36748  14.888   9.787  15.324  0.0404  0.1057 -0.2426
21902W        W36749  10.976  16.425  11.975 -0.3370 -0.1310 -0.0933
21903W        W36750   2.591   8.684  13.940 -0.1076  0.2162 -0.0286
21904W        W36751   4.947  11.086   0.320  0.2356  0.0607 -0.1101
21905W        W36752  11.611   2.871   3.812  0.1521 -0.3277  0.0174
21906W        W36753   0.415   8.038   5.821  0.0124  0.0564  0.1255
21907W        W36754  14.799   2.611   3.036 -0.0460  0.1437 -0.2097
21908W        W36755   5.142  11.483   4.957 -0.1785 -0.0188  0.0693
21909W        W36756   0.905  13.994   3.751 -0.0354  0.0003  0.1720
21910W        W36757   8.798   5.629   0.026 -0.0055 -0.0401 -0.2283
21911W        W36758   9.634  11.600   4.958  0.0131  0.1635  0.0707
21912W        W36759   6.268  12.664  17.250 -0.2921  0.0717 -0.3011
21913W        W36760   9.985   4.004   4.941 -0.0556  0.1081 -0.0929
21914W        W36761   0.727   1.439  13.968 -0.0377 -0.3637 -0.1242
21915W        W36762   5.383  16.993  16.102 -0.2673  0.2282 -0.3682
21916W        W36763   9.658  12.031   5.817  0.4385  0.0177  0.0600
21917W        W36764   9.453   3.587   6.520  0.0426 -0.3199 -0.1130
21918W        W36765   5.870   6.004   0.721  0.2541 -0.1180  0.2455
21919W        W36766  16.318   2.519   6.509  0.0426 -0.0419  0.1146
21920W        W36767  10.296  16.945  14.549 -0.1476  0.3534 -0.2371
21921W        W36768   4.474   9.581   4.430  0.3094  0.0708 -0.2935
21922W        W36769  14.866  15.281  13.782 -0.1140  0.3343 -0.1233
21923W        W36770   2.866   1.754  15.805  0.1727  0.0608  0.0259
21924W        W36771   2.122   0.353   0.330 -0.0104  0.0181  0.0311
21925W        W36772  14.406  15.252  13.254 -0.2180  0.0431 -0.0148
21926W        W36773   3.692  15.516  17.609  0.0632 -0.1548 -0.0711
21927W        W36774  16.265   7.611   2.529  0.0787  0.1526  0.1646
21928W        W36775   3.556  17.074  11.931  0.1849  0.0581  0.0882
21929W        W36776   7.477   5.827  15.464 -0.1063  0.0876  0.1829
21930W        W36777  11.865   9.225  14.423  0.0972  0.1923 -0.1072
21931W        W36778  17.039   9.041  11.464  0.1116  0.0052  0.0655
21932W        W36779  14.660   3.984   3.391 -0.0379 -0.0832  0.0768
21933W        W36780   7.252   1.895   0.151  0.1294 -0.1091 -0.1242
21934W        W36781   8.988   1.759  11.600 -0.0939 -0.0565 -0.2126
21935W        W36782   0.655  15.236   2.099  0.0701 -0.0962  0.0506
21936W        W36783  13.548  15.963  15.240 -0.0430  0.1981 -0.0967
21937W        W36784   3.979  15.977   3.090  0.2054 -0.1430 -0.0540
21938W        W36785  12.781  17.423  13.697  0.0302  0.1619 -0.1390
21939W        W36786  12.469  15.038  13.966 -0.2012  0.0764 -0.0825
21940W        W36787   9.893  10.534   2.695  0.1592  0.1334 -0.0415
21941W        W36788  10.107  13.980   5.508  0.2569 -0.1675 -0.1132
21942W        W36789  13.102   8.695  15.997 -0.2380 -0.1767  0.0536
21943W        W36790  10.831   6.974  16.363  0.0549  0.0687  0.0661
21944W        W36791  10.835   7.009   0.634 -0.0283 -0.0811  0.4809
21945W        W36792   8.242  14.031   0.926 -0.3824  0.0981 -0.0043
21946W        W36793  13.182  17.650   0.763  0.1585 -0.1557 -0.0357
21947W        W36794   6.080  13.381   3.061  0.1772  0.1629 -0.1054
21948W        W36795   1.485   3.103  14.204  0.1840 -0.0817 -0.0858
21949W        W36796   0.756   2.372  17.193 -0.1272  0.2440 -0.2473
21950W        W36797  13.561   3.420   5.664  0.5106 -0.0927  0.0601
21951W        W36798  14.322   3.464  12.127  0.3781  0.1696 -0.0030
21952W        W36799  14.355   3.781  15.292 -0.2283 -0.0410  0.1267
21953W        W36800   7.174   5.769  16.660 -0.3756 -0.1101  0.2764
21954W        W36801  10.108  16.989  17.208 -0.0325 -0.0559  0.2156
21955W        W36802   4.051   9.008   0.651  0.4520  0.0051  0.0930
21956W        W36803  13.603  15.207  17.272 -0.3930  0.0432 -0.1241
21957W        W36804   6.317  17.516  15.153  0.6472  0.0616  0.0122
21958W        W36805   2.708   2.385  13.082  0.2585  0.1692  0.0494
21959W        W36806  16.707  10.509  14.461  0.0227 -0.0616 -0.1621
21960W        W36807  14.165   6.107   5.350 -0.0668  0.2389 -0.3334
21961W        W36808  11.571   4.848   0.437  0.2332 -0.0186 -0.4233
21962W        W36809  10.374   1.318  13.765  0.0575  0.1454  0.0725
21963W        W36810  13.745  14.295  16.905  0.2462 -0.1179 -0.0118
21964W        W36811  12.097  12.918   7.293 -0.1142 -0.4401  0.1751
21965W        W36812   5.833  11.740   5.915 -0.0713 -0.2183 -0.1076
21966W        W36813   0.378  11.772   3.116 -0.0010  0.1955  0.1145
21967W        W36814   6.958  16.933  16.648  0.1801  0.1688  0.0195
21968W        W36815  14.780  12.632   3.080  0.0746 -0.0002 -0.2542
21969W        W36816   9.774   5.426  17.245  0.1614 -0.0249 -0.2049
21970W        W36817   3.807   8.035   4.190  0.0123  0.0125 -0.0326
21971W        W36818  13.605  12.964  15.589 -0.0441  0.3457  0.0890
21972W        W36819   5.725   7.442  14.685  0.1773  0.1082  0.1255
21973W        W36820   0.618   9.542   6.268  0.0870  0.0185 -0.3976
21974W        W36821   2.082   4.494   5.557 -0.1061  0.2191  0.2322
21975W        W36822   2.449   7.211  14.840  0.4044  0.2206 -0.0561
21976W        W36823   3.794  12.185  12.251 -0.0471  0.3070  0.0209
21977W        W36824  10.220   5.013  11.262  0.2949 -0.2098 -0.4303
21978W        W36825  16.983   6.615   0.644  0.0977  0.1198 -0.0540
21979W        W36826  12.045   9.252   6.146 -0.2895  0.4117  0.1232
21980W        W36827   8.154  10.769   5.551  0.0492 -0.1982 -0.1678
21981W        W36828  16.845  13.071  14.060 -0.1982 -0.0383  0.0655
21982W        W36829   1.561   3.664  13.708  0.2098 -0.0206  0.1993
21983W        W36830  14.723  17.530   4.495  0.1878 -0.3054  0.3895
21984W        W36831  11.069   3.282   4.880 -0.2190 -0.0874  0.2675
21985W        W36832  12.913  11.302   5.775  0.2709  0.1306 -0.0204
21986W        W36833   6.389  15.619  15.078  0.3344 -0.1319 -0.3475
21987W        W36834  11.676   7.140   5.791  0.0588 -0.0520  0.0519
21988W        W36835  10.250   9.581   4.116  0.0087  0.0378 -0.2120
21989W        W36836   3.315   6.182   4.617  0.3728 -0.1729  0.1480
21990W        W36837   5.714  17.446  16.974  0.0042 -0.3096 -0.2957
21991W        W36838   0.369  16.675  16.933  0.0407 -0.0557 -0.1001
21992W        W36839   3.543   7.785   5.052  0.0546 -0.0838 -0.1803
21993W        W36840   9.341   1.563   5.229 -0.2768  0.1250  0.0946
21994W        W36841  13.866  13.757   0.693 -0.1848  0.0637 -0.0707
21995W        W36842  12.570  11.760  16.841 -0.0243 -0.0408  0.0656
21996W        W36843   3.038   0.016   4.435 -0.0418  0.0485  0.0675
21997W        W36844   6.456  12.939  12.373 -0.0585 -0.3883  0.3546
21998W        W36845  11.299   7.517   4.293 -0.0388 -0.0736 -0.1742
21999W        W36846  17.271  15.659  12.355 -0.2162  0.1060  0.1141
22000W        W36847  15.735  14.760  15.968  0.0655 -0.1464 -0.2654
22001W        W36848  14.614  16.319   3.382 -0.1432 -0.1752 -0.0245
22002W        W36849  12.027   6.567   5.699  0.0791 -0.1228 -0.0170
22003W        W36850   4.485   8.433   3.422  0.0024  0.0552  0.3808
22004W        W36851  10.290  14.558  16.024 -0.2222 -0.1205 -0.2446
22005W        W36852   2.305   2.612  12.204 -0.1677 -0.4186  0.0863
22006W        W36853   3.910  11.788  13.440 -0.1009 -0.1058 -0.3127
22007W        W36854  16.739   3.110  15.321 -0.2234 -0.0221 -0.1798
22008W        W36855  16.567   0.159   3.655  0.1081 -0.2127  0.1782
22009W        W36856   5.453  13.910  14.247 -0.1050  0.1681  0.0995
22010W        W36857   7.098  12.753  13.478 -0.0884  0.1131  0.0139
22011W        W36858   2.047   4.958   3.745  0.2675  0.2964  0.1075
22012W        W36859  12.052   2.355  12.496  0.0469  0.3433  0.0984
22013W        W36860  10.468   8.377   4.978 -0.0011  0.3489  0.0115
22014W        W36861   5.046  11.413  11.805 -0.1266 -0.0153 -0.0046
22015W        W36862  16.426   8.964   1.557 -0.1608 -0.1774  0.0745
22016W        W36863   6.163  13.783   1.067  0.1740  0.0921  0.1119
22017W        W36864   9.810   2.512   6.333  0.0588  0.0424 -0.1275
22018W        W36865   7.826   8.447  16.358 -0.3678 -0.0250 -0.0111
22019W        W36866   7.533  14.478   1.412 -0.0924  0.2204 -0.0802
22020W        W36867  15.613   8.454   4.408  0.0357  0.1309  0.0980
22021W        W36868   4.812  15.822   6.126  0.0217  0.1161 -0.1487
22022W        W36869  17.412   0.492   5.458  0.3472  0.3057 -0.1650
22023W        W36870  14.610  10.777  16.215 -0.1682 -0.1740  0.2300
22024W        W36871   6.708  13.094  15.474  0.3260 -0.4679  0.2090
22025W        W36872  13.493   7.375   5.122  0.0266  0.2803 -0.1051
22026W        W36873   2.745   5.761  15.181  0.1143 -0.1004  0.0844
22027W        W36874  16.287   9.058   4.393 -0.0341  0.1251  0.1416
22028W        W36875   3.679  16.371  14.134 -0.2747 -0.1322  0.2566
22029W        W36876   3.831   4.694  13.031 -0.0946 -0.1041 -0.1354
22030W        W36877  16.764  15.220  17.479 -0.1118  0.2120 -0.1588
22031W        W36878   2.480  15.291   5.459 -0.1393 -0.2473 -0.0580
22032W        W36879  10.339   5.450   1.176  0.3631  0.1269 -0.0033
22033W        W36880  15.705   5.395   0.456  0.3341 -0.0971 -0.0610
22034W        W36881  12.920  16.261   0.434 -0.1474  0.1088 -0.2418
22035W        W36882  11.425  11.463  13.687  0.1421  0.0951  0.0729
22036W        W36883  13.356  13.226   4.996 -0.0451  0.0217  0.0324
22037W        W36884  14.973   5.621  17.406 -0.1274  0.0895 -0.0950
22038W        W36885   6.165   0.638   3.027 -0.0255 -0.2874  0.1060
22039W        W36886   0.910  16.772   0.891  0.0077  0.0787 -0.0496
22040W        W36887   2.782  11.953  15.189 -0.1778  0.0841  0.2680
22041W        W36888   6.302   8.945  13.689 -0.0118 -0.0380 -0.0075
22042W        W36889   7.077  17.298  14.560  0.0053  0.0462  0.1437
22043W        W36890  12.551  14.384  14.106 -0.1167  0.3109  0.1879
22044W        W36891  11.255   2.453   0.172  0.0242 -0.3877 -0.1076
22045W        W36892  13.909  17.535   0.480  0.0131 -0.4354  0.1468
22046W        W36893  13.378   1.898  16.683 -0.1946  0.0166 -0.1866
22047W        W36894   9.329  11.482  16.283  0.0481 -0.0069 -0.0808
22048W        W36895   1.705   6.196   2.717 -0.0111 -0.1129 -0.0612
22049W        W36896  16.664  12.585   5.539 -0.2117  0.1047 -0.0850
22050W        W36897   6.878   1.047   7.232  0.3024 -0.0265 -0.2297
22051W        W36898   2.887   8.895  11.873 -0.2166 -0.1219  0.0342
22052W        W36899   9.871   7.409  11.925 -0.0578  0.2362 -0.0874
22053W        W36900  16.542   6.805   0.898 -0.1668  0.3523 -0.1532
22054W        W36901   5.980   1.794  12.813 -0.0080 -0.1765 -0.1103
22055W        W36902   8.912   4.399   1.112  0.0794 -0.1804  0.0300
22056W        W36903   8.496  11.429  15.735 -0.0480  0.0248 -0.1097
22057W        W36904  10.644  17.391  16.526  0.1957 -0.3671 -0.1880
22058W        W36905  13.408   0.031   3.373 -0.3325  0.0570  0.0920
22059W        W36906  16.490  15.841  13.454  0.2514  0.2222  0.1640
22060W        W36907   7.582  14.825   5.172 -0.0505  0.0167 -0.1067
22061W        W36908  17.382   3.678   3.235 -0.0162 -0.1309 -0.1714
22062W        W36909   6.744   5.055  17.180  0.2519 -0.0250 -0.4973
22063W        W36910   3.208  12.074  13.081  0.1816 -0.1527  0.1625
22064W        W36911  14.043  17.359   6.499  0.2955 -0.3010  0.0874
22065W        W36912   3.143   6.578   0.472 -0.0397 -0.2309  0.1326
22066W        W36913   2.672   6.014   5.444  0.1401 -0.0079  0.1833
22067W        W36914  14.287   6.767   1.786 -0.1902 -0.2412  0.1516
22068W        W36915   9.572  15.100  11.709  0.1343  0.1228  0.0672
22069W        W36916   2.446  13.067  13.684 -0.3967  0.0875  0.0039
22070W        W36917  13.352   1.681   1.959 -0.1198 -0.1328 -0.1606
22071W        W36918  17.057   8.852   3.273  0.1960 -0.1014 -0.2078
22072W        W36919   7.719  11.413   2.271 -0.1292  0.0830 -0.0387
22073W        W36920   5.118   6.429  14.272 -0.1342  0.0745  0.0443
22074W        W36921   5.395  14.765  14.441  0.0287  0.0744  0.0807
22075W        W36922  12.309   3.010  15.037 -0.1749 -0.0921 -0.0627
22076W        W36923   0.067   0.551  17.061  0.0795  0.0178  0.1170
22077W        W36924  16.886   4.997   4.922 -0.0321 -0.0378  0.0302
22078W        W36925   1.042   4.222   0.575 -0.0890 -0.1556 -0.0346
22079W        W36926  11.046  17.379   6.639 -0.3066  0.1155  0.0517
22080W        W36927   9.701  11.256  17.220 -0.2030  0.1712 -0.2429
22081W        W36928  11.936   7.602  14.093  0.0468 -0.3755 -0.2785
22082W        W36929  15.287   3.702   3.049  0.0842  0.4320 -0.2331
22083W        W36930  14.628   9.147  14.025 -0.1638  0.5289 -0.0974
22084W        W36931  13.077  12.696  15.211 -0.2292 -0.1784 -0.0648
22085W        W36932   1.239   6.062   0.958  0.0822  0.2700 -0.0972
22086W        W36933   5.377  16.266  14.243 -0.1238 -0.1305 -0.0172
22087W        W36934  11.946   5.328  14.968  0.2296 -0.0179  0.1187
22088W        W36935  17.560   3.280   0.746 -0.3198  0.3002  0.1523
22089W        W36936   6.439   2.950  14.670 -0.1261 -0.0171 -0.0221
22090W        W36937   6.033  12.894  14.709 -0.0537  0.1165  0.1809
22091W        W36938  12.253  17.119  14.685 -0.1941 -0.0072 -0.1726
22092W        W36939  12.179   1.955   3.795 -0.0133 -0.0232  0.0719
22093W        W36940  17.541   6.183  15.479 -0.1857 -0.1728 -0.0721
22094W        W36941   3.039  16.723   0.152  0.3448 -0.0886 -0.1877
22095W        W36942  10.369  10.789   0.451 -0.1960  0.3668 -0.0116
22096W        W36943   7.406  14.791   2.757 -0.0359  0.2039 -0.1927
22097W        W36944   7.739  14.038   5.691 -0.0665 -0.1164  0.2678
22098W        W36945   1.622   7.129  14.592  0.0492 -0.1507 -0.1207
22099W        W36946   7.658  12.163   4.261  0.2233 -0.0105  0.1622
22100W        W36947   0.211   4.183   0.708 -0.1448  0.0095 -0.1476
22101W        W36948  10.291  12.380   4.143 -0.1654 -0.0926  0.1519
22102W        W36949  11.671  17.114   3.157 -0.0427  0.0197  0.2442
22103W        W36950   7.707   0.153   2.617  0.1454  0.3194  0.1637
22104W        W36951   4.737   1.213  15.234 -0.0814  0.1113  0.0965
22105W        W36952   9.327  16.475   1.130 -0.1502  0.0854 -0.1118
22106W        W36953   1.862   3.713   4.522 -0.3339  0.2718 -0.0752
22107W        W36954   3.317   1.684   2.614 -0.0838 -0.2502  0.0395
22108W        W36955  14.375  17.613  15.186 -0.3560 -0.0968  0.0845
22109W        W36956   8.676  13.666   6.673  0.1375 -0.1522 -0.0769
22110W        W36957   2.847  13.812   3.680  0.0140 -0.1911  0.4392
22111W        W36958  16.412   3.266   1.667 -0.0684 -0.0421 -0.0429
22112W        W36959   8.820   8.558  14.157 -0.1898  0.0345 -0.1915
22113W        W36960  16.151  17.350  13.784  0.0223  0.1906 -0.2868
22114W        W36961  17.599  11.724   6.313  0.0672 -0.2300 -0.2232
22115W        W36962  14.163  15.875  14.727 -0.0319  0.1081  0.5600
22116W        W36963  16.224  15.410  13.321 -0.1332  0.2845  0.5659
22117W        W36964  14.648   6.716  16.183 -0.1699 -0.2576  0.0199
22118W        W36965  15.701  16.145   6.058 -0.1913 -0.2691 -0.1199
22119W        W36966  11.465  16.594  17.267  0.1577 -0.1444  0.2792
22120W        W36967   2.901  12.783  16.133  0.1326  0.1715 -0.1493
22121W        W36968   5.782   1.704  16.926  0.1111 -0.0777  0.1016
22122W        W36969  12.916   4.120   1.708  0.2917  0.1520 -0.1729
22123W        W36970  10.058   2.712   1.720 -0.0417 -0.2465 -0.1452
22124W        W36971  11.527   5.820   2.833  0.0931 -0.4406 -0.1211
22125W        W36972   9.615  14.010  17.217  0.0030  0.3375  0.1190
22126W        W36973   3.204   0.267   4.901 -0.0110 -0.2019  0.0251
22127W        W36974   2.373   0.380   1.941 -0.0370 -0.0551  0.1100
22128W        W36975  11.279  12.762  14.119 -0.2558 -0.1349  0.0628
22129W        W36976   8.425   1.086  15.750  0.0152  0.1477 -0.3028
22130W        W36977  13.976  14.180   4.157  0.1697  0.1239  0.3262
22131W        W36978  11.220   9.593   2.072 -0.0045  0.1047 -0.0729
22132W        W36979  12.149   9.720   0.548 -0.2098 -0.0029  0.1799
22133W        W36980  17.626  10.518   5.830 -0.0985  0.0603 -0.0672
22134W        W36981  10.338  16.003  14.853  0.3557 -0.0604 -0.2933
22135W        W36982   5.773   7.903   5.213 -0.0399  0.0137 -0.0713
22136W        W36983   3.555   0.737  14.936 -0.2959 -0.3564  0.1966
22137W        W36984   1.608   5.153   3.567 -0.2871  0.1103  0.1439
22138W        W36985  13.199  17.043   1.888 -0.1890 -0.1112  0.0843
22139W        W36986  17.611   1.230   3.726 -0.1133  0.3358 -0.1502
22140W        W36987  15.643  16.232  12.082  0.2358  0.0164 -0.2214
22141W        W36988   8.816  17.411   4.507 -0.1306  0.2394 -0.0577
22142W        W36989   9.750  14.300  13.707 -0.1320 -0.0278  0.0285
22143W        W36990  16.192   5.125   6.466 -0.3762 -0.1736  0.3017
22144W        W36991   6.426  14.768   3.388  0.0439 -0.2083  0.0163
22145W        W36992   3.595  15.655   0.840 -0.2042 -0.1212 -0.0603
22146W        W36993   2.327   0.474  15.797  0.1685 -0.3808  0.1076
22147W        W36994   4.775  16.745   5.167  0.0375 -0.0302 -0.0542
22148W        W36995  16.213   4.342   5.020 -0.0353  0.1481 -0.1166
22149W        W36996   5.405  14.130   6.464  0.0187 -0.1937 -0.1907
22150W        W36997   1.833   2.790  15.716 -0.3496  0.0548 -0.0782
22151W        W36998   2.456   4.585  12.165  0.3059  0.0184 -0.0132
22152W        W36999  14.998  11.139  14.073 -0.0386 -0.1720  0.3407
22153W        W37000  10.784   0.645  16.293 -0.0125  0.1445 -0.0994
22154W        W37001   0.911   5.655   4.688 -0.1867  0.0613  0.0519
22155W        W37002   1.059   2.835   2.234  0.0210  0.0601  0.0164
22156W        W37003  16.075   1.903   5.399  0.1572 -0.1975  0.1624
22157W        W37004   1.241   9.317  13.070 -0.0670 -0.0495  0.0874
22158W        W37005   6.482   8.267  16.036  0.1594 -0.0159 -0.1629
22159W        W37006   4.923  13.491  16.780  0.1107  0.4641  0.1129
22160W        W37007   0.306   3.887   3.947 -0.2541  0.0813 -0.2174
22161W        W37008   3.340   9.323  13.596 -0.2070  0.1521 -0.0869
22162W        W37009  11.704   6.456  14.516  0.4273 -0.1227  0.1397
22163W        W37010  13.635  11.256   7.213  0.0852  0.1369  0.0212
22164W        W37011   8.727  11.079  11.855  0.0172 -0.0918  0.0068
22165W        W37012   0.888  12.704  12.260  0.2135  0.1741 -0.0221
22166W        W37013   8.659  10.740  13.765 -0.1249 -0.0375 -0.0726
22167W        W37014   4.747  11.664   0.131 -0.3312  0.0851  0.0419
22168W        W37015  15.794   3.063  13.284  0.1042 -0.0957  0.0166
22169W        W37016  10.495   3.223  15.281 -0.0997  0.1181 -0.4796
22170W        W37017   4.936   0.840  15.543  0.0670 -0.0299 -0.1373
22171W        W37018  10.854   0.635   4.389 -0.0334 -0.1370 -0.1498
22172W        W37019  11.029  16.065   3.929  0.2460  0.2822 -0.1849
22173W        W37020   1.261   2.231  16.380  0.1423  0.1217 -0.2141
22174W        W37021   4.315   0.703   6.266  0.4843 -0.0522 -0.2150
22175W        W37022  14.130  10.927   4.011 -0.1782 -0.1402  0.0073
22176W        W37023  12.967   7.823  17.167 -0.1226 -0.0242  0.2401
22177W        W37024   2.208   4.088   0.158  0.0410  0.1699 -0.1329
22178W        W37025   8.396   9.859   0.871  0.3713  0.2248  0.0417
22179W        W37026   6.309  10.273   2.620  0.3033 -0.1056 -0.2517
22180W        W37027   9.956  11.789  17.331 -0.1929 -0.0262 -0.0098
22181W        W37028  15.414   1.858  13.295  0.0382  0.1566  0.1088
22182W        W37029   7.631   8.021  16.539 -0.1866 -0.1068  0.2422
22183W        W37030  13.061   7.789  16.126 -0.1142 -0.0175  0.1996
22184W        W37031  13.188   6.916   5.157 -0.2742  0.0156 -0.0554
22185W        W37032   8.715  15.954  16.971  0.1389  0.0362 -0.0145
22186W        W37033   5.711  14.053  11.307  0.1403  0.2549 -0.1069
22187W        W37034   9.040   5.143  15.977 -0.0909  0.1136  0.0488
22188W        W37035   2.250   6.296   5.538 -0.1321  0.1333 -0.0315
22189W        W37036   5.942  15.933   1.212  0.0578  0.0477 -0.1840
22190W        W37037  12.700   3.956   3.129 -0.0718 -0.1053  0.1639
22191W        W37038   7.160  11.675  17.623  0.1027  0.2564 -0.3765
22192W        W37039  17.114   6.568   1.637 -0.0261  0.1202  0.2783
22193W        W37040  14.944   6.711   0.507  0.0039  0.0166  0.1819
22194W        W37041  16.508  16.429  12.547  0.3279 -0.0017  0.2856
22195W        W37042   0.662  14.156  16.886  0.0817  0.1671 -0.1023
22196W        W37043   0.158  14.246   1.055  0.0979 -0.1827  0.1628
22197W        W37044   6.515   4.591   2.725  0.0501  0.1478  0.0698
22198W        W37045  12.564  10.025   4.684 -0.1081  0.2720  0.4912
22199W        W37046   8.562  11.792  15.339  0.1960  0.1022  0.0700
22200W        W37047   7.090  16.877  13.517 -0.0988  0.1811 -0.2290
22201W        W37048   2.624  14.376  12.701 -0.1841 -0.2732 -0.1040
22202W        W37049  14.161  12.462   3.795 -0.2876  0.0250 -0.4831
22203W        W37050  12.279   6.196   1.747  0.1567 -0.0918  0.2227
22204W        W37051  14.612   8.640  14.039 -0.0477 -0.1391  0.0247
22205W        W37052   5.555   3.927   6.268 -0.0815  0.0247 -0.1455
22206W        W37053  16.069   4.714   1.694 -0.1507 -0.0308  0.0032
22207W        W37054  15.256  11.675  12.645 -0.2484  0.2517 -0.2259
22208W        W37055   1.837   4.297  11.923 -0.0291 -0.4015 -0.0168
22209W        W37056  14.297   0.911   3.591 -0.2866  0.1738 -0.1314
22210W        W37057   5.914  16.098   6.783  0.3021 -0.0793 -0.3348
22211W        W37058  14.644   4.457   3.513  0.1922  0.1314 -0.1628
22212W        W37059   0.937   9.193   1.096  0.2505 -0.0989 -0.3810
22213W        W37060   3.249  10.417   0.713  0.1797  0.2341  0.2613
22214W        W37061  11.015  10.370  15.538  0.1526  0.0692 -0.2772
22215W        W37062   4.298  13.761  13.394 -0.1496  0.2240  0.3273
22216W        W37063  14.076  10.570  12.283  0.2795 -0.0829 -0.2260
22217W        W37064  12.265   9.546   5.243  0.0725 -0.0297  0.0772
22218W        W37065   5.473   9.426   1.192 -0.1968 -0.0588  0.1809
22219W        W37066  13.750   0.118   5.796  0.2372 -0.1802  0.1424
22220W        W37067  17.638   8.553  16.219  0.0252 -0.3308  0.0378
22221W        W37068  10.965  13.375   1.233 -0.0358 -0.1221  0.4480
22222W        W37069  15.768   3.403   0.468 -0.1682 -0.1140 -0.1869
22223W        W37070   9.138   4.030  11.835  0.0724 -0.0057  0.0160
22224W        W37071   5.532   2.034  12.888 -0.0312  0.0055  0.0074
22225W        W37072   7.504  16.802   0.371 -0.1405 -0.1094 -0.1016
22226W        W37073  15.139   2.652   3.419  0.0541  0.1361 -0.3082
22227W        W37074   2.851   7.555  12.283 -0.0898 -0.1002 -0.2638
22228W        W37075   8.840   1.200  13.248  0.3156  0.2212  0.1799
22229W        W37076   9.601   2.502  11.685 -0.1351 -0.0137  0.1267
22230W        W37077   0.836   3.772   4.157 -0.0796  0.3510  0.0672
22231W        W37078  10.131   7.469   0.375 -0.0949 -0.0134  0.2286
22232W        W37079  11.735   9.466   1.254  0.2283 -0.0981  0.0201
22233W        W37080   1.512   8.252  11.582 -0.0556 -0.0348 -0.1121
22234W        W37081   8.603  11.640   7.428  0.0037  0.1725 -0.2232
22235W        W37082   7.075   4.229  15.057  0.3203 -0.1281  0.1214
22236W        W37083  10.380  12.715   5.805 -0.0807 -0.0146 -0.0276
22237W        W37084  10.428  15.533   6.300  0.0913  0.0449 -0.0282
22238W        W37085  12.909  11.172   3.381  0.0981  0.0968 -0.0329
22239W        W37086   7.225   2.587  13.956 -0.1584  0.2466  0.1457
22240W        W37087  17.417  13.794   2.881 -0.1678  0.1869  0.2987
22241W        W37088  12.320   9.053   3.058 -0.1122  0.0895  0.0219
22242W        W37089  15.179   8.125   2.331 -0.0945 -0.0210  0.0125
22243W        W37090  11.947   3.930   3.604 -0.1798 -0.1276 -0.1971
22244W        W37091  13.901  16.908   3.364  0.1287  0.0038 -0.0554
22245W        W37092   4.600   6.072   4.809 -0.0398 -0.2098  0.0109
22246W        W37093  14.092  12.681   5.343 -0.0971  0.1725 -0.2584
22247W        W37094  12.440   8.451   1.162 -0.3754  0.0928  0.0142
22248W        W37095  10.454   2.893  12.176 -0.1483  0.1177 -0.0947
22249W        W37096   3.295   5.885   2.937  0.1061 -0.1431  0.2069
22250W        W37097   9.193   5.641   1.229 -0.3433 -0.2070  0.0825
22251W        W37098  15.665   4.617  15.141  0.5970  0.1260  0.1547
22252W        W37099   0.556  10.356   2.667  0.3035 -0.1424  0.0068
22253W        W37100   2.012   9.449   5.176 -0.0321  0.0383  0.2965
22254W        W37101  13.422   9.468  12.401 -0.1246  0.0205 -0.0265
22255W        W37102   5.255  11.104   4.161 -0.1455  0.2289  0.0442
22256W        W37103  10.129   7.099   1.881 -0.2863 -0.1890 -0.1026
22257W        W37104  11.950   1.701  12.029 -0.0979 -0.0325 -0.1506
22258W        W37105   3.116  11.604   4.514 -0.1706  0.0138  0.1498
22259W        W37106  15.525   4.694   3.841 -0.0764  0.0896 -0.2695
22260W        W37107  11.295   2.795  12.304  0.1015 -0.2025  0.0426
22261W        W37108  11.894   2.650   1.171 -0.0737  0.0451  0.1080
22262W        W37109  16.434   7.725   0.185  0.0386  0.1374  0.0029
22263W        W37110   7.481   0.223   4.957  0.1069 -0.1216 -0.0761
22264W        W37111   0.236  14.820   3.844 -0.0666  0.2577 -0.0876
22265W        W37112  10.759   0.373  13.344  0.3036 -0.0794 -0.0942
22266W        W37113  17.656   2.400  14.921  0.1344  0.1774  0.0437
22267W        W37114   1.835   6.181  11.731  0.1142 -0.0696 -0.0525
22268W        W37115  11.434   7.334  14.975 -0.3257  0.1377 -0.1063
22269W        W37116  11.060  15.971  16.338  0.1476  0.0137  0.0620
22270W        W37117   8.042   1.918   0.834  0.3128 -0.0138 -0.0804
22271W        W37118   4.882   1.790  11.003 -0.0374 -0.1643 -0.2256
22272W        W37119   3.694   9.212   4.231 -0.0511 -0.1215 -0.0454
22273W        W37120   8.085  11.581  12.979 -0.1100  0.3141  0.0266
22274W        W37121   2.728   3.725   5.176 -0.0506  0.1740 -0.3346
22275W        W37122   2.636   5.070  15.027 -0.0514  0.1591  0.1830
22276W        W37123  16.870  15.157   6.237  0.1994 -0.3135 -0.0819
22277W        W37124   6.950   9.571  16.668 -0.4764  0.2207 -0.2260
22278W        W37125  12.866  14.080   4.799 -0.1068  0.2005  0.1566
22279W        W37126   8.001   5.590   4.183  0.3939  0.3368  0.1051
22280W        W37127  14.747   5.361   3.583 -0.2041 -0.2556 -0.2930
22281W        W37128   2.718  16.378  17.076 -0.0557  0.0194  0.0792
22282W        W37129  11.124  11.424  14.112  0.0244  0.2157 -0.2107
22283W        W37130   5.050  15.993   4.578 -0.0133  0.1192  0.0116
22284W        W37131  12.105  10.244   0.710 -0.2050 -0.3636  0.1702
22285W        W37132  15.102  17.526   4.811  0.2671 -0.1797  0.0071
22286W        W37133  15.914  12.069   6.202  0.4897 -0.0440  0.3350
22287W        W37134   7.274   5.850  12.896  0.3348 -0.3011  0.1627
22288W        W37135  12.327  11.351   4.712 -0.1822 -0.1807  0.1484
22289W        W37136   1.664   1.098   2.813  0.0283  0.0042  0.2597
22290W        W37137   0.363  13.713   1.063  0.0815 -0.3627  0.1700
22291W        W37138  14.211   9.273   0.718 -0.1423  0.0501 -0.5512
22292W        W37139  17.150  12.494  16.104 -0.1931 -0.1970 -0.3422
22293W        W37140  15.000   3.082   6.211 -0.0732 -0.1783 -0.2671
22294W        W37141  11.100  11.861   0.885  0.0262  0.0958 -0.2069
22295W        W37142   3.617   6.052  16.969 -0.1179 -0.0973 -0.0778
22296W        W37143   4.761  16.205   1.040 -0.0453 -0.0072  0.0401
22297W        W37144  15.573   6.016   5.209 -0.2276  0.0682 -0.2833
22298W        W37145   5.114   4.432  14.737 -0.2037 -0.2676  0.0594
22299W        W37146  11.442   1.329   2.125 -0.3415  0.0941 -0.1079
22300W        W37147   8.037   2.366   0.509 -0.2521 -0.0820 -0.4411
22301W        W37148   3.521  15.402   0.427 -0.1015  0.0647  0.1771
22302W        W37149  14.842  16.761   0.203  0.1982  0.0598 -0.2195
22303W        W37150   7.471   4.779   4.504 -0.5098 -0.0138  0.0400
22304W        W37151  15.409  16.666   5.255 -0.0161 -0.1159 -0.1147
22305W        W37152   7.206   6.627   2.667  0.2030 -0.2080 -0.1435
22306W        W37153  11.440   0.982   3.996 -0.1147  0.0445  0.4433
22307W        W37154  10.699  15.407   1.396  0.3714  0.2671 -0.2378
22308W        W37155   4.973   1.877  16.471  0.1647  0.0879  0.3882
22309W        W37156  16.270  10.651  16.791 -0.0557  0.0442  0.2186
22310W        W37157   2.208   9.396  17.393  0.0636 -0.1882 -0.2282
22311W        W37158   6.570   0.677   7.068  0.2924 -0.0340 -0.2524
22312W        W37159   3.286  16.987  15.428 -0.1711 -0.2307  0.2046
22313W        W37160  16.077  14.416   0.414  0.0915 -0.0270 -0.1502
22314W        W37161  16.183   5.321   1.742 -0.0168 -0.2604 -0.1699
22315W        W37162  10.936  10.968   1.309  0.2336 -0.2415 -0.1126
22316W        W37163   0.211   7.710   2.783  0.0201 -0.4551  0.3592
22317W        W37164   3.435  11.322   1.187 -0.1896  0.1366  0.0864
22318W        W37165  10.850   8.002   3.710  0.2219  0.4215  0.1823
22319W        W37166  15.554   8.603  17.440  0.1174 -0.1488  0.1357
22320W        W37167  12.562   2.317  11.711  0.2166 -0.1012  0.1340
22321W        W37168   8.695   3.449   3.472 -0.0810  0.0851  0.1209
22322W        W37169  14.671   0.108  16.284  0.1727  0.0389 -0.0457
22323W        W37170  13.476  13.036  14.237 -0.3201 -0.2840  0.1052
22324W        W37171   1.498   8.545  12.159 -0.0750  0.1359 -0.2534
22325W        W37172  16.169   3.426   0.775 -0.1410 -0.2158 -0.2200
22326W        W37173  15.627  12.649  16.380 -0.2315  0.0229  0.2027
22327W        W37174   9.684   2.282   4.673 -0.1483  0.0540  0.1650
22328W        W37175   1.152   1.865   4.481  0.1161  0.2783 -0.0093
22329W        W37176   4.234   8.403  15.637  0.0306 -0.3788 -0.2981
22330W        W37177  13.750   0.979   0.112  0.3063 -0.1829  0.1528
22331W        W37178  12.625   2.857   5.005 -0.2736  0.0913 -0.1839
22332W        W37179  16.277  16.780   1.651  0.2761  0.2486  0.1096
22333W        W37180   0.021   4.730  12.373  0.0790 -0.0618  0.3655
22334W        W37181   2.990  16.628  16.636 -0.0344 -0.2836 -0.0480
22335W        W37182  13.995   9.502  12.340 -0.0845  0.0613  0.1053
22336W        W37183   9.712  17.658   2.233 -0.1212 -0.1721 -0.2129
22337W        W37184  14.291  15.397   5.131 -0.0381  0.0545  0.0644
22338W        W37185  14.489  13.333  15.733  0.5778  0.2552 -0.0846
22339W        W37186  17.429  15.979   4.903 -0.0390 -0.1096  0.1510
22340W        W37187  16.974   3.619   3.514  0.2331 -0.3650  0.1119
22341W        W37188   3.968   7.617  17.392  0.1650 -0.1381  0.0653
22342W        W37189   5.738   7.032   4.792  0.1395 -0.0072 -0.0007
22343W        W37190   2.993   7.642   1.945  0.1322 -0.3321  0.1590
22344W        W37191   0.600  12.154  14.314  0.0288 -0.3217 -0.3238
22345W        W37192  10.466   7.683  13.732  0.1008 -0.1293 -0.1424
22346W        W37193  17.270  13.523  13.286 -0.0895  0.0565  0.0209
22347W        W37194  11.166  14.554   1.367 -0.0575 -0.0192 -0.3108
22348W        W37195   7.976  13.784  12.426  0.0850 -0.0409  0.2378
22349W        W37196   2.791  10.148   1.520  0.0540 -0.1250 -0.0052
22350W        W37197  13.840   3.067   0.308  0.1474  0.2667  0.1416
22351W        W37198   1.688  13.229   5.850  0.2794 -0.0709  0.0842
22352W        W37199   1.810   5.943   4.743 -0.3758  0.1618 -0.2982
22353W        W37200  13.022  16.736  14.985 -0.4733  0.0335 -0.1250
22354W        W37201   0.334  13.322  17.475 -0.2285  0.0022 -0.1395
22355W        W37202   0.295  10.194  13.248  0.2382 -0.1355 -0.0647
22356W        W37203   4.554  13.319  16.465  0.0018  0.2182  0.0012
22357W        W37204   2.472  10.876   3.115  0.3057 -0.2860  0.1619
22358W        W37205   5.758   7.115  16.501 -0.0100  0.1882 -0.1027
22359W        W37206  11.464  13.557   2.460  0.0431  0.1418 -0.2539
22360W        W37207  11.184   7.723   5.227 -0.0195  0.0908  0.0682
22361W        W37208   3.343   1.015   5.456 -0.2748  0.1160 -0.1697
22362W        W37209   9.062  16.487  16.644  0.0001 -0.2460 -0.1690
22363W        W37210   2.886  11.367   2.397  0.0061 -0.1987  0.2535
22364W        W37211   6.219  12.329  13.056 -0.1472 -0.1025 -0.0370
22365W        W37212  14.827  14.144   5.839 -0.1952  0.4024 -0.1421
22366W        W37213   6.290   7.444   2.914 -0.3413  0.0669  0.1069
22367W        W37214   0.300  12.053   6.373  0.2821 -0.0765  0.0478
22368W        W37215   8.448   5.232   0.889 -0.1176  0.1155 -0.2339
22369W        W37216   6.581  10.920   1.283  0.1111  0.0696  0.0260
22370W        W37217   2.061  11.451   0.793 -0.3280  0.1362  0.0895
22371W        W37218   7.793  11.821  15.604  0.2911 -0.1975 -0.1351
22372W        W37219   8.478  12.652   6.638 -0.1843  0.0520 -0.1770
22373W        W37220  15.341   2.765   5.761 -0.0962  0.0493  0.0807
22374W        W37221   6.441   5.876   3.299  0.1035  0.0865 -0.2727
22375W        W37222   9.394  16.199  15.443  0.1474  0.1395 -0.0291
22376W        W37223   8.721   6.778   5.300  0.0999  0.0045 -0.0882
22377W        W37224  11.498   6.624  17.088 -0.3863 -0.1095 -0.1898
22378W        W37225   1.250  14.816  12.286 -0.0460  0.0795 -0.2948
22379W        W37226   0.700   3.044   1.125 -0.3485 -0.1699 -0.1811
22380W        W37227  15.628  13.354  12.887 -0.0690  0.0573 -0.2426
22381W        W37228   3.485   1.198  16.459  0.1694 -0.2111 -0.1132
22382W        W37229  15.352   5.692   3.073 -0.0098 -0.0944  0.3784
22383W        W37230   4.827  12.331  11.737 -0.0218 -0.2412  0.3887
22384W        W37231   1.606  16.663   4.910 -0.0485  0.0783 -0.2033
22385W        W37232  13.061   5.495   5.650  0.2551  0.1086  0.1807
22386W        W37233   3.790   3.816  11.199 -0.1508 -0.1550  0.2456
22387W        W37234  10.741  12.790   0.740 -0.0434 -0.3361 -0.3503
22388W        W37235   2.163   8.637  13.557  0.0275 -0.0978 -0.0049
22389W        W37236  15.540   0.482  12.749  0.1328  0.0914 -0.1756
22390W        W37237  13.976   8.663  13.382  0.1894 -0.0539  0.0191
22391W        W37238   0.634   9.363   3.976 -0.3126  0.0942 -0.0423
22392W        W37239  12.421  13.530   6.021  0.3280  0.1500 -0.0320
22393W        W37240   9.544  14.450  14.837  0.3461  0.1067  0.2956
22394W        W37241   4.665  12.325   3.884 -0.0763  0.1066  0.0057
22395W        W37242   2.976   3.540  14.264  0.0447 -0.0129 -0.0554
22396W        W37243   2.364   3.787  14.040  0.4306 -0.0302 -0.1697
22397W        W37244   7.210   8.705   1.719 -0.1071 -0.0112  0.1732
22398W        W37245   8.527  11.722  14.784  0.0029 -0.2863 -0.1040
22399W        W37246   2.715  16.925  16.287 -0.3291 -0.0562 -0.2804
22400W        W37247   5.799   2.551   4.094  0.0308  0.1983  0.1226
22401W        W37248   4.175   2.373  14.473 -0.2562  0.0274 -0.0920
22402W        W37249   6.359  10.942  16.151  0.0454  0.1205  0.2002
22403W        W37250   7.461   2.757  15.147  0.1634 -0.1139  0.0909
22404W        W37251   4.302  13.978  14.218  0.1849  0.0195  0.3141
22405W        W37252  15.291  12.994  16.178 -0.0657 -0.3076  0.0193
22406W        W37253   5.115   7.987  14.485 -0.2288 -0.2986 -0.0550
22407W        W37254  16.946   7.119   1.610 -0.0551 -0.0081 -0.1461
22408W        W37255  11.803   9.783  15.296  0.1076 -0.1301 -0.0176
22409W        W37256   1.314  11.276  16.359 -0.2538 -0.1163  0.3620
22410W        W37257   2.764  16.828  13.060 -0.0747 -0.3257  0.0445
22411W        W37258   4.552   0.388   3.458 -0.0989 -0.0387 -0.2888
22412W        W37259   0.457   6.169   1.135  0.0372 -0.0350  0.3752
22413W        W37260  10.774   8.729  15.198  0.1386  0.0044  0.6003
22414W        W37261  16.476   3.743  16.553 -0.0043 -0.0375 -0.2174
22415W        W37262   2.688   0.903  13.436  0.0550 -0.0597  0.0198
22416W        W37263   0.258   4.198  13.972  0.2921  0.1947  0.3037
22417W        W37264   5.794   1.140   1.322  0.0720  0.0821 -0.1173
22418W        W37265  14.810  14.868  12.341  0.1489  0.1930 -0.1342
22419W        W37266   8.841  16.596   1.875 -0.0785  0.2714  0.3129
22420W        W37267  13.126   4.315  16.515 -0.1243 -0.0545 -0.0649
22421W        W37268  16.990  11.025   3.260 -0.0274 -0.2629  0.0315
22422W        W37269  13.753   9.647   4.687  0.0627  0.0039  0.2020
22423W        W37270   4.135   2.232  16.565 -0.0877 -0.0580  0.1997
22424W        W37271   5.776  15.344   4.336 -0.2602 -0.0964 -0.2037
22425W        W37272   0.990  15.978  13.948 -0.1733  0.0442 -0.1957
22426W        W37273   9.082  14.436   1.637 -0.1848  0.2958  0.1425
22427W        W37274   1.181   3.142   5.701  0.1764  0.1857  0.2574
22428W        W37275   8.656   5.967  16.602 -0.1096 -0.2607 -0.3731
22429W        W37276   2.786  10.376   4.548 -0.0190 -0.0868 -0.2873
22430W        W37277   5.965  13.629   3.501  0.2548  0.1809  0.0589
22431W        W37278   6.464  14.736   0.918  0.0249 -0.0489  0.0613
22432W        W37279  15.814  12.445   4.830  0.1964  0.2425 -0.2200
22433W        W37280   9.352   0.948   0.041 -0.1796 -0.0924 -0.0535
22434W        W37281  14.668   6.198   4.603  0.0363 -0.2104  0.1377
22435W        W37282  15.388  10.552   3.556 -0.0161 -0.0505 -0.2943
22436W        W37283   3.723   1.721  10.972  0.1975 -0.1405 -0.1622
22437W        W37284   4.407   2.558  12.256  0.0763  0.1266  0.2437
22438W        W37285  15.993  16.680  11.408 -0.2546 -0.0400  0.3978
22439W        W37286   0.926  11.834  13.116  0.1681  0.1823  0.2062
22440W        W37287  16.368  17.629   2.174 -0.0234  0.0303  0.1177
22441W        W37288   8.325  10.808   6.026  0.1614  0.0820  0.1151
22442W        W37289  15.375  17.123  13.789  0.0838  0.1432  0.1686
22443W        W37290  12.007   4.648   6.043  0.0911  0.2984 -0.0945
22444W        W37291   8.879   5.579   5.606  0.0423  0.0824 -0.0359
22445W        W37292  11.682   4.522   5.685 -0.0194 -0.0358 -0.1672
22446W        W37293  16.815   0.058   1.211 -0.1742 -0.0600 -0.0709
22447W        W37294  17.635  12.341  15.888 -0.0490  0.1711  0.1400
22448W        W37295   8.415  13.740   0.549  0.3121 -0.2645  0.0334
22449W        W37296   7.723   1.940   2.128  0.2472  0.2174  0.1204
22450W        W37297   1.904   4.888  15.773 -0.1226  0.1890 -0.1259
22451W        W37298  14.543   6.610   5.507 -0.1263 -0.0256  0.1428
22452W        W37299   3.725   9.002   1.438 -0.2193  0.0027  0.0287
22453W        W37300   8.646  10.140   4.284 -0.0100  0.0706  0.2198
22454W        W37301   3.592  11.111  12.284  0.1647  0.1205 -0.3641
22455W        W37302   3.987  12.401   6.167 -0.0926 -0.2499  0.1058
22456W        W37303  11.638   0.466   3.985 -0.0947  0.1100  0.2947
22457W        W37304  12.375  15.942  17.503  0.3558  0.1658 -0.1704
22458W        W37305   0.265   2.414   3.632 -0.0066 -0.0592  0.0654
22459W        W37306   6.291  14.750   2.057 -0.1239  0.1543  0.0709
22460W        W37307   9.737   8.589   0.190 -0.2988  0.2761 -0.2063
22461W        W37308   7.486   3.201  17.645 -0.1225 -0.1461 -0.2136
22462W        W37309  17.452  12.770  15.687  0.2082  0.0734  0.1237
22463W        W37310  12.516   4.589   0.829  0.1021  0.0174 -0.0482
22464W        W37311  14.509   3.508  13.464  0.3969 -0.1413 -0.1830
22465W        W37312   3.978  11.136   2.915 -0.2651  0.1479 -0.0667
22466W        W37313   0.372  11.669   3.680  0.0946 -0.0553 -0.0850
22467W        W37314   5.755   4.234   5.827  0.3002 -0.2158  0.0983
22468W        W37315  13.976   5.528   2.862  0.1241  0.1064 -0.0383
22469W        W37316  12.709  10.872   0.758 -0.1106  0.1487 -0.1998
22470W        W37317  13.643   6.443  14.651  0.0594 -0.0794  0.1310
22471W        W37318  10.155   1.408   4.164  0.1917 -0.0376 -0.1836
22472W        W37319  11.770   0.772  14.825  0.3042  0.0136  0.4737
22473W        W37320   9.152  12.975   1.735 -0.1530  0.3085  0.1217
22474W        W37321   0.530  12.758  14.250 -0.3315 -0.3104 -0.0984
22475W        W37322   6.039   6.033  14.359  0.1286 -0.5576 -0.2189
22476W        W37323   9.151   6.503  15.946  0.2479  0.0571  0.3212
22477W        W37324   8.386   3.955   6.592 -0.0840 -0.0795 -0.0175
22478W        W37325  14.162  13.859   2.682  0.0130  0.0157 -0.1279
22479W        W37326   9.523   1.562   2.116  0.1557 -0.1450 -0.1530
22480W        W37327   9.476   2.127  15.054  0.2521 -0.0637 -0.0122
22481W        W37328   1.122   4.564  16.342  0.0823 -0.2959 -0.1625
22482W        W37329  15.347  14.207  12.540  0.1207  0.1003 -0.0715
22483W        W37330   6.685  15.951   2.204  0.2794 -0.0206 -0.0658
22484W        W37331   3.827   0.463  12.615  0.1272  0.0124  0.0264
22485W        W37332  11.260   6.701  14.368 -0.1736  0.0621  0.2807
22486W        W37333   3.524  11.580   4.104 -0.0859  0.2270  0.5046
22487W        W37334   7.523   1.565   0.945 -0.0792 -0.1347  0.0221
22488W        W37335  15.302   2.712   4.578  0.1237 -0.2859 -0.0620
22489W        W37336   9.817  17.657   2.766  0.0579 -0.0257  0.1276
22490W        W37337   7.925   9.370   6.221 -0.1383  0.3128  0.0271
22491W        W37338   5.595   2.768  14.283 -0.1540 -0.0581 -0.0308
22492W        W37339   3.550   0.102  13.943 -0.3155 -0.0013  0.0229
22493W        W37340   6.822  11.615   4.179 -0.3270  0.0231  0.1675
22494W        W37341   8.218   9.782   5.049 -0.3393 -0.1727 -0.2229
22495W        W37342   7.752   1.910  14.144  0.0836 -0.0831  0.1515
22496W        W37343   2.304   6.508   2.320 -0.1190 -0.0075 -0.0802
22497W        W37344  13.258  11.415  16.356 -0.2754  0.0778  0.1476
22498W        W37345  17.274   0.614  15.551 -0.0934  0.2251  0.2103
22499W        W37346   5.903  11.484   2.930  0.1507 -0.3808 -0.0782
22500W        W37347  12.806   8.723   2.754  0.0796  0.1842 -0.0871
22501W        W37348  11.120  11.856   4.984  0.1613  0.1241 -0.0852
22502W        W37349   2.923   9.523   6.271  0.0789 -0.4069 -0.0963
22503W        W37350   2.118  14.994   5.527 -0.0336 -0.1258  0.1675
22504W        W37351   5.472   8.808  16.416  0.3063  0.2644  0.0461
22505W        W37352   7.488   6.820   3.697  0.0293 -0.0808 -0.2413
22506W        W37353   1.117  13.331  13.825 -0.0851 -0.3250  0.0681
22507W        W37354  11.307  12.306   3.104 -0.0525 -0.0950 -0.0413
22508W        W37355   1.131  16.128  12.900  0.0321  0.0028  0.1942
22509W        W37356  14.952   0.785  15.511  0.2293  0.0746  0.0891
22510W        W37357  16.031  17.401  13.343 -0.2361  0.1573  0.1967
22511W        W37358  13.889  13.353  17.170 -0.0784  0.1287  0.0521
22512W        W37359   4.725   0.163  16.785  0.0188  0.2494 -0.0609
22513W        W37360  12.616  12.726   2.354  0.4160 -0.0130 -0.3068
22514W        W37361   9.539  14.976   6.285 -0.0982  0.0090  0.0262
22515W        W37362   1.986   0.391  11.996 -0.2251  0.0268 -0.0243
22516W        W37363   5.804  10.221   2.877 -0.0097 -0.3937  0.0457
22517W        W37364  16.241   6.958  14.989  0.3048 -0.1189 -0.2070
22518W        W37365  13.111   6.190   1.081 -0.1793  0.0457  0.1332
22519W        W37366  12.123   8.258   2.873 -0.0408  0.1075  0.1470
22520W        W37367   5.465  11.399   4.575  0.0886 -0.0216  0.0328
22521W        W37368   4.093  16.193   6.149  0.2859  0.0721  0.0791
22522W        W37369  10.516  14.134   2.278 -0.1131  0.2844 -0.1371
22523W        W37370  17.668   7.239   6.021  0.1463  0.0807  0.1968
22524W        W37371  17.183  11.126  15.745  0.3948 -0.1509 -0.1629
22525W        W37372   3.311  14.731   0.129  0.0748 -0.0480  0.1331
22526W        W37373   0.288  16.957   3.806 -0.1449  0.0621 -0.1506
22527W        W37374  11.002   8.323   0.071 -0.0701 -0.0409  0.1558
22528W        W37375  15.527   9.555  14.096 -0.2603  0.2038  0.3739
22529W        W37376  13.126   6.384  16.068  0.0889  0.1340 -0.0356
22530W        W37377  15.460   9.369   5.006 -0.3740  0.3192  0.1527
22531W        W37378  17.336  17.257  11.634 -0.1135 -0.4096 -0.0865
22532W        W37379  15.977   7.867   5.061 -0.0666 -0.4504 -0.0196
22533W        W37380   5.771  11.071   6.307  0.0010  0.0630 -0.1181
22534W        W37381   6.074   5.004  15.157 -0.2487  0.3098  0.2855
22535W        W37382   7.551  11.560   6.014  0.3299  0.0453  0.1026
22536W        W37383  12.093  14.960  12.536  0.0200  0.1129  0.0652
22537W        W37384   9.783   3.170   3.271  0.0977 -0.0100 -0.3118
22538W        W37385   0.747  14.832   6.040  0.1952 -0.1200  0.0987
22539W        W37386  12.205   6.896  12.113 -0.0075 -0.0671  0.0924
22540W        W37387  13.083   1.832   6.321 -0.0921  0.1192  0.1137
22541W        W37388  13.531   3.026  12.047 -0.1552 -0.1181  0.1602
22542W        W37389  12.156  11.994  16.645  0.1700  0.0374 -0.3560
22543W        W37390   1.707  15.098   0.365  0.1752 -0.2257  0.1486
22544W        W37391  15.532   6.020   2.085  0.0966 -0.1489  0.0892
22545W        W37392  16.763   9.468   6.297 -0.2055  0.3095 -0.1990
22546W        W37393  13.125  11.707  15.661  0.0713  0.3478  0.2425
22547W        W37394   3.371  10.891  15.168  0.1295 -0.0016 -0.0211
22548W        W37395   2.084  11.058   4.773  0.2444  0.2332 -0.0144
22549W        W37396   9.447   4.870   4.681 -0.0530  0.0865 -0.1785
22550W        W37397  13.529   7.742   2.421  0.0148 -0.4079  0.1260
22551W        W37398   9.824   5.857   3.141 -0.2767  0.0739 -0.1887
22552W        W37399  12.887   8.001  13.344 -0.2941  0.2158 -0.0333
22553W        W37400   6.545  14.659  16.320  0.2643 -0.1536 -0.0222
22554W        W37401  16.142  16.773   2.821  0.2039 -0.1194  0.2062
22555W        W37402  17.420   7.322  17.022  0.2345 -0.1841 -0.0204
22556W        W37403   8.874   8.791   0.014 -0.0574  0.1722 -0.1338
22557W        W37404  12.757  15.345   4.059 -0.1284 -0.1478 -0.3651
22558W        W37405   2.380   4.461  17.543 -0.1026  0.0566  0.1235
22559W        W37406   3.452   6.916  12.337 -0.4484  0.2628  0.1579
22560W        W37407   9.687  16.438  15.032  0.2074  0.2650 -0.1181
22561W        W37408  16.301  10.238  17.673  0.0542  0.1890 -0.1355
22562W        W37409   1.696  13.416  12.424 -0.0921  0.2103  0.0300
22563W        W37410  16.798   0.312  17.075  0.1036  0.2869  0.0243
22564W        W37411   5.833  12.901  14.142  0.3781  0.3901 -0.0422
22565W        W37412  14.087  12.009   3.691 -0.0638 -0.0867 -0.3441
22566W        W37413   8.936   7.404   3.659  0.0123  0.2715  0.0804
22567W        W37414   4.155  13.445   6.811  0.1288 -0.0250  0.1170
22568W        W37415   6.559  10.356   4.389  0.1470 -0.1419 -0.1925
22569W        W37416   6.162   9.734  13.651  0.3171 -0.2689  0.0403
22570W        W37417  13.337  11.505   4.257  0.0632 -0.1526  0.0316
22571W        W37418  11.002  13.116   3.717  0.3638 -0.1107  0.1970
22572W        W37419  16.744  10.544   4.758 -0.0114 -0.0440  0.0507
22573W        W37420   5.468  16.952  17.064  0.0976 -0.2522 -0.1573
22574W        W37421   3.231   4.748  16.802  0.1155 -0.2483  0.0314
22575W        W37422  17.108   0.187  13.198 -0.1225 -0.1290 -0.1511
22576W        W37423   8.716   7.074  13.808  0.1615 -0.2012  0.1624
22577W        W37424  14.552  15.184   2.934  0.2413  0.2269  0.0572
22578W        W37425  12.230   4.594   2.916  0.3580  0.1057 -0.0611
22579W        W37426  15.234  16.651   0.493 -0.0557  0.3733  0.0463
22580W        W37427   7.640  12.696   3.425 -0.4988  0.3783  0.0039
22581W        W37428  12.928  17.546  12.717 -0.2489  0.2251  0.0145
22582W        W37429  13.841   3.567   0.509  0.0347  0.3473  0.2374
22583W        W37430   4.770  12.954   2.995 -0.0837 -0.1738  0.1573
22584W        W37431   9.971   1.721  12.379 -0.0212  0.0043 -0.1311
22585W        W37432  13.536  10.337  17.281  0.1389  0.1175  0.0739
22586W        W37433   5.664  14.080  13.126  0.3451 -0.2573  0.1235
22587W        W37434  16.302   2.639  14.391 -0.0771 -0.0401  0.0651
22588W        W37435   2.740   3.823   2.869  0.1671 -0.3449  0.1526
22589W        W37436   0.742   4.056  16.147 -0.2773 -0.3027 -0.0723
22590W        W37437  15.271   9.328   3.776 -0.2026 -0.0912  0.0180
22591W        W37438   8.945  10.418   5.443 -0.0590  0.3640 -0.1654
22592W        W37439   8.482  11.922   0.254  0.1378 -0.0589 -0.0701
22593W        W37440   7.856   9.414   2.171  0.0806 -0.3416 -0.1371
22594W        W37441  12.690  12.072  13.503  0.0412  0.0970  0.1411
22595W        W37442  14.077   9.720  14.737 -0.2085  0.1756 -0.1729
22596W        W37443   3.190   7.778  16.953 -0.1247  0.1317 -0.3279
22597W        W37444  11.150   2.732   2.529  0.0749  0.3183 -0.0218
22598W        W37445  11.470   7.670  15.870  0.0091  0.1682 -0.1343
22599W        W37446   8.245   8.721   0.361 -0.2234  0.3193  0.1693
22600W        W37447   6.230  14.515  13.969  0.0989 -0.1775  0.2474
22601W        W37448   1.801   4.769  13.568 -0.3079 -0.0458  0.0685
22602W        W37449  10.179   7.160  11.233 -0.0425  0.0701  0.0382
22603W        W37450   6.520  14.226   0.014 -0.2663  0.2620 -0.3909
22604W        W37451  10.754   4.240   3.251 -0.1845 -0.0162 -0.0568
22605W        W37452  16.160   3.699   2.447 -0.1412  0.1687  0.1881
22606W        W37453   3.119   1.739   0.900 -0.0536  0.3734 -0.3633
22607W        W37454   1.762  11.175   5.141  0.1572 -0.2754 -0.0345
22608W        W37455  11.687   7.889   4.459 -0.3103  0.0110 -0.1965
22609W        W37456  17.241   7.030  14.910  0.1646 -0.0192  0.0406
22610W        W37457  12.432   3.252  16.222  0.2689 -0.0946 -0.1184
22611W        W37458   9.820   5.478   5.561 -0.0469 -0.0202  0.0971
22612W        W37459  17.178   1.244   6.391 -0.1139 -0.0567  0.1082
22613W        W37460   6.800  13.637   0.471 -0.2093  0.4718 -0.1955
22614W        W37461   7.166  16.623  16.261  0.0709  0.0615  0.0790
22615W        W37462   9.719   8.573  16.055  0.5745  0.0118  0.0413
22616W        W37463  17.316   1.390  16.107  0.1294 -0.0110 -0.0143
22617W        W37464   3.383   5.758   6.020  0.3410 -0.1202 -0.1476
22618W        W37465   9.998   4.697   2.369  0.2639 -0.0698 -0.1957
22619W        W37466  11.795  11.269  16.193  0.0551 -0.0621 -0.2077
22620W        W37467   9.267   7.039  17.065 -0.0093  0.2708 -0.0298
22621W        W37468  13.063   3.280  12.022 -0.0667  0.0268 -0.0817
22622W        W37469   2.736  14.901  12.732 -0.1711 -0.1756 -0.0206
22623W        W37470   4.486   6.443  13.089  0.0852 -0.0919 -0.1544
22624W        W37471  10.295   5.042  16.255 -0.0142  0.0949 -0.0248
22625W        W37472  16.089  14.122  14.878  0.2029  0.0503 -0.0371
22626W        W37473   8.998   9.132   0.613 -0.0262  0.0827  0.0202
22627W        W37474   4.577  14.102   1.666 -0.3113  0.0912  0.2428
22628W        W37475  14.799  12.132   3.154  0.2586  0.2313  0.1306
22629W        W37476  10.848   0.133  12.584  0.0610  0.0363 -0.2794
22630W        W37477   1.830  16.695   2.844 -0.2076  0.1577  0.1021
22631W        W37478  17.469   5.536   4.399 -0.2807 -0.1848 -0.1358
22632W        W37479   4.173   4.380  13.735 -0.2395  0.0650  0.1952
22633W        W37480   8.129   1.399   4.899 -0.1294  0.1409 -0.1840
22634W        W37481  14.007   9.425  16.973  0.0422  0.2621  0.0539
22635W        W37482   9.363  12.993  13.638 -0.2264  0.2262 -0.2210
22636W        W37483   3.163   1.624  15.426 -0.1637 -0.1128  0.1643
22637W        W37484  14.307  14.914  14.480 -0.0535  0.1287  0.0908
22638W        W37485   7.400   9.944   4.631 -0.2910  0.1585  0.1447
22639W        W37486   2.995   6.050   5.885 -0.4077  0.0143  0.0172
22640W        W37487  15.582  17.309  17.548 -0.0092 -0.1843  0.0350
22641W        W37488   6.462   7.332  13.032 -0.0271  0.2299  0.1593
22642W        W37489  15.880  13.717  17.353  0.3154 -0.3934 -0.1439
22643W        W37490  15.576  13.048   0.444 -0.1165  0.0156 -0.1520
22644W        W37491   3.054   7.077  10.996 -0.2688 -0.1594 -0.0607
22645W        W37492  13.018   8.278   5.773 -0.0542 -0.0808 -0.0673
22646W        W37493  10.480  16.271   0.450  0.3930 -0.3678  0.1826
22647W        W37494   3.898  10.344  11.022  0.0255 -0.2202 -0.0932
22648W        W37495   8.584   2.236   4.626 -0.0598 -0.0291  0.2467
22649W        W37496   5.369  11.958  17.296  0.1846  0.2503 -0.1145
22650W        W37497  10.714   3.930  12.184 -0.0616 -0.0366 -0.0243
22651W        W37498  13.553  10.804   5.095 -0.0156 -0.0072  0.0183
22652W        W37499   9.349   4.404   0.886 -0.1381  0.1191 -0.0503
22653W        W37500   5.320  11.598  16.916  0.0946 -0.0334  0.1401
22654W        W37501   8.101  15.222  12.332  0.1724  0.3580 -0.0804
22655W        W37502  14.480   6.785  14.681  0.0171 -0.1701  0.0935
22656W        W37503  11.300   5.136  12.549  0.0033  0.0719 -0.1103
22657W        W37504  13.289   0.200   6.078  0.0166  0.3277  0.1483
22658W        W37505  14.198  15.643  12.567  0.1779 -0.0274  0.2070
22659W        W37506   2.546  11.230   2.059  0.0273  0.0073 -0.0544
22660W        W37507  15.678   5.931  16.950 -0.1487  0.2071  0.0432
22661W        W37508  10.977  16.547  17.040  0.0001  0.3235  0.0915
22662W        W37509   7.384   9.293  14.719  0.0894 -0.3987 -0.3739
22663W        W37510   7.267   9.289  17.503  0.2581 -0.2301  0.2367
22664W        W37511   3.201   1.213   2.647  0.0840 -0.0315  0.0631
22665W        W37512  10.768   1.140   1.324  0.0156  0.2939  0.0147
22666W        W37513   8.910   7.372  14.902 -0.3205  0.2345  0.1291
22667W        W37514  13.729   9.448  16.247 -0.0300  0.3737  0.3706
22668W        W37515  16.709   4.205   6.172  0.3995 -0.0940  0.0507
22669W        W37516  12.330   9.159   4.782 -0.3146  0.1635 -0.2171
22670W        W37517   2.015   3.085  14.304  0.2183  0.2122  0.0811
22671W        W37518  17.216   9.673  12.413  0.1964 -0.1450 -0.2731
22672W        W37519  14.618   2.116  15.015  0.1292 -0.0944 -0.1454
22673W        W37520  16.604  11.340  15.167  0.0409 -0.0592 -0.2103
22674W        W37521   7.482  13.433  16.961  0.2858 -0.1322 -0.0166
22675W        W37522   6.075   5.347   5.896  0.1864 -0.2902 -0.1352
22676W        W37523  14.326  16.701   3.137  0.0045  0.4719  0.0734
22677W        W37524  10.345  10.660  17.591  0.0364  0.0935 -0.2011
22678W        W37525  12.109   3.892  15.138 -0.0104 -0.2102  0.1664
22679W        W37526   6.734  11.631  12.467  0.4098 -0.1178 -0.1438
22680W        W37527  16.604   6.091   2.301  0.1321 -0.5787  0.2511
22681W        W37528   1.714  13.967   0.474 -0.0190 -0.0360  0.3417
22682W        W37529  10.645  11.728  12.110  0.0841  0.2425 -0.0564
22683W        W37530  14.458   5.606   2.645 -0.2593 -0.1542  0.0100
22684W        W37531   1.905  17.006  15.731 -0.1098  0.3425  0.3707
22685W        W37532   0.372  11.833  12.495 -0.1154 -0.0684 -0.0136
22686W        W37533  15.459   4.506   4.326 -0.0389  0.2310  0.2991
22687W        W37534   3.532   0.947   1.413 -0.0582 -0.3652 -0.2181
22688W        W37535  16.584  14.245  15.097 -0.0234  0.1653 -0.1018
22689W        W37536   7.148   3.355  14.613 -0.2959 -0.0256 -0.0755
22690W        W37537   5.072  12.001   5.168  0.0197  0.1069  0.0425
22691W        W37538   7.443   9.069   2.294 -0.2278  0.0719 -0.0579
22692W        W37539   6.102   1.545  15.872 -0.1114  0.3663 -0.0886
22693W        W37540  16.932   9.202   5.919 -0.0580 -0.1761  0.0442
22694W        W37541  11.477   3.177  15.193 -0.1140 -0.0189  0.2955
22695W        W37542   1.372   0.180   5.997 -0.0515 -0.3903  0.1598
22696W        W37543  12.725   7.319   2.392 -0.2540 -0.0125  0.1143
22697W        W37544   3.114   9.441   2.554  0.0378  0.1306  0.0333
22698W        W37545  11.460   6.549  13.122 -0.0818  0.0330 -0.0854
22699W        W37546   9.414  10.823  14.768 -0.1399 -0.1841  0.0593
22700W        W37547  10.702  10.186  14.714 -0.0253  0.0896  0.1599
22701W        W37548  13.461   6.950   2.733 -0.1807  0.1148 -0.3507
22702W        W37549   7.750  11.671   3.339  0.2279 -0.1178 -0.2159
22703W        W37550  16.895   8.852  17.138  0.2186  0.2351  0.1151
22704W        W37551  10.875  12.401  17.075  0.1193 -0.0667 -0.2176
22705W        W37552   3.335   0.837  11.660  0.0560 -0.1929 -0.0190
22706W        W37553  15.138   1.831  14.994 -0.2875  0.1506  0.0963
22707W        W37554   1.394  16.844   6.171 -0.0371 -0.0467  0.1515
22708W        W37555   9.650  13.219  15.529 -0.0094 -0.2726  0.2864
22709W        W37556   7.639   9.224  14.213  0.0023 -0.3479  0.2158
22710W        W37557  12.123   6.556  15.818  0.1854  0.0769  0.1165
22711W        W37558   2.359  14.501  12.203 -0.1556 -0.0452  0.3066
22712W        W37559   9.644   8.030  14.226 -0.0086  0.0503 -0.0106
22713W        W37560  10.605   0.194   4.392  0.1122  0.0873 -0.2949
22714W        W37561   7.490  12.930  14.248 -0.0095 -0.0709 -0.1783
22715W        W37562   8.837  14.130   4.689 -0.2480  0.2316 -0.0691
22716W        W37563  16.063   7.581  12.481 -0.0484 -0.0786  0.2196
22717W        W37564  11.894  12.427  14.646 -0.0206 -0.3586 -0.0696
22718W        W37565  17.007  10.327   6.409 -0.1751  0.0162 -0.0047
22719W        W37566   2.423  17.260   3.982  0.0677 -0.0061 -0.3022
22720W        W37567   2.728  12.210   1.244  0.1302  0.1047 -0.0909
22721W        W37568   0.058  16.019  15.993  0.0097  0.1264 -0.0786
22722W        W37569  13.130   1.676   5.309  0.1836 -0.0676 -0.1121
22723W        W37570  11.801   5.069   2.303 -0.1412 -0.1576  0.1608
22724W        W37571   2.409  14.931  16.840  0.1786 -0.0222 -0.3055
22725W        W37572  15.408  12.452   0.012  0.1758  0.0360  0.1968
22726W        W37573   9.544   6.650  16.200  0.2157  0.0576  0.0810
22727W        W37574   0.804  15.468  16.194 -0.3681 -0.2763 -0.0227
22728W        W37575   9.126   8.948   1.060  0.1620 -0.0761 -0.0723
22729W        W37576  15.015  15.380   5.881  0.0464  0.1396 -0.1043
22730W        W37577  15.744   7.405  15.142  0.7132  0.1843 -0.2904
22731W        W37578  12.823   6.047  14.270  0.0700  0.0364 -0.0291
22732W        W37579   2.827   4.670   0.071 -0.0939  0.0195 -0.0356
22733W        W37580   5.437  12.806  15.951  0.0969 -0.0119  0.2302
22734W        W37581  14.314  11.282   3.590  0.1406 -0.0328 -0.3481
22735W        W37582  16.889   6.268  15.424 -0.0770  0.1983  0.1007
22736W        W37583   5.661  11.232   1.168 -0.1205  0.1139 -0.1504
22737W        W37584  16.912   1.323   1.220  0.4768  0.1516  0.0081
22738W        W37585   4.525  14.541  12.912 -0.1522 -0.1812  0.0907
22739W        W37586   5.129  16.781   4.425 -0.2018 -0.0483  0.2094
22740W        W37587   0.148  14.278  12.637 -0.0551  0.1114  0.0296
22741W        W37588   0.390  14.977  12.512 -0.2506  0.1357  0.1515
22742W        W37589   4.206  12.035   3.656  0.0534 -0.0848  0.2329
22743W        W37590   1.097  17.505  15.738  0.4325  0.0553  0.0250
22744W        W37591   3.450  16.665   1.242 -0.0239  0.0675  0.0180
22745W        W37592  16.671   4.604  14.031 -0.1355 -0.0604 -0.1795
22746W        W37593  17.307   7.438   6.303  0.3269 -0.0853 -0.2686
22747W        W37594   3.740   0.891  16.982 -0.1703  0.3147 -0.0120
22748W        W37595  14.697   2.781  16.591 -0.0115  0.3134 -0.2352
22749W        W37596   6.768  15.669  13.714 -0.2015 -0.1587  0.0816
22750W        W37597  11.943  13.443  15.367  0.2794  0.5103 -0.2946
22751W        W37598   9.408   8.023   5.169 -0.2600  0.3507  0.1119
22752W        W37599  15.174   5.797   0.592  0.0075 -0.1574 -0.0123
22753W        W37600   8.624  13.284  12.536 -0.0954 -0.3213  0.1363
22754W        W37601  13.753   3.019   4.226 -0.3701 -0.3037 -0.2838
22755W        W37602  11.595   3.054   3.259 -0.1541  0.1586  0.1477
22756W        W37603  11.459  15.651  15.956 -0.0848 -0.0369 -0.1436
22757W        W37604  17.108  16.060   0.973  0.0008  0.2541  0.1358
22758W        W37605   2.400   2.545   5.575 -0.3187  0.3906  0.0758
22759W        W37606   2.177   1.763  16.399  0.1010  0.2949  0.1254
22760W        W37607  15.589   4.982  15.489 -0.2912  0.0434 -0.0204
22761W        W37608   9.308  13.517  12.697  0.2063  0.1157  0.0302
22762W        W37609   5.964   1.250   0.157  0.2549 -0.0754 -0.2946
22763W        W37610  14.273  17.007  15.558  0.2273  0.4937 -0.1691
22764W        W37611   6.893   7.275   6.121 -0.0189 -0.0346 -0.0241
22765W        W37612   1.308   5.071   1.158  0.1319 -0.1209 -0.2034
22766W        W37613   6.188  13.201  13.995 -0.0969 -0.0728 -0.2650
22767W        W37614   3.817  11.824  17.016 -0.1033 -0.2136 -0.0134
22768W        W37615  16.907   1.161   3.794  0.0496 -0.0635  0.3948
22769W        W37616   0.196  12.722  16.669  0.3468 -0.1358  0.3826
22770W        W37617   9.955   1.680   1.778 -0.0747 -0.0028  0.2942
22771W        W37618  15.776   1.710  11.786  0.1138 -0.0104 -0.5256
22772W        W37619   2.015  12.823   6.012 -0.0161  0.0145 -0.2898
22773W        W37620  15.521  11.321  12.797 -0.0824 -0.3733  0.1133
22774W        W37621   1.894   1.996   3.045 -0.0934  0.0161 -0.2163
22775W        W37622  12.116  15.940  13.058  0.0303 -0.0113 -0.1625
22776W        W37623   0.718   6.068  16.134  0.0031 -0.1267 -0.0669
22777W        W37624   2.646   3.746  16.991 -0.0774  0.1143 -0.1521
22778W        W37625  10.144   7.408  17.104 -0.2466  0.0703 -0.1689
22779W        W37626   4.800   1.444  12.990 -0.3661 -0.2662 -0.2785
22780W        W37627   7.637  14.912  14.893  0.1046 -0.2748 -0.0978
22781W        W37628  16.086   9.492   0.424  0.0652 -0.0450  0.3304
22782W        W37629   5.303   3.840   3.596  0.2151  0.0770  0.0412
22783W        W37630   2.943   0.541  12.020 -0.1968  0.0558  0.0650
22784W        W37631  16.259  15.290   5.977 -0.2906  0.2703 -0.1204
22785W        W37632   1.881  17.523   2.220 -0.4132 -0.0502  0.1491
22786W        W37633  11.030  11.975   4.483  0.2547  0.4732 -0.0938
22787W        W37634  12.294  10.868   6.019  0.1519 -0.0009 -0.2009
22788W        W37635  14.556   0.296  12.805  0.2450 -0.0196 -0.3277
22789W        W37636  17.188  17.337   0.956  0.2482 -0.2621 -0.0815
22790W        W37637   3.475   3.891  17.650 -0.0051  0.0651 -0.1136
22791W        W37638   6.171  16.018  14.531 -0.0697  0.0542  0.1470
22792W        W37639  11.476   0.044  15.367 -0.0578  0.1276  0.2304
22793W        W37640   2.802  12.744  16.620 -0.0289  0.0377 -0.1397
22794W        W37641   7.399   3.730   3.097 -0.1140  0.0038  0.1884
22795W        W37642  11.123   0.693  11.856  0.1037 -0.0380 -0.0409
22796W        W37643   5.886  11.739   2.482 -0.2443  0.1318  0.0947
22797W        W37644  10.740  16.560   0.799 -0.1284 -0.2019  0.1436
22798W        W37645  16.872   7.222   6.109  0.0599  0.1466 -0.1226
22799W        W37646  11.084  14.153  13.116  0.0712 -0.1791  0.0601
22800W        W37647  17.078  10.486   0.410  0.1569 -0.0488  0.0517
22801W        W37648   0.408   3.868   1.854 -0.2498 -0.2302  0.0776
22802W        W37649   2.639  10.123  10.628 -0.1464  0.2682  0.1978
22803W        W37650  13.469   3.889  16.335  0.0025 -0.1225  0.0354
22804W        W37651   8.450   4.103   4.025  0.2073  0.0603  0.0479
22805W        W37652   6.626   2.624  17.146 -0.0762  0.0958 -0.2228
22806W        W37653   8.242  17.345  16.268  0.0462 -0.0526 -0.1078
22807W        W37654   7.632  15.807   4.903  0.1942  0.0806 -0.0748
22808W        W37655  12.818  10.865   2.410 -0.2237 -0.1206 -0.3665
22809W        W37656  10.697  17.107   2.965  0.1459 -0.0269 -0.3301
22810W        W37657  13.262   2.067   5.697  0.0334  0.4248  0.2531
22811W        W37658   6.523   6.740   5.393 -0.0159 -0.0211  0.0268
22812W        W37659   8.269  10.879  16.423  0.0339 -0.1814  0.2069
22813W        W37660   3.807   0.488   0.373 -0.1894  0.3041 -0.2024
22814W        W37661  13.868   3.146   1.313  0.4070  0.0746 -0.1645
22815W        W37662   4.767   0.810  11.344  0.1466  0.0889 -0.1734
22816W        W37663   0.128  15.582   0.419  0.0648  0.0924  0.0874
22817W        W37664  14.778  15.570   0.719  0.2696  0.2455  0.3850
22818W        W37665   9.619  10.954   2.694  0.3030 -0.0748  0.1195
22819W        W37666   5.164  11.376   3.224  0.1007 -0.1597  0.0085
22820W        W37667   3.229  10.760   1.038  0.0783 -0.1997  0.2029
22821W        W37668  10.815   4.025  13.486 -0.2486  0.2141  0.0671
22822W        W37669  14.725   8.103   0.929  0.1419 -0.1539  0.1743
22823W        W37670   9.658   6.941  12.042  0.0812 -0.0574 -0.2034
22824W        W37671   7.995   0.259  14.262  0.0554 -0.1759 -0.1195
22825W        W37672   7.057  15.908  16.114  0.2666 -0.2128 -0.1768
22826W        W37673   0.834  10.977  12.560 -0.0643 -0.3850  0.0383
22827W        W37674  13.781   3.282   2.597 -0.0172  0.1113  0.0607
22828W        W37675  10.164   1.300   2.037  0.0197 -0.0307 -0.2460
22829W        W37676  15.350  15.384   3.231  0.0954  0.2495 -0.2028
22830W        W37677   8.040   0.478   6.175 -0.2935 -0.1315  0.0722
22831W        W37678  17.532  15.551  16.231 -0.0691  0.0586 -0.0197
22832W        W37679  12.717   0.667   0.155  0.1176 -0.0368  0.1015
22833W        W37680   3.776  15.320  13.256  0.4409  0.1342 -0.2447
22834W        W37681  14.730   9.756  12.843 -0.2422  0.1466 -0.3459
22835W        W37682   2.001   9.432  15.921  0.0998 -0.1404  0.2944
22836W        W37683   6.589  10.966  17.505  0.4042  0.0548  0.0703
22837W        W37684   1.865   6.536  12.757 -0.1969  0.0512  0.0015
22838W        W37685  15.836   3.698   1.964 -0.2428  0.0500 -0.2285
22839W        W37686   5.271   1.441  11.885  0.1483 -0.1450  0.4123
22840W        W37687  14.166  10.046   3.191 -0.0645  0.0538  0.4973
22841W        W37688   6.130  10.024   0.749 -0.1982  0.2310 -0.0747
22842W        W37689   6.186   7.076   5.540  0.0623 -0.0221 -0.1090
22843W        W37690  11.246  16.983  16.874  0.0398 -0.0003  0.3417
22844W        W37691   1.637  10.691  12.376  0.1133 -0.1572 -0.0920
22845W        W37692   3.291   8.040  15.015 -0.5365  0.3010  0.4504
22846W        W37693  15.520  12.326   4.431  0.0502 -0.1483  0.0297
22847W        W37694   9.777   1.400   3.802 -0.1808 -0.1998  0.3017
22848W        W37695   5.681   6.373   1.544 -0.0083  0.1419  0.1192
22849W        W37696   5.739   4.420  17.210  0.1265 -0.1989  0.1441
22850W        W37697   6.498   1.752  15.507  0.1998  0.0283 -0.2119
22851W        W37698  16.132   5.261  17.199  0.0285  0.0452  0.1594
22852W        W37699  12.031   7.595  14.974 -0.0690 -0.1686  0.2630
22853W        W37700  13.256  17.130   2.430  0.0383  0.0132  0.1078
22854W        W37701   3.956   3.031  15.644 -0.3153  0.1276 -0.1273
22855W        W37702   1.191   5.393  14.758  0.3399 -0.0796 -0.0362
22856W        W37703   3.734   0.477   5.519 -0.1075 -0.0350  0.2021
22857W        W37704   4.212   1.835   4.868 -0.1013  0.2205  0.0347
22858W        W37705   0.427  15.104   1.311  0.0836  0.3643 -0.1476
22859W        W37706   1.813   0.795   4.190  0.1823  0.3947  0.1985
22860W        W37707   0.223   5.127  13.827  0.5412 -0.2691 -0.0839
22861W        W37708   4.379   5.288   5.068  0.0659  0.1967 -0.0646
22862W        W37709  14.914  12.287  14.933 -0.1423 -0.3380  0.0204
22863W        W37710   2.243  14.582   3.543 -0.3014 -0.3678  0.0354
22864W        W37711   0.094   4.190   1.639 -0.1585  0.1023  0.0257
22865W        W37712   8.181  15.350   5.810  0.0099  0.1601  0.0038
22866W        W37713   1.427  10.328   2.053 -0.1185 -0.0048  0.2498
22867W        W37714   7.664   9.724   4.060  0.0528 -0.1254 -0.0313
22868W        W37715   5.512   2.644  13.811  0.1549  0.0026  0.1836
22869W        W37716   8.842  13.070   2.160 -0.0338  0.2341  0.1362
22870W        W37717   1.676  11.906   2.165  0.1910 -0.4200  0.0781
22871W        W37718  11.225  14.981  15.137  0.1400 -0.1725  0.0734
22872W        W37719   8.170   1.076  11.024  0.1535 -0.3067  0.2202
22873W        W37720   4.034  15.040  16.884  0.0225  0.0554 -0.2692
22874W        W37721  14.205  16.209  15.688  0.1937  0.0954  0.0918
22875W        W37722  10.492  17.019  17.623  0.1545 -0.1068  0.0901
22876W        W37723   9.643  15.578   2.104  0.1315 -0.1247  0.0991
22877W        W37724  10.209  14.710   0.995 -0.1257  0.0005 -0.0797
22878W        W37725  13.221   3.510  14.590  0.0147 -0.2085 -0.3353
22879W        W37726   0.622   3.876   0.817  0.0115 -0.1260 -0.1322
22880W        W37727  17.107   6.092  15.819 -0.1561  0.1450 -0.1806
22881W        W37728   0.115  12.770  12.221 -0.0332  0.0946 -0.0170
22882W        W37729   2.630  14.713   5.519 -0.3469  0.0569 -0.2190
22883W        W37730   9.480   0.609  12.402 -0.0552  0.3492  0.0174
22884W        W37731  10.026   7.851  15.866 -0.1420 -0.1851  0.1335
22885W        W37732   3.593   1.482   0.713  0.2090  0.1188 -0.2698
22886W        W37733  17.280   3.395  16.952 -0.5162 -0.3930 -0.3398
22887W        W37734  13.134  17.323  17.295 -0.1488 -0.0545  0.6262
22888W        W37735  16.716  11.686  12.690  0.0030 -0.2125  0.1465
22889W        W37736   8.180   8.529   2.509 -0.0368  0.0308 -0.1771
22890W        W37737   8.384  14.551   2.184 -0.3857 -0.0783  0.2307
22891W        W37738   3.033   8.481  14.954 -0.0159  0.4496 -0.0346
22892W        W37739  16.384   1.275  16.380 -0.1906 -0.0136 -0.4292
22893W        W37740  13.740  16.313   0.647  0.1506  0.0054  0.2941
22894W        W37741  16.883  14.471  16.527  0.1749  0.0660  0.1611
22895W        W37742   4.450  15.626   3.723  0.5161 -0.4990  0.3275
22896W        W37743  17.408   3.371  15.905  0.2529 -0.0023 -0.1515
22897W        W37744   1.312  17.449   0.452 -0.2444 -0.1788 -0.1568
22898W        W37745  16.248   6.578  14.656 -0.2269  0.1484  0.0583
22899W        W37746   6.425   0.878   0.073  0.0022 -0.3763  0.1451
22900W        W37747   2.567  11.013   3.596  0.2778  0.1009 -0.1222
22901W        W37748   7.334   2.994   6.214 -0.2905  0.0002 -0.3420
22902W        W37749   5.178  13.283   5.815  0.1228  0.1716  0.0087
22903W        W37750  15.550  15.779   2.142  0.0328 -0.0851  0.0022
22904W        W37751  14.087  16.887  15.087 -0.1704 -0.1790  0.0472
22905W        W37752   2.024   9.497  14.464  0.1462 -0.2759  0.0428
22906W        W37753   7.132   4.602  13.603 -0.1239  0.0715 -0.1525
22907W        W37754  16.220  11.328  15.735  0.0585  0.0821 -0.2620
22908W        W37755  10.558   7.126   1.095  0.2207 -0.3349 -0.1469
22909W        W37756   4.057  13.430  14.424 -0.0479  0.2068 -0.1699
22910W        W37757   6.993   8.123   5.578  0.1062 -0.1559 -0.1865
22911W        W37758   5.650  14.980   3.734  0.1295  0.1974  0.2203
22912W        W37759  10.964  13.570   3.981 -0.0802  0.0280  0.1613
22913W        W37760   0.549   7.374   0.266 -0.1448 -0.2133  0.0610
22914W        W37761  10.341  13.511   1.923 -0.1317 -0.1975  0.2696
22915W        W37762   6.682  11.741  15.924  0.2393  0.0747 -0.2990
22916W        W37763   8.876  15.603  15.661 -0.0340 -0.0564  0.1707
22917W        W37764   8.004  11.655  12.368  0.2574 -0.5054 -0.1491
22918W        W37765  13.500   0.098   1.645  0.1566 -0.0334  0.0065
22919W        W37766   9.318  14.030  13.600  0.1814  0.0561 -0.0456
22920W        W37767  15.598  12.075   0.338  0.2471  0.1392  0.3101
22921W        W37768  13.742   7.197   5.876 -0.1878  0.2908 -0.2429
22922W        W37769   7.301  17.336   5.015 -0.1158 -0.0981  0.4333
22923W        W37770   2.990  14.994  16.952 -0.1453 -0.2022  0.3077
22924W        W37771   4.698   1.722   4.213 -0.2937  0.4769 -0.0790
22925W        W37772  11.439  13.292  16.333 -0.2715  0.0239  0.3726
22926W        W37773   6.615   9.095  15.283  0.2568  0.0139  0.0356
22927W        W37774   2.116  12.302   4.183  0.0640 -0.1534  0.1444
22928W        W37775   6.646  13.669   1.980 -0.0733  0.0826 -0.0114
22929W        W37776   5.279   8.970   1.002  0.0593  0.0676 -0.0926
22930W        W37777   2.591  17.638   3.667  0.3648  0.0511 -0.3188
22931W        W37778   3.506  11.567   0.625  0.2499 -0.0933  0.2472
22932W        W37779   2.716  16.857  16.979 -0.0129  0.1183  0.2059
22933W        W37780   0.530   4.720  14.046  0.0878 -0.1003  0.5923
22934W        W37781  16.289  10.405  17.217 -0.2540 -0.1174 -0.1065
22935W        W37782   0.746   8.700  13.914 -0.1727 -0.1804  0.0134
22936W        W37783  11.063   0.406   2.208 -0.0235  0.0163 -0.2189
22937W        W37784  15.330  15.242  15.412  0.2588  0.2151  0.1077
22938W        W37785  14.692   1.984  13.663 -0.1039 -0.1992 -0.0222
22939W        W37786  15.518   2.302  12.619 -0.2338  0.1801 -0.1384
22940W        W37787  13.919   2.718   1.589 -0.2055  0.0681 -0.1110
22941W        W37788   3.025   4.843  14.818  0.1898  0.1064  0.0573
22942W        W37789   6.950   0.667   0.972  0.0854  0.0544  0.1548
22943W        W37790  13.525  16.790  15.109  0.2683  0.1455 -0.1797
22944W        W37791   2.578   3.028  15.150 -0.0489 -0.2297  0.0312
22945W        W37792  15.833  15.998   0.787 -0.1978 -0.1792  0.1095
22946W        W37793   7.771   2.883   5.028 -0.3746 -0.4082  0.1655
22947W        W37794   2.912   0.369   3.672  0.1502  0.1564 -0.0069
22948W        W37795   8.577   7.852   2.957 -0.4479  0.2836 -0.0993
22949W        W37796   8.493   2.020  11.833 -0.2717  0.1865  0.1374
22950W        W37797   3.725   2.099   4.610  0.1632 -0.0598  0.1176
22951W        W37798   6.462   0.192  11.304  0.0415 -0.1230  0.1911
22952W        W37799  11.040  16.276   2.302  0.2445  0.1707  0.1717
22953W        W37800   6.691  15.516   5.279 -0.2647  0.2312 -0.1648
22954W        W37801   3.137   0.330  16.544  0.2324  0.0068 -0.1650
22955W        W37802  11.572   9.846  17.003  0.1894  0.2222  0.0846
22956W        W37803   7.138   5.084   0.729  0.0911 -0.4595  0.1693
22957W        W37804  10.288   0.922   5.312 -0.0074 -0.2237 -0.0564
22958W        W37805  17.479  10.818  11.417 -0.0242  0.0716  0.0439
22959W        W37806  14.020  12.222  13.158 -0.2695 -0.1094 -0.0888
22960W        W37807   4.884  13.159  15.309  0.0293  0.0404 -0.0144
22961W        W37808  16.548  14.106  17.544  0.0290 -0.2338  0.0802
22962W        W37809   8.373   6.333  13.256  0.4267 -0.0233 -0.3298
22963W        W37810   4.140   9.280  16.136 -0.1473  0.0249 -0.2397
22964W        W37811  12.905   4.834   6.365 -0.0211 -0.0512  0.0406
22965W        W37812   5.424  13.416  16.644 -0.0537  0.0616  0.0463
22966W        W37813  14.157  16.522   6.230  0.0036 -0.2336 -0.0545
22967W        W37814  16.615  15.382   4.201 -0.4191 -0.0523  0.3551
22968W        W37815  10.975  16.679   3.259 -0.0509 -0.2569  0.1332
22969W        W37816  14.230   9.066  13.284 -0.3393  0.0430 -0.0638
22970W        W37817  15.954   2.143  13.702  0.0891  0.1081  0.1666
22971W        W37818  12.259   1.332   4.334 -0.1713 -0.0684 -0.2152
22972W        W37819   8.967   6.943   4.131 -0.3095 -0.3433 -0.1257
22973W        W37820   8.988   9.875   5.113 -0.4504  0.1040 -0.1572
22974W        W37821  16.733  10.701   6.147 -0.0066  0.1214 -0.1865
22975W        W37822   3.219   4.625   4.915 -0.0276  0.0690 -0.0963
22976W        W37823   0.673  10.291  12.316  0.1083 -0.0979  0.0665
22977W        W37824  14.725   0.096  13.317  0.1444  0.2170 -0.2479
22978W        W37825   4.633  16.589   1.415 -0.1558 -0.1077  0.0674
22979W        W37826  13.001  14.708   5.637  0.0763 -0.2090 -0.0185
22980W        W37827   3.482   9.915   1.057 -0.2141  0.1878  0.0784
22981W        W37828   0.987   9.971   2.535  0.0380  0.3203  0.1265
22982W        W37829  15.019   6.320   1.909  0.2041  0.0477 -0.0941
22983W        W37830   2.468   8.135  12.203  0.0159 -0.1890 -0.1730
22984W        W37831   1.411  11.162  14.669 -0.1202 -0.2540  0.2372
22985W        W37832  16.120  13.206   0.435  0.0088  0.0161  0.1354
22986W        W37833   1.080   4.402  17.028  0.5720  0.0326  0.2369
22987W        W37834  13.957   0.191   0.897 -0.2078  0.2082  0.3673
22988W        W37835  13.634   9.952  14.822  0.1439 -0.5095 -0.0477
22989W        W37836   9.058   2.706  13.420  0.1539  0.4348  0.1038
22990W        W37837   0.684   1.124  16.757 -0.3460  0.1798  0.1427
22991W        W37838   4.987   0.428   4.560  0.0938 -0.1023 -0.1177
22992W        W37839   8.774   7.191  16.551  0.1650 -0.0155  0.1577
22993W        W37840   1.943   6.778  15.954 -0.1721 -0.1519  0.0167
22994W        W37841   8.216   5.814   5.865  0.0673  0.0816  0.0024
22995W        W37842   0.636   7.287   2.099  0.0823  0.1523  0.0533
22996W        W37843   6.243   1.089  14.271  0.1497 -0.1983 -0.0908
22997W        W37844   0.436   5.426  15.841 -0.3000 -0.2660 -0.0627
22998W        W37845   0.910   1.657   3.081 -0.0058  0.0993 -0.5011
22999W        W37846  10.917   6.814   2.120 -0.1753 -0.1028  0.1682
23000W        W37847   6.217   5.573   5.428 -0.1323 -0.1207 -0.1706
23001W        W37848   7.782   9.321  17.429 -0.0492 -0.0354  0.1105
23002W        W37849   1.274   2.327  14.169 -0.1851 -0.2184  0.2172
23003W        W37850   2.011  14.146  14.315 -0.3029  0.1041 -0.0086
23004W        W37851  12.760   1.900  11.936 -0.3253 -0.0927 -0.0951
23005W        W37852   4.022  14.593   3.560 -0.1138 -0.0022  0.0149
23006W        W37853  13.225  11.578   2.734 -0.1790  0.2309  0.0497
23007W        W37854   8.598   0.571   4.316 -0.3295  0.1908  0.6308
23008W        W37855  17.278   2.663  17.279 -0.1569  0.1214  0.0701
23009W        W37856  15.770   1.485   5.077 -0.3049  0.0516 -0.2991
23010W        W37857  10.541   0.899  16.740 -0.1809  0.0138 -0.0357
23011W        W37858   1.030  15.958  17.000 -0.0935  0.1012 -0.1841
23012W        W37859  12.801  14.496   6.083 -0.0619 -0.1357 -0.1528
23013W        W37860  11.198   9.907  16.276 -0.0761 -0.4056  0.1942
23014W        W37861   6.823   5.505  14.369 -0.0352 -0.0397 -0.4449
23015W        W37862   0.084  12.353   6.734  0.0906 -0.1185 -0.1053
23016W        W37863   1.923  11.637  12.974  0.4148  0.0416  0.4531
23017W        W37864   5.382  13.824  16.363 -0.3853  0.0847  0.2269
23018W        W37865  13.049   7.528   5.430 -0.0553 -0.1466  0.0237
23019W        W37866  14.232  10.610   5.020  0.0537 -0.3459 -0.1057
23020W        W37867  17.460   0.315   0.699  0.3173  0.1443  0.0761
23021W        W37868  17.096  17.440  12.122  0.1988 -0.1839 -0.0708
23022W        W37869   0.358  15.927  15.315  0.2107  0.0664 -0.0812
23023W        W37870  17.642   7.868   1.838 -0.1416  0.1360  0.1810
23024W        W37871   9.484  17.299  14.040 -0.2187 -0.0685  0.0810
23025W        W37872  16.999  15.565   2.533  0.0267  0.2885  0.2567
23026W        W37873   0.245   8.775   5.506 -0.1538  0.0434 -0.0308
23027W        W37874   5.714  10.688  17.657 -0.1794  0.0864 -0.1750
23028W        W37875  11.105  13.032  16.085  0.3960  0.0842  0.1831
23029W        W37876  17.419  11.063  14.259  0.2109  0.2996 -0.0240
23030W        W37877  16.039   6.882   2.320 -0.0744 -0.2586  0.0436
23031W        W37878   9.382   7.844   2.557  0.0476  0.2672  0.2525
23032W        W37879  15.252   7.604  15.172  0.1178 -0.2786 -0.2602
23033W        W37880  15.193  17.161  12.252  0.4233  0.0198  0.2717
23034W        W37881  15.984  11.902   2.443 -0.2254 -0.0695 -0.1048
23035W        W37882  10.730  11.621  15.294  0.6097  0.2083 -0.0912
23036W        W37883   1.051  14.435   3.439 -0.0279 -0.3288 -0.1435
23037W        W37884  13.096   8.542   4.535  0.0841 -0.0626  0.1480
23038W        W37885   4.199   5.348   0.018 -0.0707  0.1742  0.3271
23039W        W37886  16.601  14.898   3.091 -0.0907  0.2308  0.1069
23040W        W37887  14.195   7.032   4.588 -0.0062 -0.1629 -0.0852
23041W        W37888   6.559   9.066  14.304 -0.0700 -0.0061  0.1110
23042W        W37889  12.131   4.881  13.108  0.1002  0.1515  0.0903
23043W        W37890  12.084  14.618  13.247  0.2751 -0.0537  0.0757
23044W        W37891  15.251   8.780   6.326  0.0671  0.0412  0.1338
23045W        W37892   5.378   5.528  15.736  0.0593  0.0694 -0.0260
23046W        W37893  11.417   7.048   4.468  0.0092  0.1629  0.0431
23047W        W37894  13.894   9.644   2.975  0.2744  0.1423  0.3136
23048W        W37895  16.223   6.434   2.137  0.0763  0.2202 -0.0015
23049W        W37896   3.593  10.505  14.152  0.0505  0.0476 -0.2043
23050W        W37897  13.749   5.356   0.902 -0.1785  0.1126  0.2413
23051W        W37898  11.237   6.106   0.201  0.0809 -0.1031 -0.1907
23052W        W37899  12.367  10.052  14.307  0.0588  0.3779 -0.1240
23053W        W37900  12.765  16.433  15.336  0.2674 -0.1761  0.0429
23054W        W37901  15.091  12.032  17.566  0.0943 -0.1327 -0.0308
23055W        W37902  16.723   4.185   5.038  0.0479  0.1601  0.0847
23056W        W37903   5.969   7.143  15.709 -0.0704 -0.0517  0.0522
23057W        W37904  12.011  15.174   5.390  0.1254 -0.0061 -0.2254
23058W        W37905   3.810   9.821  12.000 -0.0707 -0.0691 -0.0914
23059W        W37906   4.031  13.742  17.185 -0.1541  0.4915 -0.0134
23060W        W37907  10.846  11.914  17.075  0.3138  0.1435 -0.0297
23061W        W37908   5.871  12.953  16.174 -0.3209 -0.5364 -0.0801
23062W        W37909   1.382  14.611   5.972  0.1088  0.2175 -0.3903
23063W        W37910  15.599  17.144   0.458 -0.0073 -0.1949 -0.2713
23064W        W37911   5.638  13.467   2.777  0.1260 -0.2861  0.0864
23065W        W37912   3.707   5.206   3.181 -0.0847 -0.0478 -0.3545
23066W        W37913   4.699   8.520   5.750  0.0918 -0.1562 -0.2309
23067W        W37914  11.199   3.631   0.388  0.0064  0.1581 -0.0498
23068W        W37915   7.211   1.426   4.716  0.2560 -0.2978 -0.0073
23069W        W37916   1.540   9.652   2.856  0.1236 -0.2336 -0.1969
23070W        W37917   2.770  13.516  14.522  0.3575 -0.1344 -0.0980
23071W        W37918   2.513  10.021   4.706 -0.1540  0.4891  0.0909
23072W        W37919   3.509  15.318  16.010  0.4751  0.2975 -0.0066
23073W        W37920   5.805  16.104   5.828 -0.2839  0.0619  0.0104
23074W        W37921   8.576  10.959  12.308 -0.1628  0.0003  0.1077
23075W        W37922  10.351   0.450  10.924 -0.0509 -0.2627  0.2416
23076W        W37923  14.151   1.181   3.149  0.1168 -0.2626 -0.1780
23077W        W37924   4.098  14.213   0.398 -0.1086  0.0351 -0.2594
23078W        W37925   1.768   4.181   5.235 -0.0030  0.0747 -0.2701
23079W        W37926   3.061  14.515   5.369  0.1702  0.0413 -0.1340
23080W        W37927  10.030   3.366  13.379 -0.3342  0.1906 -0.2176
23081W        W37928   3.153   4.242   2.271  0.1332  0.1327  0.1176
23082W        W37929  15.254   7.555  16.585 -0.2083 -0.0079  0.1234
23083W        W37930  16.381   4.630   2.147 -0.1058  0.0491  0.1324
23084W        W37931  10.333  15.322  15.483  0.0359 -0.2164  0.1530
23085W        W37932   2.153   1.451  15.947  0.1240 -0.1423 -0.0251
23086W        W37933   9.132   3.943  17.215  0.2384  0.0349 -0.1844
23087W        W37934   4.101   5.723   1.049  0.1097 -0.0380  0.1933
23088W        W37935   9.757   2.264   0.434  0.1640  0.1773  0.2656
23089W        W37936  17.628  10.241   2.713 -0.1967 -0.1506  0.1588
23090W        W37937   8.640   1.215   3.924  0.1474  0.0669  0.2377
23091W        W37938  15.640  14.947  16.755  0.0052  0.0790 -0.3490
23092W        W37939   2.911   1.355   5.601 -0.0718  0.3066  0.1656
23093W        W37940   9.508  12.215   0.776 -0.0119 -0.0965  0.2387
23094W        W37941  10.506   0.834   4.832  0.0399 -0.3178  0.0345
23095W        W37942   0.723   2.642   1.961 -0.1547  0.1398  0.1361
23096W        W37943   2.807  12.654  11.254 -0.1333  0.0496  0.0072
23097W        W37944  10.307  14.982   1.356  0.3673  0.1205 -0.1678
23098W        W37945   4.075   8.636   0.180  0.1377  0.0399  0.0428
23099W        W37946   1.414   9.076  17.113 -0.1668  0.2021  0.3931
23100W        W37947   4.981   4.283   0.458 -0.1964 -0.0236 -0.1498
23101W        W37948   3.192   7.449   2.582  0.1908 -0.1380 -0.4408
23102W        W37949   4.005  16.227  15.243  0.3467 -0.1553  0.1789
23103W        W37950   3.688   3.560  15.883 -0.1293  0.2665 -0.2240
23104W        W37951  13.180   6.937   0.399  0.0155  0.0508 -0.0801
23105W        W37952  10.978  16.697   2.760  0.0698  0.0620  0.0163
23106W        W37953  16.129   8.577   4.396 -0.0996  0.0948 -0.0248
23107W        W37954  16.826   9.532  12.697 -0.0460  0.3146  0.2610
23108W        W37955   6.460  14.693  12.715 -0.2323 -0.1539 -0.2989
23109W        W37956   2.685  10.620   5.506 -0.1638 -0.0220 -0.3850
23110W        W37957  14.318   1.193  15.813  0.0274 -0.0786 -0.0863
23111W        W37958  12.433   5.455   0.131 -0.2527 -0.3816  0.3147
23112W        W37959  13.340   7.957   3.408  0.0742  0.0163  0.2054
23113W        W37960  15.984  15.862   3.123  0.2173 -0.2731  0.0295
23114W        W37961  14.601   2.044   5.017 -0.1350  0.1802  0.2739
23115W        W37962   4.649   5.549   4.481  0.2039  0.0879  0.0144
23116W        W37963   9.404   0.127  13.704  0.0200 -0.0582 -0.0536
23117W        W37964   1.702  11.171  13.128 -0.1730  0.0402 -0.1318
23118W        W37965  11.400   9.751   2.540  0.1186  0.0250 -0.1476
23119W        W37966   0.547   0.851  15.696  0.0225  0.3353  0.0431
23120W        W37967   5.927  14.849  16.634 -0.0549  0.0614  0.2020
23121W        W37968  16.193  14.533   5.729  0.1289 -0.2340 -0.0172
23122W        W37969   5.402  15.154   6.532  0.0514 -0.0160 -0.3198
23123W        W37970  14.330   1.791  11.984  0.2988  0.0220  0.1896
23124W        W37971  11.902   8.716  14.279 -0.1142 -0.0639 -0.0890
23125W        W37972   6.648  17.437  16.868  0.4624  0.0186 -0.2823
23126W        W37973   7.615   5.389  13.117  0.2124 -0.0650 -0.0065
23127W        W37974   1.885   3.371  16.608 -0.1772 -0.2913 -0.1537
23128W        W37975   3.425   1.976   2.169 -0.4072 -0.1215 -0.0684
23129W        W37976   9.496   2.838  15.634 -0.0969 -0.0833  0.3194
23130W        W37977  13.614  11.642   3.782 -0.0536 -0.1130  0.0688
23131W        W37978   9.601  13.706  14.428 -0.0866 -0.1535 -0.2019
23132W        W37979  15.057   9.324  17.218  0.2600 -0.0528  0.3166
23133W        W37980   8.638  17.486   2.995 -0.3329 -0.0806 -0.3196
23134W        W37981   8.847   8.158   4.350  0.0163 -0.0249 -0.2387
23135W        W37982   9.903  12.784   3.956  0.3976  0.1631 -0.3795
23136W        W37983   4.771   6.965   0.281 -0.2997 -0.1479 -0.0412
23137W        W37984  11.093   6.708   4.712 -0.1257 -0.2007  0.0979
23138W        W37985  16.153   0.612   4.970  0.0253 -0.1889  0.0114
23139W        W37986  11.952   6.298   4.266  0.0042 -0.0883 -0.2189
23140W        W37987   5.915  14.956   5.274  0.1010 -0.0205 -0.0570
23141W        W37988   6.508  13.270  16.799  0.0960  0.0999 -0.1253
23142W        W37989  11.248   5.635   2.439 -0.1948  0.0705  0.0974
23143W        W37990  14.314   3.681  16.750  0.1808  0.1934  0.1763
23144W        W37991  13.571   8.321  13.180  0.2907  0.3003 -0.0183
23145W        W37992  11.128   4.887  15.015  0.1040  0.0424  0.1038
23146W        W37993   3.137  14.428   1.513  0.0499 -0.1415  0.0135
23147W        W37994   6.308  16.840  17.400  0.1565 -0.0011 -0.0427
23148W        W37995   7.372   3.235  12.543 -0.1384  0.4720  0.1952
23149W        W37996  12.135  11.911   3.485  0.0648  0.2837 -0.0067
23150W        W37997  14.633   9.406   4.440  0.4380 -0.1033  0.2263
23151W        W37998  10.315  12.308  15.585  0.0640  0.0516  0.0218
23152W        W37999  11.400  12.339  15.389 -0.3445  0.0480 -0.0633
23153W        W38000   0.821   5.629   5.439 -0.4111 -0.0780 -0.2905
23154W        W38001  15.061   0.681   0.102 -0.0734 -0.2450  0.0332
23155W        W38002   7.238  11.455  14.046 -0.1928  0.1283 -0.0766
23156W        W38003  15.863   7.285   5.731  0.2705 -0.2622  0.4205
23157W        W38004   7.979  16.950  13.118  0.1860  0.1031  0.0202
23158W        W38005   2.747  11.796   4.854  0.0276 -0.4337  0.2308
23159W        W38006  12.223  15.974  14.651 -0.6092 -0.2057 -0.1162
23160W        W38007   2.808  15.327  13.060 -0.3368  0.0693  0.1656
23161W        W38008  14.930   5.603  14.808 -0.0040  0.1316 -0.1409
23162W        W38009  11.560  10.858   4.398  0.0078  0.0039  0.1191
23163W        W38010  12.367   8.888  13.439 -0.0234 -0.1300 -0.0527
23164W        W38011  13.231  10.529   2.138 -0.2276 -0.2079 -0.2591
23165W        W38012   5.987   4.235  11.632 -0.1902 -0.2394 -0.1388
23166W        W38013   5.540  14.286  13.603 -0.0852 -0.0110 -0.0298
23167W        W38014  15.171   4.414   6.622 -0.2022 -0.3246 -0.0021
23168W        W38015   3.861  17.667  13.588 -0.0107  0.0311  0.0522
23169W        W38016  11.493   4.446  17.516 -0.2615 -0.2605 -0.0650
23170W        W38017  15.711  10.501  13.416 -0.4277 -0.0669 -0.2266
23171W        W38018  14.000  12.931   6.431 -0.1720  0.0051 -0.4115
23172W        W38019   8.319   8.457  14.326 -0.4676  0.0043  0.2195
23173W        W38020  15.510  14.696   6.113  0.1458 -0.1270 -0.0943
23174W        W38021  12.501  15.273   2.162 -0.0149 -0.0283  0.0777
23175W        W38022   5.533  12.068  12.299  0.1225 -0.0083 -0.0410
23176W        W38023  17.669   8.239   6.266  0.2888 -0.0273  0.1670
23177W        W38024   4.587  16.085  11.770 -0.2092 -0.1223  0.1705
23178W        W38025   1.861  13.915   1.071  0.0435 -0.0231 -0.0187
23179W        W38026   4.553  17.482  17.076  0.0626  0.0580  0.1220
23180W        W38027   7.090   8.860  17.302 -0.0785 -0.0237 -0.1156
23181W        W38028  11.060   4.599   1.553  0.3350  0.1727 -0.4251
23182W        W38029   3.319   2.404  13.263 -0.0820 -0.0807  0.0021
23183W        W38030   1.498   1.556  15.118  0.2756 -0.0979  0.1030
23184W        W38031  11.710   3.856  14.755 -0.0337  0.1581  0.0115
23185W        W38032  11.764   2.398   0.063 -0.0857 -0.2141  0.0267
23186W        W38033  10.247  11.910  16.894  0.0693  0.1226  0.0663
23187W        W38034  12.431  13.224   3.178  0.1852 -0.2632 -0.0526
23188W        W38035  12.947  14.411  15.624 -0.0081  0.1721 -0.1747
23189W        W38036   9.928   6.371   0.245 -0.0698  0.3938  0.1202
23190W        W38037  13.250   9.240  16.220 -0.1281  0.4067  0.1046
23191W        W38038  15.079   0.163   6.394 -0.2504  0.1338  0.0203
23192W        W38039   3.005  14.346  15.463  0.1192  0.1537 -0.0327
23193W        W38040  10.878   1.983  15.985 -0.0842  0.0408  0.0212
23194W        W38041  15.124  10.508   3.026 -0.2109 -0.4135 -0.1672
23195W        W38042  11.609   7.728   3.967  0.0236  0.1249 -0.2940
23196W        W38043   5.032   2.976   2.331  0.2771  0.0937  0.1074
23197W        W38044  16.938   6.779  17.413  0.0155 -0.2082 -0.1886
23198W        W38045   0.955   0.248   1.097 -0.1231 -0.0125  0.1263
23199W        W38046  12.047   0.442   3.640  0.0970 -0.2138  0.2862
23200W        W38047   3.900  17.264   3.713 -0.0904  0.2490 -0.2977
23201W        W38048   2.819  15.448  12.454  0.3083  0.0745  0.0544
23202W        W38049   4.017   2.167   3.386 -0.1887 -0.3166 -0.0850
23203W        W38050  12.110   9.818   4.723  0.0290  0.1995 -0.1940
23204W        W38051  16.032  16.323  12.375  0.2075 -0.3531 -0.0383
23205W        W38052  16.365  13.692  17.251 -0.0527  0.2038 -0.0883
23206W        W38053   5.721  17.136   2.382  0.0857  0.0674 -0.0606
23207W        W38054  14.366  16.545  15.333 -0.1442 -0.0979 -0.0780
23208W        W38055   6.883   5.394   2.665 -0.0903 -0.3056 -0.3919
23209W        W38056   9.430   1.795   4.623 -0.0390 -0.1352 -0.0711
23210W        W38057  10.116  11.870   1.306 -0.2030 -0.0046  0.0289
23211W        W38058  13.312  12.011  17.409  0.0867  0.3333  0.2411
23212W        W38059  12.793   9.534  16.494  0.0838  0.0881 -0.0136
23213W        W38060  10.610  14.340  15.694  0.1237  0.0512 -0.1429
23214W        W38061  13.615   2.925  15.676  0.1444 -0.0228  0.0662
23215W        W38062   6.818  13.902   5.737 -0.0291 -0.0506  0.0911
23216W        W38063   5.609   9.252   2.950  0.4016  0.3424  0.1306
23217W        W38064   6.952  16.537  12.551  0.0108 -0.0987 -0.0263
23218W        W38065   8.117   6.074  16.621 -0.1443  0.0019  0.1603
23219W        W38066  13.840  13.475   4.158 -0.1322 -0.1406  0.2647
23220W        W38067   1.770  16.985   2.073  0.2512  0.1200 -0.0423
23221W        W38068  11.753  10.707   6.937  0.0775 -0.0273 -0.0156
23222W        W38069   2.957  15.167   0.571 -0.0530  0.0870  0.1117
23223W        W38070   1.684  11.861  17.424  0.1960  0.2116  0.2093
23224W        W38071  15.301  10.975   3.254  0.3347 -0.1448 -0.4223
23225W        W38072   0.461   0.235  13.196  0.2516  0.0660  0.0505
23226W        W38073   3.834  17.072   2.714  0.1688 -0.0609 -0.1884
23227W        W38074   9.801  12.882  15.942  0.2033 -0.0171  0.2711
23228W        W38075  11.944  14.465  12.770  0.3997 -0.0326  0.0673
23229W        W38076  16.743   3.910   3.165 -0.0554 -0.0842 -0.0086
23230W        W38077   8.531  13.471   2.021  0.2265  0.0230  0.3949
23231W        W38078   3.738   4.176  15.208 -0.0576  0.1400 -0.0440
23232W        W38079   4.088  15.184   4.428  0.0160 -0.1442  0.0390
23233W        W38080   9.321  17.540  15.381  0.0298  0.2862 -0.3147
23234W        W38081  16.301  14.833   2.290 -0.0075  0.1895 -0.1102
23235W        W38082   4.209   0.818   6.775 -0.0678  0.3284 -0.0541
23236W        W38083   1.373  10.286   2.693 -0.1642 -0.1494  0.2509
23237W        W38084   4.807  15.449   6.478 -0.0915  0.1116 -0.0007
23238W        W38085  13.339  10.459   6.850 -0.1691  0.0756  0.2307
23239W        W38086   2.753   8.762   6.058 -0.1853 -0.2362 -0.2179
23240W        W38087  13.796   5.753  16.346  0.1958  0.1539  0.1313
23241W        W38088   8.814   0.183   6.999 -0.3140 -0.0823  0.0550
23242W        W38089  16.892  14.352   2.608 -0.1482  0.0871  0.1175
23243W        W38090   9.902   2.163  12.191  0.2045  0.0255 -0.1969
23244W        W38091  14.980  11.500   3.851 -0.2286 -0.1652  0.2182
23245W        W38092  13.464   8.986  15.039 -0.0798 -0.1671 -0.1090
23246W        W38093  15.287   9.865  12.805  0.2069  0.3076  0.1640
23247W        W38094  17.593   1.059   3.205  0.0662 -0.2268 -0.1609
23248W        W38095   3.571  16.351  13.132  0.0675 -0.1393  0.0820
23249W        W38096   9.462   2.838   2.051  0.2308  0.0282 -0.2665
23250W        W38097   2.559  12.950   5.837 -0.0888  0.1592  0.0012
23251W        W38098  10.204   0.701  12.337  0.0167 -0.1559  0.1275
23252W        W38099  11.650  14.732  13.076  0.1741 -0.0156  0.1650
23253W        W38100   0.030  15.965  16.534 -0.2983 -0.0732  0.3096
23254W        W38101   0.362  12.319   2.098 -0.3062  0.2505 -0.1613
23255W        W38102   4.672  14.933   0.185 -0.2222 -0.0225 -0.2288
23256W        W38103  14.932   0.586   6.144 -0.0899  0.3196 -0.3594
23257W        W38104   9.652  11.696   1.406  0.1804  0.0763 -0.1974
23258W        W38105  10.728   1.039  12.608  0.1010  0.4016  0.1182
23259W        W38106   4.206   1.602  15.753 -0.2799  0.1599 -0.0817
23260W        W38107   7.295   1.960   4.896  0.2228  0.2101 -0.0323
23261W        W38108  15.545   3.993  14.337 -0.0597 -0.0551  0.0614
23262W        W38109   1.561   5.177   5.027  0.2208  0.3631 -0.3139
23263W        W38110  13.107  16.046   3.420 -0.1816  0.2342 -0.1025
23264W        W38111  17.546   8.407   3.894  0.1083  0.0711 -0.2827
23265W        W38112  10.956   1.579   0.130  0.0438  0.1939  0.0140
23266W        W38113   4.838   8.218  11.984 -0.1027 -0.0141  0.0141
23267W        W38114   7.350   4.039   3.681  0.2427 -0.0789  0.0885
23268W        W38115   6.014  14.723  13.024 -0.1318  0.0783  0.1563
23269W        W38116  16.044  10.193  16.287 -0.1084  0.1071 -0.1940
23270W        W38117   3.328   7.509  15.300  0.0094 -0.1704 -0.2336
23271W        W38118   5.078  11.120  17.015  0.0570 -0.0265 -0.0010
23272W        W38119  15.584   8.077   6.815 -0.1438 -0.0275 -0.1805
23273W        W38120  17.050   0.343  11.206 -0.3740 -0.3157  0.2816
23274W        W38121  17.628  11.525  13.995  0.4661  0.2099  0.0573
23275W        W38122  16.857  14.343   6.067  0.3351  0.1091 -0.3016
23276W        W38123   3.388   6.733   5.191  0.0280  0.1245 -0.1782
23277W        W38124  14.433   4.123  15.731  0.0227 -0.2970  0.2860
23278W        W38125  16.121   3.039   0.466 -0.1693  0.2968  0.2705
23279W        W38126  10.119  15.202   6.583 -0.0799  0.3326 -0.3328
23280W        W38127   4.274  10.299   6.062 -0.2387  0.0421  0.1365
23281W        W38128   6.795   6.667  11.696 -0.1284 -0.0318 -0.0634
23282W        W38129  15.111   2.157  12.936 -0.2228  0.0935 -0.2859
23283W        W38130   3.019  12.403  14.035  0.1564 -0.1944  0.1423
23284W        W38131   7.114   4.968   3.985  0.1586 -0.1796 -0.1424
23285W        W38132  17.567   4.772   3.631 -0.1229 -0.0256  0.2295
23286W        W38133   1.836  17.205  13.300 -0.0559  0.1905 -0.0230
23287W        W38134   6.682  14.546  14.264  0.2048 -0.0720  0.0780
23288W        W38135   8.614   5.640  11.461 -0.2115  0.1129 -0.2621
23289W        W38136  17.230  14.315  15.207 -0.1205  0.0055 -0.0632
23290W        W38137  10.265  14.603   0.136  0.0095 -0.1258 -0.2773
23291W        W38138   2.189  12.249  12.112  0.4049 -0.3203 -0.3432
23292W        W38139   7.888  10.641  16.224  0.2689 -0.2728  0.0266
23293W        W38140   0.631  16.183   6.853 -0.0850 -0.1832  0.1079
23294W        W38141   2.535  13.919  11.642 -0.1125  0.1943  0.1619
23295W        W38142  10.569  15.002   4.221 -0.2360 -0.1447 -0.0460
23296W        W38143   8.435   5.342   3.002 -0.0138 -0.4239 -0.1667
23297W        W38144   8.190   1.484   2.199  0.0331  0.0522  0.1521
23298W        W38145   7.654   0.979  11.888  0.0314 -0.0052 -0.1444
23299W        W38146   0.050   6.283  14.998  0.1617  0.2953 -0.1359
23300W        W38147  11.109  16.265   5.375  0.0032  0.0725 -0.0774
23301W        W38148  16.885   2.742  17.632 -0.3619 -0.2624  0.1772
23302W        W38149   1.024   1.611  11.585 -0.2330  0.0326 -0.1680
23303W        W38150  10.414  15.072   5.344 -0.2304  0.1713  0.1191
23304W        W38151   8.739  14.809   6.258  0.0321 -0.2934  0.3333
23305W        W38152   4.097   6.437   0.770  0.3063  0.0909  0.0394
23306W        W38153   8.559   6.752  12.037 -0.4075 -0.0808 -0.1020
23307W        W38154   6.410  12.965   4.096 -0.1232  0.1394  0.0984
23308W        W38155  12.981   3.401  13.844  0.3731  0.1328  0.0965
23309W        W38156   8.271   8.749   5.441 -0.1737 -0.1637 -0.0365
23310W        W38157   3.228   8.763  12.381  0.1675  0.1342 -0.2619
23311W        W38158   0.278   1.808   0.241 -0.0780 -0.1131  0.0604
23312W        W38159   4.745   7.763   3.366 -0.3932 -0.1645 -0.2098
23313W        W38160   7.711  10.459  11.163 -0.0440  0.2056  0.1435
23314W        W38161  14.051   5.088   0.160  0.4181 -0.1085  0.4534
23315W        W38162  14.980   7.031  13.865 -0.0675  0.0783 -0.0845
23316W        W38163   6.665  10.547  13.949 -0.1726 -0.3000 -0.0518
23317W        W38164   2.426   0.773  14.415 -0.1811 -0.0115  0.0110
23318W        W38165  12.621   2.742   3.282 -0.2277  0.1746 -0.1393
23319W        W38166   5.110   5.600   2.607 -0.0185 -0.1582  0.2715
23320W        W38167   8.459   0.540  12.568  0.0766  0.0993 -0.2620
23321W        W38168   7.786   6.028  12.891 -0.1001 -0.1271 -0.0756
23322W        W38169  10.505   9.009  12.857  0.1779  0.5242 -0.2817
23323W        W38170   6.904   8.936   3.426  0.2450 -0.1050 -0.1805
23324W        W38171  16.009  14.786   1.839 -0.1750  0.0391 -0.3099
23325W        W38172   7.936   5.727  17.307  0.0408 -0.0825  0.1606
23326W        W38173  11.291  15.567  16.587 -0.2211 -0.2184  0.0391
23327W        W38174  15.511   0.054   2.906 -0.1115 -0.2769  0.1039
23328W        W38175  14.634  16.641   6.232 -0.0477  0.1111 -0.1201
23329W        W38176  16.097   9.606   4.521  0.1726  0.2455 -0.2289
23330W        W38177  11.760  17.540  17.311  0.1557 -0.2986 -0.1207
23331W        W38178  12.839   6.431   0.711  0.2905  0.0686  0.0015
23332W        W38179   4.593   3.012  16.492  0.1274  0.3866  0.3263
23333W        W38180   0.380   7.664  12.585  0.1047 -0.0877  0.0470
23334W        W38181   2.697   8.843   1.314  0.2372 -0.0431  0.0844
23335W        W38182   5.445  10.306  17.567 -0.1414  0.2653  0.0221
23336W        W38183  15.856  17.426   6.711  0.1041 -0.0110 -0.1377
23337W        W38184  16.226  16.748  16.436  0.4103 -0.1824 -0.1696
23338W        W38185   5.822   4.693   3.258 -0.0188  0.0870  0.0320
23339W        W38186  17.293  14.242  14.114  0.1335 -0.1641  0.2206
23340W        W38187  16.077   4.690  12.822  0.1928  0.1824 -0.0003
23341W        W38188   0.745   6.537   4.222  0.1526 -0.2400  0.2092
23342W        W38189   1.941  10.242   3.410  0.0222  0.0320 -0.0944
23343W        W38190  10.117  11.684   2.063  0.2433  0.3597 -0.2511
23344W        W38191   7.398  10.090  14.112 -0.1626  0.0076  0.0422
23345W        W38192   2.729   9.909  13.916 -0.2183 -0.0376 -0.0370
23346W        W38193   4.697  12.222  15.606  0.1828  0.1041 -0.1266
23347W        W38194   9.503  11.605   5.509 -0.1768  0.0134 -0.1074
23348W        W38195   7.478   3.426   1.900 -0.2094  0.0932 -0.0741
23349W        W38196   7.160   7.744   2.794  0.0126 -0.2291 -0.0864
23350W        W38197   1.520   5.289   2.878 -0.0711  0.2915  0.0585
23351W        W38198  12.841   8.552   2.307 -0.0189  0.0182 -0.0133
23352W        W38199   0.607   8.431   4.685 -0.0458  0.1791  0.1500
23353W        W38200  12.602   2.880  12.959  0.0363  0.1141  0.1198
23354W        W38201   0.281  17.027   6.114  0.2914 -0.0413  0.1488
23355W        W38202  10.659   6.416  12.734 -0.1772 -0.0872 -0.0029
23356W        W38203   4.877  17.374   2.176 -0.1887  0.2329  0.1396
23357W        W38204   7.388   0.597  14.627 -0.0098  0.2250  0.2670
23358W        W38205   1.525  10.841  15.658  0.0932 -0.0372  0.1451
23359W        W38206  15.472   8.674  13.408 -0.0794  0.0354 -0.1166
23360W        W38207   6.964   0.795  11.589  0.0958 -0.0425  0.0771
23361W        W38208  15.900  14.932  13.495  0.0179  0.0116 -0.0446
23362W        W38209   9.505  16.089   2.338  0.0881  0.1206 -0.1380
23363W        W38210  12.198   5.134   4.421  0.0181 -0.1715 -0.1894
23364W        W38211  11.633   3.988   5.533  0.3427 -0.0335 -0.4236
23365W        W38212  15.528   9.096  17.337 -0.0259 -0.1096 -0.2089
23366W        W38213   8.167  14.232   2.940  0.2562 -0.0276 -0.0298
23367W        W38214   2.957  16.325  13.415 -0.1175 -0.1686 -0.1185
23368W        W38215  16.575  14.751   6.110  0.0989 -0.1948  0.0120
23369W        W38216   3.603  13.042  15.115  0.1455  0.1300 -0.0743
23370W        W38217  10.481   3.506   3.746 -0.2067 -0.0124 -0.1363
23371W        W38218  16.299   9.684  14.089 -0.2056  0.0533  0.0261
23372W        W38219   7.283   5.292   4.441  0.3088 -0.0045  0.0838
23373W        W38220   6.174   2.375   1.929 -0.2869  0.2334  0.0664
23374W        W38221  14.426   7.685   3.516 -0.0676 -0.0482 -0.0274
23375W        W38222   3.200   5.305  12.254  0.1811  0.2930  0.1415
23376W        W38223  15.968  11.377  13.037  0.0187  0.0927  0.0924
23377W        W38224   5.406  11.073  11.572  0.0542 -0.1921 -0.0518
23378W        W38225  13.218   0.475  14.936  0.0974 -0.0357 -0.1408
23379W        W38226   8.134  13.592   1.154 -0.0059 -0.3380  0.1658
23380W        W38227   3.226   3.625  15.618  0.1644 -0.1570  0.0985
23381W        W38228  16.166   8.981   3.706  0.3103  0.2825 -0.0469
23382W        W38229  12.864  16.680   1.871 -0.0344  0.0297 -0.2614
23383W        W38230  15.476  13.976   1.411 -0.1906  0.0625  0.1587
23384W        W38231  14.320   8.921   3.801  0.1688  0.1816 -0.3050
23385W        W38232  16.832  12.446  17.182 -0.1331 -0.0374 -0.0653
23386W        W38233   6.787  12.072  12.175 -0.0055 -0.0854 -0.1311
23387W        W38234   1.263  10.810  15.024 -0.0040  0.1702  0.1367
23388W        W38235  15.914   5.387  12.151  0.1055 -0.0912 -0.0352
23389W        W38236  14.683  13.704   2.456  0.1810 -0.2341  0.2183
23390W        W38237  10.889   3.038  12.516 -0.1660 -0.1656 -0.1569
23391W        W38238  15.129   5.281   3.197 -0.0107  0.2047 -0.0669
23392W        W38239  11.855  14.760   3.298 -0.1504 -0.0995  0.0398
23393W        W38240  12.756  15.537   1.189  0.0674  0.0244  0.2482
23394W        W38241  16.715   5.874   3.990 -0.1374  0.1111 -0.1393
23395W        W38242   4.282  11.050  11.993  0.0833 -0.0052  0.1882
23396W        W38243  17.667   6.595   4.822 -0.0447  0.3589  0.2474
23397W        W38244  15.269   1.439  11.937 -0.0166  0.0870 -0.1969
23398W        W38245  15.972  16.854   0.706 -0.0420 -0.0165  0.1367
23399W        W38246   1.372  17.493   5.552  0.1793  0.0164 -0.3665
23400W        W38247   2.455  15.402   4.859 -0.1998  0.0614  0.0377
23401W        W38248  14.732  13.381   3.966 -0.0288 -0.2362 -0.2925
23402W        W38249   8.724   2.627  11.036 -0.1302  0.2444 -0.0301
23403W        W38250   6.378   9.522   6.307 -0.1619 -0.1041  0.1314
23404W        W38251   1.136   9.642   4.781  0.0330 -0.0368  0.3345
23405W        W38252  16.183  11.074  15.334 -0.0908 -0.1206  0.0520
23406W        W38253  16.935   5.651  16.761 -0.1450 -0.1585 -0.0500
23407W        W38254  12.210   0.868   5.688 -0.1332  0.2314 -0.2127
23408W        W38255  14.773   7.637  13.883  0.4121  0.0075  0.0055
23409W        W38256  14.146  12.103   1.172 -0.1560  0.0544 -0.0356
23410W        W38257   8.380   0.158   1.497 -0.2142 -0.0498 -0.0293
23411W        W38258   9.785   9.833   1.186  0.0787  0.2516  0.0925
23412W        W38259  13.948  17.327   3.114  0.1333  0.1796  0.2912
23413W        W38260   5.257   6.963  16.450 -0.0427 -0.0893  0.1481
23414W        W38261   7.395   9.846   0.626 -0.1887  0.0584  0.1234
23415W        W38262   6.140  12.371   4.055  0.3122  0.0565 -0.1083
23416W        W38263   5.336  17.277  17.421  0.4509  0.1272 -0.4225
23417W        W38264  10.094   9.849  16.552  0.1449 -0.1234  0.2132
23418W        W38265   5.660   9.421  15.398 -0.1541  0.2466  0.0260
23419W        W38266   6.253  16.714   1.757  0.0907  0.2231  0.1759
23420W        W38267   6.192  10.467  12.324 -0.1288  0.0026 -0.1057
23421W        W38268  13.462   7.905  17.027  0.1450  0.1715  0.2383
23422W        W38269   9.899   2.445  15.769 -0.2138 -0.0339  0.1597
23423W        W38270   9.694   3.317  14.723 -0.1113 -0.2077 -0.0355
23424W        W38271   6.243  16.252   4.827  0.1230 -0.1619 -0.1430
23425W        W38272  10.197  13.244  13.556 -0.1423  0.3120 -0.0484
23426W        W38273   8.520  15.111  12.594  0.1025 -0.2100 -0.1105
23427W        W38274   5.582   8.776   2.783 -0.2974 -0.2586  0.2996
23428W        W38275   9.233  12.131  15.480  0.2064  0.2703 -0.1134
23429W        W38276   9.005   1.216   0.226 -0.2269  0.0379 -0.2615
23430W        W38277  17.264   7.550  14.119  0.1003 -0.2297 -0.2622
23431W        W38278   1.781   4.159   0.916  0.3834  0.1003 -0.1000
23432W        W38279   5.589  14.651  13.297 -0.2101  0.0480  0.0696
23433W        W38280   1.151   7.906   1.151  0.1245 -0.3306 -0.0989
23434W        W38281  15.679   8.299   3.026 -0.0090 -0.0888  0.0234
23435W        W38282  11.717   1.006   5.778 -0.0176  0.1026 -0.1766
23436W        W38283  13.938   4.927   3.824  0.1013 -0.1519  0.1256
23437W        W38284   5.324  16.912   1.593 -0.0881 -0.0893 -0.1308
23438W        W38285   7.635  11.354  15.261 -0.0844  0.0665  0.0631
23439W        W38286   8.039   5.553   3.268 -0.0509 -0.0557  0.1553
23440W        W38287   7.188   5.392  11.551 -0.3881 -0.4185  0.0490
23441W        W38288   8.978  13.475   2.447 -0.3531  0.0364  0.0002
23442W        W38289  11.456   0.130   0.143 -0.1214 -0.0212 -0.1348
23443W        W38290  16.646   8.545  12.679  0.2924  0.1367  0.0973
23444W        W38291  14.975  16.937   1.924  0.3024 -0.1401  0.0796
23445W        W38292   1.402  14.039  12.521  0.0266  0.1583  0.0678
23446W        W38293  14.489  15.547   2.037  0.0136  0.1157 -0.1019
23447W        W38294  10.673  10.291   2.103 -0.1170  0.1080 -0.1616
23448W        W38295  15.929   1.533   1.617 -0.0533  0.1233 -0.1455
23449W        W38296  10.331  11.795   0.480  0.2173 -0.1364  0.3711
23450W        W38297  14.117   1.235  17.672  0.0239 -0.2244 -0.2210
23451W        W38298  13.774   2.787  13.425 -0.0203 -0.2041  0.2107
23452W        W38299   0.104   7.039   4.589 -0.1657 -0.2076  0.4031
23453W        W38300   0.755  15.886   1.371  0.2249  0.0657  0.2696
23454W        W38301   0.073   1.984  13.439  0.4220  0.0939  0.2947
23455W        W38302  12.525  17.556   6.874  0.2653  0.2685 -0.3998
23456W        W38303   5.771   1.891   3.994  0.1843 -0.1138 -0.0939
23457W        W38304  15.757   7.222   0.631 -0.0892  0.2707 -0.1615
23458W        W38305   4.869   5.639   3.470  0.3807 -0.1790 -0.1416
23459W        W38306   0.626   5.554   3.889 -0.0273  0.0584 -0.0962
23460W        W38307   1.891   3.784   2.822 -0.1911  0.1457  0.0387
23461W        W38308  12.374   2.033  13.998  0.0659  0.2641 -0.0831
23462W        W38309   9.936   4.161   5.987  0.1823 -0.0111  0.0228
23463W        W38310  11.038  17.567  15.470  0.1295  0.1199  0.2946
23464W        W38311  10.957   4.232  13.009  0.0203 -0.0696 -0.3227
23465W        W38312  13.860   4.418   2.074 -0.0171 -0.3154  0.0700
23466W        W38313  13.368   9.418   6.067  0.2313  0.1737  0.2931
23467W        W38314  14.351  10.521  15.110  0.3711  0.1855 -0.0939
23468W        W38315   2.056  16.110  13.898  0.0224 -0.0023 -0.2928
23469W        W38316  16.752  17.638   3.222  0.2263  0.2264  0.1562
23470W        W38317   7.568   6.368   1.146 -0.1968  0.0625  0.0783
23471W        W38318  13.865  10.782   2.634  0.0441  0.0348 -0.1762
23472W        W38319  16.723   5.295  12.730  0.2570  0.0776  0.1254
23473W        W38320  16.767  16.822  16.440 -0.1528  0.2023  0.1783
23474W        W38321   3.133   6.864  13.385 -0.0033  0.2417  0.2032
23475W        W38322  14.925   8.091   0.206 -0.0653  0.0779 -0.1845
23476W        W38323  15.459   0.830   2.190  0.0171  0.3415 -0.2405
23477W        W38324  14.800   6.091  17.477 -0.2037 -0.2383  0.2290
23478W        W38325  16.325   1.171   0.077  0.0068 -0.1602 -0.0356
23479W        W38326   7.885  17.462   0.906 -0.2139  0.1090  0.1609
23480W        W38327  12.039  15.649   2.240 -0.0149  0.1618  0.1331
23481W        W38328  12.454  11.000   3.310 -0.2807  0.0740 -0.2006
23482W        W38329   2.726   1.961  17.313  0.3779  0.1122  0.0987
23483W        W38330   6.603  10.008   6.183 -0.1140 -0.1379 -0.0901
23484W        W38331   5.565  16.092  13.173 -0.3320  0.1112 -0.0637
23485W        W38332  12.338   3.809  17.016  0.0834  0.0866 -0.4835
23486W        W38333  16.144  14.917   3.160  0.3680  0.1680  0.1243
23487W        W38334  14.053   0.411  13.787 -0.1969 -0.0066  0.0414
23488W        W38335  10.227  14.925  13.117  0.0516 -0.0433 -0.0853
23489W        W38336   0.029  13.684   5.483 -0.2710 -0.3365  0.2161
23490W        W38337   5.825  16.364   4.185  0.0763 -0.2255 -0.0968
23491W        W38338  10.911  12.488   0.318 -0.1461 -0.1206 -0.0156
23492W        W38339  11.980   0.739  12.434 -0.1850 -0.1621  0.0074
23493W        W38340  15.957   9.282   4.083 -0.3733  0.2986 -0.1042
23494W        W38341   6.938   6.321   4.005 -0.0466 -0.3025 -0.3380
23495W        W38342  17.195   3.084  13.850 -0.1228  0.0821  0.0250
23496W        W38343   1.032  14.448   2.099  0.0298  0.1789  0.2696
23497W        W38344  11.455  12.880  13.590 -0.0572  0.1587 -0.0459
23498W        W38345   6.133   6.227   3.613  0.0874  0.0999  0.0068
23499W        W38346   7.365   2.701  12.426  0.0747 -0.0904 -0.2804
23500W        W38347   3.454   7.567   3.109 -0.0511 -0.0589 -0.3639
23501W        W38348  14.752  13.758   1.134 -0.1806 -0.0222  0.1867
23502W        W38349  12.064  10.583   4.271  0.0146 -0.0223  0.0559
23503W        W38350  17.650   5.066   5.947 -0.1209  0.2421  0.2563
23504W        W38351  14.172  14.494   2.331 -0.1080 -0.2206  0.0457
23505W        W38352   3.811   4.691  13.851  0.0601 -0.4057  0.0361
23506W        W38353   5.970  10.974  15.836 -0.0401 -0.1451  0.2434
23507W        W38354   9.170  15.899   4.432 -0.0689 -0.1419 -0.2085
23508W        W38355   9.718   9.176  16.590 -0.1147 -0.0993  0.1782
23509W        W38356  15.312  15.170  13.481  0.0584 -0.3401 -0.4402
23510W        W38357   9.542  15.707  13.602 -0.0446  0.0774  0.0227
23511W        W38358   5.786  10.762   0.908  0.1676  0.2040  0.0772
23512W        W38359   7.588   5.205  17.358 -0.0277  0.0719  0.1328
23513W        W38360  10.609  11.397   3.404 -0.0704  0.0284 -0.0817
23514W        W38361   0.656   2.582  13.776  0.0624  0.0707 -0.1654
23515W        W38362   4.333  12.799  13.761 -0.0203 -0.2366 -0.2104
23516W        W38363   6.069   6.144   4.954 -0.0752  0.1294 -0.0179
23517W        W38364  14.728  16.992  16.405  0.0991 -0.0282  0.1628
23518W        W38365   9.689   0.408  15.880 -0.0470 -0.2743  0.1990
23519W        W38366  12.854  11.222  14.064  0.1672  0.0962 -0.0735
23520W        W38367  12.491  10.970  14.830  0.0226  0.3406 -0.2951
23521W        W38368   3.544   7.008   3.763  0.3681  0.0939  0.0992
23522W        W38369  13.616   0.443   1.230 -0.1071  0.2740 -0.0581
23523W        W38370   3.864   7.282   4.857  0.1818  0.0455  0.1734
23524W        W38371   1.843   4.993  17.440  0.0620 -0.0062 -0.1660
23525W        W38372   6.654   4.871   0.757  0.3683  0.3439 -0.0486
23526W        W38373   9.138   1.780  14.173  0.3460  0.0504  0.2056
23527W        W38374   2.607   7.447   5.524  0.1578  0.1319 -0.0695
23528W        W38375   6.632   2.163  15.030  0.1992  0.0228 -0.1656
23529W        W38376   3.721  13.155  16.206 -0.1981 -0.1224  0.0365
23530W        W38377   8.958  17.333  11.820  0.2851  0.2041 -0.1535
23531W        W38378  16.448  13.492  13.511  0.0741 -0.0824  0.0900
23532W        W38379   9.318   4.777  16.699  0.0197 -0.3560  0.1191
23533W        W38380  15.790  12.531  15.162 -0.1144 -0.0248  0.0522
23534W        W38381   6.608   5.246  12.253  0.1223  0.0605 -0.0950
23535W        W38382   3.013  10.927   5.379 -0.0042  0.0882 -0.0074
23536W        W38383   3.934   3.065   6.454  0.2439 -0.1459  0.0906
23537W        W38384   2.928   5.418   4.605  0.0553  0.0662 -0.1436
23538W        W38385   8.299   0.780   5.918  0.1100  0.2906  0.0315
23539W        W38386  14.953  15.931   2.181 -0.0936 -0.0938  0.0656
23540W        W38387   9.929   8.669  11.938  0.0553  0.1971 -0.0957
23541W        W38388   3.047  11.594  14.971  0.2199 -0.1195 -0.1938
23542W        W38389  10.162  10.987   2.670  0.1391 -0.2499  0.2863
23543W        W38390  15.835  16.976  13.634 -0.2346  0.0489 -0.3794
23544W        W38391  10.451  13.428  11.686  0.1816  0.1068 -0.1940
23545W        W38392  11.142   9.975   5.818  0.5269 -0.4974  0.0035
23546W        W38393  11.100   9.827  14.817 -0.0131 -0.0396  0.0054
23547W        W38394   9.902  12.587   0.764  0.0225 -0.0967 -0.0222
23548W        W38395   9.281   0.180   2.215  0.0675 -0.1486 -0.2752
23549W        W38396   1.518   5.016  10.524  0.0084 -0.0027 -0.1099
23550W        W38397   2.470   0.520  17.116  0.0026  0.3247  0.2040
23551W        W38398  13.368  11.080  12.926  0.1575 -0.0761  0.0893
23552W        W38399  17.567   0.711   4.367 -0.0065  0.0655 -0.1133
23553W        W38400  16.727  15.680  15.093 -0.3850  0.1034  0.1420
23554W        W38401   4.457  14.305   3.586  0.1999  0.2193  0.0963
23555W        W38402   7.498   8.190   5.009  0.0752  0.0129  0.3168
23556W        W38403  14.185   6.936   5.803 -0.0225  0.2588 -0.0224
23557W        W38404   8.084  17.618   3.257 -0.0158  0.1094 -0.0113
23558W        W38405   2.839  10.253  15.488  0.1276 -0.0348  0.0973
23559W        W38406  17.102  12.760  13.517 -0.0874  0.0710  0.5608
23560W        W38407   6.196   7.909   2.955  0.3208  0.0232 -0.2012
23561W        W38408  13.104   8.441  17.020 -0.2056 -0.0559  0.1333
23562W        W38409  16.265  16.926  14.077 -0.2861  0.0114  0.1378
23563W        W38410  11.572  10.042   6.458 -0.1990 -0.0025  0.0602
23564W        W38411  13.212   8.534  14.973  0.1426 -0.0401  0.3780
23565W        W38412   9.575   2.782  16.869  0.1513 -0.0164  0.1937
23566W        W38413   2.954  14.389   3.281  0.1268  0.2815 -0.1211
23567W        W38414  13.245   0.847   3.105  0.1820 -0.2106 -0.2940
23568W        W38415  13.512  10.950  13.853  0.0870 -0.2898  0.0760
23569W        W38416  13.043   4.643   0.169  0.2209  0.0822  0.0683
23570W        W38417   4.034   9.625   4.215 -0.0450 -0.1229  0.2214
23571W        W38418   1.396  17.261   3.770  0.0058  0.2787 -0.0138
23572W        W38419  17.402   5.424   5.608  0.1075  0.1152 -0.1286
23573W        W38420   1.626   6.937   0.888 -0.2408 -0.1097 -0.2629
23574W        W38421  16.180   3.803   1.546  0.1368  0.1228 -0.3723
23575W        W38422   4.344  16.491   5.191 -0.0621 -0.0690  0.1934
23576W        W38423  12.052  10.855  17.315 -0.0512  0.1634  0.0192
23577W        W38424  11.110   4.615   0.555  0.2471 -0.2261  0.0090
23578W        W38425  16.927   2.053  17.123 -0.1006  0.0971 -0.2368
23579W        W38426   2.848   4.380  14.988 -0.4068 -0.0584 -0.1194
23580W        W38427  17.354  10.075   1.740 -0.0848  0.1158  0.2107
23581W        W38428   0.141   9.877  15.449  0.0454 -0.1343 -0.1789
23582W        W38429  14.598   0.279  13.791  0.3589  0.1868  0.0511
23583W        W38430   2.908   3.311  16.459  0.0510 -0.0144 -0.1553
23584W        W38431   1.180   5.473   3.284 -0.0173  0.4507  0.1665
23585W        W38432  15.473   3.114   6.072  0.0691  0.0251  0.3609
23586W        W38433   2.098  13.967  16.160  0.1901 -0.4405 -0.0816
23587W        W38434   1.707  15.516  13.711  0.1777 -0.3290  0.0880
23588W        W38435   9.354  11.379   4.601 -0.1022 -0.0712 -0.1321
23589W        W38436  12.817   6.454  14.899  0.1066 -0.1137  0.1563
23590W        W38437   6.501  10.206  15.920  0.0346 -0.2647  0.0758
23591W        W38438   3.496  15.831   1.689  0.1072  0.1609 -0.3623
23592W        W38439  14.795  10.128   5.523 -0.1252  0.2720 -0.1515
23593W        W38440   7.499   7.140  12.050  0.0992 -0.0966  0.2113
23594W        W38441  15.756  16.085   1.835 -0.1864  0.4212  0.1005
23595W        W38442   6.685   8.402   4.358 -0.1039 -0.1225 -0.0328
23596W        W38443  12.410   5.242   3.462  0.2624  0.2639  0.1665
23597W        W38444   4.527   6.061   1.643 -0.0577 -0.1059  0.0948
23598W        W38445  14.945   1.142   4.827 -0.0014 -0.1767  0.0945
23599W        W38446   7.066  15.715   1.797  0.1712 -0.0480  0.0343
23600W        W38447   4.154   7.215   3.140 -0.2475 -0.3060 -0.1991
23601W        W38448  15.830  10.707   2.550 -0.1595  0.2526 -0.0956
23602W        W38449  10.630   3.029  14.509 -0.0925  0.2380  0.1091
23603W        W38450  12.138   7.482  12.939 -0.0246 -0.0551  0.4130
23604W        W38451   9.137   6.543  17.239 -0.1154 -0.4060 -0.1276
23605W        W38452  14.989   5.907   6.107  0.1039  0.2646 -0.0450
23606W        W38453   2.270  11.271  12.919 -0.0278  0.3998 -0.1685
23607W        W38454  11.828   1.803   3.002 -0.0935  0.2752  0.0713
23608W        W38455  13.111  12.926   2.566  0.1824 -0.0065  0.0643
23609W        W38456  11.601   3.417  15.966 -0.1215  0.0453  0.1458
23610W        W38457   9.963  14.860  16.291  0.0263  0.2048  0.2078
23611W        W38458   8.447  14.953  14.261 -0.5233  0.2687  0.2518
23612W        W38459   1.674   3.114  12.099  0.0605 -0.3701 -0.4166
23613W        W38460  10.232   2.253   0.384 -0.1925 -0.0301  0.0098
23614W        W38461  11.854   7.514   2.534  0.2887  0.4881 -0.0464
23615W        W38462   5.990   9.908   3.781 -0.0307 -0.4051 -0.0311
23616W        W38463  10.687  15.320  12.773 -0.3535 -0.1118  0.0972
23617W        W38464   7.960  10.209  15.849 -0.3273  0.1901  0.0011
23618W        W38465   4.266  17.243  15.289 -0.3935 -0.0037 -0.0303
23619W        W38466  14.634   8.910  13.551 -0.0692 -0.3445 -0.3235
23620W        W38467  16.547   8.630   4.735  0.1308  0.3812 -0.0244
23621W        W38468  10.040  14.503  15.457  0.0361  0.0432 -0.2108
23622W        W38469  16.211   0.058  13.043  0.3266  0.1225  0.0723
23623W        W38470  13.265   0.802   4.221  0.3531 -0.1517  0.1877
23624W        W38471   4.365   2.327  15.237  0.1718 -0.2218 -0.0285
23625W        W38472   1.848   6.035   3.906 -0.1124 -0.0335 -0.1222
23626W        W38473   9.464  16.574  16.970 -0.0833  0.3473 -0.1099
23627W        W38474  17.207  10.981  14.736 -0.2747 -0.0095  0.0397
23628W        W38475  11.567  10.854  16.469  0.1062 -0.0744  0.1949
23629W        W38476   2.640   6.742   1.037 -0.2606 -0.0789  0.0725
23630W        W38477   1.323   1.965  12.513 -0.0835 -0.2521 -0.1040
23631W        W38478   0.327   0.688  16.245  0.0095  0.1661  0.0857
23632W        W38479  10.904   1.532  12.900  0.0341  0.0480  0.1699
23633W        W38480  14.264   6.889   5.191 -0.0230  0.0133  0.3616
23634W        W38481   0.900   5.946  11.916 -0.1568  0.1970  0.0473
23635W        W38482   7.701  11.694  14.038  0.1759  0.1820 -0.2144
23636W        W38483  15.118   5.313   4.870 -0.1775  0.2428 -0.2018
23637W        W38484   9.821   4.316  12.595  0.0706  0.0542  0.3952
23638W        W38485  10.214   4.218   3.982 -0.1532  0.1917  0.1028
23639W        W38486   4.126  11.484  15.336 -0.0973  0.2693 -0.0792
23640W        W38487  10.939  10.131  13.491 -0.2611 -0.1895 -0.1053
23641W        W38488   6.845   0.750  16.071 -0.0133  0.0293 -0.1758
23642W        W38489   4.903  17.010   1.245  0.1960 -0.0706  0.1244
23643W        W38490   5.155  10.968   4.784  0.0860 -0.2862  0.5405
23644W        W38491   5.329   4.073   2.605 -0.1451 -0.0944  0.0303
23645W        W38492   9.722  13.799  13.932 -0.1047  0.2311 -0.0698
23646W        W38493  15.497  14.402   0.235 -0.1463  0.2116  0.0262
23647W        W38494  12.713  12.395  17.636 -0.0656  0.2777  0.0923
23648W        W38495  11.437  13.442  17.463  0.1062 -0.0730 -0.1264
23649W        W38496   5.936   8.965  15.588  0.0576  0.1315 -0.1402
23650W        W38497  15.625  13.858   1.866  0.0692 -0.0212 -0.0802
23651W        W38498   7.395   6.675   1.672 -0.1345 -0.3047  0.3821
23652W        W38499   5.999   7.664  11.863  0.0116 -0.2168  0.2636
23653W        W38500  12.142  13.645   0.524 -0.0094 -0.0872 -0.1156
23654W        W38501  14.837   3.569   0.575  0.2809 -0.1061 -0.3208
23655W        W38502   5.159  17.230   4.115  0.2574 -0.0424 -0.1558
23656W        W38503   2.983   7.922   2.366  0.1957 -0.0096 -0.2460
23657W        W38504  13.277   4.932   4.331  0.0249 -0.2252 -0.1703
23658W        W38505   3.292   5.417   3.082 -0.0943  0.2824  0.2775
23659W        W38506   4.182   6.420   1.615  0.0753 -0.0898  0.3254
23660W        W38507  15.001  13.506  15.961 -0.1878 -0.0195  0.1253
23661W        W38508  10.778   5.873  13.643  0.0381 -0.3249 -0.0535
23662W        W38509  15.632  13.177  17.141 -0.1901 -0.0089  0.2264
23663W        W38510  11.319   7.661   1.875  0.3357  0.2126  0.1211
23664W        W38511   8.208   8.943  15.450  0.0794 -0.0353 -0.2533
23665W        W38512   1.636  11.445   1.202  0.0168 -0.3643  0.1489
23666W        W38513  13.079   8.603  13.983 -0.0590 -0.3536 -0.1471
23667W        W38514  16.070   5.624  16.751  0.0426  0.1906 -0.1720
23668W        W38515   1.205   0.235  15.499  0.3032  0.2394  0.3915
23669W        W38516   5.703   5.683   2.363 -0.1744  0.1339  0.1220
23670W        W38517   9.605   6.918   1.751  0.0452 -0.1421 -0.0145
23671W        W38518   1.327   3.949   5.386  0.2333 -0.0197 -0.1790
23672W        W38519  17.573   9.049   2.325 -0.0827 -0.0413  0.2181
23673W        W38520  11.609  13.073   7.127  0.0164  0.1082 -0.2129
23674W        W38521  16.324   7.314   3.380  0.3672 -0.0247 -0.0013
23675W        W38522   4.813   6.288  16.565 -0.2117 -0.1203  0.1401
23676W        W38523   7.820   5.373  12.130 -0.0954  0.1101  0.2346
23677W        W38524   3.563  14.568  15.496  0.2486  0.0537  0.0427
23678W        W38525  17.141  16.451   4.187 -0.0499  0.1210 -0.0866
23679W        W38526   2.102   1.068   3.053  0.2579  0.1168 -0.0093
23680W        W38527  16.427  14.718  16.430  0.3056 -0.0767  0.1221
23681W        W38528  14.302   9.398   6.235  0.2041  0.2557 -0.3342
23682W        W38529  13.665  14.376  13.124 -0.1837 -0.0068 -0.1258
23683W        W38530   9.945  15.279   7.539 -0.1074 -0.1898  0.0017
23684W        W38531   7.852   2.602  16.426 -0.0774  0.3088 -0.2661
23685W        W38532   9.348   2.166   6.868 -0.1337  0.0257  0.0580
23686W        W38533  14.966  16.075  14.067 -0.1993 -0.1117 -0.2115
23687W        W38534   7.737   3.667   3.824 -0.1578  0.1266 -0.1846
23688W        W38535   9.442   5.287  12.532 -0.1342  0.1116 -0.0489
23689W        W38536   2.473   5.300   3.876 -0.2027  0.1098  0.0748
23690W        W38537   9.512   1.594  15.482 -0.1450  0.0663  0.0705
23691W        W38538   8.891   4.490   2.707 -0.1938  0.2627  0.0248
23692W        W38539  16.780   0.261  14.879 -0.2173 -0.1003  0.2432
23693W        W38540  11.004   7.419   1.482 -0.1471 -0.1086 -0.0838
23694W        W38541  12.973   8.134  14.800  0.1811  0.0412 -0.0700
23695W        W38542  15.547   1.408  12.526  0.2558  0.0206  0.3938
23696W        W38543   4.718  17.385   0.935 -0.1945 -0.0714 -0.0244
23697W        W38544   8.893   6.533   3.615 -0.1429  0.4367 -0.0303
23698W        W38545  16.989   5.497   6.734 -0.2546 -0.1337  0.0772
23699W        W38546  11.470   4.533  15.331 -0.2445  0.1835  0.0838
23700W        W38547  10.687  15.221   6.704  0.1411 -0.0837  0.0399
23701W        W38548  11.629  13.087   2.679 -0.4551 -0.1408  0.0320
23702W        W38549   2.204   2.596   0.319 -0.0279 -0.1188  0.2038
23703W        W38550   0.190  11.126  11.945 -0.2624 -0.2828  0.0314
23704W        W38551  10.904  17.206   0.663 -0.0577 -0.4939  0.0146
23705W        W38552  12.516   2.248  17.241 -0.0234 -0.1347 -0.0423
23706W        W38553   2.015  15.061   3.802 -0.1338 -0.1394 -0.0780
23707W        W38554   7.487   0.045   1.122 -0.1080 -0.3228  0.1028
23708W        W38555   8.517   3.671   2.653  0.1331  0.1476 -0.0493
23709W        W38556   9.332  16.636  12.310  0.0107 -0.2627 -0.0138
23710W        W38557   6.914   7.923  16.059 -0.1525  0.0850  0.2358
23711W        W38558  17.478  16.084   4.373 -0.1326  0.1555  0.0457
23712W        W38559  11.077   6.107   3.595 -0.0517 -0.0089 -0.1974
23713W        W38560   5.413   4.997   0.764 -0.0803  0.2989 -0.0138
23714W        W38561  15.440   3.086  16.567 -0.1394 -0.2081  0.0762
23715W        W38562   2.799   4.976   4.805 -0.1666  0.1057 -0.1428
23716W        W38563  13.379  14.439   5.476  0.1895  0.0598 -0.2286
23717W        W38564   9.483  16.681  16.446  0.1791  0.1533 -0.0137
23718W        W38565  16.576   3.138   3.012 -0.3080  0.0756  0.0797
23719W        W38566   6.751   5.648  16.376 -0.0391 -0.0390  0.2070
23720W        W38567  15.729   5.649  17.384 -0.1390  0.1467 -0.0087
23721W        W38568   3.700  15.351   4.166 -0.0243 -0.1233 -0.1498
23722W        W38569  14.636  13.853   4.325 -0.0228  0.0558 -0.0903
23723W        W38570   4.521  14.867  15.719 -0.3221 -0.1938  0.1139
23724W        W38571   4.544  17.384  15.920  0.2141 -0.0104  0.0425
23725W        W38572   7.298   8.309  14.152 -0.3661  0.0173  0.1717
23726W        W38573  12.580   3.661  15.900 -0.0002 -0.0536 -0.1427
23727W        W38574   3.631  11.375  16.994  0.1427  0.0639  0.5669
23728W        W38575   0.942   2.975  16.046  0.1488 -0.0988  0.2250
23729W        W38576   8.190  12.318   0.863  0.1860 -0.1623 -0.0586
23730W        W38577   7.565   7.857  15.306  0.1528  0.1077 -0.0714
23731W        W38578   2.298  13.528  13.348  0.1363 -0.1687 -0.1659
23732W        W38579   1.050   2.588   3.096  0.1090 -0.1375  0.0804
23733W        W38580  16.756   0.111  16.341 -0.1103 -0.1227  0.0293
23734W        W38581   2.809  12.817   2.183 -0.0658 -0.0178 -0.0538
23735W        W38582   4.649   7.855   5.056 -0.0819  0.0139 -0.1649
23736W        W38583  17.352   8.477   4.354  0.1560  0.1313 -0.0958
23737W        W38584   2.347   5.965   5.882  0.0675 -0.0725 -0.1790
23738W        W38585  12.644   5.997   0.109 -0.0408 -0.0458 -0.3933
23739W        W38586   9.819  14.435   7.017 -0.0054 -0.1103  0.0744
23740W        W38587  14.835   3.878   0.209 -0.1100  0.0005 -0.1090
23741W        W38588  12.254   3.475   0.090  0.0404 -0.1892  0.0501
23742W        W38589  12.456  11.310   2.167  0.0434 -0.1022  0.2331
23743W        W38590  15.421  11.004   1.380 -0.1638  0.1724  0.1211
23744W        W38591   8.352   5.650  16.936  0.2222 -0.0794 -0.2038
23745W        W38592   7.793   2.607  12.175 -0.0909 -0.0625 -0.2084
23746W        W38593   9.333   6.758  14.374 -0.2062  0.2066 -0.1676
23747W        W38594  15.281   8.700  15.684  0.4105 -0.0522  0.2670
23748W        W38595  13.326   2.712   4.013  0.0969 -0.0117  0.0470
23749W        W38596   6.649   2.224   0.183 -0.1661  0.1159  0.0287
23750W        W38597  11.335   8.065  15.537  0.1048  0.1872  0.0355
23751W        W38598  13.786   0.287  17.259 -0.1346  0.0362  0.1362
23752W        W38599   4.385   6.031  13.283  0.0495 -0.0797 -0.0938
23753W        W38600   9.867   5.163   0.322  0.3686  0.0691  0.1286
23754W        W38601   3.077  12.360   2.287  0.2047  0.2114 -0.3180
23755W        W38602   6.320   0.587  14.643  0.1531 -0.2835 -0.0007
23756W        W38603   0.321  10.142  14.234 -0.0949  0.0516  0.4030
23757W        W38604  13.537   7.435  17.277 -0.3091  0.1075 -0.1817
23758W        W38605   7.236  14.486   5.133 -0.1371 -0.0461  0.0250
23759W        W38606  14.143   3.957  12.058  0.0732 -0.3876 -0.1358
23760W        W38607   3.573  11.123  11.385 -0.0519  0.0105 -0.2620
23761W        W38608   8.562  14.978   5.785  0.0983 -0.4337 -0.2135
23762W        W38609   5.549  14.563  12.807 -0.0885 -0.1598  0.0867
23763W        W38610   4.229   5.493   0.520 -0.0443  0.0589 -0.0220
23764W        W38611   2.890   7.251  13.724  0.1983 -0.0210  0.2035
23765W        W38612   7.864  11.395  13.587 -0.0693 -0.1977 -0.1508
23766W        W38613   7.331   4.509  15.384 -0.1321 -0.0925  0.1776
23767W        W38614   2.716   6.668   6.498 -0.1176 -0.1213 -0.1115
23768W        W38615   0.933  11.209   1.864  0.0603 -0.0256  0.2890
23769W        W38616  14.790   0.509   4.145 -0.0061  0.0387  0.1775
23770W        W38617  14.562   2.398  12.007  0.1023 -0.0344  0.0228
23771W        W38618   0.453   8.911  15.348 -0.0741 -0.1692  0.0565
23772W        W38619  11.863  12.153   0.188 -0.1710  0.0419  0.1095
23773W        W38620   3.068  16.350   4.832  0.0907  0.0313 -0.2511
23774W        W38621  16.713   8.325  14.744 -0.5174 -0.0321 -0.2365
23775W        W38622   7.882  14.716  15.515  0.1831 -0.0624 -0.0733
23776W        W38623   1.131  10.550  15.910  0.0466  0.0407 -0.1130
23777W        W38624   8.026   2.469   2.210  0.0356  0.3463 -0.0708
23778W        W38625   4.835   1.050  17.041  0.1404 -0.4035 -0.0554
23779W        W38626  16.871   7.648   6.327  0.0672 -0.1396  0.0990
23780W        W38627   1.411   0.032  14.464  0.1948  0.2065 -0.0083
23781W        W38628   2.930   5.477   3.985  0.4129  0.1578  0.6370
23782W        W38629   8.949   0.773   6.095 -0.0891  0.1264 -0.0678
23783W        W38630   5.789  11.156  12.118 -0.0287 -0.3325  0.1220
23784W        W38631   0.669   3.062   4.229 -0.1536 -0.0157  0.3178
23785W        W38632   5.305  17.081   3.610 -0.1498  0.0123  0.4103
23786W        W38633  15.228  13.371  16.983  0.0475 -0.1350  0.1852
23787W        W38634   0.213  13.420  15.100  0.2124 -0.3220  0.0811
23788W        W38635   3.277  10.379  13.220 -0.1815 -0.3152  0.1961
23789W        W38636  14.141  11.112  13.497  0.0456 -0.2108  0.3416
23790W        W38637   8.261   9.700  14.955 -0.2629 -0.0733  0.0718
23791W        W38638   5.173  15.661   0.797 -0.4258  0.3469  0.2570
23792W        W38639   4.171   2.155  12.050  0.1128 -0.0401 -0.0203
23793W        W38640   5.887   2.854   0.557  0.0018  0.2726 -0.1094
23794W        W38641  11.287  10.554  13.472 -0.1461 -0.2107  0.2055
23795W        W38642  17.139   4.525   2.908 -0.0110 -0.3087 -0.0671
23796W        W38643  14.731  13.346  17.212  0.2083 -0.0149  0.0601
23797W        W38644   4.834  16.761   0.384 -0.0195 -0.2244  0.0860
23798W        W38645  10.988   2.881  16.522  0.0497 -0.1053 -0.2601
23799W        W38646   9.773  14.820   2.289 -0.0948  0.1416  0.1071
23800W        W38647   3.340  11.547  12.424 -0.2072 -0.0024 -0.1004
23801W        W38648  11.562   9.366   4.094  0.0165 -0.0203 -0.2802
23802W        W38649  16.426  14.358   2.390 -0.0155 -0.2313 -0.0808
23803W        W38650  11.858   8.925   3.971  0.0189  0.1875  0.0048
23804W        W38651  10.064   5.055   2.688  0.2475 -0.0470 -0.0864
23805W        W38652  13.534  10.802   6.324 -0.3068 -0.0460  0.3345
23806W        W38653   5.758   7.157  12.054 -0.1595  0.1784  0.0725
23807W        W38654   1.943  13.551  11.188 -0.0959 -0.2735 -0.2472
23808W        W38655   8.223  16.467  14.638 -0.3716 -0.1377 -0.0109
23809W        W38656   5.992  14.407  17.673 -0.0470  0.0997 -0.0436
23810W        W38657   7.333  12.122   0.573 -0.2636  0.2059  0.0606
23811W        W38658  12.171   5.679  15.353 -0.2544  0.3883  0.2059
23812W        W38659   0.144  12.840  16.102  0.0111 -0.1754 -0.0493
23813W        W38660   7.869   5.234  16.908  0.1542 -0.0836 -0.0155
23814W        W38661  12.283  14.192  14.845  0.1660 -0.0716  0.4908
23815W        W38662   1.630  12.614  13.597  0.2468 -0.3507  0.5139
23816W        W38663   0.571   4.838   0.172  0.2274  0.0829 -0.1420
23817W        W38664  15.623  16.941   4.425  0.1769  0.3844 -0.5327
23818W        W38665  13.965   2.187  17.354  0.1558 -0.1140 -0.2256
23819W        W38666   9.064   5.766  13.535 -0.0023  0.0362  0.1636
23820W        W38667   8.007  10.160   2.420  0.1967  0.0361  0.1096
23821W        W38668   1.102  10.755   4.645 -0.0804  0.0937 -0.2474
23822W        W38669  14.007   8.171   6.062 -0.1509  0.0338 -0.0314
23823W        W38670  13.134  12.713   0.810  0.0203  0.0596  0.2740
23824W        W38671   2.217   5.818  13.318 -0.2565 -0.1958 -0.0814
23825W        W38672   8.419  16.345  15.225 -0.0051 -0.0685  0.0272
23826W        W38673   5.305   3.089   0.904  0.2732  0.2929  0.2081
23827W        W38674  13.753   8.586   5.828 -0.0431  0.0942 -0.3106
23828W        W38675  10.381  13.678   2.453  0.1084 -0.0846  0.0267
23829W        W38676   0.066  11.975   5.783  0.0790 -0.1174  0.0533
23830W        W38677   4.743  14.896   2.965  0.0975  0.1296  0.0528
23831W        W38678   9.260   6.115  17.032  0.2317 -0.3435  0.0413
23832W        W38679  11.161  15.241   2.983  0.3092 -0.1284  0.1267
23833W        W38680   3.957   1.345  16.982 -0.2177 -0.1730  0.1837
23834W        W38681   0.457   9.455   4.465 -0.1130  0.2876  0.1171
23835W        W38682  14.263   1.870   0.500  0.0253  0.1533 -0.1852
23836W        W38683   6.624   2.218   2.018 -0.0577 -0.0246 -0.1268
23837W        W38684   7.733  16.282   3.312 -0.0925  0.0469 -0.2787
23838W        W38685   1.838  15.944  17.394 -0.0972 -0.2977 -0.2661
23839W        W38686   6.653   9.070   5.950  0.1122 -0.0708  0.1190
23840W        W38687   9.003   3.850  16.379 -0.1691  0.1135  0.1904
23841W        W38688   4.682   1.495   2.058 -0.0590 -0.2471 -0.2314
23842W        W38689   1.903  13.678  16.481  0.2262 -0.1164  0.0522
23843W        W38690   7.146   1.691   3.229  0.3080  0.0716  0.1105
23844W        W38691  16.866   5.012   2.779  0.1240 -0.2905 -0.2761
23845W        W38692  16.557  11.182   5.976  0.0834  0.3399 -0.0073
23846W        W38693  14.003  14.140   5.258  0.3895  0.1595  0.0952
23847W        W38694  12.544  11.838  15.740 -0.0583  0.2425  0.0616
23848W        W38695  13.737  15.071  15.220  0.1139 -0.2354  0.2537
23849W        W38696  17.079  13.496  14.088 -0.2202 -0.2545  0.1952
23850W        W38697  11.652  10.748  14.526 -0.2041  0.0319  0.1429
23851W        W38698  16.205   3.569  17.417  0.0687  0.2040 -0.1227
23852W        W38699   5.075   1.364   5.036  0.0360  0.2312  0.0230
23853W        W38700  13.424   4.004  17.332  0.0158 -0.0339 -0.0767
23854W        W38701  12.908  13.212   4.763  0.1370  0.0740  0.0171
23855W        W38702   6.453   7.261  15.572  0.1591  0.1526  0.0191
23856W        W38703   5.247  12.888   4.708 -0.1413  0.0712  0.1091
23857W        W38704   9.704  11.873  16.439  0.0288  0.0702 -0.2998
23858W        W38705   7.529  15.421  14.713 -0.1141  0.0148 -0.0009
23859W        W38706   8.542  13.217   1.223 -0.3602  0.3634  0.0558
23860W        W38707  17.564   5.291   0.935  0.2136 -0.0338  0.3747
23861W        W38708   1.506   8.916  15.393  0.1337 -0.1415 -0.2376
23862W        W38709   7.861  13.552   4.832  0.2456 -0.4234 -0.3573
23863W        W38710   2.778  14.695   1.774 -0.1359 -0.0752  0.0204
23864W        W38711  14.924   1.662   4.820  0.0461  0.1373 -0.0370
23865W        W38712  12.781   8.759  15.130 -0.0338 -0.0737 -0.2383
23866W        W38713  14.722   4.267   2.542 -0.5428  0.0220 -0.0670
23867W        W38714   4.574   8.698   6.316  0.0068  0.0242 -0.1281
23868W        W38715   8.217   8.216  12.905 -0.0510 -0.0794  0.2280
23869W        W38716   5.548   1.942  15.876  0.1544  0.4184  0.0343
23870W        W38717   4.301   6.043  11.510 -0.1879  0.1744  0.1052
23871W        W38718   5.649   1.501  15.501 -0.0671 -0.1004 -0.4010
23872W        W38719   0.305   2.041   4.060 -0.2373  0.0660 -0.3012
23873W        W38720  10.704   8.238   3.314 -0.1164 -0.3074  0.3311
23874W        W38721   3.452  13.410   4.460 -0.2800  0.3079  0.2092
23875W        W38722   9.387  15.655   6.482  0.1281 -0.0251 -0.2046
23876W        W38723  14.427   4.831  16.887 -0.1090  0.0592  0.1207
23877W        W38724   0.599   8.104  12.546  0.4160  0.2063 -0.1026
23878W        W38725   5.969   9.111  17.329  0.2870 -0.3946 -0.3572
23879W        W38726   1.294  16.507   1.069  0.2104  0.0631  0.4041
23880W        W38727   8.527   3.972  17.339 -0.0705 -0.0293  0.1232
23881W        W38728   8.554  11.298   2.531 -0.0167 -0.1014 -0.0740
23882W        W38729  14.363  12.410  17.624 -0.2007  0.1017 -0.3156
23883W        W38730   9.557   5.626   1.640  0.0425 -0.0188 -0.0679
23884W        W38731   9.107   1.035   0.721 -0.3770 -0.0589  0.2743
23885W        W38732  17.229   3.501   1.744  0.1947  0.0158  0.1933
23886W        W38733   3.113   2.723  12.844 -0.0179 -0.0185 -0.1693
23887W        W38734  15.565  12.786   2.608 -0.1941 -0.4037  0.4447
23888W        W38735   4.179  17.042   5.118 -0.0763  0.4173 -0.1188
23889W        W38736   9.568   6.972  13.642 -0.0503  0.4075  0.0373
23890W        W38737   5.654  11.623   3.362  0.5583 -0.2553 -0.1017
23891W        W38738  14.318  15.896  13.577 -0.0603  0.0152 -0.0879
23892W        W38739  12.045   7.523  16.810  0.0487 -0.1226 -0.0454
23893W        W38740  13.483  12.407  13.164  0.3207 -0.1054 -0.2328
23894W        W38741  14.356  13.034  15.322  0.2316  0.1157  0.0340
23895W        W38742  16.006   6.158  15.938  0.1122 -0.1551 -0.0401
23896W        W38743  15.628   8.713  16.129 -0.1054  0.7959  0.0941
23897W        W38744   0.649  10.172  15.300  0.4626 -0.1478 -0.0891
23898W        W38745  14.866  16.326  14.768  0.3120 -0.0321 -0.0266
23899W        W38746  11.000   8.784  14.729  0.1400 -0.2675 -0.1517
23900W        W38747   4.136   6.538  14.850  0.1711  0.0362  0.0121
23901W        W38748  16.202   2.027  15.729  0.1651  0.0040  0.1532
23902W        W38749   2.350   4.481  15.191 -0.1587  0.2297  0.0225
23903W        W38750  11.991   7.644   1.142  0.1073 -0.2287 -0.0844
23904W        W38751  14.196   6.468  13.756 -0.0643 -0.0154  0.2473
23905W        W38752  12.055   7.394  17.290 -0.4062  0.0303 -0.0061
23906W        W38753  13.300  12.374   6.493  0.3525  0.2106  0.1509
23907W        W38754   9.796   9.093   1.168 -0.3262  0.0086  0.1881
23908W        W38755   2.134  10.248  13.102  0.2666  0.0454 -0.1099
23909W        W38756  16.017   3.446  11.884  0.0702  0.0783  0.3868
23910W        W38757  12.021   1.639   5.566  0.1017 -0.0519 -0.0802
23911W        W38758  15.960  15.573  16.113 -0.0465 -0.1102 -0.1959
23912W        W38759   3.758   4.641  15.045 -0.3308 -0.4425  0.2144
23913W        W38760   5.820   2.344   3.613  0.1418 -0.0849  0.2949
23914W        W38761   7.856   4.120   5.067  0.2943 -0.1231 -0.1908
23915W        W38762  13.297   7.989  15.155  0.2479 -0.0783  0.3182
23916W        W38763   7.619  13.613   5.924 -0.1273 -0.0213  0.0880
23917W        W38764   5.798   6.471  13.200  0.0766  0.1465 -0.0872
23918W        W38765   4.208   9.359   6.009  0.2806  0.1983 -0.1259
23919W        W38766  15.551  14.952   1.580 -0.1768  0.2457  0.0209
23920W        W38767  12.988  12.625  13.603  0.2023  0.1485  0.1799
23921W        W38768  11.971   1.140   4.889 -0.1672 -0.2844  0.1576
23922W        W38769  17.078  12.483  16.630  0.1223  0.2132 -0.1669
23923W        W38770   5.650  14.403  11.661  0.3032 -0.3811 -0.0452
23924W        W38771   9.538   5.577  13.411  0.0709  0.0385  0.0496
23925W        W38772   6.300   6.498  17.104 -0.0734  0.0734  0.0864
23926W        W38773  12.690  12.320   1.484  0.0731 -0.0440  0.1341
23927W        W38774   2.050  14.841   6.038 -0.1995 -0.1526  0.3363
23928W        W38775   4.751   5.303   0.380 -0.0156  0.0115  0.0945
23929W        W38776  15.953   8.449  15.771  0.4258 -0.3828 -0.2255
23930W        W38777   7.341  13.853  10.865  0.0880 -0.2764 -0.0245
23931W        W38778   9.417   4.603   3.764 -0.0081 -0.2467  0.1464
23932W        W38779  13.615   8.028   5.078 -0.1062  0.0894 -0.1380
23933W        W38780  10.744   5.991  12.399 -0.0722  0.2070  0.0342
23934W        W38781  14.741   3.160  13.120  0.0181  0.0574  0.2027
23935W        W38782   9.014  17.017  15.722  0.0545 -0.0315  0.1696
23936W        W38783   4.324   3.044   1.293  0.0854  0.1011 -0.1386
23937W        W38784   3.839  10.074  14.025 -0.0516 -0.2393 -0.1409
23938W        W38785  17.044   8.148   5.834 -0.2839  0.0971  0.1245
23939W        W38786  17.299   1.432   0.925 -0.2041  0.0021  0.1061
23940W        W38787  15.700  11.392   3.341 -0.2574 -0.1215 -0.2074
23941W        W38788   2.339   2.325  17.136 -0.2153  0.2273  0.0111
23942W        W38789   4.357   1.601  13.165 -0.1020  0.2243  0.0465
23943W        W38790   1.440  13.507   0.482 -0.1607  0.0399 -0.0861
23944W        W38791  14.509  11.763   3.772 -0.1033  0.2149 -0.3488
23945W        W38792   3.354  16.044  13.913  0.1318  0.1274 -0.0086
23946W        W38793  17.261  11.613  12.980  0.1092  0.0544  0.0653
23947W        W38794   3.244   5.179   4.932 -0.0821  0.0281  0.2970
23948W        W38795  12.614   8.903   0.534 -0.1133 -0.2136 -0.0010
23949W        W38796  13.279   2.343   3.066 -0.2914 -0.2451 -0.1322
23950W        W38797   8.098  16.180  11.975 -0.0400 -0.0041 -0.0794
23951W        W38798   1.139   8.639  16.399  0.0332 -0.1245 -0.1035
23952W        W38799  16.107  14.017   5.807 -0.0271  0.1032  0.1222
23953W        W38800  11.121   1.679   1.814  0.1683 -0.0073  0.1799
23954W        W38801   8.417   2.078  12.323 -0.0050  0.1681  0.0895
23955W        W38802  17.636  10.159  12.881 -0.1040  0.3379 -0.0421
23956W        W38803  16.266   7.650   4.549 -0.1269 -0.3640 -0.2154
23957W        W38804   8.033  11.076   1.491  0.1555 -0.2141 -0.0227
23958W        W38805   3.429   8.292   4.378 -0.0064 -0.0431  0.3825
23959W        W38806   8.625   5.010   3.735  0.0512 -0.3361 -0.1085
23960W        W38807   7.925  15.999   4.156  0.0156  0.0423 -0.2415
23961W        W38808  13.082   7.845  15.594 -0.2359  0.0594 -0.1262
23962W        W38809  12.330   6.949  16.099 -0.0248 -0.3996 -0.0853
23963W        W38810   2.281  10.914  16.424  0.0861  0.1605  0.0570
23964W        W38811  16.267   1.270  13.038  0.1147 -0.0180  0.0527
23965W        W38812   2.110  10.531   4.814 -0.1527  0.1158  0.1299
23966W        W38813   7.190   3.076   1.203  0.0795 -0.1996  0.0504
23967W        W38814   2.948  15.812  14.449  0.0119 -0.1101  0.2482
23968W        W38815   2.035   2.072  13.697 -0.1053 -0.0650 -0.0186
23969W        W38816  11.829  10.097  13.933  0.3485  0.0281  0.1487
23970W        W38817  13.789   2.727   3.808 -0.2167  0.0357  0.2240
23971W        W38818  13.397   6.964  15.478 -0.1249  0.2667  0.4042
23972W        W38819  14.811   1.032  11.741 -0.3438  0.0927  0.2353
23973W        W38820   0.235   9.752  14.608 -0.1512 -0.1760 -0.0640
23974W        W38821   9.948  13.640  17.644  0.0688  0.0548 -0.0562
23975W        W38822   9.261   0.904   2.754 -0.1084 -0.1114 -0.0305
23976W        W38823   7.745  10.661   3.029 -0.1527 -0.1727 -0.2319
23977W        W38824   4.531  14.059  13.769 -0.2913  0.2504 -0.1217
23978W        W38825  13.857   2.699  14.874 -0.1997  0.0612 -0.1762
23979W        W38826   9.011   1.619   3.916  0.1088 -0.1475  0.1648
23980W        W38827  17.004  17.553   3.624 -0.1902 -0.1103 -0.1713
23981W        W38828   6.361  14.102   6.257  0.1029  0.1151 -0.2595
23982W        W38829   8.160   2.538   3.191  0.4330 -0.2024  0.0084
23983W        W38830   2.906   5.133  15.866 -0.0388  0.0235 -0.1562
23984W        W38831   5.081   3.489   3.197 -0.1669 -0.4259  0.2270
23985W        W38832   5.485  15.809   3.076 -0.0112 -0.0197 -0.0183
23986W        W38833  10.473   1.220   5.698 -0.1017  0.0354  0.1408
23987W        W38834   7.924   3.475   3.164 -0.1609 -0.2364 -0.1183
23988W        W38835  12.545   4.415   5.044  0.0458  0.1727 -0.0663
23989W        W38836  14.855  12.531   4.892  0.0014  0.4283  0.0105
23990W        W38837   3.489  13.183  12.890 -0.2727 -0.1030  0.0570
23991W        W38838   5.316  16.864  13.104 -0.4516 -0.0977 -0.3994
23992W        W38839  17.448  14.319  12.288  0.4345  0.1325 -0.0132
23993W        W38840   3.156  13.066  17.456 -0.0154 -0.0350 -0.2251
23994W        W38841   1.608  14.607   4.731  0.0867 -0.2978 -0.0071
23995W        W38842  15.502   1.525   4.145 -0.0262  0.0040  0.1287
23996W        W38843  11.170   8.511  16.048 -0.0343 -0.3439 -0.0131
23997W        W38844   0.539   9.977   2.310  0.1372  0.1825  0.0450
23998W        W38845  16.202   5.936   5.861 -0.0025  0.0419  0.0284
23999W        W38846   6.124   7.746   1.398  0.1731  0.1106 -0.1446
24000W        W38847  13.854   7.806  13.832  0.0292 -0.2168  0.1467
24001W        W38848  16.262  10.318  14.569  0.0031 -0.0276  0.3942
24002W        W38849   3.298  11.502   3.609 -0.1647 -0.0126 -0.3588
24003W        W38850   1.783   6.453   2.244  0.0053 -0.1571 -0.2001
24004W        W38851   0.945  10.946  14.499  0.1528  0.1394 -0.0571
24005W        W38852   7.954   2.805  16.872  0.0743 -0.2788 -0.3152
24006W        W38853  13.390   5.769   0.850 -0.1483  0.1028 -0.0680
24007W        W38854  16.443   4.169  11.861 -0.2316  0.1450  0.2312
24008W        W38855  10.539   0.432   6.968  0.2450  0.4586  0.2632
24009W        W38856  13.020  15.616   5.634  0.1068  0.2463  0.0340
24010W        W38857  11.680  11.776   2.617 -0.1480  0.0478  0.1326
24011W        W38858   1.357   3.198  17.260  0.1090  0.1060  0.2202
24012W        W38859  13.806   7.428  14.222 -0.0399  0.1872  0.0422
24013W        W38860   1.549  12.201  13.356 -0.2714 -0.3576  0.0797
24014W        W38861  14.510  10.741   1.409  0.1767  0.1109  0.1214
24015W        W38862   6.013  16.578   5.949  0.0661 -0.0182  0.0803
24016W        W38863   7.141  10.121   5.052 -0.2188 -0.2740  0.0153
24017W        W38864  12.874  17.406   4.702 -0.2698  0.0804  0.1581
24018W        W38865   9.035   1.867   5.480  0.1160  0.0671 -0.0185
24019W        W38866   2.009  13.605   6.823  0.1448 -0.1301 -0.0441
24020W        W38867  16.289   6.425   1.609 -0.1417 -0.1243 -0.0334
24021W        W38868   8.803   8.064  14.176  0.0688  0.0754  0.4112
24022W        W38869  13.248  15.367  16.123 -0.0029  0.4431  0.0261
24023W        W38870   5.196   1.707   1.091 -0.4098 -0.0711 -0.2809
24024W        W38871   4.123   5.668   3.070 -0.3242  0.2303 -0.0060
24025W        W38872   4.851  14.281  15.612 -0.2416  0.0070  0.0713
24026W        W38873   8.797  11.685   0.935  0.1336  0.0466 -0.1453
24027W        W38874   0.649  14.608  16.647 -0.3390 -0.1454 -0.3094
24028W        W38875  13.616  15.491  14.492 -0.0085  0.1124 -0.1256
24029W        W38876   1.549   3.379   0.476 -0.1245  0.2127  0.1154
24030W        W38877  14.564  16.134   6.260  0.0117  0.1415  0.0031
24031W        W38878  16.005   6.606   2.788 -0.0187 -0.1147 -0.1370
24032W        W38879   9.808   7.327   0.761  0.1063 -0.1863 -0.0606
24033W        W38880   8.534   3.854  12.413  0.0880 -0.0596 -0.2291
24034W        W38881  16.604   2.351   2.213 -0.2019  0.1785  0.2351
24035W        W38882   4.045   1.710  12.801  0.0991 -0.2827 -0.2918
24036W        W38883  16.840   5.843  12.606 -0.0252  0.1063  0.1873
24037W        W38884   3.303  13.949   2.790  0.1433 -0.4405  0.3126
24038W        W38885  10.160   7.927   4.474 -0.1266 -0.0418 -0.0616
24039W        W38886  14.180   6.130   3.557 -0.3041 -0.0635  0.1294
24040W        W38887   1.260  14.141   5.846  0.2640  0.1255 -0.1831
24041W        W38888  15.478   6.465  17.026  0.1139 -0.0255 -0.0993
24042W        W38889  15.894   6.183  17.363  0.0218 -0.1546 -0.2658
24043W        W38890   4.781   7.906  16.265 -0.0062  0.0076  0.0625
24044W        W38891   1.450  12.777   4.909  0.0823  0.0426 -0.1028
24045W        W38892   9.591   4.343  14.467  0.0994  0.0247 -0.0464
24046W        W38893  13.436  10.039   4.325  0.0533 -0.0108  0.0197
24047W        W38894   9.867   9.114   0.302 -0.0531 -0.0474  0.2625
24048W        W38895  16.439  10.295   6.211 -0.1091  0.0119  0.0364
24049W        W38896  10.133   3.722   5.647 -0.2849  0.1066  0.1942
24050W        W38897   0.587  14.505  15.209  0.0696 -0.1543 -0.2490
24051W        W38898   1.629   9.606   4.909 -0.1877 -0.0543 -0.2169
24052W        W38899  11.551  11.629   0.827 -0.1002 -0.0409  0.1359
24053W        W38900   6.255   6.378   2.680  0.0294  0.3044 -0.2010
24054W        W38901  10.272  16.551  12.644 -0.3734  0.1318  0.1634
24055W        W38902   8.885  10.804  13.060  0.0319 -0.2916  0.2455
24056W        W38903  17.581   9.620   1.740  0.0667  0.1323 -0.1497
24057W        W38904   0.933   7.737   1.608  0.2100 -0.0620 -0.0762
24058W        W38905   2.098  10.545  12.151 -0.1247 -0.2631  0.2121
24059W        W38906   2.116  17.328   5.834 -0.0890  0.1118  0.2900
24060W        W38907   4.005   1.134  16.540  0.1613  0.1903  0.2911
24061W        W38908  15.028   1.791  16.348  0.0672  0.2539  0.0540
24062W        W38909  15.173  10.342   5.171 -0.0461 -0.2676 -0.1638
24063W        W38910   7.942   9.453  12.002 -0.3527  0.0657 -0.0775
24064W        W38911   6.226   0.725   4.129 -0.1474  0.0208 -0.2454
24065W        W38912   8.516   2.175  13.764  0.0050 -0.0161 -0.1495
24066W        W38913  15.457   9.804   0.756 -0.1135 -0.0929  0.1509
24067W        W38914  17.629   3.977   1.124 -0.1814  0.0407  0.3233
24068W        W38915   8.896   7.530   3.195  0.3004 -0.0307  0.0329
24069W        W38916  10.636  15.989   4.334 -0.1187  0.0877  0.1431
24070W        W38917  13.893   1.875   0.778  0.0158 -0.1352 -0.3353
24071W        W38918   3.610   3.310   4.174  0.0054  0.3274 -0.2129
24072W        W38919  13.432   4.154   0.722  0.1626 -0.2398 -0.1798
24073W        W38920   5.420   8.976  15.450 -0.1261  0.0115  0.2335
24074W        W38921  14.514   4.707  12.384 -0.2180 -0.0631  0.0681
24075W        W38922  15.021  14.677   5.948 -0.1044 -0.0729 -0.0163
24076W        W38923   9.311  17.371   3.027  0.1721  0.1270 -0.1836
24077W        W38924   2.434  13.735  13.819 -0.0758  0.0056 -0.2956
24078W        W38925   6.023  10.198  11.171 -0.0988 -0.2883  0.2505
24079W        W38926  11.419   8.598   5.598 -0.0010  0.4027  0.1801
24080W        W38927   6.417   6.940  14.376  0.3910  0.1375 -0.0351
24081W        W38928   7.936   3.985   0.421  0.1518  0.2868  0.0562
24082W        W38929   8.058   8.013  12.419 -0.1135  0.1587 -0.2595
24083W        W38930   0.778   6.151  14.219 -0.0311  0.1531 -0.1375
24084W        W38931   1.268  14.097  16.244 -0.1397  0.0547 -0.5525
24085W        W38932  17.669  11.457  14.567  0.1655 -0.2667  0.3894
24086W        W38933  10.110  14.079  13.050 -0.1251  0.0469  0.2232
24087W        W38934  17.477  15.748   0.078  0.1485 -0.1151  0.1236
24088W        W38935  17.397   6.473   3.599  0.0554 -0.1045  0.4469
24089W        W38936   0.870   3.795   0.385 -0.2279  0.0344 -0.1602
24090W        W38937   1.271  11.066  14.079  0.3195 -0.3042 -0.0445
24091W        W38938  14.921   0.031  14.235  0.0102  0.2325 -0.0427
24092W        W38939  15.075  11.888   0.358  0.1018  0.0036 -0.1570
24093W        W38940   7.123   7.331  12.838  0.1766  0.2433 -0.0202
24094W        W38941   7.110   9.542   0.218 -0.2371 -0.0063 -0.0499
24095W        W38942   0.609   3.627  15.368  0.1049  0.1291  0.0504
24096W        W38943   0.585  16.694   0.536  0.3137  0.1773  0.0253
24097W        W38944   3.087  15.484  16.122  0.3872  0.1964  0.0233
24098W        W38945   8.858   2.168   3.159 -0.0827  0.1447  0.1491
24099W        W38946   8.967   9.264  16.440  0.2478  0.0761  0.1033
24100W        W38947  15.936   6.834  15.420  0.4488  0.1496 -0.2292
24101W        W38948   1.031  16.804  15.377  0.1111  0.1122 -0.3857
24102W        W38949  12.264   2.323  13.331  0.2559  0.0616 -0.1844
24103W        W38950  11.795  14.689  15.679 -0.3260  0.2534  0.1028
24104W        W38951   7.700   2.869   1.944  0.1632  0.0801 -0.2477
24105W        W38952  11.926  10.442   2.854 -0.2527 -0.1550 -0.0135
24106W        W38953  11.899  12.206  17.339 -0.1825 -0.1511 -0.1287
24107W        W38954   3.194   8.939   1.166 -0.0555 -0.1689  0.0465
24108W        W38955   8.501   4.132  13.804  0.1664  0.1688 -0.1715
24109W        W38956  13.911  10.374   1.612  0.1639  0.1174 -0.0151
24110W        W38957   1.348  13.204  12.173  0.6866  0.1025  0.2120
24111W        W38958  16.432   1.097   2.805  0.6228  0.2178 -0.2731
24112W        W38959   6.843  14.330   6.190 -0.0208 -0.1059  0.0837
24113W        W38960   0.215   8.451  15.414 -0.0203  0.1014 -0.1008
24114W        W38961   1.854  10.900  16.909 -0.1054 -0.1258  0.2537
24115W        W38962   8.914  10.206  13.759  0.2188 -0.0249 -0.1551
24116W        W38963  14.867   4.534   6.096  0.0477  0.3917 -0.0665
24117W        W38964  10.739   4.497   6.251 -0.0156 -0.0846  0.0539
24118W        W38965   4.531   3.733   2.441  0.1679 -0.0917  0.0122
24119W        W38966   6.703  15.313   3.603  0.1834 -0.2123  0.0628
24120W        W38967   3.090   6.401   3.052  0.1517  0.1223  0.1521
24121W        W38968   6.997   6.118  15.644 -0.0047  0.0932 -0.1297
24122W        W38969  11.517   9.065  15.855 -0.0069 -0.0793  0.0371
24123W        W38970  16.147  10.834  15.776 -0.3253 -0.1587  0.1077
24124W        W38971  13.911  16.964  15.945  0.0096 -0.2355 -0.1654
24125W        W38972   2.169   3.562  12.734 -0.3025  0.0519  0.0507
24126W        W38973   4.176   2.025   1.046 -0.0846  0.1563  0.0020
24127W        W38974   6.875   6.569  14.350 -0.1585 -0.1263  0.0271
24128W        W38975  12.431  11.464   6.172 -0.1748  0.4329  0.0398
24129W        W38976   8.618   0.417  17.672 -0.2826 -0.1599  0.2986
24130W        W38977   1.260  12.705   3.044  0.1200  0.1136 -0.2632
24131W        W38978   7.939   2.615   4.076 -0.1993 -0.0847  0.0356
24132W        W38979  17.530   0.414  17.532  0.4187 -0.1652 -0.1857
24133W        W38980   3.819   1.081   0.975  0.2495 -0.0478  0.2109
24134W        W38981  16.385  15.898   0.913  0.0193  0.1198 -0.0921
24135W        W38982   4.103  15.817  14.421 -0.2682  0.2617  0.0068
24136W        W38983  11.642   5.746   3.885  0.0631  0.0841 -0.4186
24137W        W38984   9.683   3.798   0.103  0.0199 -0.1529 -0.0613
24138W        W38985  15.326  10.051   0.092  0.1003 -0.3701 -0.1951
24139W        W38986   5.207   3.589  12.496  0.1693  0.0341 -0.1270
24140W        W38987   6.683  16.072  16.454  0.0606 -0.2601  0.1095
24141W        W38988  11.906  11.769  17.582 -0.1062  0.2141  0.3120
24142W        W38989  16.976   6.843  16.439  0.0164  0.0065 -0.1161
24143W        W38990   4.966   3.834  16.317  0.1381 -0.1097  0.4345
24144W        W38991  16.223   0.178   0.604 -0.0152  0.1005  0.1230
24145W        W38992   5.615   1.925  16.475  0.3985  0.0499  0.1279
24146W        W38993  17.305  14.868  13.827  0.2102 -0.1102  0.2888
24147W        W38994  14.306  12.692   2.170  0.0814  0.3978  0.2008
24148W        W38995   9.028  12.401   5.007  0.0401  0.1289 -0.1050
24149W        W38996  13.258   4.092   4.534 -0.1214 -0.1013  0.1125
24150W        W38997  11.807  16.033   6.545  0.2825  0.2017  0.0027
24151W        W38998   7.038   4.155  12.466 -0.2844  0.1038  0.1699
24152W        W38999   4.078  15.034  15.909 -0.0215  0.0749 -0.1915
24153W        W39000   3.135  16.520   1.869  0.0157  0.1893 -0.1585
24154W        W39001   0.212   1.389  14.310 -0.1951  0.1077  0.0097
24155W        W39002   1.599  11.718  16.024 -0.1000 -0.0483 -0.2965
24156W        W39003  12.960  16.981   4.419 -0.1296  0.4210 -0.1190
24157W        W39004  14.334  15.370   2.534 -0.4259  0.0178 -0.0644
24158W        W39005  13.334  16.440   5.645  0.1751  0.0658  0.0549
24159W        W39006   2.038   6.480   4.702 -0.1456  0.0198 -0.0049
24160W        W39007   9.392   9.906  15.228 -0.0350  0.0230 -0.5142
24161W        W39008  12.928  10.616  15.132 -0.0363  0.1064  0.2685
24162W        W39009   0.413   7.521  16.438 -0.0101 -0.2975  0.3096
24163W        W39010  12.524   5.252  15.090 -0.1827  0.1035 -0.2210
24164W        W39011   2.917   5.576  16.462  0.1356  0.0492  0.0194
24165W        W39012  17.529  12.867   3.364 -0.1550  0.3154  0.3071
24166W        W39013   9.924  13.456   6.219 -0.1742 -0.1291  0.0939
24167W        W39014  16.149  17.277   5.543 -0.3605 -0.1823  0.1038
24168W        W39015  15.926   0.543  12.420 -0.3912  0.3657  0.1478
24169W        W39016   5.766  10.755  14.869  0.1165 -0.1265  0.0143
24170W        W39017  13.426  17.132  11.721 -0.1056 -0.3247 -0.1027
24171W        W39018  16.237   9.342  15.699 -0.3929 -0.2552  0.1811
24172W        W39019  14.757   0.712   3.625 -0.1108 -0.2205 -0.4610
24173W        W39020  17.524  11.020   2.214  0.0886 -0.0531  0.0617
24174W        W39021   9.875   5.292  16.216  0.2179  0.1178 -0.3346
24175W        W39022   6.407  13.951   0.521  0.1070 -0.2158 -0.1216
24176W        W39023   9.362  16.909   2.539 -0.1687 -0.2495  0.3087
24177W        W39024   6.882   5.334  16.772 -0.4830  0.2309 -0.0531
24178W        W39025   1.935  12.078  16.420  0.2532 -0.0917 -0.1079
24179W        W39026   2.672   2.317  15.874 -0.2140  0.1395 -0.0267
24180W        W39027  13.721  11.335  14.731  0.1529  0.1929  0.2592
24181W        W39028   8.456   1.798   6.790  0.0465 -0.0101  0.1906
24182W        W39029  13.799  16.260  12.704  0.0419 -0.0168 -0.0433
24183W        W39030   0.842   7.647   5.219  0.0060 -0.2383 -0.1186
24184W        W39031  16.624   0.904   5.515  0.0508  0.2578 -0.2530
24185W        W39032   4.856  17.365  17.578 -0.3907 -0.1825 -0.3019
24186W        W39033   7.155   3.832  17.127 -0.2810 -0.0446  0.1291
24187W        W39034   7.194  10.144  15.118  0.0038  0.0730  0.1037
24188W        W39035   1.844  13.887  12.824 -0.0642  0.2925 -0.2462
24189W        W39036  12.874  16.457   1.427  0.0692  0.0135  0.1078
24190W        W39037   9.773  17.337  12.967 -0.0736 -0.0080 -0.1998
24191W        W39038   3.336   5.323  15.656  0.2077 -0.0355  0.1631
24192W        W39039   6.645   3.322   5.208 -0.2816 -0.1535  0.0719
24193W        W39040  16.736  17.640  13.019 -0.3420  0.1314 -0.1096
24194W        W39041   5.806  10.515   5.148  0.0120  0.0693  0.2117
24195W        W39042   3.449   8.511   5.441 -0.1907  0.1101 -0.0715
24196W        W39043  12.395   1.396   1.365 -0.3847 -0.0828 -0.1792
24197W        W39044  12.596   8.275   2.699 -0.1666 -0.1277 -0.1981
24198W        W39045   2.066   5.828   3.514 -0.0800 -0.2258 -0.0234
24199W        W39046  11.743  16.996   2.610  0.0361 -0.4575 -0.0137
24200W        W39047   1.341   8.667  17.370 -0.0852  0.1164 -0.0771
24201W        W39048   5.459  12.682  12.896  0.1424 -0.0227 -0.0642
24202W        W39049  10.540   5.484   2.333 -0.4238 -0.2707  0.0398
24203W        W39050   1.440  14.054   3.890  0.0095 -0.0655 -0.0669
24204W        W39051   3.574   2.125  16.791  0.0454 -0.0599 -0.1614
24205W        W39052   3.202   1.327   3.924  0.2231  0.1946  0.2695
24206W        W39053   7.072  17.499  17.466 -0.0596 -0.0423  0.0449
24207W        W39054   5.879  12.539   5.334  0.0764 -0.2453  0.0930
24208W        W39055   4.685  11.782   4.657 -0.0060  0.0291 -0.0578
24209W        W39056  14.729  12.940   0.700 -0.1500 -0.5706 -0.0599
24210W        W39057   4.369   7.984  16.533  0.1649  0.1373 -0.3244
24211W        W39058   0.820   5.043   4.054 -0.0027  0.1100  0.0686
24212W        W39059   1.446   4.997  15.449  0.2450 -0.2660  0.0837
24213W        W39060   6.436   4.737  14.902 -0.1111  0.1151  0.0163
24214W        W39061  16.061   7.697   2.993  0.1570 -0.2060 -0.1956
24215W        W39062  16.435   2.515  15.781 -0.2119  0.2064  0.0926
24216W        W39063   1.587  12.395  16.808  0.3218  0.1026 -0.0000
24217W        W39064   9.117   2.839   0.647  0.1314  0.0955  0.2163
24218W        W39065   2.294   9.439  13.877  0.0401 -0.2030 -0.3505
24219W        W39066  14.334   8.910   1.110 -0.1415 -0.2195  0.0838
24220W        W39067   4.063  15.501   0.228 -0.1187 -0.2190  0.1137
24221W        W39068  17.135   3.726  11.932 -0.0848 -0.0909  0.0883
24222W        W39069   2.623  10.658  15.109  0.0265  0.2198 -0.0170
24223W        W39070  13.038  13.231  12.594  0.5371  0.0968 -0.3050
24224W        W39071  17.614   0.422  16.585  0.2408 -0.0738  0.3931
24225W        W39072  13.802   6.897   3.106 -0.0134 -0.1119  0.2067
24226W        W39073  16.772   5.956  14.119  0.0281 -0.0006  0.1535
24227W        W39074   9.671  14.758  13.102  0.0716 -0.1744  0.0613
24228W        W39075  17.024   5.182   0.654  0.1919 -0.1036 -0.2092
24229W        W39076  12.718   3.594   0.268  0.0346 -0.0712  0.3453
24230W        W39077   6.827   2.553  13.633 -0.2013 -0.4063 -0.2431
24231W        W39078   8.189   7.175  16.138  0.0826 -0.0636 -0.1034
24232W        W39079   5.664  10.726  13.984 -0.0437 -0.4027 -0.3605
24233W        W39080  17.293  13.351  15.061 -0.0471  0.0202  0.0031
24234W        W39081  14.363  16.922   1.911 -0.1200 -0.3027 -0.0056
24235W        W39082   8.460  10.481  12.271  0.3428 -0.2413 -0.1546
24236W        W39083  17.145   2.365  14.528  0.2932  0.1388  0.2585
24237W        W39084  16.542   0.840   0.563  0.0371 -0.2001 -0.0607
24238W        W39085   0.424   6.439  13.260 -0.3459 -0.1398  0.1976
24239W        W39086  13.244  10.209  13.446 -0.0630  0.3080  0.1567
24240W        W39087   8.579   3.255   0.096  0.0946 -0.0143  0.1549
24241W        W39088  15.601   8.398   2.509  0.1548 -0.2537  0.1584
24242W        W39089  13.526   7.764  15.997  0.0931  0.3079  0.0446
24243W        W39090   5.183   4.097   4.991  0.0394 -0.2136 -0.3931
24244W        W39091   3.633   1.704   6.540 -0.0013 -0.0537  0.1898
24245W        W39092   3.812  13.646  15.887  0.2041 -0.0678 -0.0456
24246W        W39093   5.410  12.994   4.187 -0.2924 -0.0589  0.2252
24247W        W39094  14.603   2.497  13.669  0.0621 -0.1128  0.0143
24248W        W39095  15.139  10.001  15.870  0.1137  0.2656  0.1227
24249W        W39096  14.794   5.060   4.508  0.0626 -0.0273  0.0476
24250W        W39097  12.750  15.062   1.451  0.0968  0.0311  0.2292
24251W        W39098   4.007  12.910  17.577  0.0025 -0.3184  0.0460
24252W        W39099   4.724  16.568  15.326 -0.2780 -0.0656  0.3206
24253W        W39100  11.628   1.068  12.515 -0.0419 -0.1724 -0.1539
24254W        W39101   9.810  16.691   3.057 -0.0385  0.0826  0.1298
24255W        W39102  10.143   9.233  14.410 -0.0950 -0.0858  0.1671
24256W        W39103  10.318  10.995   0.911 -0.0488 -0.0136  0.0980
24257W        W39104   5.141  12.482  10.937 -0.0575  0.0938  0.0526
24258W        W39105   2.970   9.838   1.184  0.1580 -0.1019  0.0074
24259W        W39106   9.223   9.428  12.693  0.0548  0.0537 -0.0205
24260W        W39107  17.204  12.795  12.999 -0.3164 -0.1998 -0.4833
24261W        W39108  15.054   7.620   5.593  0.0967 -0.0510  0.0575
24262W        W39109  16.514  17.137   2.928 -0.4533 -0.0318 -0.0998
24263W        W39110   2.797  14.912   1.260  0.2150  0.1879 -0.1838
24264W        W39111  10.335   3.499  15.620 -0.2823  0.0478 -0.4024
24265W        W39112   3.963  14.085   1.698 -0.1264  0.0449  0.1562
24266W        W39113   3.360  16.391  16.418 -0.0079 -0.0417  0.0166
24267W        W39114   1.260  15.010   5.508 -0.2632 -0.3967  0.1187
24268W        W39115  17.358   1.699   6.263  0.0536 -0.4308  0.2504
24269W        W39116   7.413   6.918   2.289  0.2518 -0.4104  0.1638
24270W        W39117   3.556  17.596   5.413  0.1955 -0.0065  0.0540
24271W        W39118   0.667   7.608   5.750 -0.3046  0.0689  0.2790
24272W        W39119   3.728   5.299   1.854  0.3641 -0.0478 -0.1578
24273W        W39120  16.720   5.969   5.237 -0.0564 -0.1310  0.1091
24274W        W39121   8.518   0.247   5.303 -0.0072 -0.2691 -0.4306
24275W        W39122   5.965  15.304  17.383  0.0863  0.0606 -0.1073
24276W        W39123   9.945   0.139   4.351  0.0034  0.2688  0.1849
24277W        W39124   4.092   3.250   1.827  0.1292 -0.3417  0.1917
24278W        W39125  12.918   8.105   6.282 -0.1022  0.1085  0.2486
24279W        W39126   5.354   7.891  13.249 -0.0845 -0.0201  0.0408
24280W        W39127  17.040   2.916   6.571 -0.2369  0.0358 -0.1510
24281W        W39128   0.401   3.849  14.940 -0.1166  0.2321  0.0083
24282W        W39129   2.381   5.721   6.348  0.1724  0.1893  0.0383
24283W        W39130   0.117  16.860   1.289  0.1852  0.0500  0.0312
24284W        W39131   2.238  15.596  13.824  0.0558  0.2766  0.3024
24285W        W39132  17.331  15.493   4.880 -0.1913 -0.0773 -0.0584
24286W        W39133   1.478  10.746   1.273 -0.2446 -0.1841 -0.1272
24287W        W39134  15.043   8.691   5.455  0.1098 -0.1846 -0.0674
24288W        W39135   7.533   8.350   4.082  0.1348  0.2480  0.3854
24289W        W39136   6.085   4.370   2.868  0.1953 -0.1546 -0.2062
24290W        W39137   1.769   5.329  16.533  0.1515  0.0205 -0.2134
24291W        W39138   6.048  13.141   2.571 -0.0336  0.2028 -0.0606
24292W        W39139   7.656   0.036  13.755 -0.3219  0.4718 -0.0331
24293W        W39140   1.665   4.096   2.437 -0.0841  0.1047 -0.3746
24294W        W39141  14.521  10.170  12.578 -0.0235  0.1214  0.1582
24295W        W39142  10.619   2.635  16.806 -0.0606 -0.0611  0.0576
24296W        W39143  17.515   9.598   4.975  0.2209 -0.2118  0.2674
24297W        W39144   6.155  12.482   1.355 -0.0328 -0.1679  0.1845
24298W        W39145   7.227  15.585   5.291 -0.0491  0.1917 -0.2277
24299W        W39146   3.761  11.740   3.603  0.2580 -0.2456  0.2903
24300W        W39147  10.448   9.142   1.529  0.3520  0.0971  0.0966
24301W        W39148   5.256  17.664   0.049 -0.0024  0.0879 -0.1485
24302W        W39149  17.655   6.843  16.303  0.1443 -0.1682  0.0929
24303W        W39150   7.067   9.703  15.483  0.0617 -0.0532  0.1193
24304W        W39151   3.569  11.694   4.832 -0.4448 -0.1212  0.3553
24305W        W39152   5.291   2.610   4.224  0.3548 -0.1861  0.2612
24306W        W39153   4.000  17.055  12.969  0.2918 -0.1266  0.0205
24307W        W39154   0.251  16.452   1.881  0.3362 -0.3216  0.2371
24308W        W39155   2.839  10.043  12.573 -0.0528  0.0889 -0.0965
24309W        W39156  15.522  11.029   5.634  0.0031 -0.4639  0.2768
24310W        W39157  10.683   1.243   3.276 -0.0808  0.1034 -0.3618
24311W        W39158   9.859  10.749  12.978 -0.0721 -0.0069  0.4936
24312W        W39159  15.577   1.061  16.539 -0.0493  0.2203 -0.1225
24313W        W39160   0.212   8.586   2.366  0.1263  0.1576 -0.0622
24314W        W39161  13.493   2.040  14.630 -0.0437 -0.2833 -0.4000
24315W        W39162   8.342  12.870   6.112  0.1140  0.1348 -0.3973
24316W        W39163   1.631   2.791   6.198  0.0787 -0.3147 -0.0136
24317W        W39164  11.993  12.933   4.757 -0.1639  0.4382 -0.3768
24318W        W39165  11.254   1.900  12.957 -0.1399 -0.0914 -0.2752
24319W        W39166   0.139   1.157   4.796  0.0636  0.0516 -0.2241
24320W        W39167  12.713   0.436   5.514 -0.2129  0.0784 -0.0670
24321W        W39168   8.966   7.598  11.955  0.1304  0.0833 -0.4950
24322W        W39169  16.475   0.444  13.191  0.0631 -0.2048 -0.4583
24323W        W39170  11.912   9.693  13.630 -0.1224  0.0350  0.1971
24324W        W39171  15.353   4.694  16.382  0.0416 -0.1184  0.0615
24325W        W39172   1.967   2.765  11.830 -0.2143  0.2077  0.2502
24326W        W39173   4.413   9.112   2.049  0.2381 -0.0151 -0.1899
24327W        W39174   6.818  10.955   5.432 -0.0807  0.1726 -0.1785
24328W        W39175  15.829  14.868   5.769  0.1579  0.0889  0.1397
24329W        W39176   3.625   8.932   4.740 -0.1739  0.4006 -0.1759
24330W        W39177   1.159   3.335  12.849 -0.0929  0.1330 -0.2600
24331W        W39178   4.127  17.649  14.039  0.0374 -0.3085 -0.0816
24332W        W39179  14.629  16.517  16.532  0.2690 -0.1790 -0.2793
24333W        W39180  14.697   3.046   0.479  0.1531  0.0028 -0.0642
24334W        W39181  13.302  16.674  16.888  0.0729  0.0972  0.3633
24335W        W39182   7.950   8.425  17.673  0.2823  0.0958  0.2290
24336W        W39183   5.418   9.584  13.163 -0.0509 -0.1235 -0.0915
24337W        W39184  15.750  11.343   1.316  0.1349  0.0814 -0.0063
24338W        W39185  10.248  15.476  13.077  0.2766 -0.0356  0.1192
24339W        W39186  10.960  13.690  16.780 -0.0567 -0.0921 -0.1256
24340W        W39187  10.103  14.132  14.038  0.0897  0.0314 -0.1856
24341W        W39188   4.694  17.295   5.058  0.1055 -0.4678  0.0250
24342W        W39189   6.494  15.015  13.118 -0.1125 -0.2024  0.1153
24343W        W39190   5.746   3.022  17.278  0.0303  0.2580 -0.0336
24344W        W39191   1.895   2.986   4.438 -0.1450  0.0296  0.0485
24345W        W39192  14.106   1.458   5.257 -0.0773 -0.2837 -0.0383
24346W        W39193   0.658  14.164   6.479 -0.3370  0.0210 -0.2542
24347W        W39194   6.205   3.833  14.551 -0.1262  0.0040 -0.2207
24348W        W39195  16.662  10.082   3.517 -0.1549  0.1403 -0.2002
24349W        W39196  17.348  16.162  14.098 -0.0203  0.0193  0.1476
24350W        W39197  15.293  17.297   2.814 -0.1144  0.3080  0.0398
24351W        W39198   6.247   3.645   5.228 -0.2255  0.1728  0.0889
24352W        W39199  16.411   4.426   3.476 -0.2561  0.2365  0.2908
24353W        W39200   6.198  11.049   2.964  0.0514 -0.0447  0.4510
24354W        W39201   1.354   2.850  13.443 -0.0751 -0.1675  0.1611
24355W        W39202  16.209  13.362   2.334 -0.2097  0.2969 -0.2500
24356W        W39203   3.677   0.491  12.126  0.0396 -0.2348 -0.2624
24357W        W39204  15.168   9.918  16.485 -0.1352  0.2066 -0.2390
24358W        W39205   1.531   9.325  16.211  0.0744 -0.0310 -0.1442
24359W        W39206   7.511   0.985  17.335 -0.0776  0.2648 -0.0343
24360W        W39207  15.318   7.345   2.363 -0.1037 -0.2686  0.2481
24361W        W39208   6.349   3.885  10.890  0.0644 -0.0897  0.0279
24362W        W39209  14.156   4.618  17.311 -0.0797 -0.4611 -0.0377
24363W        W39210  12.926   3.038   2.687  0.1023  0.2137 -0.1029
24364W        W39211  13.812  14.711   2.054  0.1638  0.1756 -0.0127
24365W        W39212  11.061  10.155   0.892  0.0918  0.2239  0.0747
24366W        W39213  10.317   9.093  13.418  0.1984  0.1675  0.0689
24367W        W39214   5.183   5.556   4.474 -0.5200 -0.5503 -0.2392
24368W        W39215  10.073   1.835   0.230  0.0380  0.0361  0.2208
24369W        W39216   7.179  17.280   1.786  0.1090 -0.1308  0.1316
24370W        W39217   1.468   4.759   1.557 -0.0785 -0.2222  0.2875
24371W        W39218   4.176   2.303   0.471 -0.1351 -0.0998 -0.0875
24372W        W39219   2.828  10.648   0.035  0.3273 -0.1735  0.2777
24373W        W39220   5.957  12.738   5.852 -0.1466 -0.0729 -0.1977
24374W        W39221  12.871  14.914  12.132  0.0041 -0.2460  0.0840
24375W        W39222  14.745   3.364   2.314 -0.2697 -0.0399  0.0751
24376W        W39223   6.585  17.564  12.832  0.2146  0.1586  0.2503
24377W        W39224  17.489  16.931   0.832 -0.0020 -0.1405  0.0012
24378W        W39225   5.075   0.722  13.241 -0.5527  0.3421  0.1314
24379W        W39226   2.422   1.510   5.645 -0.1914 -0.1181 -0.0368
24380W        W39227   6.405  12.334  14.132  0.2488 -0.0281  0.1243
24381W        W39228  12.115  14.607   0.124 -0.1075  0.2020  0.0710
24382W        W39229   1.395  13.194  17.548  0.4303 -0.1868  0.1087
24383W        W39230  15.023   5.693  12.211 -0.1277  0.2246  0.0493
24384W        W39231   1.392  12.619  17.598  0.1446 -0.2799  0.0452
24385W        W39232   7.114   3.112   5.241 -0.0702  0.2667 -0.1222
24386W        W39233   6.781   2.930   5.537 -0.1419  0.3869  0.0082
24387W        W39234   9.767  14.575   1.288  0.1939 -0.2135  0.1248
24388W        W39235   6.991  12.586  12.113  0.0873 -0.1206 -0.0438
24389W        W39236  14.685  17.225  14.339 -0.1727  0.0585 -0.0481
24390W        W39237   4.213   1.636  10.878  0.3125 -0.1178 -0.1371
24391W        W39238   9.930  11.572  16.764 -0.0590 -0.0123  0.0314
24392W        W39239   0.049   4.701   1.622 -0.1245 -0.0819  0.2545
24393W        W39240   9.219  11.908   6.397 -0.2372  0.4019 -0.3304
24394W        W39241   6.710   9.336  13.841 -0.0450  0.0210  0.0206
24395W        W39242  12.088   1.805  12.513 -0.1976 -0.2276  0.1654
24396W        W39243   4.506   0.276   6.428 -0.0767 -0.0586  0.0667
24397W        W39244   8.775   0.845   2.910 -0.1629 -0.1649 -0.2569
24398W        W39245  17.651   1.978  14.471  0.1263 -0.0441  0.2689
24399W        W39246  12.901   3.945  17.070 -0.1817  0.0782 -0.0083
24400W        W39247   1.525   1.077   5.063  0.2163  0.1495 -0.4042
24401W        W39248   7.076   9.958  14.515  0.0500  0.1247  0.1726
24402W        W39249  11.185  12.421  13.687 -0.0682 -0.1573  0.0898
24403W        W39250  17.421  11.659   5.437 -0.0877  0.0975  0.0343
24404W        W39251  12.976   0.781  12.785  0.1270  0.1105  0.0185
24405W        W39252  12.019   2.215  17.193  0.1219  0.1102  0.0854
24406W        W39253  16.184  14.598  13.849 -0.0558 -0.0674 -0.0859
24407W        W39254   0.402   5.948  13.239  0.1519 -0.1239 -0.0541
24408W        W39255  10.443   5.511  14.419 -0.3990 -0.1937  0.1408
24409W        W39256   2.899  16.108  17.413  0.1199  0.0554 -0.0849
24410W        W39257  16.315   4.269  16.242  0.0106  0.0357 -0.3491
24411W        W39258  17.286  10.694  13.824  0.0426 -0.2511 -0.0627
24412W        W39259   4.695  15.436  12.030 -0.0164 -0.0635  0.1698
24413W        W39260  13.273   6.043  14.632 -0.1121 -0.0013  0.2380
24414W        W39261   4.204   8.843   1.166  0.0262 -0.0547  0.0781
24415W        W39262  12.219   6.430   3.268 -0.0890  0.0660 -0.0516
24416W        W39263  17.009  10.953   1.613  0.1768 -0.0530 -0.0235
24417W        W39264  17.500   7.500   4.302 -0.3027  0.4245 -0.1502
24418W        W39265   5.225  17.507   6.039 -0.2897 -0.0299  0.0183
24419W        W39266   7.560   6.924   0.301 -0.1182  0.2459  0.4309
24420W        W39267  11.983  16.100   5.764 -0.0304 -0.0319 -0.0609
24421W        W39268  12.697   4.262   4.455  0.4535  0.0836  0.0328
24422W        W39269   3.071   8.909   2.543  0.4463  0.0457 -0.0408
24423W        W39270  12.144   1.566  14.539 -0.0921  0.0849  0.2578
24424W        W39271   4.389  17.236   4.704  0.0205 -0.1253  0.2833
24425W        W39272  12.606  17.010   0.726 -0.2152 -0.1802  0.0534
24426W        W39273   6.069  16.687   3.373 -0.1362  0.3639  0.0595
24427W        W39274   3.729   4.688   5.544  0.0380  0.1165  0.1064
24428W        W39275  10.648   5.530  13.274  0.0561  0.3204 -0.2114
24429W        W39276  12.718   3.714  14.425  0.0473  0.1253 -0.5706
24430W        W39277   0.707   4.833   1.167 -0.1128 -0.2539  0.2545
24431W        W39278  11.281  12.563  16.321 -0.1287  0.0648  0.0755
24432W        W39279   2.434  17.536  14.280 -0.0444 -0.0625 -0.1991
24433W        W39280  11.033   2.759  11.573  0.0428 -0.1112 -0.2414
24434W        W39281   7.079  14.402   1.964  0.1521  0.0152  0.2886
24435W        W39282   8.828   2.164  17.078  0.0429 -0.0906 -0.1374
24436W        W39283   3.757   5.063  17.482  0.0725 -0.1504  0.3641
24437W        W39284  16.463   3.500   3.526 -0.3228  0.0198 -0.1957
24438W        W39285  15.878   4.690   5.023  0.1761 -0.0895 -0.0069
24439W        W39286   0.379   0.731   0.041  0.2661 -0.0115  0.1959
24440W        W39287   3.801   8.344   1.895  0.0188 -0.1361  0.1627
24441W        W39288  17.167  10.352  17.145 -0.0041  0.0127  0.0634
24442W        W39289   1.113   8.987   1.685 -0.0014 -0.2716 -0.0468
24443W        W39290  13.111  12.110  16.947 -0.0710  0.0719  0.2183
24444W        W39291   5.441   7.769  13.699 -0.1904 -0.0686 -0.1328
24445W        W39292  11.883  10.569   2.376  0.0202 -0.2064 -0.1098
24446W        W39293   3.599   3.305  15.475  0.0956 -0.2413  0.0298
24447W        W39294   8.579   1.656  12.609 -0.2394  0.0525  0.0975
24448W        W39295  10.766  16.943   6.338  0.1410  0.1083 -0.0570
24449W        W39296  15.975   3.261   2.569 -0.2082  0.1469 -0.2417
24450W        W39297   6.542   8.944   4.300 -0.2382  0.2497 -0.0163
24451W        W39298   3.702  16.021   0.001  0.0455 -0.0612 -0.0392
24452W        W39299   4.328  15.180   2.506  0.1665  0.3268  0.1283
24453W        W39300  10.423   0.532  15.619  0.2581 -0.0255 -0.0548
24454W        W39301   9.912   2.743  12.904 -0.1501 -0.1545 -0.0510
24455W        W39302  14.645   2.131   1.430  0.1041  0.0898  0.0856
24456W        W39303  10.131   0.864   0.783 -0.1353 -0.0673 -0.0143
24457W        W39304   0.246  11.705  17.592  0.0552 -0.2048 -0.1079
24458W        W39305  13.781   4.939   0.543 -0.1521 -0.0504 -0.3171
24459W        W39306   6.279   3.480   6.584 -0.0934 -0.2030 -0.0649
24460W        W39307   2.949   4.975   2.732  0.4120 -0.1740 -0.0063
24461W        W39308  15.890   0.670  13.767  0.0737  0.0258  0.0589
24462W        W39309  12.432   0.784   3.164 -0.1639 -0.0589 -0.3594
24463W        W39310  11.496   1.160  12.005 -0.0245  0.0196  0.0751
24464W        W39311  15.985  11.417  17.496 -0.1186 -0.3087  0.1404
24465W        W39312   2.341   0.094   5.929 -0.1912 -0.0801  0.0412
24466W        W39313   1.730   5.311   5.606  0.1851 -0.1195 -0.1700
24467W        W39314  13.050  12.454  17.295 -0.1418 -0.0336  0.2316
24468W        W39315   6.965   0.893   0.050  0.0561 -0.0981  0.0563
24469W        W39316   0.516   1.775   1.549 -0.1125 -0.2365  0.1799
24470W        W39317  17.295   4.142  13.301  0.2726 -0.1431 -0.0062
24471W        W39318  11.995  16.303  13.877 -0.0427  0.0468 -0.0463
24472W        W39319   9.728   1.098   4.233  0.2421  0.0162 -0.0993
24473W        W39320  12.897  14.902   4.564  0.0405 -0.1282 -0.1758
24474W        W39321   3.146  10.484  16.253 -0.1743 -0.4017 -0.0556
24475W        W39322  11.754   0.286  16.396  0.0033 -0.0165 -0.1363
24476W        W39323  10.564   0.409   5.176  0.1460  0.4972  0.0750
24477W        W39324  13.387  15.317  12.728  0.1844  0.1444  0.1790
24478W        W39325  12.758   4.022   5.426  0.1726 -0.0393 -0.3574
24479W        W39326  15.071   6.722   6.797  0.0186  0.0754  0.2438
24480W        W39327   2.200   1.225   3.588  0.3918  0.1488 -0.1344
24481W        W39328   4.579  14.819   3.524  0.0413  0.2408  0.0302
24482W        W39329  10.176  12.906  12.627 -0.0167 -0.0478 -0.0018
24483W        W39330   1.201   4.109   3.977  0.0192 -0.0406  0.0115
24484W        W39331  15.651  14.075   5.242 -0.2082  0.0879 -0.1512
24485W        W39332  15.018  12.962   5.421  0.0266 -0.1739  0.1791
24486W        W39333   1.479   9.857   1.828 -0.0389 -0.2197 -0.0641
24487W        W39334  10.218   9.908  17.042  0.1576 -0.1839 -0.1202
24488W        W39335   0.137   3.361  13.290 -0.2065 -0.0381 -0.3473
24489W        W39336  12.446   6.721   4.897 -0.1689  0.0612  0.1125
24490W        W39337   1.618   0.203  14.059  0.0589 -0.1131  0.2168
24491W        W39338  12.894  11.336   5.214  0.1611  0.0360 -0.0024
24492W        W39339   8.776   7.285  17.023 -0.0713  0.2174  0.1098
24493W        W39340   5.786  12.624   1.979 -0.1321 -0.1055 -0.1344
24494W        W39341   4.732  13.273  11.744 -0.2677  0.3753  0.0343
24495W        W39342   7.601   6.701  12.267  0.0814 -0.2024  0.1010
24496W        W39343   9.376   2.283   6.097  0.0552  0.1057 -0.0159
24497W        W39344   3.266  12.939  16.793  0.1751  0.2693  0.0803
24498W        W39345  15.784   9.115  13.288  0.3985 -0.2970 -0.2925
24499W        W39346  13.218  13.483   3.358 -0.3200 -0.2586  0.1949
24500W        W39347   4.551   2.599   5.299  0.0121  0.3056  0.1385
24501W        W39348   9.109   9.330   1.978 -0.2029  0.2310 -0.0232
24502W        W39349   7.930   6.760  14.236 -0.1164 -0.0403 -0.2974
24503W        W39350   1.903   5.042   3.167 -0.0729  0.0756  0.5318
24504W        W39351  12.371  15.952  15.930 -0.0093 -0.3443 -0.0559
24505W        W39352   8.087   6.532  16.773 -0.3612 -0.0350  0.1550
24506W        W39353  13.531  15.454   5.371 -0.0753 -0.2173 -0.1506
24507W        W39354  14.789   1.835  11.155  0.0665  0.0829  0.1163
24508W        W39355  12.075   5.027   2.699 -0.2793  0.1482  0.2052
24509W        W39356   8.267  10.964  16.958  0.1100 -0.3939 -0.0436
24510W        W39357   5.725   8.987  11.727  0.2442 -0.3241  0.0321
24511W        W39358   2.021   9.623   6.853  0.3830 -0.2427 -0.0108
24512W        W39359  10.905  13.845  17.599  0.1571 -0.1182  0.0154
24513W        W39360   1.367   5.630  16.281  0.5109  0.1605  0.0893
24514W        W39361  12.988   9.786  15.494 -0.0549  0.1539  0.0053
24515W        W39362   2.369  12.675   1.916 -0.1435  0.0969  0.0114
24516W        W39363   0.547   4.221   0.419  0.0606 -0.1478  0.2163
24517W        W39364   8.729   7.096   2.445 -0.1105  0.0701  0.1270
24518W        W39365   7.423  17.237   0.951  0.0981 -0.0573  0.0993
24519W        W39366  13.817  10.508   6.687 -0.0358 -0.1776  0.4217
24520W        W39367   0.139   7.979   4.947 -0.1406  0.2753  0.1926
24521W        W39368  10.404   7.553   5.622 -0.1757 -0.0356 -0.2475
24522W        W39369  15.141   0.686   6.600 -0.0166  0.0278  0.0344
24523W        W39370   5.263   5.306  14.944 -0.2285 -0.1479  0.0226
24524W        W39371   8.655   7.910   0.437 -0.0303  0.3709 -0.2166
24525W        W39372   2.989   1.583  16.950 -0.3769 -0.1303 -0.0318
24526W        W39373  17.158  16.492  16.209 -0.2372 -0.2568 -0.1571
24527W        W39374   6.495  15.898  13.389  0.2158 -0.2351 -0.2483
24528W        W39375  16.855  14.502  11.519  0.0787 -0.4651  0.1038
24529W        W39376  10.456  11.248   1.378  0.1157 -0.3209  0.1377
24530W        W39377  16.486  10.777  13.153  0.0305  0.2716  0.2215
24531W        W39378   5.291  16.871   2.094  0.2748 -0.0913  0.1302
24532W        W39379   0.077   6.551  13.578  0.1017  0.2085  0.0213
24533W        W39380   0.349   2.316   5.081  0.0104 -0.0975  0.1114
24534W        W39381  10.438  16.768   3.861 -0.1362  0.2978 -0.0068
24535W        W39382   0.409   7.934   1.582 -0.2137 -0.0234  0.0299
24536W        W39383   8.563   4.716   4.647 -0.2395  0.3458  0.0439
24537W        W39384  10.944   1.243   4.662 -0.0959  0.0360  0.3570
24538W        W39385   5.339  12.960  15.472  0.0543  0.0899 -0.0160
24539W        W39386  13.131   8.489  13.467 -0.1150  0.0998 -0.1057
24540W        W39387  16.428   6.237  14.331 -0.0884 -0.0504  0.1548
24541W        W39388   2.958   8.444  14.428  0.1445 -0.3174 -0.0427
24542W        W39389  13.971  12.403   1.889 -0.1393 -0.0177  0.0015
24543W        W39390   7.613  10.282   0.703 -0.0855 -0.1062  0.2598
24544W        W39391   7.709   4.298   4.514  0.1385  0.0374 -0.2155
24545W        W39392   3.108  14.531  17.374  0.1177  0.1547 -0.0111
24546W        W39393  13.192  15.847   4.359  0.0315 -0.1507  0.1952
24547W        W39394   6.267   5.415  17.256 -0.2923  0.1954 -0.0629
24548W        W39395   4.571   8.987  15.415 -0.0206  0.0086  0.0243
24549W        W39396   1.642   8.016   1.075 -0.2398  0.2738 -0.4105
24550W        W39397   4.148  11.662  14.057 -0.0022  0.2659 -0.0693
24551W        W39398   1.790   5.613   0.391  0.0487 -0.0937 -0.0637
24552W        W39399   3.163   5.393   2.559  0.2283  0.2663  0.0890
24553W        W39400   3.407  15.117   6.656 -0.1352  0.0789  0.2655
24554W        W39401   2.709  16.096   4.215  0.3547  0.0784  0.0149
24555W        W39402   1.004   1.735  15.770  0.0777  0.0533  0.3264
24556W        W39403   4.122   7.110  10.720 -0.1965  0.0666 -0.1905
24557W        W39404   5.239   4.813  14.159  0.0084 -0.1719  0.1982
24558W        W39405  11.680   5.826   0.872 -0.1074 -0.1607  0.0728
24559W        W39406   6.381   0.743   1.796 -0.2483  0.2766  0.0141
24560W        W39407  14.034  12.766   2.548 -0.3607  0.4096 -0.3805
24561W        W39408  14.603   6.003   1.878  0.0953 -0.1337  0.2263
24562W        W39409   1.190   4.661   3.873 -0.3337 -0.0312  0.0497
24563W        W39410  11.694  15.511   6.614  0.0532  0.0443 -0.1653
24564W        W39411   8.940  15.356  12.388 -0.1455  0.0114  0.4650
24565W        W39412   6.806   2.971  11.833 -0.3053 -0.0560 -0.3340
24566W        W39413   5.806  10.693  16.432 -0.1737  0.0861 -0.4333
24567W        W39414   8.350   6.228  13.977  0.2719  0.0481 -0.2568
24568W        W39415   2.726  16.290   2.113 -0.0555  0.2314  0.1240
24569W        W39416   4.474  16.184   2.629  0.0622 -0.2495 -0.0927
24570W        W39417  17.011  17.141   1.970 -0.0495 -0.0723  0.2381
24571W        W39418   4.959  10.785  11.250 -0.0939 -0.3037  0.1437
24572W        W39419   0.140   4.099   0.134  0.0070  0.1073  0.0979
24573W        W39420   0.592   7.987   2.558  0.1158 -0.1235  0.4608
24574W        W39421  16.896   3.549  16.146  0.0829  0.3462  0.4720
24575W        W39422  16.097  11.253   4.253  0.2035  0.0988 -0.0700
24576W        W39423   1.262   3.318  11.687 -0.2438 -0.1767  0.0161
24577W        W39424   6.396  13.546   0.218 -0.0456  0.0981 -0.1852
24578W        W39425   4.875  17.019   5.877 -0.0994  0.2858  0.0607
24579W        W39426  17.183  17.642  15.006 -0.1466 -0.0501 -0.1675
24580W        W39427  14.448   5.952   6.763 -0.0596  0.1298 -0.2199
24581W        W39428   6.333   2.218   5.114  0.0857  0.0564 -0.1216
24582W        W39429  12.734  12.284   5.426  0.2065  0.0842  0.2311
24583W        W39430   3.531   3.395   2.568 -0.0726  0.2637 -0.0395
24584W        W39431   5.360   7.931  10.713 -0.2004  0.0433  0.0539
24585W        W39432   4.131   5.658  13.112  0.1088  0.1213 -0.1110
24586W        W39433   7.093   4.687  12.619  0.1136 -0.0913  0.0513
24587W        W39434  11.518  17.018  13.991  0.2541 -0.1369  0.0627
24588W        W39435  15.067  13.109  17.467 -0.1835  0.0909 -0.2369
24589W        W39436  13.041   8.552  16.541 -0.0266  0.0068  0.0607
24590W        W39437  10.332   8.395   3.013  0.0048 -0.0477  0.1194
24591W        W39438  14.632  16.048  15.433 -0.1279 -0.0436 -0.0335
24592W        W39439   3.206   2.110  17.173  0.2064 -0.3807 -0.1201
24593W        W39440   9.325  16.409   5.201 -0.1765  0.0672  0.0820
24594W        W39441   8.422  14.042  12.877  0.0970  0.1140 -0.3060
24595W        W39442   4.885   3.690   1.395 -0.3293 -0.1190 -0.1139
24596W        W39443  14.331   6.723  12.870  0.0356 -0.2288  0.3286
24597W        W39444   6.365  15.121   5.407 -0.0138  0.1314  0.0791
24598W        W39445  12.963   5.009  14.220 -0.4394  0.0059 -0.2002
24599W        W39446   0.069   7.338   3.629 -0.0985  0.0556  0.1473
24600W        W39447   9.556  12.473  15.698 -0.2371  0.0538 -0.0409
24601W        W39448   1.750  16.784  12.007 -0.0712  0.2305 -0.2257
24602W        W39449  13.017   2.386  15.924  0.1906 -0.0324  0.0552
24603W        W39450  11.106   9.221   2.400  0.1586  0.2317  0.3321
24604W        W39451   2.409   9.811  11.883  0.3472 -0.3792  0.2059
24605W        W39452   1.386   4.307   0.178  0.0807 -0.0180 -0.1081
24606W        W39453  11.733   3.744   4.450 -0.0053  0.1496 -0.1254
24607W        W39454   2.695   3.518  11.828 -0.2710  0.2080 -0.1365
24608W        W39455   1.991   9.625   3.305 -0.0596 -0.0871 -0.0435
24609W        W39456  16.441   8.781   4.025 -0.3050  0.0328 -0.0840
24610W        W39457   2.188  10.858  15.952 -0.0650 -0.0185 -0.3595
24611W        W39458  12.124  17.634   1.722 -0.0272 -0.1286  0.1473
24612W        W39459   1.840  13.671  17.400 -0.2235  0.3208 -0.0789
24613W        W39460   0.001   3.905  13.481  0.2909 -0.2572 -0.1919
24614W        W39461  13.709   6.671   0.464  0.5074  0.2269  0.1574
24615W        W39462  16.759   1.116  14.756  0.1094  0.1486 -0.0689
24616W        W39463  14.808   7.162   2.312  0.2935  0.0506  0.1570
24617W        W39464  10.491   0.539  14.542 -0.1768 -0.1889  0.1694
24618W        W39465   9.473   0.119  12.288 -0.2563  0.0895  0.2258
24619W        W39466  17.614  13.347  17.116  0.2387  0.2407  0.0004
24620W        W39467   8.209  14.617   5.688  0.2658 -0.0294  0.1443
24621W        W39468   5.782   2.609  15.054  0.0324  0.0199  0.0413
24622W        W39469   0.810   4.177  12.890  0.0810  0.0759  0.1488
24623W        W39470  14.758   0.681  13.083 -0.2688  0.0142 -0.1662
24624W        W39471  15.831   1.816  17.133 -0.0443  0.6805 -0.0341
24625W        W39472  13.415   3.630   4.852 -0.0679 -0.1939  0.4258
24626W        W39473   6.871  16.806   3.881 -0.0304 -0.0386  0.1715
24627W        W39474  12.966  12.356  13.200  0.2680 -0.2025  0.0572
24628W        W39475  10.425  12.727  16.921 -0.3688  0.1300  0.2185
24629W        W39476  10.892  12.203   3.491  0.2047  0.1470 -0.2242
24630W        W39477  10.708  13.413  12.157  0.0505  0.1694 -0.4072
24631W        W39478   9.339   6.366  15.512  0.0799  0.0487  0.1062
24632W        W39479   1.416  16.844  14.137  0.1884  0.0222  0.1196
24633W        W39480  11.060  10.374   1.809 -0.1752 -0.2423 -0.0895
24634W        W39481   5.440  11.875  15.859 -0.0226  0.2121 -0.1489
24635W        W39482  14.174  11.197  14.598  0.1344  0.0739 -0.0761
24636W        W39483   4.552   1.718  12.677 -0.0558  0.0192 -0.0034
24637W        W39484   7.505   0.386   6.796 -0.2137  0.3456 -0.0104
24638W        W39485  10.432  16.166  17.492  0.0377 -0.1183  0.0756
24639W        W39486   6.878  17.129  13.115  0.4107 -0.0579 -0.0422
24640W        W39487  13.126   2.747   4.494 -0.0158 -0.0802 -0.0920
24641W        W39488   6.412   7.976   4.422 -0.0632  0.1339 -0.0145
24642W        W39489   6.404   7.572   1.831 -0.0916 -0.1101 -0.0134
24643W        W39490   8.240   6.926  13.169  0.0601  0.0742 -0.1510
24644W        W39491  10.610   7.187  13.928  0.2613 -0.0793 -0.2390
24645W        W39492   9.423  16.526   0.663  0.1188  0.2665 -0.1011
24646W        W39493   9.425   9.539   5.068 -0.0131  0.0006 -0.5043
24647W        W39494   5.018   9.536  16.004 -0.2014  0.1970  0.0105
24648W        W39495  14.211  12.818   0.961 -0.0478  0.0616  0.0771
24649W        W39496   1.086   7.767  11.872 -0.2003 -0.0582 -0.0436
24650W        W39497  12.550   1.551  12.717 -0.0071  0.0838 -0.2565
24651W        W39498   2.836   6.992   4.293 -0.0430 -0.0030 -0.2758
24652W        W39499   9.693   3.900  12.153 -0.1390  0.0997 -0.0642
24653W        W39500  14.481   1.956   4.260 -0.0584  0.3260  0.2609
24654W        W39501   8.603  10.339  14.159 -0.1109 -0.0599  0.0483
24655W        W39502  14.832   5.937  16.495  0.2472  0.2928  0.1936
24656W        W39503  16.173   6.310   0.155  0.0980  0.0320  0.0027
24657W        W39504   7.952   4.060  15.407  0.0744  0.1152 -0.0456
24658W        W39505  14.265  16.650   3.636 -0.4708  0.3819 -0.1188
24659W        W39506   7.728   0.201   0.134  0.1042 -0.2839 -0.0810
24660W        W39507   0.271   6.788   5.451  0.0843  0.0853  0.1117
24661W        W39508   7.739  10.715  14.747  0.3483  0.1272 -0.2906
24662W        W39509  16.723   2.337   4.745  0.1634 -0.3200  0.2287
24663W        W39510   2.869   1.226  15.162  0.1001  0.0911  0.2469
24664W        W39511  12.781   9.622   3.501 -0.0536  0.1414  0.3559
24665W        W39512   3.693  12.090   1.481 -0.0328  0.1355  0.0524
24666W        W39513   1.928  16.992   4.908  0.0033  0.1752  0.0752
24667W        W39514  16.107  14.891  16.844 -0.2155  0.1742 -0.1339
24668W        W39515  16.836   2.031   3.688 -0.1224  0.3008 -0.2463
24669W        W39516   1.212   1.353   2.840 -0.0753 -0.0527 -0.1867
24670W        W39517   1.118   2.438  13.672  0.2312 -0.0373  0.0777
24671W        W39518   2.651   8.761   4.740 -0.0197 -0.3065  0.1898
24672W        W39519   2.639  13.724   5.108 -0.4957 -0.1384 -0.2310
24673W        W39520   3.928  12.531   0.233 -0.0550  0.2762  0.0036
24674W        W39521   5.963   8.299   2.151  0.0893  0.0605  0.3388
24675W        W39522   1.776  10.067  16.539  0.1480  0.0183 -0.1466
24676W        W39523  14.797   2.244  14.407 -0.1742  0.1924 -0.1100
24677W        W39524  14.401   5.451  16.905 -0.0123  0.0042  0.0701
24678W        W39525   5.526  16.852  11.827  0.1896 -0.1741  0.0236
24679W        W39526   6.553  10.019  14.618  0.2017  0.1341 -0.0443
24680W        W39527   4.509   3.016  13.061  0.0929 -0.3350  0.3916
24681W        W39528  15.053   5.853   2.162  0.1043 -0.0707  0.0302
24682W        W39529   2.086   3.260   1.598 -0.0263 -0.1819 -0.0159
24683W        W39530   7.979   1.379  15.757 -0.0141  0.2246  0.1164
24684W        W39531   0.843  16.395   1.319  0.0357 -0.1789 -0.0449
24685W        W39532   3.097   4.638   3.526  0.0163 -0.3181 -0.1311
24686W        W39533  11.419  14.023   2.561 -0.0557 -0.1665  0.0395
24687W        W39534  10.995  12.533  15.075 -0.0342 -0.3056  0.0674
24688W        W39535   3.355   0.530   5.818 -0.1518 -0.0953  0.0559
24689W        W39536  17.021   4.011   4.561  0.0302  0.0738  0.0809
24690W        W39537   7.681   1.451  12.133  0.1472  0.0339 -0.2473
24691W        W39538  12.492  16.634  12.403  0.2108 -0.1360 -0.0140
24692W        W39539  16.050   8.707  17.334  0.3153  0.1426 -0.2044
24693W        W39540   0.662   7.827   2.085 -0.2910  0.0718  0.0278
24694W        W39541  13.774   0.106   4.485  0.0191 -0.0102  0.1804
24695W        W39542   9.318   5.778   3.976  0.3025 -0.0403  0.3049
24696W        W39543  12.104  13.446  14.847  0.1526  0.1140 -0.2412
24697W        W39544  12.275   2.141  16.755 -0.1059  0.2608  0.2005
24698W        W39545   4.674  13.761   0.401  0.1164 -0.0311  0.2127
24699W        W39546  14.214   2.474  15.752 -0.3469  0.0684  0.1254
24700W        W39547   6.774   8.807   5.498  0.0012  0.1956  0.0437
24701W        W39548   3.664   8.944   3.827  0.0197 -0.0125  0.1695
24702W        W39549   9.476   5.739   3.489 -0.1194  0.3471  0.1517
24703W        W39550   6.994  15.066  15.703 -0.0971  0.0777 -0.4365
24704W        W39551   9.899  14.647   4.551 -0.1408  0.0465 -0.1624
24705W        W39552   2.703  16.374   6.571  0.2241  0.0272 -0.0767
24706W        W39553   9.139   5.502  12.219  0.0851 -0.1978  0.1093
24707W        W39554  13.149   6.206  12.230 -0.0667 -0.1178 -0.0571
24708W        W39555  13.998   8.147   0.276  0.4006 -0.3066 -0.0195
24709W        W39556   8.046   8.111   2.268 -0.2191 -0.0654  0.3963
24710W        W39557   2.219  12.302   0.979 -0.0620 -0.2221 -0.0869
24711W        W39558  12.504   4.973   3.025 -0.0067 -0.1900 -0.2310
24712W        W39559  17.209   7.145   5.762  0.4592  0.3951  0.0028
24713W        W39560   5.926   3.792   1.482 -0.0391 -0.0682  0.1005
24714W        W39561   4.393  12.227   2.687 -0.1845 -0.0785  0.2020
24715W        W39562   4.519  11.039  11.188  0.0640 -0.1954  0.2017
24716W        W39563   5.524   7.940   4.456 -0.0327 -0.0150  0.2926
24717W        W39564  12.592  13.640  12.549 -0.0955 -0.1752 -0.0416
24718W        W39565   5.814   5.548  12.389 -0.2844 -0.1778 -0.2929
24719W        W39566   7.823   6.353  16.315  0.1324  0.0912  0.2952
24720W        W39567  14.292  16.924  12.248  0.0529  0.0194 -0.1914
24721W        W39568   6.238  15.724  17.547 -0.5411 -0.2578  0.1654
24722W        W39569   9.885   4.033   3.114  0.3947  0.1228 -0.1370
24723W        W39570   4.559   3.472   3.941 -0.0492  0.2205 -0.1098
24724W        W39571  16.670   8.179  13.738 -0.0609  0.1545  0.0246
24725W        W39572   2.738   8.699  15.913 -0.0000 -0.0168  0.1315
24726W        W39573  12.957   4.248   0.554  0.0893  0.0370  0.2310
24727W        W39574   9.948  17.539  13.928 -0.2508 -0.1016  0.0669
24728W        W39575   4.605  16.983  15.577  0.1443 -0.1675 -0.1507
24729W        W39576  16.314  14.318   6.213  0.2458  0.2997 -0.2054
24730W        W39577   4.427  14.528   0.873 -0.3144 -0.1270  0.0767
24731W        W39578  14.747   9.251   1.367  0.0844  0.1507  0.0413
24732W        W39579  10.204  13.887   0.792 -0.0030  0.1006 -0.1025
24733W        W39580   6.139   9.076  12.016 -0.1183 -0.0237  0.1940
24734W        W39581  14.347   9.265  17.264  0.1541  0.3019 -0.2105
24735W        W39582   5.448   7.601  11.924 -0.1234  0.0043  0.0561
24736W        W39583   9.018  14.089   5.905 -0.0458 -0.0970  0.1064
24737W        W39584   0.069   2.801   5.058  0.0854 -0.0365  0.0563
24738W        W39585   3.614  16.507  17.322 -0.2407  0.0972  0.1531
24739W        W39586  15.638   7.807   0.757  0.2547 -0.0925 -0.1112
24740W        W39587  16.672   5.721  15.557  0.0459  0.2005  0.1089
24741W        W39588  11.548  11.146  14.967  0.1917 -0.1238  0.2729
24742W        W39589  10.752   3.871  15.722 -0.2005 -0.0751 -0.0347
24743W        W39590   4.089   8.448   0.745 -0.0048 -0.2547  0.2440
24744W        W39591   7.840   2.766  12.732 -0.1869  0.6097  0.1740
24745W        W39592   1.940  16.820  14.756  0.1355 -0.0245 -0.1885
24746W        W39593  17.251   7.500  14.663  0.1161 -0.1358 -0.0271
24747W        W39594   7.639   3.832  15.818  0.1438 -0.2038 -0.1108
24748W        W39595   9.633   0.526  14.630  0.4465  0.2552  0.0576
24749W        W39596   6.406   4.444  16.921  0.0272 -0.1423  0.1420
24750W        W39597  11.195   5.597  15.151 -0.0040 -0.0199 -0.1272
24751W        W39598   5.420  10.681  14.537 -0.1220  0.2082 -0.3078
24752W        W39599   0.863  11.432  15.393  0.0658  0.2651 -0.0984
24753W        W39600  11.714   4.919  17.170  0.1053  0.0106 -0.1107
24754W        W39601   3.523   7.218  14.399  0.0171 -0.0047 -0.3658
24755W        W39602   5.312   0.555   4.122  0.0019  0.3154 -0.1384
24756W        W39603  15.601   1.829  12.821 -0.2622 -0.0137  0.2497
24757W        W39604   1.113  11.672  14.859  0.0002  0.1549  0.1764
24758W        W39605   9.930   5.502  14.219 -0.5265  0.6464  0.1959
24759W        W39606  10.801  13.396   0.270  0.1485 -0.1070 -0.0294
24760W        W39607  14.462   8.019   0.288 -0.1106  0.0856 -0.1713
24761W        W39608  13.098  14.271   3.304 -0.1383  0.1585  0.1405
24762W        W39609  15.113   7.750  14.679  0.1141 -0.3108 -0.1438
24763W        W39610   1.401   9.635   3.923  0.1395 -0.0602 -0.1876
24764W        W39611  12.775  17.106  14.668 -0.2380 -0.0640  0.1467
24765W        W39612  16.728  17.124   4.819 -0.1038  0.3899 -0.1283
24766W        W39613  12.082   4.101   4.633 -0.0545  0.1207 -0.0067
24767W        W39614  11.501   3.276   2.736 -0.1630 -0.1722  0.0247
24768W        W39615   0.901   6.658  12.630  0.0762 -0.0946 -0.0147
24769W        W39616  15.556   1.872   1.574  0.2511 -0.0154 -0.0432
24770W        W39617  15.011   9.095   2.762 -0.0600  0.0587 -0.0417
24771W        W39618   1.898  15.313  15.248  0.2687 -0.1274  0.2389
24772W        W39619   5.857  11.475  13.636  0.5513  0.0618  0.0114
24773W        W39620   1.842  15.828   4.266 -0.1283  0.1424  0.0408
24774W        W39621  11.028   8.974  15.612  0.4399 -0.1398  0.0346
24775W        W39622   0.156  17.407  16.166  0.5207 -0.1278  0.0886
24776W        W39623  15.593  13.841   6.161 -0.0323 -0.0985 -0.2687
24777W        W39624   1.317  12.108   2.494 -0.2059  0.0820 -0.0775
24778W        W39625  13.711  11.235  17.270 -0.2886  0.2179  0.0360
24779W        W39626   0.683   8.163   0.328  0.0224  0.0172 -0.2579
24780W        W39627  12.587   6.500   5.589  0.2303 -0.1172  0.2112
24781W        W39628   7.538   5.029  13.783  0.0068  0.0114  0.0349
24782W        W39629  10.351   8.634  13.677 -0.1016  0.3049 -0.1452
24783W        W39630   6.610   3.527   2.555  0.0126 -0.3604  0.4283
24784W        W39631  14.919   7.945  14.223  0.1332 -0.3558 -0.0356
24785W        W39632  11.294  14.806   4.249 -0.1907 -0.0900  0.1734
24786W        W39633   4.211   4.215   4.225 -0.0782  0.1033 -0.0747
24787W        W39634   5.271   6.685   5.322  0.0375 -0.0695  0.0958
24788W        W39635  16.459   5.026  16.311 -0.0177  0.1103 -0.3616
24789W        W39636   1.831  11.597  16.525 -0.3025 -0.4378  0.2845
24790W        W39637   5.589   2.752  16.878  0.2555 -0.1507 -0.2923
24791W        W39638   9.002   8.332   2.748 -0.0542  0.0674  0.1286
24792W        W39639   8.903   2.633  12.956  0.2024 -0.4605  0.1185
24793W        W39640   2.133   5.038   5.718 -0.0667  0.0670  0.0719
24794W        W39641   7.086  16.648   1.478 -0.3033  0.2085  0.3527
24795W        W39642  15.793  11.716   2.930  0.1636 -0.0823  0.1438
24796W        W39643   5.399   2.740  14.721  0.4177 -0.1360 -0.2095
24797W        W39644   9.374  12.877  12.427  0.2300 -0.2640 -0.1949
24798W        W39645   8.488   6.052  12.806  0.0943  0.0854  0.0963
24799W        W39646   2.256  16.912  17.130 -0.1867  0.0559 -0.0591
24800W        W39647   3.228   0.632   4.443 -0.1134  0.0975  0.3374
24801W        W39648  12.779  12.730   5.137 -0.3634 -0.0247  0.1438
24802W        W39649   7.589   1.415   3.917 -0.2126  0.2035  0.3320
24803W        W39650  12.037   2.013   6.797 -0.1814  0.1301 -0.1747
24804W        W39651   8.840   6.788  16.909  0.2326 -0.0511 -0.0038
24805W        W39652  13.822   9.479   5.277  0.1688  0.2928  0.3751
24806W        W39653   1.535  12.891   3.482 -0.0731  0.2712  0.0657
24807W        W39654  16.509  14.675  14.217  0.1468  0.2240  0.0990
24808W        W39655   6.468  15.303  13.546  0.0242  0.0057  0.5182
24809W        W39656   0.624  15.233  15.703 -0.1109  0.4457  0.2025
24810W        W39657  14.035   7.654  17.153 -0.0792  0.0385 -0.1651
24811W        W39658   6.426   6.918   1.373  0.4117  0.0640  0.0723
24812W        W39659  11.652   5.413   1.795 -0.0706  0.0721  0.2101
24813W        W39660   4.660   8.694   2.850  0.1306  0.0632  0.0821
24814W        W39661  17.486   4.764  16.839  0.0711 -0.0541 -0.0270
24815W        W39662  17.335   3.560  12.490 -0.0803 -0.0879 -0.2399
24816W        W39663  16.998  16.931   0.044 -0.0321 -0.2295  0.1868
24817W        W39664   0.152   6.415   0.771 -0.1219  0.0446 -0.2621
24818W        W39665  17.058   1.261   3.134  0.2314 -0.0253 -0.2567
24819W        W39666  13.235  17.227   3.411 -0.0189  0.0298  0.1194
24820W        W39667  15.478   1.545  14.743  0.0969 -0.0977  0.0579
24821W        W39668   4.836   8.139   6.188 -0.2329 -0.1635  0.0673
24822W        W39669   5.711  11.750  17.661  0.1242 -0.1226 -0.0908
24823W        W39670   2.723   6.936   5.789  0.0752  0.1170 -0.2198
24824W        W39671  15.388   6.721  13.994  0.1242  0.0911  0.2816
24825W        W39672   3.182  11.542  14.377  0.3582 -0.1237 -0.1202
24826W        W39673   3.334  13.542  13.311  0.0250 -0.3007 -0.1217
24827W        W39674   5.659  14.287  16.473  0.4528 -0.0722 -0.1460
24828W        W39675   5.416   6.763  15.101 -0.0635 -0.2449 -0.2065
24829W        W39676   8.847  11.524   0.444  0.0169  0.1596  0.1388
24830W        W39677   3.039   7.789   1.042 -0.1584  0.3779 -0.2288
24831W        W39678   3.078   7.200   1.126 -0.0613 -0.1883 -0.0880
24832W        W39679   2.195   7.692   0.926  0.2987  0.1092 -0.2481
24833W        W39680  11.553   5.419  13.767 -0.2628  0.2285  0.0170
24834W        W39681   8.161  10.053   3.023 -0.0858  0.0128 -0.1157
24835W        W39682  16.029   2.223  17.547  0.1967 -0.1265  0.0498
24836W        W39683  15.651   1.698   0.583 -0.0269 -0.1425  0.0576
24837W        W39684  15.361  14.662  15.005 -0.1238  0.0134 -0.0485
24838W        W39685   4.011   0.115  12.272  0.2083 -0.0648  0.1164
24839W        W39686   8.186  12.288  14.736  0.1076 -0.2102  0.1374
24840W        W39687  10.513  15.946  16.521  0.1378 -0.1909  0.2518
24841W        W39688  10.338  10.482  14.708  0.1227 -0.0821  0.0391
24842W        W39689   0.538  14.149  17.378  0.5663 -0.2960  0.2623
24843W        W39690  16.665   9.307  14.355 -0.0961  0.0227 -0.7819
24844W        W39691  11.753   0.674  15.984  0.2698 -0.1687 -0.0228
24845W        W39692   9.542   4.162  13.055  0.0805 -0.2314  0.1989
24846W        W39693   6.751  13.323  14.166 -0.0095 -0.1813  0.0199
24847W        W39694   3.108   7.034  14.114 -0.3933 -0.1126 -0.0170
24848W        W39695   4.463   0.030  16.345 -0.1074  0.1171 -0.3174
24849W        W39696   4.624   3.518   3.413  0.1807  0.1035  0.1351
24850W        W39697   9.170   5.074  11.655 -0.0700 -0.0620 -0.0488
24851W        W39698   4.392  12.340   1.287 -0.2988 -0.2676  0.2108
24852W        W39699  13.585  12.278   0.470  0.1263 -0.0592  0.3045
24853W        W39700   8.069   7.393   5.094  0.2507  0.1421 -0.3283
24854W        W39701  13.539  13.569  17.492 -0.0509 -0.1227  0.1663
24855W        W39702  16.471   1.232  12.095  0.1934  0.1885  0.3949
24856W        W39703  12.453  15.029  14.899  0.1967 -0.1219 -0.0447
24857W        W39704  17.111  16.455  13.739  0.0690 -0.1007 -0.3548
24858W        W39705  15.363   1.394   1.442 -0.1571  0.1382 -0.0405
24859W        W39706  17.010   0.780   6.586 -0.1799  0.0145  0.0996
24860W        W39707  17.342   4.045   2.870 -0.1374  0.2877 -0.0353
24861W        W39708   8.094   1.242  11.820 -0.0603  0.1858  0.1177
24862W        W39709   7.017   7.738  16.600  0.0253 -0.1996 -0.2199
24863W        W39710   7.048  16.262  17.391 -0.3508 -0.2210 -0.2105
24864W        W39711   9.155   4.074  15.599 -0.0475  0.0468 -0.0660
24865W        W39712  15.354  10.339  13.719  0.1925 -0.0459 -0.4743
24866W        W39713   7.538   5.782   2.060  0.0951  0.0674 -0.0596
24867W        W39714  15.846   9.093   5.244 -0.3407  0.1233  0.2106
24868W        W39715   4.476  13.395  15.482  0.1219 -0.3647 -0.4583
24869W        W39716  12.028  14.562   4.841 -0.0707 -0.0132  0.0994
24870W        W39717  16.238  15.474   5.284  0.0933  0.1834  0.2856
24871W        W39718   4.736   8.569  12.789  0.1995  0.0839 -0.2510
24872W        W39719  11.332   2.713  17.401  0.1807 -0.1485  0.1237
24873W        W39720   9.021  15.628  16.789  0.0581 -0.1562  0.0517
24874W        W39721   5.215  15.557  13.755  0.1301  0.1800 -0.2665
24875W        W39722   9.507   8.853  16.954 -0.2880 -0.1977  0.2186
24876W        W39723   0.816   4.413  13.799  0.0834  0.5081  0.0628
24877W        W39724  10.839   8.128  17.288  0.2517 -0.2883 -0.0120
24878W        W39725  17.427   4.806   1.152 -0.1838  0.0813 -0.2364
24879W        W39726   7.404  14.335   0.908 -0.2960  0.1889  0.1315
24880W        W39727  14.099   2.291  12.765 -0.1045 -0.2740 -0.2048
24881W        W39728   7.929  12.854  12.204 -0.2300 -0.1504  0.2071
24882W        W39729   6.101  14.483  16.243  0.0760  0.2118 -0.1753
24883W        W39730   6.709   9.380  17.522  0.2757 -0.0168  0.1728
24884W        W39731   1.707   9.473  13.197 -0.3106  0.0672  0.2740
24885W        W39732   1.530   4.810  14.057 -0.0396 -0.0475  0.1777
24886W        W39733  11.578   5.535  12.650 -0.1517  0.2754  0.0153
24887W        W39734   7.279  15.639  11.846  0.0071 -0.1540  0.1312
24888W        W39735   2.442  16.475  14.024  0.2491  0.3237 -0.0179
24889W        W39736  10.223  11.945  13.813 -0.1625  0.3082  0.3015
24890W        W39737  10.686   3.806   1.986  0.0071 -0.1919 -0.0618
24891W        W39738  14.471   3.886  14.056 -0.0233  0.0432  0.0218
24892W        W39739  17.389   6.327  12.706  0.1374 -0.2017  0.0560
24893W        W39740   7.116   3.142  16.405 -0.1093 -0.0473 -0.1099
24894W        W39741   6.124   5.187  12.049  0.1535  0.0098  0.0037
24895W        W39742   8.564  14.049  11.889  0.5286  0.0806  0.1317
24896W        W39743  16.811   0.733   4.226 -0.1683 -0.0592 -0.0269
24897W        W39744   3.269   9.918   1.634  0.1824 -0.1349 -0.1372
24898W        W39745   4.386   6.540  16.235 -0.0238 -0.0124  0.2869
24899W        W39746   8.784  11.721   1.463 -0.0922 -0.1474 -0.1500
24900W        W39747   4.335   6.850  13.820 -0.3981 -0.2691  0.1707
24901W        W39748  13.574   7.644   3.694 -0.1570  0.1150  0.3196
24902W        W39749  11.714  16.445   3.600 -0.1925 -0.0683 -0.3005
24903W        W39750  11.482   8.140   1.766  0.0214  0.3204 -0.1048
24904W        W39751   6.075   6.108  11.541  0.1127 -0.4404  0.0866
24905W        W39752   5.396   1.692   0.432  0.1976 -0.2898 -0.0752
24906W        W39753  16.080   9.993   3.476  0.3395 -0.1246  0.2043
24907W        W39754   7.119  15.184  14.251 -0.1794 -0.0302 -0.1567
24908W        W39755  13.454   8.202  12.644 -0.0767  0.0321  0.0496
24909W        W39756  13.842  11.703   4.809 -0.0944 -0.2074 -0.0455
24910W        W39757   6.655   5.043   1.609 -0.0412  0.1918  0.1971
24911W        W39758  10.458  13.043   5.019 -0.2236  0.1965  0.2867
24912W        W39759   8.630   6.447  17.272  0.2076 -0.0420 -0.0086
24913W        W39760   8.158  10.617  12.661  0.0425 -0.0770  0.1484
24914W        W39761   0.165  15.551  12.902  0.1157 -0.1244  0.1268
24915W        W39762   7.190   8.746   2.585 -0.1424 -0.0028 -0.0744
24916W        W39763  13.481  16.106  11.967 -0.4469 -0.3119 -0.1013
24917W        W39764  16.862   8.278  15.207  0.0025 -0.1968 -0.0176
24918W        W39765  17.639  13.322  13.603  0.2037  0.1244 -0.1596
24919W        W39766  16.311   1.863  12.299  0.0943  0.0939  0.0792
24920W        W39767  13.513   5.760  17.460  0.0026 -0.2828 -0.1805
24921W        W39768  16.892   2.548  16.962  0.0349  0.1153  0.2555
24922W        W39769   8.729   3.522   0.985  0.0800  0.2495 -0.4507
24923W        W39770   2.321  11.780  16.494 -0.2984  0.0012  0.2415
24924W        W39771   8.592   1.284   2.022 -0.4307  0.1206  0.2238
24925W        W39772   8.523  13.885  12.336  0.2710 -0.1267 -0.0656
24926W        W39773  10.697  10.920  14.144 -0.2244  0.1659  0.2897
24927W        W39774   0.335  10.917   1.945  0.0394 -0.1950  0.1593
24928W        W39775  15.552   6.521   1.978  0.1805  0.0106 -0.1423
24929W        W39776  10.180   8.524   4.583  0.4630  0.1458  0.0113
24930W        W39777   5.661  17.487   3.146 -0.0957  0.0757  0.0038
24931W        W39778  14.442  10.996  15.287  0.1356  0.3946 -0.0473
24932W        W39779   6.960  15.621   3.253 -0.5061  0.0685 -0.2217
24933W        W39780  13.429   4.994   1.392 -0.0479 -0.0640 -0.1026
24934W        W39781   1.518  17.528  16.486  0.0649  0.3976  0.1896
24935W        W39782  16.399   7.678  13.835  0.1056 -0.1490  0.3308
24936W        W39783  16.322  17.633   1.668  0.3198  0.1752  0.0803
24937W        W39784  14.243   5.825  16.530  0.1188 -0.4150 -0.1725
24938W        W39785  16.300   3.843  12.946 -0.1154 -0.1055  0.2402
24939W        W39786   1.249   9.026  14.034  0.0306  0.0807 -0.0780
24940W        W39787   2.981   3.798   0.012  0.0392 -0.1736  0.1589
24941W        W39788   8.159   1.484  12.303  0.0751 -0.1477 -0.1268
24942W        W39789  12.114  11.871  13.783  0.0138  0.1372 -0.0098
24943W        W39790  17.536   8.169   0.621  0.4155 -0.1254 -0.0813
24944W        W39791  15.768   3.305  16.148  0.0092 -0.4197  0.1303
24945W        W39792   2.231  14.028  12.021  0.0527  0.0079  0.0697
24946W        W39793   2.161   9.705  13.281 -0.0842 -0.1006 -0.0074
24947W        W39794  12.523   7.558  17.496 -0.0808  0.2868  0.0301
24948W        W39795   2.823   7.002  14.583  0.3751 -0.0370 -0.0784
24949W        W39796   3.900  13.475   4.967  0.1029  0.0337  0.3733
24950W        W39797   0.476   6.978  16.449 -0.0520  0.0854  0.2050
24951W        W39798  10.101  16.544   7.024  0.3296 -0.3035  0.2347
24952W        W39799   9.455  11.813  11.497 -0.0597 -0.2117 -0.5022
24953W        W39800  15.582  13.261  16.513 -0.0303 -0.1606 -0.2849
24954W        W39801   3.406   7.983  13.969  0.0002  0.1086  0.1978
24955W        W39802   3.346  12.759  16.374  0.2158  0.1012 -0.2830
24956W        W39803  11.751   6.739  16.159  0.1091  0.2100 -0.0475
24957W        W39804   3.688   3.709   2.221 -0.0420  0.0576 -0.2801
24958W        W39805   6.157   9.859  15.096  0.2639 -0.1982 -0.0209
24959W        W39806  14.560  13.139   5.385 -0.1746  0.2813 -0.2707
24960W        W39807   4.498   5.468   0.949 -0.1325 -0.3056 -0.0914
24961W        W39808  10.498  12.800  13.543  0.4071  0.0463 -0.1677
24962W        W39809   7.749   0.946   4.234 -0.0679 -0.0021 -0.0119
24963W        W39810  11.399   6.134  15.463  0.1025  0.0060 -0.4654
24964W        W39811  16.061   0.274   3.700 -0.3219  0.1396  0.5016
24965W        W39812   0.042   0.230   5.156 -0.0345  0.1029  0.0300
24966W        W39813   4.077  14.321   6.259 -0.1480  0.2811 -0.0136
24967W        W39814   0.757   1.315  14.505 -0.0634  0.0500 -0.1952
24968W        W39815   0.322   2.152  15.976  0.1752  0.1933  0.4421
24969W        W39816  17.652  15.617  13.838 -0.2255  0.1532 -0.3483
24970W        W39817  10.834  11.210  14.989  0.3841 -0.1006  0.0968
24971W        W39818  11.782  10.698   6.056 -0.0305  0.2883 -0.1444
24972W        W39819   5.456  17.118  14.919  0.0430  0.3192 -0.0472
24973W        W39820  11.885   6.586   0.934  0.0726 -0.1565  0.2036
24974W        W39821  11.930   9.342   0.097 -0.1459 -0.0715 -0.1695
24975W        W39822   2.645  15.811   2.302 -0.1970  0.2351  0.1579
24976W        W39823   1.906  10.126  15.081 -0.0627  0.0853  0.1091
24977W        W39824   7.949   8.403   2.915 -0.1241 -0.3006 -0.0517
24978W        W39825  12.793  16.689  17.531  0.0920  0.0279 -0.0990
24979W        W39826   7.307   4.233  12.857  0.0340 -0.2480 -0.2211
24980W        W39827   3.433  14.115   2.046  0.0562 -0.1046  0.1519
24981W        W39828  15.308  14.477  15.872 -0.0434  0.1002 -0.1512
24982W        W39829   3.928  16.787   3.950 -0.1808 -0.4156 -0.1956
24983W        W39830  13.712  10.967   6.791  0.1407 -0.1050 -0.1532
24984W        W39831   6.928  15.356  16.903 -0.2402  0.0928 -0.0723
24985W        W39832  11.138  14.319   4.413 -0.0835  0.0309 -0.0787
24986W        W39833   2.413   2.800  13.456 -0.1579  0.1781 -0.0340
24987W        W39834   2.170  13.627  11.611  0.0868 -0.0531  0.1288
24988W        W39835  10.774   6.664  13.824 -0.0551  0.0470 -0.1969
24989W        W39836  16.701   6.085   4.483  0.0145  0.2436 -0.1078
24990W        W39837   2.866   2.110   3.928 -0.0534 -0.4209  0.1447
24991W        W39838   3.921  10.879  17.125 -0.1071 -0.1254 -0.1874
24992W        W39839   8.950   3.694   1.779 -0.2140  0.0843 -0.1413
24993W        W39840   2.985   6.205  15.256  0.0358 -0.2760 -0.0155
24994W        W39841  11.551   9.254   2.704 -0.0130  0.0180 -0.2965
24995W        W39842  10.173  11.421   4.281  0.1758 -0.2803  0.2968
24996W        W39843   0.094  13.750  12.364  0.2944  0.1915 -0.0452
24997W        W39844  11.321   3.147   0.380  0.0576  0.0408 -0.0150
24998W        W39845  14.713   7.300  14.246  0.1646  0.0092 -0.1514
24999W        W39846   2.011  10.021  16.101  0.1605 -0.0986  0.4159
25000W        W39847  12.520  10.967  13.724 -0.1306 -0.0805  0.0772
25001W        W39848  17.213   0.921   3.439  0.1661 -0.0079 -0.2991
25002W        W39849  12.560   9.091  14.876  0.2001 -0.2895  0.0121
25003W        W39850  10.406   6.850  13.585 -0.0854  0.0916 -0.0802
25004W        W39851   0.769   1.768   6.412  0.2426  0.0195  0.0386
25005W        W39852   3.644  13.175  15.652 -0.0714 -0.1906 -0.1893
25006W        W39853  12.595   2.067  16.197  0.3379  0.0586 -0.2641
25007W        W39854   7.089  16.773   5.281 -0.0013 -0.0423 -0.1157
25008W        W39855   6.321  15.214  16.977 -0.1713 -0.0345 -0.1358
25009W        W39856   5.204   4.330   1.389 -0.0917  0.1322  0.0509
25010W        W39857  10.625   9.420   4.420  0.0648  0.0386 -0.0124
25011W        W39858   9.737   1.953   3.730  0.0838 -0.0690  0.0062
25012W        W39859   7.896   5.383  13.558  0.0416 -0.4529 -0.0795
25013W        W39860  11.858  13.524   0.943  0.0919  0.0014 -0.0151
25014W        W39861   3.113  13.176  14.262 -0.2623 -0.2489  0.1752
25015W        W39862  10.010   8.965   2.366  0.0114  0.1224  0.0451
25016W        W39863   6.181   0.558  12.310 -0.1843 -0.1014  0.2088
25017W        W39864  16.915   2.449   3.460  0.0641 -0.0932 -0.0989
25018W        W39865  13.625  14.403  16.042 -0.0944 -0.0866 -0.2130
25019W        W39866  12.154   0.477  15.060  0.1170 -0.1345 -0.0806
25020W        W39867  13.102   4.475  14.895 -0.0075 -0.0663 -0.0965
25021W        W39868   7.626   5.640   4.518  0.0129 -0.2728  0.1649
25022W        W39869   2.968  15.773  17.035 -0.1190  0.1814 -0.1058
25023W        W39870   0.662  13.449  14.821  0.2880  0.2851 -0.3287
25024W        W39871  16.320   9.060   2.923 -0.3150 -0.1673 -0.1694
25025W        W39872   3.889   8.486   1.374  0.0628  0.0197  0.2015
25026W        W39873  17.403   3.570  16.360 -0.0411 -0.0515 -0.0063
25027W        W39874   1.464  15.877   5.596  0.0182  0.2696  0.0070
25028W        W39875  15.061  16.761   5.683  0.1489  0.2221 -0.0176
25029W        W39876   7.052  13.623  11.331 -0.0970 -0.2841 -0.1017
25030W        W39877   8.339   8.505  16.334  0.1492 -0.3343  0.2396
25031W        W39878  15.331   5.874  16.165 -0.0676  0.0450  0.0947
25032W        W39879   8.075   6.001   4.490 -0.1444  0.0868 -0.0647
25033W        W39880  14.703   4.321  11.717 -0.3203  0.1092  0.1358
25034W        W39881  14.746   5.019   2.993  0.1224 -0.1013 -0.1566
25035W        W39882   2.367   0.463  13.298  0.0542 -0.2201 -0.0201
25036W        W39883   6.541  16.474   6.056  0.1173 -0.0844 -0.2402
25037W        W39884   9.041  13.100   6.396 -0.2474  0.1308 -0.0121
25038W        W39885   3.750  15.947   3.694  0.3690 -0.1041  0.0982
25039W        W39886   7.299  10.641  14.986 -0.1014  0.1665  0.0547
25040W        W39887   2.351   6.238   1.065  0.0885  0.0865  0.1788
25041W        W39888   1.947   7.458  12.804 -0.1569 -0.0304  0.1429
25042W        W39889  12.849   8.949  14.308 -0.0322  0.0989  0.2035
25043W        W39890   8.199  17.086   0.719 -0.1380 -0.0265  0.0917
25044W        W39891  13.544  15.199   6.992 -0.1972 -0.1721  0.0916
25045W        W39892   5.457  11.457   1.658 -0.2145  0.1807 -0.0421
25046W        W39893   4.902  10.894  11.715 -0.2317  0.0634 -0.1351
25047W        W39894  15.286   6.648   0.162  0.0705 -0.0200 -0.3549
25048W        W39895  15.873  17.678   2.048  0.1270 -0.2991  0.2095
25049W        W39896   6.586  14.094   4.117 -0.0289  0.1027 -0.0529
25050W        W39897   1.140  14.620  14.966  0.2103  0.2204  0.0301
25051W        W39898  14.930  13.592  17.583  0.3966 -0.1272 -0.1280
25052W        W39899   3.739  14.720   6.642 -0.2175 -0.0256  0.2262
25053W        W39900   9.791   7.763  12.914  0.3065  0.1012  0.2238
25054W        W39901  17.635  11.079   3.727  0.1053 -0.1217 -0.0483
25055W        W39902   7.308  13.509   3.909  0.0358  0.0489 -0.0177
25056W        W39903   0.336   9.684   3.687  0.1255 -0.0766 -0.2112
25057W        W39904   9.348  15.434  15.971  0.0191  0.2109 -0.1371
25058W        W39905  11.766   5.849  15.780 -0.0250 -0.4375 -0.2195
25059W        W39906   4.081   2.650   0.851 -0.1077  0.1147 -0.1330
25060W        W39907   8.608   2.597  14.052 -0.0702  0.0501  0.1520
25061W        W39908   0.457  14.513  12.321 -0.0405 -0.1478 -0.0849
25062W        W39909   6.900  15.557  15.663 -0.2664 -0.0977 -0.3873
25063W        W39910   4.944   6.758   2.023 -0.0923 -0.2849  0.0171
25064W        W39911  12.173  16.473   0.421  0.0456  0.1915 -0.4062
25065W        W39912   6.918  16.892   5.778 -0.1265  0.1240  0.0261
25066W        W39913  15.021  11.582   6.144 -0.1500 -0.1664  0.0563
25067W        W39914  14.990   4.950   5.859 -0.3104 -0.2506  0.1391
25068W        W39915   5.205  15.584   3.459 -0.1905  0.0582 -0.0023
25069W        W39916   3.066   0.645  11.275  0.2325 -0.1677 -0.1874
25070W        W39917  16.971  13.107   3.968 -0.0749 -0.0946 -0.0842
25071W        W39918  11.442   0.672   0.430  0.1427  0.2351  0.2076
25072W        W39919   4.158  15.976   0.949  0.0974 -0.1262  0.0476
25073W        W39920   5.370   2.576   5.797  0.0965  0.0636  0.0646
25074W        W39921  16.605   6.779  12.868 -0.2738 -0.0331 -0.2428
25075W        W39922  12.222   8.250   2.362 -0.0562 -0.0344  0.1754
25076W        W39923  11.537   9.514   4.565  0.1764 -0.2111 -0.0736
25077W        W39924   7.508   7.739  12.267 -0.3366  0.0252  0.2272
25078W        W39925  14.863  13.781  16.354  0.4415 -0.3163 -0.3188
25079W        W39926  15.773   8.759   1.183  0.0074 -0.0567 -0.1271
25080W        W39927  10.361   1.797  15.114  0.1953  0.0510  0.3071
25081W        W39928   2.327  10.058  13.565 -0.1258 -0.3099 -0.1541
25082W        W39929   8.851  12.034   5.610  0.0136  0.1263  0.0865
25083W        W39930  14.385   1.137   4.983 -0.0132  0.1294  0.0691
25084W        W39931   1.066  13.701   5.060 -0.0484  0.0998 -0.1974
25085W        W39932  15.158   1.266   5.584 -0.0836  0.1409  0.1978
25086W        W39933   5.164  12.897   0.523 -0.1175  0.2077  0.4354
25087W        W39934  13.929   1.504   0.383  0.0818  0.0183 -0.1445
25088W        W39935  13.529  10.655  15.170 -0.0113  0.2060  0.3089
25089W        W39936   4.724   3.403  11.764 -0.0757  0.1571  0.0135
25090W        W39937  16.135   8.527  12.637 -0.0421 -0.0865  0.2593
25091W        W39938  16.877   7.578   2.438  0.0218  0.2370 -0.3174
25092W        W39939   4.700   3.877  17.248 -0.2645  0.1986 -0.1309
25093W        W39940   6.965   9.147   4.568 -0.1173 -0.0294 -0.0768
25094W        W39941   8.925  11.883  15.043  0.0016 -0.2328  0.1482
25095W        W39942   3.390  13.053  13.478  0.1803 -0.1644  0.3220
25096W        W39943  13.106  14.039   5.242  0.0235 -0.2766 -0.1473
25097W        W39944  14.518  10.838  17.272 -0.0516 -0.0910  0.0883
25098W        W39945   7.776  12.584  14.047 -0.3981 -0.1005  0.0006
25099W        W39946   8.351   6.600  17.619  0.3751  0.2398 -0.0327
25100W        W39947  10.174  14.605   3.260 -0.0524 -0.0417  0.0742
25101W        W39948  11.631   7.269  12.047 -0.0812 -0.1662 -0.0131
25102W        W39949   8.491   0.040  12.724  0.0750 -0.0684 -0.0934
25103W        W39950   9.522  11.814  11.970  0.0628 -0.0124  0.1120
25104W        W39951   7.669   3.262   1.050 -0.0495 -0.0667  0.1006
25105W        W39952   9.727   3.166  16.146  0.1361  0.1080 -0.2094
25106W        W39953   0.716   9.356  12.722  0.5166  0.2135  0.3222
25107W        W39954   5.485   1.199   6.407 -0.0450 -0.0283  0.0255
25108W        W39955  10.823  15.822   6.179  0.3441  0.1044 -0.1714
25109W        W39956   3.617  10.243  16.058  0.0876 -0.4479 -0.1322
25110W        W39957   5.692  15.198  14.458 -0.1183 -0.3759 -0.0855
25111W        W39958  12.209  12.965  17.022 -0.0291  0.0626 -0.0590
25112W        W39959  10.634   4.114   4.940 -0.1313 -0.2061 -0.1253
25113W        W39960  13.233   3.131   0.901 -0.1361 -0.2247 -0.0389
25114W        W39961   1.750  13.249  17.110  0.0360  0.1972 -0.2470
25115W        W39962  11.848  15.803  17.425 -0.1068  0.0341  0.0199
25116W        W39963  16.572   1.980  17.466 -0.0372  0.2372 -0.0579
25117W        W39964  11.893   4.125   4.166  0.2553  0.0900  0.0324
25118W        W39965   5.761   1.082  16.985 -0.2105 -0.0165 -0.0612
25119W        W39966  14.473  16.245  16.166  0.0839 -0.0617 -0.1887
25120W        W39967   9.525  10.051   0.191  0.3015  0.1705  0.2658
25121W        W39968  16.065  13.546  15.856 -0.3714  0.0863  0.2787
25122W        W39969  12.807   2.412  12.117 -0.1680 -0.0793  0.1581
25123W        W39970   6.125   1.397   5.474 -0.1923 -0.1337 -0.0705
25124W        W39971  12.824   2.404  13.172  0.0214  0.0496  0.0010
25125W        W39972   6.438   5.412   4.697 -0.0088 -0.0566 -0.2215
25126W        W39973  11.226   2.522  16.060  0.2166  0.0558 -0.1748
25127W        W39974  16.997   5.581  15.897 -0.0861  0.3814  0.0513
25128W        W39975   7.737  17.286  14.357 -0.0980  0.0116  0.3790
25129W        W39976   6.523  14.797  15.813  0.0197  0.1279 -0.2335
25130W        W39977   3.671  17.454  13.157  0.0922  0.1696  0.0475
25131W        W39978   5.935   3.813   0.966  0.0753 -0.1748 -0.0988
25132W        W39979   0.672   4.796  15.413  0.0789 -0.1306 -0.5348
25133W        W39980  11.049  12.047   3.960  0.1920  0.0985 -0.2467
25134W        W39981  15.513  11.952   3.699  0.2573 -0.0032  0.2244
25135W        W39982   5.172   6.004   3.717  0.0023 -0.0573 -0.2273
25136W        W39983   9.061   1.411  16.931  0.1402  0.1173  0.0599
25137W        W39984  16.335   4.988   3.569 -0.2924 -0.0426 -0.0031
25138W        W39985   3.209   6.387  13.205  0.1526 -0.0278  0.0585
25139W        W39986  16.581  13.100   2.960 -0.0068 -0.0509  0.0412
25140W        W39987  16.087   7.320   0.149  0.0101 -0.2243 -0.0206
25141W        W39988   4.750   2.677  11.495 -0.1869  0.1374 -0.0078
25142W        W39989  11.422  13.550  15.386 -0.0664 -0.1309 -0.1690
25143W        W39990  12.883   5.130  16.120 -0.2472 -0.3442 -0.1313
25144W        W39991   2.636  17.621   4.221  0.1455  0.4060  0.4562
25145W        W39992  15.480  12.909  14.859  0.5443 -0.1272  0.2928
25146W        W39993  12.722   2.604   6.299 -0.2334 -0.2950 -0.2067
25147W        W39994   6.713  12.883  13.797  0.0922  0.0953  0.0381
25148W        W39995   0.176  13.051  13.934 -0.1161 -0.1319 -0.0252
25149W        W39996  15.978   2.519  15.760  0.2615  0.0948  0.1227
25150W        W39997   8.885  14.322  12.860  0.1076 -0.0397 -0.0265
25151W        W39998  13.685   0.684  13.981 -0.0965  0.1996 -0.2211
25152W        W39999   4.249   4.703  15.061  0.1188 -0.1739  0.2484
25153W        W40000   6.466   2.137  17.453  0.2874  0.1476  0.1939
25154W        W40001  12.613   9.747   1.309  0.1756  0.0089  0.0752
25155W        W40002   8.839   0.785   5.316  0.2516  0.1551 -0.1745
25156W        W40003   0.951   8.922  15.127 -0.3392  0.0751  0.1248
25157W        W40004  14.142   1.253  15.260 -0.0254  0.1818 -0.2426
25158W        W40005   4.102  15.529  12.427 -0.0538  0.0845  0.0784
25159W        W40006   9.195   7.459  17.463 -0.0313  0.3331  0.3031
25160W        W40007   4.598   9.838  10.936  0.1716 -0.4367  0.0649
25161W        W40008   9.959   3.417   1.739 -0.0108  0.3592  0.0407
25162W        W40009   3.258  13.415   6.155 -0.0765  0.1242  0.0428
25163W        W40010  15.684   6.001   3.560  0.0218 -0.0443 -0.0232
25164W        W40011   9.209  11.611   1.264 -0.1444  0.2384 -0.0628
25165W        W40012  12.851  10.215  17.339 -0.1663 -0.2829 -0.1712
25166W        W40013   8.869  17.311  10.920  0.4545 -0.0641 -0.2098
25167W        W40014  13.702  14.982   1.148  0.1530 -0.1646  0.0069
25168W        W40015   0.583  16.048   1.781 -0.0131 -0.2298  0.2985
25169W        W40016  16.975   3.792   2.068  0.0625 -0.0588  0.2192
25170W        W40017   2.953  13.349  16.756  0.0485 -0.2215  0.0475
25171W        W40018  12.403  12.930  14.193 -0.0135  0.2529  0.0036
25172W        W40019   8.884  12.820  12.692  0.1482 -0.0362  0.0176
25173W        W40020   1.621   8.092  15.235  0.1053 -0.0877 -0.1418
25174W        W40021   7.912  12.657  14.537  0.0855  0.1323  0.0171
25175W        W40022   3.829  16.723  13.355 -0.0971  0.1890 -0.0774
25176W        W40023   5.082   0.265   2.294 -0.1051  0.1053  0.1254
25177W        W40024   9.276   1.714   1.476  0.0107 -0.0803  0.0044
25178W        W40025   2.917   9.792   5.848  0.0223 -0.0916 -0.0947
25179W        W40026   0.856  13.282   4.906 -0.0657  0.2116  0.0959
25180W        W40027  10.095   1.885   3.347  0.0818  0.0053  0.1159
25181W        W40028   4.143   8.532  11.473 -0.1154  0.2187 -0.2198
25182W        W40029   5.689   5.909   1.512  0.0550 -0.2355  0.1460
25183W        W40030   8.244  10.538   2.225  0.1981  0.0843 -0.0367
25184W        W40031  16.511   2.873   2.005  0.2473 -0.2389 -0.0877
25185W        W40032   4.601  10.161   1.975 -0.1107 -0.0460 -0.1837
25186W        W40033   3.483  12.575  15.317  0.0792 -0.0581 -0.0015
25187W        W40034   8.196   0.205   2.271  0.3014  0.1027  0.1481
25188W        W40035  11.325  17.148  11.408 -0.1185 -0.2379 -0.2034
25189W        W40036  11.991   7.595   5.375  0.0885 -0.0188 -0.0428
25190W        W40037  10.000  11.230   3.780  0.1092 -0.0031 -0.1045
25191W        W40038   1.174  13.106   1.767 -0.0843 -0.0008  0.0915
25192W        W40039  16.462  10.113  16.832 -0.0609 -0.1383  0.0056
25193W        W40040   5.780  16.791   0.749 -0.0694 -0.2832  0.0119
25194W        W40041  15.063  13.788   1.568 -0.0334 -0.3552  0.1085
25195W        W40042  10.153  10.458  15.980 -0.1457  0.1345 -0.0805
25196W        W40043  12.210   6.565  16.365  0.2371  0.1240 -0.0698
25197W        W40044  14.915   5.430  16.564  0.3050 -0.0116  0.2632
25198W        W40045   3.186   9.954   3.925  0.0812  0.1501 -0.2201
25199W        W40046   2.689  11.764  14.607  0.0634  0.0101 -0.0547
25200W        W40047  13.506   3.844   2.950 -0.1549 -0.1677 -0.1613
25201W        W40048  13.581   5.530   1.506 -0.1514  0.2822 -0.0607
25202W        W40049   3.318  10.175  12.659  0.3509  0.2122  0.0206
25203W        W40050   5.578   3.804  15.758 -0.1646  0.1635 -0.1556
25204W        W40051   3.327   4.054  14.189  0.1488  0.0591  0.2340
25205W        W40052   3.349   2.007   5.913 -0.2609 -0.3541 -0.1640
25206W        W40053  15.016  15.951  13.140 -0.4538  0.0222  0.4143
25207W        W40054   0.662   9.518  16.729  0.1648 -0.1365  0.2649
25208W        W40055   8.889   2.461   0.924  0.1705  0.0896 -0.2543
25209W        W40056   2.146   0.172   5.455  0.1740 -0.1664 -0.0955
25210W        W40057  13.206   7.507  16.822 -0.0677 -0.4031 -0.1887
25211W        W40058   4.260   0.111   1.645  0.3300 -0.3211  0.1591
25212W        W40059  11.799  14.265  17.581  0.1869 -0.4206  0.0414
25213W        W40060   7.755   6.031   5.710 -0.3832 -0.2243  0.0762
25214W        W40061   2.537   7.905   3.164  0.0709 -0.0277  0.2141
25215W        W40062   6.365   5.569  11.785  0.1035 -0.2179  0.0480
25216W        W40063   4.083   5.394  12.110 -0.3632 -0.1253 -0.2867
25217W        W40064   0.051   1.666  16.201 -0.0466 -0.2181  0.0858
25218W        W40065   9.484  14.364   2.197 -0.1300  0.0251 -0.0043
25219W        W40066   1.504  15.091  13.473 -0.0035 -0.1926 -0.4387
25220W        W40067  10.338   5.686  16.301 -0.1417  0.0198 -0.0262
25221W        W40068  12.935  10.565   1.127  0.2449  0.0683 -0.0148
25222W        W40069  13.711   3.447  14.279 -0.0445 -0.0373 -0.1722
25223W        W40070   9.432   1.586  12.002  0.1497  0.1312  0.1969
25224W        W40071   3.985   0.046   5.647  0.2940  0.2203  0.0217
25225W        W40072  13.386  10.022  15.285  0.0898 -0.0230  0.1404
25226W        W40073   5.859   0.687   0.264 -0.0017 -0.0834 -0.0316
25227W        W40074  14.978   8.464  17.045  0.2974 -0.0983  0.0807
25228W        W40075   1.581   5.227   0.094 -0.3561  0.2291 -0.1472
25229W        W40076   0.411   8.504   2.828  0.2252  0.1463  0.1627
25230W        W40077  11.426   0.419  14.540 -0.2403 -0.1006  0.0661
25231W        W40078   7.052   9.789   6.086 -0.2209  0.2492  0.2568
25232W        W40079   6.655  10.475   2.268 -0.1996 -0.0832 -0.0464
25233W        W40080   1.287  16.440  15.227 -0.0429 -0.1041  0.1586
25234W        W40081   3.098   1.187  16.157  0.0156 -0.0249  0.0629
25235W        W40082  16.039   4.108   2.115  0.1171 -0.0621  0.3177
25236W        W40083  12.074   9.438   2.909  0.0390  0.0556 -0.0456
25237W        W40084  17.027   3.963  15.179  0.1865  0.0048 -0.0949
25238W        W40085   3.650   4.923  13.429  0.1797 -0.1117 -0.2003
25239W        W40086   2.278  14.080   5.532  0.3884  0.2215  0.0895
25240W        W40087   3.382  17.200   0.270 -0.1815 -0.2882 -0.1833
25241W        W40088  16.611   6.943   3.321 -0.0625 -0.3804 -0.0218
25242W        W40089  15.984   0.588  17.492 -0.1289 -0.1215  0.1497
25243W        W40090   1.444   6.965  15.713 -0.2588  0.1561 -0.2435
25244W        W40091  10.157   1.966   4.889 -0.0047  0.0936  0.3201
25245W        W40092  15.792  16.416   4.196 -0.0458  0.1496  0.3356
25246W        W40093  15.021   9.834  17.458 -0.0947  0.2920  0.2381
25247W        W40094  16.807  11.812   1.915 -0.2048  0.2731  0.0748
25248W        W40095   7.710   3.692   0.067 -0.0068 -0.3729  0.0594
25249W        W40096  10.845  12.130  17.561 -0.0920 -0.0549  0.3836
25250W        W40097  14.429  16.821   0.977 -0.0365 -0.0792 -0.1720
25251W        W40098   8.144  12.512   3.475 -0.3264 -0.2472  0.2603
25252W        W40099   4.618   0.825   3.770  0.1655  0.1798  0.1063
25253W        W40100   5.823   7.696  15.840  0.0197 -0.1852 -0.2914
25254W        W40101   6.192   5.900   2.785  0.5286  0.2031  0.2640
25255W        W40102   6.498   8.118  15.041  0.4308  0.1090  0.0519
25256W        W40103  11.669   2.551  12.087 -0.0660 -0.2589  0.0858
25257W        W40104  13.987  13.378  12.694  0.1094 -0.0078  0.0602
25258W        W40105  16.741  12.088  15.494 -0.0836 -0.0254  0.1183
25259W        W40106   4.044  11.449  13.027 -0.0177 -0.0581 -0.1005
25260W        W40107  13.551  12.474  17.089 -0.1675  0.4792 -0.4267
25261W        W40108  13.534   4.727  15.040  0.3166  0.1269  0.0233
25262W        W40109  11.932  13.393   3.841 -0.3932 -0.1224  0.1150
25263W        W40110  14.650  13.299  14.481  0.2984  0.1798 -0.2731
25264W        W40111  11.238  11.455  15.210  0.1053  0.0064 -0.2172
25265W        W40112  14.765   5.162  16.959 -0.2083 -0.2887 -0.2631
25266W        W40113   8.630   1.596  12.042 -0.0656  0.2003  0.1123
25267W        W40114  14.560   4.133   4.509 -0.2604 -0.0424 -0.0982
25268W        W40115   7.717   1.276   5.789 -0.3222  0.0101  0.2966
25269W        W40116   6.205  15.290   3.425  0.0039 -0.1736  0.1238
25270W        W40117  16.443   9.652   5.168 -0.1483  0.0751 -0.1383
25271W        W40118  15.354   9.456   2.882  0.0463  0.2407 -0.2556
25272W        W40119   0.703   3.076  15.218  0.1284  0.1113 -0.1195
25273W        W40120  12.770  13.079  13.464  0.2077  0.2189 -0.1603
25274W        W40121  10.263   7.509   0.868  0.0463  0.0789  0.1049
25275W        W40122  14.370  14.222   3.214 -0.0233 -0.1645 -0.0676
25276W        W40123   8.048   0.137  12.378 -0.1528 -0.0661  0.1059
25277W        W40124   1.609  13.189  14.775  0.0360 -0.0686  0.0552
25278W        W40125   8.899   0.551  16.528 -0.1978 -0.0856  0.0000
25279W        W40126   5.209  11.837   4.557  0.0141 -0.2875 -0.1415
25280W        W40127   4.993  17.423  13.198 -0.1542  0.2064 -0.3135
25281W        W40128  10.089  15.861  13.481  0.1876  0.0002  0.0311
25282W        W40129   0.794   8.548  15.535  0.0898  0.2713  0.1363
25283W        W40130  14.955   7.458  13.086  0.0503 -0.0678  0.1114
25284W        W40131  17.397   0.972   5.593 -0.2536 -0.1030  0.5685
25285W        W40132  12.104  14.679  14.815  0.3019 -0.0653 -0.1269
25286W        W40133   8.964  16.355  12.440  0.0778 -0.1501  0.0222
25287W        W40134   0.308  11.804  13.083 -0.0205 -0.0571 -0.0001
25288W        W40135   3.430  14.939  13.112  0.1075  0.0072  0.2412
25289W        W40136  17.180  16.700   1.779 -0.0300 -0.1362 -0.0239
25290W        W40137   7.930  11.781   4.156 -0.1425  0.1918  0.0590
25291W        W40138   1.722   7.129  17.612  0.0811 -0.1851 -0.0244
25292W        W40139  13.403   5.767   2.005  0.3373 -0.0572  0.3062
25293W        W40140  15.496   9.846   2.589 -0.1066 -0.0168 -0.0674
25294W        W40141   1.982   9.415   5.699 -0.0998 -0.1051  0.1086
25295W        W40142   4.956   1.043  12.007 -0.0247  0.0930  0.0650
25296W        W40143   1.427   4.134  17.296 -0.0129  0.1609 -0.1622
25297W        W40144   6.530  13.379   3.328 -0.0023 -0.1405  0.0770
25298W        W40145   1.860   6.008  17.042  0.0611 -0.0731  0.0964
25299W        W40146   4.186   4.386   3.724  0.0848  0.0123 -0.1001
25300W        W40147  15.528  10.553  14.120  0.4450  0.1946 -0.2066
25301W        W40148  13.057   8.067   4.508 -0.1479  0.2776 -0.3426
25302W        W40149   6.253  14.806  13.526 -0.0137 -0.1733  0.0820
25303W        W40150   5.864   9.818   1.230  0.0977 -0.1337  0.0691
25304W        W40151  15.244   2.773   2.831 -0.1180 -0.1414  0.1094
25305W        W40152  11.665  17.068   2.084  0.0220 -0.3292  0.0805
25306W        W40153  16.978   3.897   0.249 -0.0375 -0.1752 -0.1047
25307W        W40154   1.376  16.450  16.761  0.2174  0.2431 -0.1085
25308W        W40155   2.112   3.957  17.347  0.1698  0.4266 -0.2640
25309W        W40156   8.764  16.604  16.176 -0.1698  0.3313 -0.0093
25310W        W40157   5.416  12.497  16.518 -0.0642  0.1052  0.2024
25311W        W40158  14.035  16.274  14.350  0.0997 -0.3112 -0.0737
25312W        W40159   5.855  13.354   0.930  0.1714  0.3028 -0.1099
25313W        W40160   9.934  16.221   0.026  0.1515 -0.3022  0.1134
25314W        W40161   1.659   2.299  12.777 -0.0163  0.0029  0.0393
25315W        W40162   5.422   7.006   1.843 -0.0675 -0.2864 -0.2713
25316W        W40163   0.370   1.010   3.848  0.0426 -0.0504  0.1421
25317W        W40164   3.704  16.051  16.721 -0.1171  0.2677 -0.3128
25318W        W40165   8.794   2.726   4.937  0.1079 -0.2669 -0.0062
25319W        W40166  13.261   5.157  15.792  0.0589 -0.2468 -0.0003
25320W        W40167   2.415  14.099   4.746  0.1519  0.3421  0.0577
25321W        W40168   9.919  12.733  16.463  0.2267 -0.0394  0.1928
25322W        W40169   7.280   5.103  12.853 -0.2711  0.0177  0.0176
25323W        W40170   8.702  17.132   0.878 -0.2187 -0.1862  0.0695
25324W        W40171   1.052   0.929  17.123 -0.2336  0.0852 -0.1298
25325W        W40172  16.133   2.728   2.339  0.0346 -0.2540 -0.0850
25326W        W40173  17.066  12.953  15.944 -0.1314 -0.3232 -0.1272
25327W        W40174  10.377   8.081  17.585 -0.1377  0.0496 -0.0260
25328W        W40175   2.157   9.566   4.621 -0.1543 -0.2438  0.3932
25329W        W40176   3.586   1.794   3.070  0.1440 -0.2723 -0.2389
25330W        W40177  14.592   5.482   3.089  0.1543  0.2751  0.0788
25331W        W40178   8.330   9.949   1.487 -0.1304  0.1077 -0.3030
25332W        W40179   1.989   9.808  16.956  0.1995  0.0976  0.0060
25333W        W40180   1.803   7.579   1.613  0.0371 -0.2016 -0.1199
25334W        W40181  12.153  12.856   2.160 -0.0253 -0.0447  0.1142
25335W        W40182  15.137   6.181   4.400 -0.3094 -0.1242 -0.1592
25336W        W40183   9.544   1.995   1.840 -0.0174  0.1605 -0.1292
25337W        W40184   0.891   6.223   3.759 -0.1879  0.1460 -0.0329
25338W        W40185   5.711  11.199   2.498  0.0072  0.3506 -0.0157
25339W        W40186   2.050   9.275  12.265 -0.0982  0.0982  0.0985
25340W        W40187  12.048   7.974   5.977 -0.4850  0.0197 -0.2685
25341W        W40188   7.052  15.746   4.352  0.0121  0.0679 -0.2153
25342W        W40189  12.116   2.173   5.526  0.1453  0.1615 -0.2007
25343W        W40190   0.441  16.942  13.687  0.1415  0.2263 -0.1837
25344W        W40191   2.224  17.503   1.660 -0.0156  0.0543  0.2539
25345W        W40192   6.803  15.468   4.746  0.2760  0.0424  0.2291
25346W        W40193   2.325  11.403  13.776 -0.0861  0.2886 -0.0122
25347W        W40194   9.690   8.370  13.081  0.1646  0.5006  0.1796
25348W        W40195   8.134  13.428   6.823 -0.1489 -0.3352  0.3800
25349W        W40196  16.957  10.489   3.388 -0.0450 -0.3181  0.1244
25350W        W40197   7.929   4.676   0.239  0.1068  0.1401 -0.2089
25351W        W40198   0.452   3.419   3.941 -0.1400 -0.2483  0.0837
25352W        W40199  11.838  16.194   0.016  0.0831  0.1661 -0.0525
25353W        W40200  13.828   9.965  16.201  0.1273  0.3422 -0.2183
25354W        W40201   0.111  13.798  13.412 -0.0428  0.0397 -0.0219
25355W        W40202   9.826   6.612  12.410  0.0100  0.1125 -0.1011
25356W        W40203  16.822   9.809   0.510  0.0922  0.0086  0.0844
25357W        W40204  14.452   7.361   5.038  0.0970 -0.0399 -0.0139
25358W        W40205  10.168  16.849   1.578  0.2290  0.0506  0.1238
25359W        W40206   0.698   6.433  15.747  0.0755  0.1426 -0.0712
25360W        W40207   7.314   4.366  17.059 -0.0026  0.0450  0.1832
25361W        W40208  11.661   9.346  15.076  0.2395  0.1321 -0.0642
25362W        W40209  10.285   9.515  11.781 -0.1532  0.1947 -0.1533
25363W        W40210  15.376   5.874  12.870  0.0206 -0.1131 -0.0751
25364W        W40211   4.450   9.567   1.425 -0.1262 -0.2416  0.4428
25365W        W40212   5.587   1.180   2.809  0.2745 -0.0152 -0.1361
25366W        W40213   1.806   9.644   0.613  0.2165  0.0045 -0.3405
25367W        W40214  10.843  13.751   4.412 -0.0501  0.1473 -0.0214
25368W        W40215   8.236  12.784   0.517  0.2182  0.0743 -0.1267
25369W        W40216   2.688  15.804   6.686 -0.0010  0.5573  0.0526
25370W        W40217   0.655  16.350  13.798  0.2105 -0.0077  0.0326
25371W        W40218   3.438  13.760   0.376  0.2146 -0.1213  0.2524
25372W        W40219  16.522  13.461   5.198  0.0627 -0.3226  0.4279
25373W        W40220   0.846  10.002   0.793  0.1975  0.0430  0.0393
25374W        W40221  15.719   8.551   6.565 -0.1733 -0.1365 -0.2671
25375W        W40222  13.990   0.426   0.431  0.1922  0.0683  0.1578
25376W        W40223  10.349  12.563   5.337 -0.0873 -0.0909 -0.0871
25377W        W40224   6.059   7.343  16.167 -0.0656  0.1165  0.0937
25378W        W40225  16.905  14.540   5.008  0.2165  0.1972 -0.1121
25379W        W40226  16.016   0.223  13.551 -0.0077  0.1768  0.0602
25380W        W40227   5.353  13.433   4.403  0.2593  0.1043 -0.1456
25381W        W40228   2.646   2.984  17.416  0.1373 -0.1529 -0.1316
25382W        W40229   4.639   9.697  13.031  0.1593 -0.0859  0.1452
25383W        W40230  15.841   9.785  15.663 -0.0693 -0.0143 -0.1521
25384W        W40231  12.443  16.734   4.453 -0.0529  0.0134 -0.0671
25385W        W40232   8.712   0.445   1.707  0.1279 -0.1898 -0.0821
25386W        W40233  14.774   6.516  13.038 -0.1280  0.0489 -0.1649
25387W        W40234   6.961  11.729  17.102 -0.0903  0.2773  0.1205
25388W        W40235  14.166   3.723  12.540  0.1509  0.1228  0.1663
25389W        W40236   7.023   1.104  15.812 -0.0807  0.0119  0.0133
25390W        W40237   0.398   9.662   6.683 -0.2339  0.0178  0.2388
25391W        W40238  16.435   7.560   6.168  0.2622  0.0532  0.0028
25392W        W40239   4.310  12.099  16.100  0.2227  0.0150 -0.2724
25393W        W40240   6.293  12.938  12.841  0.1112  0.0787 -0.0460
25394W        W40241  11.871  15.858  12.663 -0.0124 -0.0870 -0.1371
25395W        W40242  12.904  16.147   1.029 -0.2896 -0.0414  0.2848
25396W        W40243   0.247  16.819   4.284  0.1821  0.1115  0.0723
25397W        W40244  13.067   7.221  16.401  0.4143  0.0485  0.1895
25398W        W40245  11.538   2.103  16.729 -0.0950  0.5404 -0.1165
25399W        W40246   1.204   4.698  13.616  0.2018  0.2336  0.0521
25400W        W40247   9.413  17.011   1.569 -0.0710 -0.0427  0.1679
25401W        W40248  13.732  16.760  13.561 -0.2590  0.0704 -0.1638
25402W        W40249   1.375   2.944  12.616 -0.1245 -0.1654  0.0789
25403W        W40250  12.793   5.112  15.610  0.0102 -0.2125 -0.1668
25404W        W40251   7.832  15.689  17.284 -0.0426  0.1795 -0.0068
25405W        W40252   1.968  15.027  14.236  0.0191  0.4989 -0.1871
25406W        W40253  15.884   7.951   2.553 -0.2930  0.4456 -0.1384
25407W        W40254   1.156   1.835   5.525 -0.1656  0.1731 -0.1474
25408W        W40255  15.905  13.255   6.786 -0.0552 -0.6630 -0.0698
25409W        W40256  11.679  16.986  14.725  0.0604  0.1340  0.2282
25410W        W40257  16.608  17.358   3.949 -0.2719  0.1882  0.2332
25411W        W40258   4.187   1.580  12.312 -0.0992 -0.1333 -0.3968
25412W        W40259  15.645  12.700  15.865 -0.4079 -0.5119 -0.1802
25413W        W40260  15.977   4.456   4.539  0.2536 -0.1780 -0.2514
25414W        W40261  16.052  12.907  14.455  0.0302 -0.2400 -0.0922
25415W        W40262   5.862   3.537  13.832  0.0187 -0.1803  0.0965
25416W        W40263   1.849   9.307  15.388  0.2319 -0.1636 -0.0376
25417W        W40264  14.230  10.654  16.501 -0.0947  0.1874 -0.0118
25418W        W40265   8.257  12.224   5.504  0.0517  0.0984 -0.2262
25419W        W40266   2.867  16.176   3.739  0.1901 -0.2084  0.0781
25420W        W40267   7.077   0.507   0.417  0.3122  0.2397 -0.0962
25421W        W40268   6.590   0.970  11.952 -0.0655 -0.0157 -0.3662
25422W        W40269   4.523   7.078  16.506  0.0704  0.0059  0.3785
25423W        W40270   5.509   9.296  17.272 -0.1911 -0.1706 -0.3875
25424W        W40271   1.327   3.590   0.067  0.1393 -0.3435 -0.1517
25425W        W40272   6.643   6.128  13.676  0.2478  0.1293 -0.0105
25426W        W40273   1.238   6.630   2.400 -0.1827 -0.1149  0.2345
25427W        W40274   7.864  16.049  15.942 -0.1187 -0.2224  0.0299
25428W        W40275   4.279   9.146   0.212  0.3139  0.1276  0.0863
25429W        W40276  12.395  16.342   4.118  0.1989 -0.1216 -0.2968
25430W        W40277  11.775   8.686  15.194 -0.1978 -0.1494 -0.1149
25431W        W40278  14.092  16.060   1.317  0.1568 -0.0802  0.1437
25432W        W40279  17.234  17.365   2.330 -0.3094 -0.0759 -0.2733
25433W        W40280   8.228   5.127   4.506 -0.1626  0.0098  0.2155
25434W        W40281  10.734  11.524   6.705 -0.0785  0.1670  0.0304
25435W        W40282  11.943  16.194   1.503 -0.0423 -0.1226  0.3390
25436W        W40283  10.691  14.833  16.914  0.0966 -0.2503 -0.0536
25437W        W40284   5.673  13.531  11.409 -0.0079  0.0734 -0.3333
25438W        W40285   1.939  12.324  14.034  0.0318 -0.1946  0.1887
25439W        W40286  15.260   6.430   5.332 -0.1516  0.0647 -0.2025
25440W        W40287  14.943   3.542   3.366 -0.1719  0.2577 -0.1830
25441W        W40288   2.663   1.704  15.353 -0.0615  0.2924 -0.0382
25442W        W40289   7.914  17.080  15.347  0.0209  0.0691  0.2548
25443W        W40290   1.669  12.128  11.502 -0.2097 -0.2683 -0.0946
25444W        W40291   1.643  12.354   1.492  0.1370  0.0608 -0.2722
25445W        W40292  15.103   9.792  16.970  0.0689 -0.0423  0.0231
25446W        W40293   2.669   8.607   3.757  0.1663 -0.0032 -0.3061
25447W        W40294   1.003   9.726  11.565  0.1602  0.1840 -0.2488
25448W        W40295  11.333   8.511  14.411  0.0635 -0.1266  0.0670
25449W        W40296  14.356  14.009  11.859 -0.2644 -0.3464 -0.3245
25450W        W40297   2.266  12.755   4.373  0.2955  0.1904  0.2635
25451W        W40298   2.882   7.481   3.438  0.2211 -0.1811  0.4151
25452W        W40299   8.344  14.293   5.077  0.1090 -0.3009 -0.0237
25453W        W40300   1.360  14.229  14.538  0.1299  0.3828  0.0026
25454W        W40301  12.224   4.787  12.396 -0.2274 -0.0282 -0.1055
25455W        W40302   6.927   8.729  14.397  0.2290  0.4301 -0.0142
25456W        W40303   5.583   9.246   2.022 -0.1473  0.2128  0.3129
25457W        W40304   9.704  13.809  15.636 -0.0189 -0.0929  0.3566
25458W        W40305   2.895   4.714  13.965  0.0251  0.0441 -0.1798
25459W        W40306   7.396   9.655  13.089  0.1019  0.1283  0.0706
25460W        W40307  16.891  13.176   5.380  0.3111 -0.1094 -0.0341
25461W        W40308   6.263   4.332  13.188 -0.1240 -0.1001  0.2290
25462W        W40309   1.761  12.809   0.334 -0.0680 -0.3068 -0.0755
25463W        W40310   7.857   6.267  13.999 -0.1479 -0.0582  0.0123
25464W        W40311  13.333  11.418  13.996 -0.1072  0.1444 -0.1293
25465W        W40312   7.750   3.484   4.666  0.0434  0.1732  0.3591
25466W        W40313   8.255   2.026  15.788  0.1064  0.3258 -0.2153
25467W        W40314   2.250   3.938   3.550 -0.3468 -0.1759  0.1704
25468W        W40315   5.389   3.902   3.130  0.4297 -0.0646  0.4376
25469W        W40316   5.825  10.216   0.264 -0.2544  0.2053  0.3928
25470W        W40317  10.592   8.724   4.582  0.0077  0.1097 -0.0934
25471W        W40318   0.819   6.728  16.807 -0.1940  0.0811  0.2573
25472W        W40319   3.838   3.903   0.260 -0.0982 -0.2707  0.0208
25473W        W40320  11.063  11.399   2.897  0.0456  0.1360  0.0769
25474W        W40321  14.795   9.324   1.888  0.1091  0.0210  0.1772
25475W        W40322   2.811  14.885   3.238 -0.1778  0.1545 -0.1440
25476W        W40323  11.626  15.332   2.706  0.0358  0.2565  0.1315
25477W        W40324  12.306   6.113   5.803 -0.1335  0.2996  0.2862
25478W        W40325   5.716  13.699  14.612 -0.3389  0.3088 -0.1549
25479W        W40326   1.202   8.088  14.617  0.1192  0.0533  0.1348
25480W        W40327  10.346   7.382  12.181 -0.0439 -0.0510 -0.1962
25481W        W40328  11.512  16.977   1.239 -0.0805  0.2159 -0.3560
25482W        W40329   7.653   5.801   3.645 -0.1608  0.1999  0.0341
25483W        W40330  15.112  17.333  13.400  0.1531  0.1992 -0.0481
25484W        W40331   2.311   9.058   0.183 -0.0967 -0.0751 -0.1575
25485W        W40332   4.246  16.215   1.368 -0.1163 -0.0767  0.1627
25486W        W40333  11.543   6.039  12.985  0.2898 -0.0599  0.5119
25487W        W40334   3.160  13.258   4.096  0.2930 -0.1737  0.3690
25488W        W40335  15.796  15.384   5.699 -0.1076  0.0726 -0.1189
25489W        W40336   8.143  15.935   3.696 -0.0239  0.3767 -0.2948
25490W        W40337   8.865  17.175   0.196 -0.2776  0.4640 -0.1078
25491W        W40338  10.269  10.395  12.967 -0.2131 -0.2141  0.2140
25492W        W40339   4.455   1.394   4.632 -0.1067 -0.1174  0.1095
25493W        W40340  14.514   8.643  13.151  0.2802 -0.0727 -0.1508
25494W        W40341   9.245   1.207   1.230  0.1304 -0.3293 -0.3452
25495W        W40342   1.898   5.105   6.097 -0.1915 -0.2463 -0.2674
25496W        W40343   5.417   3.177  14.427 -0.1630 -0.2175  0.1223
25497W        W40344  13.586   1.441   2.343 -0.0485 -0.1641  0.2179
25498W        W40345   0.319  14.706  12.915  0.0264  0.3635 -0.0117
25499W        W40346   6.098   6.383  16.092  0.0314  0.1916  0.0024
25500W        W40347  15.505   4.559   2.576 -0.0954 -0.2233  0.0472
25501W        W40348   9.609   5.959  17.409 -0.0679 -0.1528 -0.0070
25502W        W40349  16.063  16.782   0.182 -0.3064 -0.1024  0.0516
25503W        W40350   5.318  13.834   5.702  0.0794  0.0824  0.1174
25504W        W40351   8.677   7.243   2.906  0.0607  0.0139  0.0962
25505W        W40352  12.835  13.287   5.841  0.1464 -0.2362  0.0030
25506W        W40353   9.051  11.249   5.755  0.0211 -0.3633 -0.1548
25507W        W40354  15.589   1.305   2.287 -0.0844  0.1712 -0.6597
25508W        W40355   5.569   6.737   1.180 -0.1059  0.1004 -0.1149
25509W        W40356  14.956   4.376   5.041 -0.2125 -0.3915  0.0163
25510W        W40357  12.057   5.432  13.998 -0.2485 -0.0674 -0.0014
25511W        W40358   1.030   3.469  15.070  0.1123 -0.0045  0.0849
25512W        W40359   4.344   2.786   1.794 -0.3830 -0.1525 -0.1379
25513W        W40360   4.200   8.710  16.202 -0.0251 -0.1171 -0.0410
25514W        W40361   6.191   5.047   4.961  0.2694  0.2860 -0.2547
25515W        W40362  12.076   0.075   3.955 -0.0951 -0.4021  0.3613
25516W        W40363   0.962  17.467   4.890  0.1175  0.2413 -0.1920
25517W        W40364  11.069  15.003   0.547 -0.2753  0.2457  0.1152
25518W        W40365   0.714  14.877   1.734 -0.4692  0.1193 -0.2566
25519W        W40366  10.618  17.089   1.579  0.0425  0.0913  0.2508
25520W        W40367  17.550   1.694   1.476 -0.2529 -0.0150  0.1344
25521W        W40368  12.442  13.159   5.467  0.3481 -0.1528 -0.0083
25522W        W40369   3.467  13.135   3.701  0.0081  0.0801  0.0495
25523W        W40370  12.009  11.220   3.332  0.0983  0.2840 -0.4343
25524W        W40371   0.776   9.741  14.304 -0.1359  0.1703  0.0678
25525W        W40372  12.823   2.765  17.091  0.0560  0.0312 -0.2144
25526W        W40373   2.622  15.880  14.902 -0.1682 -0.4245  0.1578
25527W        W40374  15.097  11.025  13.041  0.0512  0.2701  0.1978
25528W        W40375   0.589   0.333   3.018 -0.0401  0.2881 -0.1044
25529W        W40376   1.996   8.015   2.251  0.0512  0.0487  0.1490
25530W        W40377   4.918  10.993  12.855  0.1346 -0.1005 -0.0226
25531W        W40378  11.646  11.801   1.294  0.2930 -0.1461 -0.2059
25532W        W40379  16.761  13.411  16.594  0.2159  0.0213  0.0903
25533W        W40380   3.963   5.804  11.785 -0.1261 -0.0765  0.4562
25534W        W40381   9.411  12.692  14.827 -0.2300  0.0416  0.2533
25535W        W40382   5.758  17.047   5.060  0.0008 -0.1708  0.0349
25536W        W40383  10.659  15.237  17.323  0.1140  0.0676 -0.1574
25537W        W40384   9.298  15.042   0.646  0.1022 -0.1239 -0.0129
25538W        W40385   7.120  14.008   6.453 -0.2217 -0.0141  0.0162
25539W        W40386   0.710  11.512  12.722  0.0939  0.0773  0.0659
25540W        W40387   5.901   7.666   2.537  0.1656 -0.2496  0.0268
25541W        W40388   2.551   5.303   5.595 -0.2021 -0.0762  0.2948
25542W        W40389  15.848   4.217   2.669 -0.3128  0.0012 -0.0626
25543W        W40390   8.572  15.545  14.531  0.1501  0.0849 -0.1897
25544W        W40391   2.727   3.479   2.457 -0.1539 -0.0166 -0.4067
25545W        W40392   5.098  13.506   5.319 -0.3663 -0.0193  0.0175
25546W        W40393   0.118   8.329   1.635  0.2022 -0.0065 -0.0458
25547W        W40394  15.387  12.138  16.396  0.1204  0.0416 -0.0191
25548W        W40395   9.351   2.790  13.791  0.0464  0.3370  0.2011
25549W        W40396  17.498   3.731  15.566 -0.2632  0.0459  0.2199
25550W        W40397  13.192   5.678  15.889 -0.1536 -0.0213  0.2832
25551W        W40398   0.269  13.518   3.287  0.1222 -0.1933  0.1821
25552W        W40399  16.191   3.991   3.197 -0.1435  0.0346  0.3013
25553W        W40400   0.844  15.455  15.147 -0.2228 -0.2107 -0.2089
25554W        W40401   9.602   0.786   0.545  0.1538  0.2022  0.1165
25555W        W40402   6.553  14.464   2.412  0.0060 -0.0963  0.1330
25556W        W40403  15.400   9.475  16.391  0.0110 -0.1719 -0.1271
25557W        W40404   7.605   7.516  17.187  0.1489  0.0261  0.1570
25558W        W40405  11.895   0.342   0.443  0.2536  0.2215 -0.0328
25559W        W40406   4.400   4.313  12.900 -0.0948  0.0234 -0.2231
25560W        W40407  14.888   5.783   0.199 -0.0509  0.1350  0.1009
25561W        W40408  16.395  14.527   5.030 -0.0113 -0.2436 -0.2115
25562W        W40409   5.671  12.090   1.118 -0.2308 -0.0924 -0.2748
25563W        W40410   8.697   3.069  13.312  0.2729  0.0439 -0.0219
25564W        W40411  13.634   8.527   1.579  0.2275  0.3053 -0.0976
25565W        W40412   0.390   0.773   2.936  0.0537 -0.0568  0.4809
25566W        W40413   8.637   1.029   5.671  0.1886  0.2425  0.1268
25567W        W40414   3.645  17.347  16.547  0.2679  0.1113  0.2071
25568W        W40415  15.494  14.151   6.547 -0.2705  0.0491  0.0409
25569W        W40416   6.795  16.616  11.646 -0.1456 -0.0816  0.2039
25570W        W40417  11.777   2.978  14.809  0.0469 -0.2991 -0.1329
25571W        W40418   7.277  11.585   6.752 -0.1145  0.3296  0.0741
25572W        W40419  15.106   8.890  14.247  0.1066  0.0332  0.2240
25573W        W40420  15.435  15.148   5.959 -0.0822 -0.1227 -0.4344
25574W        W40421   7.827  17.563  16.201  0.0183  0.1148  0.1078
25575W        W40422  12.292  11.230  12.451 -0.1654  0.0246 -0.0739
25576W        W40423  17.444   5.865   4.814  0.3731  0.1046 -0.1277
25577W        W40424   5.835   3.883   5.482 -0.3570 -0.0774  0.0551
25578W        W40425  16.318  10.813   5.167 -0.0013 -0.0614  0.0114
25579W        W40426   2.652   5.012  12.378 -0.0678 -0.3499 -0.1618
25580W        W40427   4.259  16.073   3.517 -0.2786 -0.0001  0.0431
25581W        W40428   4.365  13.548  11.919 -0.3654 -0.0946 -0.1895
25582W        W40429  13.448  17.563  12.484 -0.0742  0.0305 -0.0784
25583W        W40430  15.804   4.395   5.472  0.1841 -0.1269  0.0500
25584W        W40431   5.889   4.717   5.948 -0.0191  0.0505  0.1176
25585W        W40432  10.076  11.707   3.052  0.1719  0.1401  0.2734
25586W        W40433   4.990   4.956  12.663 -0.2220  0.1559 -0.1080
25587W        W40434  13.945  11.719  13.369  0.1304 -0.0855 -0.2956
25588W        W40435   8.233  10.809  14.943  0.1256 -0.0648 -0.2735
25589W        W40436   6.209   6.179  13.394  0.0399 -0.3756  0.1194
25590W        W40437  17.214   2.016   4.014 -0.0345  0.1926 -0.2114
25591W        W40438  11.626   1.473   6.427 -0.2458 -0.0471  0.1554
25592W        W40439   9.592  15.942   6.121 -0.0050  0.1263 -0.0892
25593W        W40440  11.779   7.955  16.903  0.4446 -0.0045  0.1205
25594W        W40441   1.736   4.001   1.889  0.1550  0.0424  0.2976
25595W        W40442   4.178  14.709   2.722  0.0780  0.1026  0.1085
25596W        W40443  11.520  17.446   2.747  0.0552  0.0134  0.0484
25597W        W40444   3.157   3.453  16.864 -0.0608  0.2428  0.0985
25598W        W40445   3.955  10.783   4.007  0.0727 -0.4085  0.2634
25599W        W40446   8.974   9.356   0.120 -0.1303  0.0249 -0.4490
25600W        W40447  11.302  13.660   5.181 -0.1212  0.0515 -0.0840
25601W        W40448   8.717   7.113   1.672  0.2374  0.1228  0.1160
25602W        W40449   0.633   8.914   0.642  0.1100  0.0688  0.1834
25603W        W40450   4.251   9.503  14.855  0.2642  0.1772  0.1162
25604W        W40451   7.916  13.704  16.939  0.1657 -0.0163  0.0088
25605W        W40452   3.364  11.762  17.235  0.2207  0.2394  0.0459
25606W        W40453   3.754   4.173  13.936  0.0464 -0.0891 -0.3148
25607W        W40454   6.435   7.259   6.417  0.0453 -0.1713 -0.2287
25608W        W40455  17.665   4.760   4.110  0.0334 -0.0556  0.2038
25609W        W40456  10.761   3.730   4.354  0.2793  0.0723 -0.4500
25610W        W40457   5.763  12.259   3.240 -0.0618 -0.2676 -0.1059
25611W        W40458   2.675  10.256   6.616 -0.0563 -0.2257  0.1562
25612W        W40459   0.842  16.732  13.435 -0.1872 -0.2782 -0.1896
25613W        W40460   5.671   2.361  14.566  0.0364 -0.3702 -0.1754
25614W        W40461   3.139  16.284  14.309  0.0196 -0.0529  0.0823
25615W        W40462  17.347  13.321   5.266  0.1242 -0.1483 -0.1434
25616W        W40463  12.819  10.012  14.011  0.4136  0.2602  0.0908
25617W        W40464   1.836  12.862   1.167  0.0970 -0.0224 -0.0633
25618W        W40465   7.638  13.774  12.041  0.1712 -0.3211  0.0623
25619W        W40466   6.051   9.613  17.129  0.0020 -0.0931 -0.0848
25620W        W40467   7.665  17.338   2.462  0.1120  0.1270 -0.1918
25621W        W40468  13.092  14.194   1.175  0.1979 -0.1166  0.2717
25622W        W40469  12.955  13.878  16.607 -0.1206 -0.1706  0.0525
25623W        W40470  13.550   2.686   5.197 -0.0477  0.2049  0.0572
25624W        W40471  15.988   4.796  13.281 -0.2262 -0.1243 -0.0816
25625W        W40472   3.429  13.614   5.682 -0.2637 -0.2038  0.0040
25626W        W40473  11.174  14.342  13.568 -0.1383 -0.3285  0.2505
25627W        W40474  12.643  10.931   4.794  0.0426  0.2641  0.0197
25628W        W40475   4.589   1.465  14.822  0.1614  0.3023 -0.0107
25629W        W40476  13.803  15.619  14.960  0.0860  0.4328 -0.1983
25630W        W40477   0.952  13.651   0.341 -0.1340  0.0372  0.2698
25631W        W40478  14.467   3.531   1.477  0.1508 -0.2780  0.1823
25632W        W40479   5.417   1.129   4.343 -0.1327 -0.1594 -0.1230
25633W        W40480  13.317  10.498   3.456 -0.1826  0.5046 -0.0252
25634W        W40481  15.756   8.471  12.968 -0.1091  0.1468 -0.0874
25635W        W40482   1.398   9.348  13.592  0.0079 -0.1660  0.2430
25636W        W40483   2.596  10.631   0.498  0.0188 -0.1036  0.1524
25637W        W40484   4.039  10.698  14.898  0.2274  0.0356  0.0518
25638W        W40485   2.053  13.760  15.205 -0.2683  0.1786  0.0931
25639W        W40486   0.457   7.908   5.322  0.0643  0.0061  0.3256
25640W        W40487   9.134   8.155   5.577 -0.0822 -0.0274 -0.0077
25641W        W40488   5.816  13.181  13.653  0.2735  0.1544 -0.1125
25642W        W40489  16.193   6.320  11.902 -0.1032 -0.1803 -0.2400
25643W        W40490   4.511   4.784   1.323 -0.0446 -0.1052 -0.2291
25644W        W40491  14.213  17.334  14.380  0.1657  0.1139  0.1906
25645W        W40492   3.480   0.213   7.160  0.0983  0.2428 -0.1043
25646W        W40493  16.938  11.391  14.769 -0.0693 -0.1474 -0.3647
25647W        W40494  15.506   5.510   5.844  0.0821 -0.0762  0.2087
25648W        W40495  11.050   9.420  15.859 -0.0621 -0.2426  0.3239
25649W        W40496  16.767  17.391   1.602 -0.1056 -0.1756  0.2031
25650W        W40497  13.327  16.717   4.206 -0.1332 -0.2242 -0.0924
25651W        W40498  13.288   8.279  16.213  0.0749 -0.0431 -0.0549
25652W        W40499   2.060  17.520  16.579  0.0662 -0.1808  0.1080
25653W        W40500   5.026   5.110  15.928  0.2439  0.4153 -0.0347
25654W        W40501   6.384   4.842   4.517 -0.0637 -0.0038 -0.2452
25655W        W40502  14.998  12.165   1.980 -0.1498  0.1598  0.1125
25656W        W40503  15.355   8.907   2.428 -0.0529 -0.0374  0.1555
25657W        W40504  15.356   1.395   3.238 -0.1315 -0.0360 -0.1114
25658W        W40505  13.789   5.691  16.998 -0.1066  0.2728 -0.0736
25659W        W40506  13.472  10.919   0.492 -0.0390  0.1976 -0.2901
25660W        W40507  11.741   1.914  17.536 -0.0616 -0.1812  0.0387
25661W        W40508  16.132   7.575   0.587  0.0713 -0.0951 -0.2705
25662W        W40509   1.866   9.421  11.648  0.1150 -0.3261 -0.2827
25663W        W40510  17.594   3.200  16.589  0.0768  0.0602  0.0887
25664W        W40511   0.440  10.255  14.749  0.0669 -0.1019 -0.2434
25665W        W40512  14.419  12.978   3.887 -0.2766  0.1231  0.0536
25666W        W40513  14.018  12.469  15.882 -0.0299 -0.0929  0.1110
25667W        W40514   0.262   3.543  12.630  0.0250 -0.0707  0.0994
25668W        W40515  16.894   9.613   4.238  0.2156  0.2342 -0.3198
25669W        W40516  10.921  17.377  13.966 -0.2029 -0.0117  0.0005
25670W        W40517  13.007  10.137  16.006 -0.3110 -0.0215 -0.0052
25671W        W40518   1.425   4.862  15.927 -0.0917  0.1050  0.0993
25672W        W40519   2.807   2.337  14.292 -0.2458 -0.1414  0.2118
25673W        W40520   9.994  14.084   1.284  0.0637  0.4885 -0.1174
25674W        W40521   7.972   2.867   1.256  0.2169 -0.2245 -0.1280
25675W        W40522   2.002   9.801  15.517  0.0823 -0.2060  0.0594
25676W        W40523  11.570  16.480   1.242  0.3104 -0.0068 -0.1506
25677W        W40524   3.130   9.576   3.579 -0.0148 -0.0238  0.0552
25678W        W40525   2.065   6.931   2.412 -0.2640  0.0234  0.0335
25679W        W40526   5.965  13.914   2.045  0.0306 -0.1729 -0.1759
25680W        W40527  14.537   5.695  11.976  0.3125 -0.0652  0.0178
25681W        W40528  15.506   1.424   2.776 -0.0527 -0.0953 -0.1568
25682W        W40529  10.905  11.605   2.019  0.2807 -0.1428  0.0359
25683W        W40530   4.635  10.397  16.860 -0.0422  0.1647 -0.2567
25684W        W40531   9.533   9.286   6.157  0.1518 -0.1786 -0.0566
25685W        W40532   9.799  17.360   3.232 -0.0886  0.0500 -0.0564
25686W        W40533  10.301   9.141   6.911 -0.3151  0.0325  0.2060
25687W        W40534  13.859   8.857   4.072 -0.0291 -0.0579  0.1673
25688W        W40535   5.246   6.450  11.397  0.1974  0.0866 -0.0759
25689W        W40536   9.966   3.700  15.995  0.1979 -0.2112 -0.2355
25690W        W40537   6.523   4.759  12.467 -0.0225  0.0938  0.0532
25691W        W40538   6.231  13.714   6.007  0.2017  0.0113 -0.1443
25692W        W40539   3.175   9.123  16.734  0.0822  0.0814  0.0744
25693W        W40540   8.753   8.716   0.615 -0.1354  0.0053 -0.1290
25694W        W40541   0.904  10.430   2.290 -0.1042  0.2092 -0.1871
25695W        W40542  13.106  15.440   1.667  0.3903  0.0577  0.2024
25696W        W40543  17.451   4.373   0.368 -0.0761  0.2968  0.0017
25697W        W40544   4.575   1.250  14.363 -0.2954 -0.1778 -0.0575
25698W        W40545   8.531  15.310  13.815  0.1691 -0.1967 -0.1578
25699W        W40546  16.019  14.486  14.421  0.0156 -0.0730 -0.0365
25700W        W40547  15.988   3.702  12.514  0.3197 -0.1322 -0.1583
25701W        W40548   9.899  15.294  16.758  0.2463 -0.1008  0.1934
25702W        W40549   6.466  13.633   4.294 -0.1118 -0.2929  0.1657
25703W        W40550  13.128   2.102   3.598 -0.0394 -0.2245  0.2481
25704W        W40551   9.281   0.968  13.300  0.0809  0.1180  0.0077
25705W        W40552   2.154   8.092  15.193 -0.1344 -0.2289  0.2088
25706W        W40553  14.904   1.595   6.224  0.1407  0.1955 -0.3361
25707W        W40554   8.480   3.385   4.152  0.0714  0.1972 -0.1620
25708W        W40555   8.823   9.617   4.239 -0.0225  0.2712 -0.0193
25709W        W40556  14.953  16.446   2.003  0.1185  0.2211  0.0255
25710W        W40557   0.254   0.278   0.508 -0.0777  0.2476  0.0375
25711W        W40558   1.023  12.382   2.184  0.2486  0.0663  0.1211
25712W        W40559  14.509  11.789   1.822  0.1075  0.1158 -0.4075
25713W        W40560  11.132  13.263  13.922 -0.0168 -0.0679 -0.1790
25714W        W40561   4.152   1.551   1.902 -0.2765 -0.2062 -0.1020
25715W        W40562  16.092   6.311  11.019  0.1977 -0.1017  0.3050
25716W        W40563   0.504   7.326  15.569  0.0251  0.0715 -0.1431
25717W        W40564   5.126   5.721   1.008 -0.0627 -0.0312 -0.0636
25718W        W40565   6.798  13.295   4.241 -0.3281 -0.1261 -0.2710
25719W        W40566   1.010  15.870   4.510 -0.0022 -0.2537  0.0543
25720W        W40567   1.697   8.398   3.393 -0.0463 -0.3534 -0.3102
25721W        W40568  13.156   3.944  15.123 -0.0003 -0.1718 -0.0010
25722W        W40569   6.927  13.875   3.128  0.1538  0.0252 -0.0122
25723W        W40570  11.171   0.178  14.966 -0.1913 -0.0345 -0.1785
25724W        W40571  11.159  10.485  16.397  0.3107 -0.2499 -0.1303
25725W        W40572  14.007  12.560  13.542  0.0886  0.1292 -0.0515
25726W        W40573  16.010   1.762   3.899  0.0568 -0.2530 -0.0323
25727W        W40574   5.958  16.971  16.954 -0.0553 -0.3610  0.0662
25728W        W40575   4.684  15.664  13.594 -0.1780 -0.0020  0.0685
25729W        W40576   8.075   7.734  13.613  0.2107 -0.0256 -0.0746
25730W        W40577  13.924   8.084   3.760  0.4052 -0.2817 -0.0569
25731W        W40578   7.580   3.541  17.296  0.2132 -0.1662  0.2841
25732W        W40579   5.493  10.926  10.580  0.2737 -0.0810  0.0419
25733W        W40580   9.976  14.150   4.976 -0.3824 -0.4487  0.1308
25734W        W40581  10.147  16.036  13.043 -0.0400 -0.0005  0.1635
25735W        W40582   0.835   6.886   5.249 -0.0042 -0.0107 -0.3663
25736W        W40583   4.302  11.422  16.436 -0.0290  0.1797  0.2334
25737W        W40584  14.309   1.043  13.165 -0.1092  0.1396  0.1917
25738W        W40585   0.186   0.956  16.696  0.3068  0.4302  0.0681
25739W        W40586  15.894  12.575  17.420  0.0514  0.1959  0.0737
25740W        W40587  15.073   5.413  12.666  0.1410  0.0526  0.3396
25741W        W40588  15.834   4.354  13.562 -0.2466 -0.0453 -0.1051
25742W        W40589   5.743  17.525   0.931 -0.0165  0.1842  0.0857
25743W        W40590   0.767   8.483   3.810  0.0184  0.0990  0.0996
25744W        W40591   9.199  14.913   1.534  0.1008 -0.0505  0.0416
25745W        W40592  14.701   8.911   6.217  0.0827 -0.0345  0.1124
25746W        W40593   1.919  14.675  17.618 -0.2650  0.0431 -0.1410
25747W        W40594   9.376  12.143  14.880  0.1355  0.2764 -0.1497
25748W        W40595   0.374   2.393   1.702  0.1043 -0.1772 -0.2273
25749W        W40596   3.886  16.653   4.855  0.0244  0.0226  0.0780
25750W        W40597   6.858  17.103   0.212  0.0526 -0.5079  0.4793
25751W        W40598   7.592   7.371  13.077 -0.0550  0.1472 -0.0047
25752W        W40599  14.924  12.374   0.664  0.1403 -0.0027 -0.0110
25753W        W40600  14.358   7.009   3.309 -0.0625 -0.1135 -0.2222
25754W        W40601   3.335  14.991  17.417 -0.0580  0.2012  0.2368
25755W        W40602   2.277   6.409  13.573 -0.1426 -0.2155 -0.1811
25756W        W40603   7.338  16.544  17.629 -0.0064 -0.0544  0.2523
25757W        W40604   4.885   8.132  10.650 -0.2562 -0.2625  0.1060
25758W        W40605  10.635  15.763  12.951  0.2160 -0.0878  0.3516
25759W        W40606   1.602  13.815   1.496 -0.2380 -0.0446 -0.0673
25760W        W40607   5.853  10.602  11.441 -0.2635  0.0886 -0.1164
25761W        W40608   9.213   5.968  16.577  0.2123 -0.2316 -0.3621
25762W        W40609   5.676  13.239   5.894  0.1222 -0.1362  0.0373
25763W        W40610  15.465   3.525  15.728 -0.2780 -0.0298  0.0965
25764W        W40611   6.461  16.074   1.123  0.0711  0.1410  0.0129
25765W        W40612   7.201   5.829   1.245 -0.3118  0.0571 -0.0829
25766W        W40613  14.351   2.996  15.012 -0.0557  0.1612 -0.0498
25767W        W40614   0.077  10.697  14.038  0.1863 -0.0086 -0.1534
25768W        W40615  14.161  14.103  15.122 -0.0109  0.1441 -0.0940
25769W        W40616   6.733   8.893   0.032  0.0551 -0.1727 -0.2577
25770W        W40617  15.266   6.354  12.758 -0.0602 -0.2575  0.0336
25771W        W40618  11.281  12.505   3.775  0.2371 -0.0112  0.2112
25772W        W40619   7.975   1.418  13.525  0.1111 -0.3932  0.2117
25773W        W40620   8.016   5.866  15.631 -0.0222 -0.1882 -0.0904
25774W        W40621   3.634  10.286  11.892 -0.0542 -0.1643 -0.0927
25775W        W40622   1.273   8.190   5.885 -0.1745 -0.2129  0.0260
25776W        W40623   7.466   9.685  12.210  0.0011  0.1908 -0.0880
25777W        W40624   3.360   7.256   5.195  0.1685 -0.0411 -0.0336
25778W        W40625  16.418   1.047   4.225  0.0778  0.1836 -0.0782
25779W        W40626  16.831   2.698  13.920 -0.0745  0.0633 -0.1969
25780W        W40627   0.542   5.255   2.630 -0.1700  0.0110 -0.0941
25781W        W40628   9.211   4.944  12.842 -0.4113  0.1645 -0.0068
25782W        W40629  17.399   4.856  13.764 -0.0011 -0.3467  0.1118
25783W        W40630   2.932   6.050   1.757  0.1805 -0.1758 -0.0632
25784W        W40631  17.578  10.567   0.303  0.2020 -0.0987  0.0351
25785W        W40632   9.000  11.836  13.097 -0.2616 -0.1000  0.0114
25786W        W40633   3.637   7.968   3.617  0.2892  0.1425 -0.0811
25787W        W40634  14.575   9.662  16.961 -0.0241 -0.1332 -0.3116
25788W        W40635   0.002  10.799  14.580  0.1243  0.1208 -0.1951
25789W        W40636   9.457  12.376   4.504  0.0063  0.5029  0.0991
25790W        W40637   3.057   8.893  13.810  0.4312 -0.0193 -0.3532
25791W        W40638   7.545   0.041   0.589 -0.0139  0.1187 -0.0861
25792W        W40639   0.146   0.856  12.737  0.0266 -0.1907  0.0737
25793W        W40640  15.651   1.562   3.656 -0.0289  0.1157 -0.2763
25794W        W40641   2.803   7.107  12.955 -0.0908  0.2499  0.1400
25795W        W40642  13.859   9.138  13.533 -0.0374 -0.0689 -0.2489
25796W        W40643   3.207   0.687   3.356  0.0185  0.3617 -0.0584
25797W        W40644   9.805   8.088  16.442 -0.1145 -0.0217  0.0955
25798W        W40645   7.441   2.101  15.259  0.0280  0.2722 -0.0485
25799W        W40646  11.289   3.989   0.017  0.1850 -0.2584  0.3396
25800W        W40647   6.979   7.060  14.341  0.1043 -0.0472 -0.4737
25801W        W40648   1.729   0.798  13.282  0.0272 -0.6176  0.1617
25802W        W40649  10.697  11.955  15.683 -0.0787  0.1047  0.1009
25803W        W40650   4.798   0.400  12.805  0.1031  0.1442 -0.1823
25804W        W40651   3.076  15.508   2.448  0.1271 -0.2015 -0.2917
25805W        W40652   6.648  15.967   1.589 -0.1727 -0.0989  0.1343
25806W        W40653  16.939  15.275  17.036 -0.0281  0.0064 -0.0835
25807W        W40654  14.139  11.444  12.643 -0.3010 -0.0871 -0.1523
25808W        W40655   5.867  15.077   0.143 -0.0690  0.2933  0.0374
25809W        W40656   5.802   6.695  17.361  0.0629 -0.2451  0.1116
25810W        W40657   2.129  12.516   2.376  0.0748  0.2256  0.1902
25811W        W40658  16.781  17.250   0.466  0.2133 -0.2646 -0.0175
25812W        W40659   9.632   1.045   3.452  0.3423 -0.0315  0.0742
25813W        W40660  17.309   2.749   0.131  0.0003 -0.1761  0.4586
25814W        W40661  14.353   1.644  15.571  0.0602 -0.0868 -0.0465
25815W        W40662   9.408  15.896  17.570  0.3359 -0.3226  0.2360
25816W        W40663  12.417   7.363   1.114  0.1914  0.1134 -0.0582
25817W        W40664  16.347   0.170   5.183 -0.0243 -0.1365 -0.0741
25818W        W40665  14.088  11.951   6.571  0.0100  0.1309 -0.0801
25819W        W40666   2.217  13.695   0.246  0.0854  0.4051 -0.0677
25820W        W40667   9.303   2.516   4.824  0.0744 -0.2758 -0.2040
25821W        W40668   8.372   6.940   4.145  0.0933  0.1797  0.0304
25822W        W40669  11.229   7.166   0.203  0.3720 -0.0237 -0.0855
25823W        W40670  11.046   8.805   6.644  0.0212 -0.0839 -0.0470
25824W        W40671   0.823   1.536   4.884  0.1692 -0.1313 -0.0084
25825W        W40672   4.245   6.124  14.433  0.0563  0.1174 -0.0072
25826W        W40673   0.158   5.735   4.006  0.1642  0.0771  0.1953
25827W        W40674  11.330  16.648   0.036  0.0277 -0.1700 -0.1329
25828W        W40675   0.515   1.304   4.535 -0.2248 -0.1011  0.0886
25829W        W40676  14.238   9.269   5.196  0.3063  0.0151 -0.0459
25830W        W40677  11.934   5.903   5.550  0.6078  0.2092 -0.1962
25831W        W40678  10.254  13.628   4.981 -0.4091 -0.2233 -0.1273
25832W        W40679   8.120  16.366   0.853  0.0954 -0.1352  0.0814
25833W        W40680  12.535   9.229   1.722 -0.0957  0.0194  0.2283
25834W        W40681   8.274  10.301   1.191  0.5363 -0.2551  0.2746
25835W        W40682   4.752   7.335  11.769 -0.3207  0.2183  0.0880
25836W        W40683  11.090  17.237   4.662  0.0975  0.2743 -0.0764
25837W        W40684  12.728  13.915   4.263 -0.2643 -0.0159  0.1519
25838W        W40685   7.534   1.088   0.162 -0.0410  0.0744  0.0009
25839W        W40686  13.388   0.232  12.081 -0.0828  0.0383 -0.2270
25840W        W40687   2.985   1.592  13.040 -0.0790  0.0068  0.1634
25841W        W40688  17.016  14.591  12.439  0.0503  0.1859  0.0303
25842W        W40689  12.226  16.116  15.467  0.2809  0.1273 -0.0557
25843W        W40690   6.957   9.973   2.093 -0.0183 -0.0069 -0.1231
25844W        W40691   1.495  10.792   2.781  0.0309 -0.0306  0.0102
25845W        W40692   6.780   4.557  17.266 -0.3015 -0.1940  0.4172
25846W        W40693   3.283   9.969   3.245  0.1095  0.1029  0.0518
25847W        W40694   4.669   9.196   4.110 -0.2762 -0.1275 -0.2453
25848W        W40695   9.898  13.604   2.570  0.0955 -0.0241 -0.1325
25849W        W40696   3.447   3.773   4.003 -0.1280  0.2806  0.0076
25850W        W40697  14.762   8.831   0.107  0.3547 -0.3076  0.1376
25851W        W40698   2.970  14.665   2.814  0.2022  0.0616 -0.0720
25852W        W40699  11.832   3.183  12.617 -0.0505 -0.1821 -0.1361
25853W        W40700   7.340  14.377  12.816  0.1520 -0.0199  0.0657
25854W        W40701   9.648   8.456  10.918 -0.3355 -0.3111  0.0853
25855W        W40702  10.906  12.456  15.551 -0.0839  0.1535  0.0123
25856W        W40703   4.694   4.114   4.390  0.0942 -0.0641  0.0689
25857W        W40704  17.510   5.461  13.824 -0.0572 -0.0302 -0.1465
25858W        W40705   4.998  15.853   3.075  0.3514 -0.2297  0.0555
25859W        W40706  16.177  12.865   2.459 -0.4334 -0.0651  0.1505
25860W        W40707   6.187   5.429  15.476  0.1085 -0.3532 -0.2250
25861W        W40708   0.032   5.347  16.122  0.2467  0.0876 -0.1688
25862W        W40709  12.929   3.328   0.589 -0.1083 -0.0831  0.0963
25863W        W40710   7.854  17.255   0.375 -0.0697  0.2636 -0.1220
25864W        W40711   4.523   4.727   6.552  0.2113  0.3534  0.1718
25865W        W40712   5.725   6.632  16.499 -0.1265  0.1221 -0.3144
25866W        W40713  11.167   0.768   1.398 -0.1897  0.2699 -0.2502
25867W        W40714  10.219   1.644   5.258 -0.2367 -0.0455 -0.1264
25868W        W40715  14.098   4.466   3.357  0.3619 -0.1064 -0.0782
25869W        W40716   1.171  13.651   4.547  0.0262 -0.0653 -0.2583
25870W        W40717   0.112   3.105  16.053  0.0855  0.1788 -0.4175
25871W        W40718  14.698  16.358   5.684  0.2422  0.2395 -0.0674
25872W        W40719  12.461  13.650  13.037 -0.2106 -0.2901  0.2388
25873W        W40720   3.327   8.529  14.134  0.1577  0.1347 -0.3249
25874W        W40721  13.804   3.551   6.199 -0.1299  0.0339  0.1886
25875W        W40722   8.011   2.560   2.703 -0.2905 -0.2128  0.2330
25876W        W40723  12.004   6.143   0.693  0.0443  0.0391  0.3200
25877W        W40724  16.696   0.799   6.089 -0.1252  0.0378  0.0795
25878W        W40725  11.254   7.157   4.935  0.0981  0.2694 -0.0553
25879W        W40726  13.889   6.095   3.065  0.0010 -0.2192  0.2812
25880W        W40727   1.266   0.867   2.522  0.3087 -0.3489  0.0075
25881W        W40728  13.748   7.322   2.815 -0.2724  0.0522 -0.1144
25882W        W40729   9.800   0.761  12.052 -0.0200  0.0559 -0.1328
25883W        W40730   6.638   5.205   6.446 -0.0933 -0.3628 -0.2766
25884W        W40731   6.760  11.277   6.352  0.1395  0.2701  0.1628
25885W        W40732   9.168   7.366   6.839 -0.0602  0.3277 -0.0601
25886W        W40733  13.511  17.430   2.068 -0.0333  0.3320 -0.1502
25887W        W40734   4.448   6.899  11.964  0.0083  0.3290  0.1276
25888W        W40735  10.804  15.432  16.280  0.2646  0.0642  0.1948
25889W        W40736  16.238   9.177  14.687 -0.1741  0.2632 -0.0386
25890W        W40737   3.278   0.056  13.095  0.0408  0.2013 -0.3082
25891W        W40738  16.406   9.909   5.574 -0.0648  0.0352 -0.1377
25892W        W40739  12.609   6.026   4.223  0.0181  0.0721  0.0579
25893W        W40740   0.528  13.213   7.534 -0.0347  0.4127  0.1905
25894W        W40741  13.511   4.692   3.926  0.1130 -0.0142  0.1438
25895W        W40742   8.428   5.821  15.817 -0.0523 -0.2467 -0.3324
25896W        W40743   7.663   0.538   1.399 -0.2275 -0.0444  0.2247
25897W        W40744   1.014  12.916   5.193 -0.1240 -0.2081 -0.0932
25898W        W40745   9.339  15.891   1.210  0.1855 -0.2361  0.1600
25899W        W40746   3.804   9.272   0.277 -0.0065 -0.2283 -0.0762
25900W        W40747  10.078   3.929  13.430  0.4532 -0.3048  0.0068
25901W        W40748   4.477  10.606   1.785  0.0734  0.1911 -0.1326
25902W        W40749  12.389  11.560  17.504  0.0584 -0.1017  0.0898
25903W        W40750  13.648  16.142  16.266 -0.2692  0.2295  0.0380
25904W        W40751  12.098   1.597   2.586 -0.3233  0.1430  0.1992
25905W        W40752  17.317  14.366  13.619  0.1105 -0.2421 -0.0042
25906W        W40753  14.967   3.762   1.585  0.2821  0.1437  0.1038
25907W        W40754  16.714   3.327  14.715  0.1103  0.3586  0.1569
25908W        W40755  12.095  14.464  14.398 -0.0324 -0.2895 -0.2062
25909W        W40756   5.885  16.563  11.626 -0.1438 -0.1690 -0.1583
25910W        W40757   9.586   7.383   1.562  0.1168 -0.1127  0.2301
25911W        W40758   9.910   0.049  14.463  0.2103  0.1346 -0.0807
25912W        W40759   8.781   9.183  12.959 -0.0571 -0.0282 -0.1599
25913W        W40760  13.971   1.164  12.673  0.0351  0.0775 -0.1287
25914W        W40761   6.632  14.304  16.019  0.2769  0.2949 -0.1228
25915W        W40762  11.568   2.422   6.297  0.2282  0.3465 -0.1534
25916W        W40763   8.690  12.879   4.310  0.1727 -0.3510 -0.0616
25917W        W40764  16.253  10.875  14.904  0.2525 -0.1683  0.2023
25918W        W40765  16.062   2.019   1.662  0.1375  0.1719  0.4597
25919W        W40766   9.757  11.559   7.107 -0.0557  0.1383  0.3282
25920W        W40767   8.311  17.011   5.649 -0.1228  0.2565 -0.2833
25921W        W40768   3.522  17.531  15.402 -0.1795  0.1148 -0.2449
25922W        W40769  17.244   5.893   0.198 -0.1353 -0.0477 -0.0601
25923W        W40770   6.280   4.853  14.345  0.1573  0.1024 -0.0252
25924W        W40771   7.401   3.581  13.133 -0.3089  0.0447  0.0197
25925W        W40772   2.912  15.255   1.622 -0.0078  0.1569 -0.1568
25926W        W40773  13.008   0.666  15.348  0.2494  0.1559  0.3010
25927W        W40774   8.353   5.898  12.187 -0.4016 -0.1262  0.0294
25928W        W40775   9.643  13.097  17.083 -0.0100  0.1823 -0.0936
25929W        W40776   3.404   1.321  11.712 -0.0730 -0.0833  0.0463
25930W        W40777  13.576   5.180   3.089  0.1325 -0.1209  0.0350
25931W        W40778  12.864   9.422  17.015  0.4360  0.1700  0.1358
25932W        W40779  13.323  10.942   4.164 -0.2093  0.2942 -0.2494
25933W        W40780   8.023  15.808   5.752  0.0490 -0.0020 -0.0400
25934W        W40781   2.364   3.682   6.181 -0.1779 -0.0957 -0.1307
25935W        W40782  10.655   8.734   3.145  0.0561 -0.2981 -0.0584
25936W        W40783  15.113  17.512  12.922  0.0271  0.1402 -0.3562
25937W        W40784  10.789   8.419   4.081 -0.1109  0.1509  0.0723
25938W        W40785  17.389   7.327   3.257 -0.0890  0.3236 -0.0670
25939W        W40786  14.824  13.413   4.570 -0.0622 -0.3796 -0.2075
25940W        W40787  13.749  12.163  13.559 -0.2530 -0.1110  0.0414
25941W        W40788   0.426  10.067  16.271  0.0733 -0.2971 -0.3035
25942W        W40789   7.082   7.408  12.297  0.0690  0.1301 -0.0825
25943W        W40790   7.631  12.603  11.379 -0.3933 -0.1037 -0.1085
25944W        W40791  13.502  10.912   2.306 -0.1765 -0.2910 -0.1330
25945W        W40792  14.612   0.699   4.938 -0.0182  0.0227  0.1848
25946W        W40793  10.190   7.339   1.426  0.0822  0.2466  0.3194
25947W        W40794   1.766   6.251   4.377 -0.2058 -0.0934 -0.0348
25948W        W40795  16.009   5.569   4.660 -0.0485 -0.1986 -0.1577
25949W        W40796   7.752   7.937   1.947 -0.0117  0.1679  0.3581
25950W        W40797  15.104   6.149  13.343 -0.2383 -0.0587  0.1703
25951W        W40798   8.153   8.204   6.581 -0.0615  0.0895  0.0657
25952W        W40799  15.829  16.074  13.935 -0.0415  0.2449 -0.1943
25953W        W40800   4.003  15.727  13.937 -0.1309 -0.1892  0.1461
25954W        W40801   3.915  10.695   5.838 -0.0255 -0.1114  0.0069
25955W        W40802  10.960  10.794   4.118 -0.0901  0.2677  0.1850
25956W        W40803  17.029   1.974  12.729 -0.0781 -0.0367  0.3949
25957W        W40804  15.807   1.124  17.631  0.1309  0.1125  0.0650
25958W        W40805  11.540   8.130   5.375  0.0500 -0.0857 -0.0750
25959W        W40806   0.646  13.691  17.176 -0.0351 -0.0820 -0.1289
25960W        W40807   7.268  11.964  15.790 -0.4021  0.3902 -0.3695
25961W        W40808   3.967   0.826  14.635 -0.0231  0.0210  0.0365
25962W        W40809   1.020  12.853  14.104  0.1913 -0.1139 -0.1895
25963W        W40810  11.535  16.841   5.888 -0.2241  0.1072 -0.4099
25964W        W40811  15.853   8.365   4.883  0.1926  0.0824 -0.0220
25965W        W40812   6.559   0.182   4.675 -0.2892 -0.1174 -0.0215
25966W        W40813   3.497  17.216   6.721 -0.1771 -0.0129 -0.1920
25967W        W40814   6.397  16.131  14.999 -0.1001  0.0310  0.2341
25968W        W40815  13.677   5.217  15.417 -0.0629  0.0221 -0.0057
25969W        W40816   5.656   1.204   5.321 -0.0701 -0.0581 -0.1702
25970W        W40817  15.363   9.789  14.590  0.0600  0.1087 -0.0118
25971W        W40818  14.043  10.404   3.915  0.3398 -0.0181  0.1238
25972W        W40819  17.316  10.262   3.107  0.1708  0.1216 -0.2865
25973W        W40820  16.315   5.831   2.657 -0.0939  0.2400 -0.4717
25974W        W40821  16.377  11.701  15.452 -0.1975 -0.0373 -0.0073
25975W        W40822  13.003  12.080   0.890 -0.1266 -0.1977  0.1983
25976W        W40823   0.253  13.735   4.505 -0.0697 -0.2513 -0.1949
25977W        W40824  11.397  10.365  15.926 -0.2632 -0.0096  0.2814
25978W        W40825   5.610  16.558   3.577  0.0430  0.0609  0.1683
25979W        W40826  10.587   1.958  12.927 -0.0597  0.0441 -0.2590
25980W        W40827   2.237  11.273   6.109 -0.3781 -0.1072  0.1785
25981W        W40828   1.935  15.748   1.347  0.1307 -0.0153  0.0183
25982W        W40829  17.668   4.510   2.726 -0.0703 -0.2750 -0.0645
25983W        W40830   4.155   4.930   5.422  0.2617 -0.3158  0.0537
25984W        W40831   8.343  11.268   0.606  0.2057 -0.2238 -0.4307
25985W        W40832   4.771   9.412   1.810  0.0138  0.1842  0.0846
25986W        W40833   1.112   3.701   0.797 -0.2038 -0.1270  0.3368
25987W        W40834   1.466  11.932   0.620  0.0805  0.4818 -0.0462
25988W        W40835  11.385   7.589  12.373  0.1146  0.1699  0.1537
25989W        W40836  10.987  16.683   4.826  0.1109 -0.0806 -0.0711
25990W        W40837   3.113   9.058  17.221 -0.2645 -0.0908 -0.1372
25991W        W40838   8.911  12.330   2.380  0.2378 -0.2233 -0.0606
25992W        W40839   3.727  12.503  14.445 -0.0562  0.0089 -0.2805
25993W        W40840  12.197   1.738  13.630 -0.0868 -0.0379  0.0659
25994W        W40841   5.479  10.785   3.420  0.0007  0.1075 -0.0061
25995W        W40842  11.752  10.674   0.871 -0.0755  0.0513 -0.3765
25996W        W40843  16.372  11.807   0.534 -0.1380  0.0817 -0.1566
25997W        W40844  13.001  12.664   6.169  0.2075  0.0399  0.3146
25998W        W40845   8.957   4.286   1.666  0.0477  0.0654 -0.5770
25999W        W40846   7.640  16.351  15.379  0.1012 -0.1757  0.0645
26000W        W40847  17.186   5.266  13.481  0.1727  0.1784 -0.2232
26001W        W40848  11.406   1.136  13.652  0.1420  0.4098 -0.0733
26002W        W40849   9.866   8.670   3.720  0.4685 -0.0363 -0.2833
26003W        W40850   7.321   8.880   5.571  0.2416  0.0698 -0.2879
26004W        W40851  10.971  10.581   2.481 -0.0012  0.0018 -0.0877
26005W        W40852   8.712  11.040  17.441 -0.0491 -0.0445  0.0798
26006W        W40853  14.876  14.475   2.976  0.0283 -0.3200  0.2721
26007W        W40854  16.060   7.900   2.058 -0.0927 -0.0800  0.0191
26008W        W40855  11.116   6.237  13.907 -0.1772 -0.2782 -0.1540
26009W        W40856   0.395   5.834   2.514  0.0428  0.2089  0.1635
26010W        W40857   4.887  17.397   5.488 -0.1231 -0.1196 -0.2744
26011W        W40858  14.157  14.041   0.406 -0.1071 -0.0888 -0.2052
26012W        W40859  15.812  16.424  17.431 -0.1624 -0.1856  0.0526
26013W        W40860  10.005   0.253  17.112  0.0189 -0.1727  0.2376
26014W        W40861  15.552  11.808   1.197  0.2614  0.1105 -0.0189
26015W        W40862   3.897   6.625  16.236  0.0968 -0.0577 -0.1885
26016W        W40863   5.719   0.781   4.085 -0.0241 -0.0856 -0.0870
26017W        W40864  11.287  14.944   4.812  0.0454 -0.2594  0.0225
26018W        W40865   6.157  14.483  15.715 -0.3966 -0.2471 -0.2768
26019W        W40866  10.349  17.235  12.037 -0.0404 -0.0062 -0.1189
26020W        W40867   9.200  10.078   3.144 -0.1891  0.1040  0.2841
26021W        W40868  17.643   9.981   5.859 -0.3707  0.2605 -0.0731
26022W        W40869   2.111  12.458   2.865  0.1367  0.3498 -0.0330
26023W        W40870   4.375  13.676  12.760  0.1203  0.2871  0.3143
26024W        W40871   1.567   0.373  12.264 -0.0151 -0.3357 -0.2804
26025W        W40872   6.030   5.710  17.530 -0.2514  0.0649  0.0021
26026W        W40873   7.749  14.763  16.637 -0.1742 -0.0818 -0.1851
26027W        W40874  10.494   7.683  15.121  0.2634  0.0040  0.2175
26028W        W40875  10.163  14.914   0.532  0.0013 -0.0102 -0.1420
26029W        W40876   6.257   9.073   0.813  0.0690 -0.2083 -0.2947
26030W        W40877   2.652   3.433  13.853 -0.3564 -0.0488 -0.1130
26031W        W40878   0.098  10.437   5.301  0.0207  0.2545 -0.1576
26032W        W40879   0.582   6.702   0.884  0.0318  0.1208 -0.1192
26033W        W40880  10.429   0.117  14.200 -0.1709 -0.2805  0.2079
26034W        W40881  14.089  13.379  16.058  0.0099  0.0256 -0.0883
26035W        W40882   9.086  16.889  10.928 -0.1031  0.4851  0.3897
26036W        W40883   1.516  14.208  14.051  0.1242  0.2009  0.0246
26037W        W40884   7.868   6.624   3.304  0.1562  0.0692 -0.0330
26038W        W40885   7.623   1.674   2.591 -0.2386  0.1998 -0.1664
26039W        W40886   4.271   7.713  16.972  0.0542  0.1420  0.0770
26040W        W40887   4.730   6.362   6.165  0.2742  0.2358 -0.1333
26041W        W40888  16.801  11.607  13.514 -0.0193 -0.1633  0.0044
26042W        W40889  17.031  17.390  13.424 -0.0436 -0.2720 -0.1553
26043W        W40890  15.400  16.312   0.851  0.1911  0.3036  0.1036
26044W        W40891   6.193   8.559   0.859 -0.1541  0.1833 -0.0040
26045W        W40892   3.846  15.833  14.904  0.2909  0.2098  0.1095
26046W        W40893   7.611   8.402  14.655  0.2466  0.1073  0.1367
26047W        W40894  10.697   0.634   1.281 -0.2814  0.1551 -0.3123
26048W        W40895   8.024   4.362  13.369 -0.0890 -0.0211  0.2740
26049W        W40896   9.663   0.605  17.130 -0.1287  0.4555 -0.0577
26050W        W40897  10.420  12.151  16.119  0.2609 -0.0108 -0.2339
26051W        W40898   0.578   9.717  15.565  0.1533 -0.0549  0.5042
26052W        W40899  17.360  12.369  17.074  0.2350  0.1641  0.1562
26053W        W40900  11.279   7.422   2.302 -0.2384 -0.0055 -0.1108
26054W        W40901  10.049   8.953  13.911 -0.3781  0.2917  0.1715
26055W        W40902  17.423  14.391   5.132 -0.1422  0.1871 -0.1196
26056W        W40903   4.454  16.455  11.289 -0.0773  0.1309 -0.0472
26057W        W40904  16.689  10.987  17.129  0.1005  0.1090  0.4366
26058W        W40905   3.194   3.702  12.960 -0.0195 -0.0369 -0.2990
26059W        W40906   1.729   9.943   2.420  0.7173 -0.4174  0.2621
26060W        W40907   5.149   1.549  15.542  0.1598  0.0103 -0.0992
26061W        W40908  11.922  12.128  14.174 -0.2401 -0.0692  0.1664
26062W        W40909  10.760   1.378   6.092 -0.0284  0.1874 -0.2679
26063W        W40910  14.909   0.020  16.851  0.1397  0.1266 -0.1806
26064W        W40911   6.741   2.482   2.833  0.1251 -0.0362  0.1348
26065W        W40912   6.256   1.880   2.022 -0.0010  0.3267  0.1595
26066W        W40913   3.051  12.891   5.004 -0.0778  0.3062  0.2351
26067W        W40914  15.772  15.279   1.222 -0.2583 -0.0261 -0.0938
26068W        W40915   8.061   4.308  14.576 -0.0373 -0.3362 -0.2216
26069W        W40916  14.014  17.104   0.882 -0.0664 -0.2190 -0.0753
26070W        W40917   2.578  17.231   3.083  0.0594 -0.2567  0.1797
26071W        W40918  14.602  12.095   4.864  0.0224  0.0072  0.1789
26072W        W40919  10.990   2.193  16.978 -0.0762 -0.1923 -0.2002
26073W        W40920   5.021   2.210   3.454  0.0829 -0.0187  0.2762
26074W        W40921  12.952   4.375  13.329  0.4020  0.1126 -0.3676
26075W        W40922   2.699   7.228   0.171 -0.0056  0.1197 -0.2961
26076W        W40923  11.111   5.356   1.082  0.1474  0.1841 -0.1465
26077W        W40924  10.941  13.449  17.227  0.0844  0.0889 -0.0261
26078W        W40925   1.507  12.241  14.400  0.2129  0.2561  0.0417
26079W        W40926  13.749   6.344   6.367 -0.1377  0.0266 -0.0578
26080W        W40927  14.255  15.522   3.159  0.1224  0.1544 -0.0960
26081W        W40928  11.585  14.864   1.087 -0.3511 -0.1501  0.0481
26082W        W40929   9.807   8.402  17.031  0.2651 -0.4104  0.3247
26083W        W40930   1.819   6.007   5.705  0.0751 -0.2633 -0.0784
26084W        W40931  13.099  11.852   0.248 -0.1590  0.0572  0.1582
26085W        W40932   9.525  16.918   4.185 -0.0222 -0.0497 -0.1955
26086W        W40933   5.264   8.430   2.999  0.3526  0.0999 -0.0231
26087W        W40934  10.053  13.073  16.823  0.1176 -0.2355  0.1809
26088W        W40935   9.257   4.191  16.598 -0.2474  0.1739  0.1836
26089W        W40936   2.622   6.551   1.834 -0.1682 -0.2614 -0.0737
26090W        W40937  13.348   8.338   6.200 -0.0019 -0.2597 -0.2632
26091W        W40938   0.636   4.452  10.937  0.1209  0.1245 -0.0303
26092W        W40939   3.765   8.277  14.243 -0.2454  0.0614 -0.2261
26093W        W40940   7.834   7.987  11.908  0.1921  0.1933 -0.2185
26094W        W40941  17.471   9.544   3.644  0.0728  0.2455  0.1876
26095W        W40942   0.991  16.222  13.408  0.2462  0.0055 -0.0415
26096W        W40943   2.445  13.497   3.573  0.0686  0.2694 -0.0397
26097W        W40944   8.909  10.897   1.761 -0.1002  0.5354  0.1010
26098W        W40945  12.870  12.931   0.435  0.0673  0.3431 -0.1367
26099W        W40946  15.860  15.621   3.584  0.0506 -0.1557 -0.2960
26100W        W40947   3.103   9.407  13.130 -0.0765  0.0575 -0.2231
26101W        W40948   6.472  10.001  13.257 -0.2142  0.5402  0.2956
26102W        W40949   9.179   8.248   2.208 -0.4348  0.3234  0.1280
26103W        W40950  10.868   7.409  16.602  0.1846 -0.0888 -0.1276
26104W        W40951   4.168   2.144   2.861  0.0151 -0.0236 -0.1731
26105W        W40952  16.570   7.831  15.125  0.2550  0.1347 -0.0193
26106W        W40953   4.885   7.243   0.717  0.1688 -0.0356 -0.0314
26107W        W40954   0.696   8.762   1.542 -0.0828  0.3009 -0.1213
26108W        W40955  14.486   7.706  14.534  0.4674  0.1851 -0.0039
26109W        W40956  11.688  12.424  13.814 -0.1472 -0.0556 -0.0967
26110W        W40957   5.449  15.094  14.836 -0.1877 -0.0853  0.0179
26111W        W40958   9.045   2.069   4.736 -0.1156 -0.1036 -0.0521
26112W        W40959   5.717  14.145  17.208 -0.4168  0.2699 -0.1193
26113W        W40960   5.599   9.256   4.757  0.1050 -0.0741  0.0183
26114W        W40961   6.895  10.360  14.795 -0.1753  0.3124  0.3335
26115W        W40962  16.227   0.560  14.155 -0.2005 -0.0092  0.0174
26116W        W40963   0.262   4.268   4.222 -0.3307 -0.0369 -0.4406
26117W        W40964   7.380  13.488   0.555  0.2489 -0.1242 -0.2543
26118W        W40965   1.480   0.785   0.250 -0.2363  0.0926 -0.0621
26119W        W40966   9.671  15.542  14.623  0.0825  0.1565 -0.1880
26120W        W40967  10.353   3.179   5.456  0.2366 -0.3355 -0.3528
26121W        W40968   4.992  16.432  17.369 -0.2571 -0.1920  0.1398
26122W        W40969   2.863   3.657   0.599 -0.0889  0.2484 -0.0544
26123W        W40970  16.379  14.462   1.909 -0.2332  0.1221 -0.0292
26124W        W40971   8.265   4.197  12.648 -0.0666 -0.2071 -0.0527
26125W        W40972   6.588   4.166  15.970  0.0920  0.0927 -0.2589
26126W        W40973  10.741   5.155   5.292  0.0176 -0.2285 -0.3426
26127W        W40974  13.953  14.777   0.507 -0.0345 -0.0459 -0.0489
26128W        W40975   2.523  16.877   4.337 -0.1183 -0.1897 -0.2992
26129W        W40976   1.764  13.344   0.206  0.2361 -0.3678 -0.0202
26130W        W40977  16.533   4.680   0.515  0.0399 -0.1759 -0.1224
26131W        W40978   8.077   0.971   1.973  0.4096  0.0627  0.1585
26132W        W40979   4.487   7.412  13.584  0.3164  0.3550  0.0225
26133W        W40980   4.305  10.957   4.421  0.0197  0.0568 -0.0256
26134W        W40981  14.311  17.659   0.276  0.4215 -0.1395  0.0314
26135W        W40982   8.160   8.896   2.839  0.0938 -0.0692 -0.0183
26136W        W40983  13.925  11.783  15.859 -0.2118  0.0020 -0.0640
26137W        W40984  16.258  17.665   4.206  0.1420 -0.1046 -0.1781
26138W        W40985   9.014  14.049  12.242  0.1689  0.1097  0.0673
26139W        W40986  10.024   5.648  15.901  0.2239 -0.0071  0.0246
26140W        W40987   2.503   1.303  14.828  0.0743 -0.1230  0.0381
26141W        W40988   0.266  15.647   2.002  0.0386  0.1509 -0.1656
26142W        W40989   8.804   5.131  14.216 -0.1143  0.2500 -0.4732
26143W        W40990  13.362   5.876   0.222 -0.1667 -0.3789 -0.1667
26144W        W40991  12.910  13.083  14.431  0.0066 -0.0424  0.0622
26145W        W40992   9.374  10.337  17.080 -0.1033  0.2382 -0.1063
26146W        W40993   5.557   4.339   2.945 -0.0656  0.2621  0.0248
26147W        W40994   9.855  10.235  16.334  0.0674  0.0645 -0.1938
26148W        W40995  16.397  17.589  16.740 -0.3405 -0.0015  0.0265
26149W        W40996   0.520  16.541   5.921 -0.0229  0.0169  0.2605
26150W        W40997   7.645   9.718  14.914  0.1031  0.0518 -0.0936
26151W        W40998   4.081   1.117   2.266  0.3046 -0.0621  0.0497
26152W        W40999   6.754  10.264   3.170 -0.0105 -0.0190 -0.1136
26153W        W41000   3.953  14.032  16.239  0.0455  0.0459  0.1855
26154W        W41001  13.010  11.070  17.681  0.1660 -0.0200  0.1107
26155W        W41002  11.701   4.998   5.404 -0.5397 -0.1139  0.1822
26156W        W41003   1.654   1.069   3.382  0.2484 -0.0817  0.0999
26157W        W41004  12.018   7.399   3.706  0.0417  0.1189 -0.1194
26158W        W41005  12.413  11.939   3.023 -0.2846 -0.1119  0.1498
26159W        W41006   6.301   5.216  13.461  0.2703  0.0583  0.1978
26160W        W41007   9.586   8.552   5.182 -0.0819  0.4864  0.1616
26161W        W41008   6.435  12.243   6.552 -0.1008  0.0624  0.1424
26162W        W41009   3.541  13.491   2.867  0.3298  0.0385 -0.0962
26163W        W41010   3.312   8.778  13.393  0.2662 -0.1473  0.2896
26164W        W41011  16.608   6.593   5.312  0.0344  0.1741 -0.3676
26165W        W41012   5.689   8.065  12.006 -0.0408  0.1485 -0.1277
26166W        W41013  10.290   5.324  17.085 -0.1440  0.3537 -0.0591
26167W        W41014   4.952  10.821  15.093  0.0712  0.0002  0.0465
26168W        W41015  15.677  17.422  12.254  0.1464  0.1446 -0.0493
26169W        W41016   9.315  15.346   2.387  0.1536 -0.1375 -0.0326
26170W        W41017   5.833  12.851  16.688  0.0615 -0.2080  0.0522
26171W        W41018  12.198   5.199  15.497 -0.0051  0.0603 -0.0634
26172W        W41019  13.418   1.896   3.280  0.2687  0.1905  0.1666
26173W        W41020   8.254  14.441  11.986 -0.3889  0.0535 -0.0037
26174W        W41021   9.329   5.429   2.549 -0.1601 -0.2940 -0.0455
26175W        W41022   1.220  12.776   0.739 -0.1536 -0.1884 -0.0322
26176W        W41023  12.393  10.409   3.147 -0.0850  0.1960 -0.3813
26177W        W41024   2.517   2.129   6.297 -0.1455  0.3533  0.3262
26178W        W41025  17.555  16.411   1.548  0.0810  0.3325  0.1635
26179W        W41026   9.456  16.128  12.969  0.1633 -0.2544  0.1535
26180W        W41027   7.843   8.556  15.599 -0.2419 -0.0077  0.0824
26181W        W41028   0.931  14.291  15.940 -0.1561 -0.4417 -0.2972
26182W        W41029  17.123  14.882   5.392 -0.1404 -0.5327 -0.0033
26183W        W41030   0.295   9.630  14.074  0.1281  0.2502  0.0091
26184W        W41031  17.087   0.154   6.653  0.0394  0.1568 -0.1448
26185W        W41032  14.685  15.812  16.392 -0.1853 -0.2688  0.0059
26186W        W41033  13.438  13.034   6.753  0.0355 -0.0685  0.0436
26187W        W41034  10.005  14.536  14.930 -0.2615 -0.0003 -0.1345
26188W        W41035   5.602   3.199   2.526  0.0010  0.1348  0.1747
26189W        W41036   4.562   4.502   3.365  0.0066  0.1266 -0.1974
26190W        W41037  12.517  13.533   2.818 -0.0983  0.0210  0.3414
26191W        W41038  13.009  10.699   0.380  0.0827  0.3973 -0.1978
26192W        W41039  10.969  14.616  15.383 -0.0385 -0.0658 -0.2277
26193W        W41040   1.293   1.718   3.914 -0.2626  0.1140  0.3610
26194W        W41041  16.012   9.856   1.495  0.0493  0.0224 -0.1217
26195W        W41042  10.849  14.331  17.407  0.1887  0.1371  0.0736
26196W        W41043   9.313  10.289   6.420  0.1968  0.1420  0.2433
26197W        W41044   1.929   2.324   5.700 -0.1762  0.0549 -0.0230
26198W        W41045   2.717  15.547   6.232  0.0635 -0.3060  0.2299
26199W        W41046   8.365  13.003  16.929  0.0981 -0.0376 -0.3054
26200W        W41047  16.064   6.086   4.841  0.4886 -0.0602  0.1735
26201W        W41048   8.999  13.625  14.426 -0.0291  0.0544  0.0722
26202W        W41049   6.743  11.529  11.940  0.0158 -0.1230 -0.0797
26203W        W41050   0.072   8.999   0.957 -0.0144 -0.2045 -0.1260
26204W        W41051   9.344   5.875  12.539  0.2524  0.0342  0.2811
26205W        W41052   3.700  13.573  16.898  0.1052  0.0332  0.0552
26206W        W41053  12.879   8.245  15.846 -0.0159 -0.0217  0.1284
26207W        W41054   0.343   5.130   3.783  0.3620 -0.2017 -0.0401
26208W        W41055  10.892  14.061   6.262  0.4492 -0.2610 -0.0763
26209W        W41056  15.392   6.881   0.643 -0.0077 -0.0024 -0.1634
26210W        W41057   1.656  13.129   0.781 -0.0489  0.2083 -0.1713
26211W        W41058   1.650   9.795  12.398 -0.4433 -0.2756 -0.2321
26212W        W41059   1.137  14.010   2.189 -0.1170 -0.0869 -0.1530
26213W        W41060  16.243   4.584  14.352 -0.1889  0.1123  0.0531
26214W        W41061   9.897   1.987   6.986  0.0770  0.0558  0.0219
26215W        W41062  17.559  11.973  13.079  0.2129  0.1036 -0.2559
26216W        W41063   9.909  14.117  14.650 -0.2374  0.2044 -0.1690
26217W        W41064   4.121   4.830  16.915 -0.1867 -0.2523 -0.0136
26218W        W41065   4.029   6.903  12.298 -0.0107 -0.1237  0.1668
26219W        W41066   7.148  13.214   4.647  0.2398  0.2743 -0.0550
26220W        W41067  14.459  14.980   2.265  0.0746  0.0478 -0.3933
26221W        W41068  17.308   5.731   3.407  0.0094  0.1331  0.0352
26222W        W41069  12.223  10.917   1.042 -0.0690 -0.2503  0.1164
26223W        W41070   4.657   1.081   5.472 -0.0237  0.0041  0.0205
26224W        W41071   8.296   7.183   1.973 -0.2798  0.3819  0.2103
26225W        W41072  14.416   1.202   6.136  0.1301 -0.0875 -0.0822
26226W        W41073   3.479  10.777  11.874  0.0339  0.0157 -0.1087
26227W        W41074  10.677   3.076   5.021 -0.0782  0.1248 -0.2555
26228W        W41075  13.429   4.282  15.409 -0.0495 -0.1455  0.0005
26229W        W41076   4.602  12.735  16.400 -0.2580 -0.2495 -0.2735
26230W        W41077  12.352   4.795  15.661  0.1588  0.1078 -0.1759
26231W        W41078  15.497  13.137   7.092  0.2918  0.2637 -0.1796
26232W        W41079   9.818   7.609   1.194 -0.1639 -0.0907  0.0682
26233W        W41080   8.767  12.518   3.359  0.4226 -0.0297  0.0455
26234W        W41081   5.177  13.249  12.075 -0.1207  0.0519 -0.1297
26235W        W41082  13.905  16.949  11.922 -0.2525 -0.1803  0.0878
26236W        W41083   0.367   9.261  12.019 -0.3225 -0.0216  0.0986
26237W        W41084   7.459   3.907   1.632 -0.2305  0.0536  0.1558
26238W        W41085   5.450   9.822   4.076  0.2137 -0.2442  0.2070
26239W        W41086   9.830   1.074  12.488  0.0495 -0.0160  0.1622
26240W        W41087   4.174  10.044  13.382 -0.0844  0.0439  0.0982
26241W        W41088   5.536   5.740  16.866 -0.0886  0.1934 -0.2980
26242W        W41089   1.358   1.184  12.057 -0.2714 -0.0547  0.0507
26243W        W41090   0.102  16.196  16.947 -0.0845  0.3785  0.0398
26244W        W41091   3.223  14.643   6.435  0.0714  0.1746  0.2113
26245W        W41092   3.649   2.829   4.004 -0.2347 -0.2258  0.0367
26246W        W41093  10.515  11.866   2.260 -0.1075  0.0085 -0.1170
26247W        W41094   4.879   6.304   3.982 -0.1566  0.1710  0.3999
26248W        W41095  13.368   3.117   4.798 -0.2596 -0.0458  0.0552
26249W        W41096  15.353   1.067  16.991 -0.2922  0.3365  0.1507
26250W        W41097  12.644   4.429   1.406 -0.1378 -0.3613 -0.2553
26251W        W41098  12.046   1.727   1.262 -0.2706  0.0657 -0.0340
26252W        W41099  10.450  12.164  14.354  0.0808 -0.1564  0.2089
26253W        W41100  15.761  15.252  15.710 -0.1074  0.0688  0.4775
26254W        W41101   8.077  10.759   5.020 -0.1716  0.0137 -0.0387
26255W        W41102  10.479  17.363   0.301  0.1342 -0.2154  0.0837
26256W        W41103   8.908   4.596  16.829 -0.1511  0.2677 -0.0681
26257W        W41104  12.817  12.587  14.308  0.1927  0.0944 -0.1577
26258W        W41105   5.131  11.054   5.703  0.0942  0.0761 -0.3587
26259W        W41106   2.216   7.700   1.898  0.2516 -0.1269 -0.3217
26260W        W41107  11.014   9.443  15.183 -0.0094 -0.0102 -0.2086
26261W        W41108   3.628   1.934  13.317  0.0529 -0.2671 -0.0749
26262W        W41109  15.558   0.690  14.172 -0.0247  0.2354  0.0979
26263W        W41110  11.595   1.070   2.576  0.3046  0.1499  0.0096
26264W        W41111  10.935  11.584   4.197  0.0098  0.0584 -0.0023
26265W        W41112  11.210  10.437  14.532 -0.0922 -0.0409  0.1255
26266W        W41113   1.406  16.975  12.960  0.1253  0.1976 -0.0003
26267W        W41114  10.098   0.803  14.592 -0.0219  0.3299 -0.0552
26268W        W41115  15.101   9.477   4.223  0.0931  0.3597 -0.0090
26269W        W41116   5.557   7.419  16.183 -0.0607 -0.1191  0.0349
26270W        W41117  10.440   3.726  13.724 -0.1717  0.2248 -0.1025
26271W        W41118   9.572  12.000   7.288 -0.2992  0.0647 -0.1926
26272W        W41119   1.288  14.002   0.740 -0.2939  0.3313  0.1054
26273W        W41120   8.207   7.501   2.905 -0.1788  0.2209 -0.0327
26274W        W41121  12.465   1.330   2.068 -0.1537 -0.0271 -0.0828
26275W        W41122  15.191   0.242   0.468  0.2494  0.0914 -0.2157
26276W        W41123   5.789   9.380  11.447  0.0030  0.0888 -0.0445
26277W        W41124  14.952   6.409   4.001  0.0314  0.0599  0.0037
26278W        W41125   8.662   4.967  12.206 -0.0540  0.3785  0.0859
26279W        W41126   0.032  14.873   0.520 -0.0976 -0.0064 -0.1306
26280W        W41127   3.902   8.454   5.747  0.2368 -0.3874  0.0228
26281W        W41128   8.146   6.495   4.262 -0.0699  0.0473  0.3155
26282W        W41129   6.249  17.409   5.904 -0.1440 -0.1476 -0.4823
26283W        W41130   4.245   8.438  14.302 -0.1030 -0.0758  0.1351
26284W        W41131  16.088  13.233  17.369 -0.0201  0.1257 -0.1865
26285W        W41132   0.279   6.434  16.169  0.0716  0.1893  0.0081
26286W        W41133   7.858  13.864  16.442  0.1170 -0.4991 -0.0651
26287W        W41134   9.710   4.986   3.638 -0.2311  0.1271 -0.0206
26288W        W41135   6.474   8.420  12.195 -0.0011 -0.3026  0.1836
26289W        W41136  14.103   5.984  13.578  0.2152  0.1653  0.2845
26290W        W41137  11.341  14.170   5.262 -0.3541 -0.0120 -0.1865
26291W        W41138  15.866   4.306   4.083 -0.2845 -0.0178 -0.1531
26292W        W41139   7.479  14.991  15.373 -0.0518  0.0117 -0.2911
26293W        W41140   9.790   5.343  15.188 -0.0847 -0.0212  0.0909
26294W        W41141  11.318   0.463   4.507 -0.0619 -0.1685  0.3370
26295W        W41142  11.752   0.109   6.265  0.0953 -0.2262  0.0628
26296W        W41143  15.109  15.703   5.094 -0.1627 -0.0786  0.2657
26297W        W41144   0.526  15.601  13.216  0.0642  0.0463  0.0481
26298W        W41145  12.647  15.279  14.362  0.1834 -0.1202 -0.2083
26299W        W41146   1.067  15.555   0.079  0.0744  0.2291 -0.0511
26300W        W41147  11.443   4.968  15.758  0.0346 -0.2760 -0.2668
26301W        W41148   3.613   5.522  16.591  0.1861 -0.0305  0.0397
26302W        W41149   2.244   7.786   5.598 -0.0927 -0.5993  0.0001
26303W        W41150   2.256   7.540   1.417  0.1152 -0.0214 -0.2821
26304W        W41151  16.167   5.273   6.949 -0.2441 -0.1593 -0.0149
26305W        W41152  13.277   7.956   5.446 -0.2006  0.0466  0.0414
26306W        W41153   3.013   7.778   2.966  0.1046  0.1327  0.1239
26307W        W41154   2.478  13.336   2.764 -0.0606 -0.0685  0.1331
26308W        W41155  14.130   9.900  17.042 -0.0385 -0.1147  0.0200
26309W        W41156  10.603  15.916  12.053  0.0779 -0.0631 -0.0800
26310W        W41157   8.737  13.875   5.067  0.3983 -0.2501  0.4963
26311W        W41158   5.804   2.809   0.083 -0.1615  0.2047  0.2762
26312W        W41159  15.318   6.086  17.387  0.2214  0.0066 -0.0924
26313W        W41160  12.164  15.774   3.056 -0.3425  0.3982 -0.0271
26314W        W41161  12.285   1.767  17.383  0.0904  0.0130 -0.0114
26315W        W41162   4.670  10.007  13.456 -0.0864 -0.1635  0.0579
26316W        W41163   9.543  17.018  14.863  0.0872  0.0952 -0.0634
26317W        W41164  17.503   6.713   5.938 -0.3368 -0.1661 -0.1037
26318W        W41165  10.111   0.864   5.786 -0.2739  0.3899 -0.1082
26319W        W41166  16.058   0.822   2.015  0.0351  0.5173  0.2553
26320W        W41167  12.407  16.307  14.308  0.0851  0.3163  0.0938
26321W        W41168   3.288  15.532  13.038  0.2750  0.1440  0.0957
26322W        W41169   7.684   7.624  14.007 -0.2687  0.0177 -0.1086
26323W        W41170   3.788  12.829  13.679  0.0247  0.4852  0.0776
26324W        W41171   9.552  12.430  13.825  0.0250  0.0640  0.0505
26325W        W41172  16.434   8.429   1.829  0.1429  0.0315  0.1241
26326W        W41173   1.976  16.476   3.682  0.0857  0.1869 -0.0276
26327W        W41174  12.154   8.493  13.879  0.0786  0.0458 -0.2263
26328W        W41175   2.486   6.932   2.632 -0.3871  0.1893 -0.1391
26329W        W41176   5.069  15.417  13.301  0.1719  0.0377  0.1827
26330W        W41177   5.607   3.356  11.637  0.1595  0.4990  0.2166
26331W        W41178   1.904   8.766   0.288  0.1828  0.0281 -0.2010
26332W        W41179  16.466   3.517   4.460  0.1571  0.1310  0.3867
26333W        W41180   9.741   5.222   4.411  0.1959  0.2390  0.0235
26334W        W41181   9.882  11.366   5.335 -0.2050  0.5061  0.1761
26335W        W41182  15.530   0.555   4.495  0.0453  0.3275 -0.0734
26336W        W41183  10.652   5.937  12.889 -0.2039  0.1347 -0.1269
26337W        W41184   4.405  13.895  16.290 -0.0141  0.1139  0.1644
26338W        W41185   2.441   5.637  14.099  0.1412 -0.0322 -0.1875
26339W        W41186   8.640  11.572  17.653  0.1872  0.0111  0.0332
26340W        W41187  12.082   8.083   0.891  0.2575 -0.0115  0.2026
26341W        W41188   1.692   7.056  13.067  0.0357  0.3465  0.1702
26342W        W41189  11.208   0.666  17.498  0.1715  0.0001 -0.1409
26343W        W41190  11.817   0.526   1.792 -0.1657  0.0957 -0.0616
26344W        W41191  13.125   2.858  15.925 -0.2611 -0.2861 -0.0521
26345W        W41192  14.032  10.299  14.897 -0.0179  0.0811  0.3022
26346W        W41193  12.949   1.606   0.400  0.0730  0.0749  0.1757
26347W        W41194   9.997   6.564  11.919 -0.0124  0.2742 -0.2669
26348W        W41195   0.048   8.171  17.488 -0.0991 -0.1163 -0.0511
26349W        W41196  10.665   4.758  15.267 -0.0804  0.1932  0.1674
26350W        W41197   2.252   0.139  15.411 -0.2550  0.2587 -0.2527
26351W        W41198   3.027   4.480   0.474 -0.0184  0.0009  0.3616
26352W        W41199  16.823   9.052   2.928  0.0138 -0.0563 -0.0483
26353W        W41200  10.183  16.469   2.181 -0.1406 -0.1720 -0.2793
26354W        W41201   9.019  12.408  16.532  0.2452 -0.0952  0.1971
26355W        W41202   8.851   0.195  13.714  0.1099  0.1071 -0.0624
26356W        W41203   0.948   2.631   0.062  0.0853  0.0577 -0.0714
26357W        W41204  16.875   5.356  15.302  0.1936  0.2151 -0.1148
26358W        W41205   0.937  15.682   6.176  0.4341  0.2501  0.0572
26359W        W41206   8.320   5.952  11.635  0.4097 -0.0943 -0.0495
26360W        W41207   3.303  10.995  14.262  0.0823 -0.0944 -0.2322
26361W        W41208   5.658  14.640  12.193 -0.0580  0.1068 -0.3892
26362W        W41209  11.777  12.711  17.293  0.0984 -0.2124 -0.0541
26363W        W41210  10.340   0.675   3.477 -0.0390  0.1206  0.0997
26364W        W41211  11.705   8.251  14.146  0.3277  0.1278 -0.0314
26365W        W41212  17.209  11.764  17.512 -0.0256  0.1713 -0.2716
26366W        W41213  11.843   1.592   5.035 -0.0375 -0.0719  0.1175
26367W        W41214  17.668   5.638  17.604  0.0213  0.1679  0.1077
26368W        W41215  14.869  10.663   3.437  0.0585  0.0363 -0.3264
26369W        W41216  10.679   3.887   1.171  0.2505 -0.0665 -0.3805
26370W        W41217  13.302  12.999   5.863 -0.1128 -0.1944 -0.0172
26371W        W41218   9.191   6.138  14.246 -0.3168 -0.0384  0.1713
26372W        W41219   7.303   0.085  14.728 -0.1492  0.3071  0.2171
26373W        W41220   2.190   1.773  13.289 -0.1923 -0.1131 -0.0610
26374W        W41221   2.957  13.778  16.386  0.1608  0.3433 -0.3319
26375W        W41222   9.717   5.011  17.523  0.3258  0.0179  0.1325
26376W        W41223   0.165  10.911   5.315  0.2147  0.3457  0.1185
26377W        W41224  16.204   0.145  11.065  0.1510 -0.0806  0.0744
26378W        W41225   7.435  16.390  12.576  0.3177 -0.0992 -0.0616
26379W        W41226  10.977   8.003   0.469  0.3832 -0.0166 -0.3495
26380W        W41227  11.580   6.305   3.905 -0.1399  0.3054  0.0659
26381W        W41228   9.362   5.686   5.629 -0.3100 -0.6031 -0.0802
26382W        W41229   0.020   2.758  16.906 -0.0790 -0.0697 -0.0089
26383W        W41230   2.439   3.667   0.360 -0.1323  0.0690  0.2439
26384W        W41231   7.265   7.237  13.595 -0.2016  0.1064 -0.1880
26385W        W41232   4.901   1.398   5.940  0.1787  0.1045  0.0047
26386W        W41233   8.725   1.656  17.206  0.1872 -0.2446  0.0115
26387W        W41234  16.878  17.615  16.800  0.0345 -0.0553 -0.1333
26388W        W41235   5.374   3.352   4.533 -0.0262  0.2652  0.2233
26389W        W41236  11.621   5.617  11.667 -0.0958 -0.0500  0.2558
26390W        W41237   2.639  14.195  15.760 -0.1340  0.1489 -0.2834
26391W        W41238   7.379   4.982  13.307  0.0015 -0.2424  0.1540
26392W        W41239   4.774  10.859  14.651 -0.1250  0.0317  0.0747
26393W        W41240   1.432  15.090   1.340 -0.0528 -0.1593 -0.0436
26394W        W41241   4.623  11.221   3.481 -0.1860  0.1508 -0.1838
26395W        W41242   6.500   7.549   0.064  0.0264  0.0174 -0.0776
26396W        W41243  13.943   4.632  12.646 -0.4225  0.1041 -0.2680
26397W        W41244  10.051   2.773  16.211  0.0405  0.0563  0.3115
26398W        W41245   8.831   2.201  13.317  0.1031  0.1917  0.0465
26399W        W41246  15.290  10.507   1.392  0.2562 -0.1233 -0.1500
26400W        W41247  14.779   0.486  17.024 -0.0505 -0.1016  0.1444
26401W        W41248   9.530  13.243   3.088 -0.0066 -0.0144 -0.3681
26402W        W41249  13.362  15.777   3.007  0.0625 -0.1708  0.1061
26403W        W41250  16.507  14.191  14.092  0.2523  0.1638  0.0778
26404W        W41251   6.801   7.218   1.116  0.1768 -0.1156  0.0081
26405W        W41252  13.814   1.660  15.988  0.2353  0.2808  0.0142
26406W        W41253   4.839  11.681  15.568  0.1377  0.1743  0.1629
26407W        W41254  10.603   1.913   0.297  0.0031  0.0565 -0.0503
26408W        W41255   2.419   0.791   0.356  0.0096 -0.1173  0.1607
26409W        W41256   0.800  10.373   4.504  0.3072  0.1812  0.0673
26410W        W41257  17.526  11.411  17.615 -0.2263  0.1293 -0.1619
26411W        W41258  12.648   9.733  13.477 -0.0772 -0.0117 -0.1987
26412W        W41259   0.009   6.001   1.033  0.1029  0.0087  0.0160
26413W        W41260   9.778   9.593  17.263 -0.1648 -0.1843  0.0091
26414W        W41261   2.203   7.512   5.178 -0.0667  0.0418  0.1831
26415W        W41262  14.816   5.978   5.622  0.0109 -0.1340 -0.2590
26416W        W41263  17.115  14.710   0.533  0.1051  0.0881 -0.0207
26417W        W41264   2.254   6.052   2.520 -0.1834  0.1974  0.0724
26418W        W41265   2.103   0.598  15.319 -0.3887  0.0078 -0.4352
26419W        W41266   6.981   3.202   4.591  0.2013 -0.3114 -0.1531
26420W        W41267  13.272   1.189  13.111 -0.2224 -0.0463 -0.1360
26421W        W41268  16.035   0.519  12.958 -0.1220 -0.2128 -0.0161
26422W        W41269  11.880   5.151  12.586 -0.1701  0.3167  0.1047
26423W        W41270   3.172   8.393   2.522 -0.2011  0.3473 -0.1134
26424W        W41271  12.119  12.911  14.611 -0.0899  0.3762  0.2747
26425W        W41272   7.668  13.357  16.461  0.0657  0.0600  0.1533
26426W        W41273  12.723  17.126   2.018  0.3151  0.1596  0.4838
26427W        W41274   9.400   2.752  13.004 -0.0857 -0.1459  0.0589
26428W        W41275   1.801   6.443  16.330  0.0999 -0.1577  0.1760
26429W        W41276   9.658   4.149   0.431 -0.1792  0.0894 -0.0197
26430W        W41277   9.403  15.186  14.294  0.1473 -0.0254 -0.2387
26431W        W41278   3.344   1.503  13.854  0.0590 -0.0946 -0.1544
26432W        W41279   8.609   5.467   3.452 -0.0864 -0.0508 -0.0391
26433W        W41280   3.698  17.045  11.410  0.1144 -0.2420 -0.1944
26434W        W41281   1.281   3.729   2.102  0.0815  0.1794  0.3217
26435W        W41282   2.798   0.087   1.665 -0.1408 -0.3519 -0.1170
26436W        W41283  13.281  17.434  13.002  0.0505 -0.0073 -0.3465
26437W        W41284   2.414  14.206  16.917  0.2903  0.0209  0.0878
26438W        W41285   1.899   8.114   5.680 -0.0209  0.0643  0.0667
26439W        W41286   6.770  13.587   4.766 -0.1138 -0.1171 -0.1535
26440W        W41287   9.496   9.599  14.353 -0.1807 -0.0905  0.3695
26441W        W41288  11.373  16.617  12.296 -0.1590  0.2425 -0.3241
26442W        W41289   7.020   3.964  15.794  0.4600  0.2097 -0.0577
26443W        W41290   7.826   5.390  15.557 -0.1334  0.2216 -0.1469
26444W        W41291   7.782   1.439  14.001  0.1343  0.0519 -0.0212
26445W        W41292  11.240   6.592  12.515 -0.1929 -0.3026 -0.3095
26446W        W41293   6.520   4.333   0.676 -0.0052  0.0044 -0.0198
26447W        W41294   7.982   0.234  11.855  0.1310 -0.0561  0.2115
26448W        W41295   7.785   6.023   4.025  0.2651  0.0058  0.0084
26449W        W41296   3.513  17.586   4.313 -0.1976  0.1227 -0.1750
26450W        W41297  17.399  13.694  16.875 -0.0798 -0.2605 -0.0923
26451W        W41298  17.421  13.320   4.192 -0.2697 -0.0515 -0.1482
26452W        W41299   9.850   8.029   2.307 -0.1976 -0.2260  0.2413
26453W        W41300   0.391   5.104   6.207  0.1827 -0.0288 -0.2101
26454W        W41301   3.400  13.812  10.736  0.1910 -0.0229  0.2937
26455W        W41302   7.363   9.320  16.966  0.2228  0.2313  0.3491
26456W        W41303  15.872  11.358   4.682 -0.2055 -0.1943 -0.2318
26457W        W41304  14.766   8.057   3.751 -0.0758  0.2062  0.0704
26458W        W41305   3.129   2.131  11.134 -0.2438 -0.2435  0.0169
26459W        W41306  16.761   6.854   0.278  0.0811  0.0622 -0.1906
26460W        W41307  14.180  13.442   3.796  0.2876 -0.1189 -0.4163
26461W        W41308   8.315   7.136  12.337  0.1827  0.0015 -0.0407
26462W        W41309  12.882   8.689   3.950 -0.0197 -0.0997  0.0268
26463W        W41310  10.352   9.750   1.257  0.0792 -0.0241 -0.0328
26464W        W41311   1.616   6.253  15.250 -0.1241 -0.1129  0.2117
26465W        W41312   6.070   9.000   2.879 -0.3441 -0.0910 -0.1753
26466W        W41313  16.923  10.718   0.849  0.1450  0.1132 -0.1951
26467W        W41314   2.791  15.158  15.161 -0.1461 -0.2706  0.1027
26468W        W41315  11.344  17.649   4.546  0.0016  0.2025 -0.0600
26469W        W41316   0.619  10.365   0.516 -0.0047  0.1176  0.3372
26470W        W41317   0.070  10.733   2.562  0.2223  0.1718  0.0303
26471W        W41318   9.958  12.825   0.334 -0.1098  0.0863 -0.3378
26472W        W41319  13.300  15.791  16.358  0.0249  0.0033 -0.2171
26473W        W41320   2.140  17.197   0.858 -0.2471  0.0220  0.1648
26474W        W41321   6.197  17.255   2.084 -0.6244  0.2429 -0.1231
26475W        W41322  10.888   2.590   3.808  0.1620  0.4478  0.0270
26476W        W41323  17.123  16.812   5.978  0.0547 -0.0826  0.1571
26477W        W41324   0.623   0.478   5.721 -0.0465 -0.2461  0.0111
26478W        W41325   9.160   3.270   2.247 -0.0948 -0.0633 -0.1455
26479W        W41326   2.572  13.874  14.249 -0.2124  0.1799  0.0457
26480W        W41327   8.910  13.213  14.747 -0.1910 -0.2943 -0.0106
26481W        W41328  12.548  14.037  11.457 -0.1272  0.0194  0.1979
26482W        W41329   3.882   2.511   4.236 -0.0115 -0.1711 -0.1041
26483W        W41330   2.624   5.983  17.611  0.2116  0.1706 -0.1096
26484W        W41331  11.748  13.826  17.310 -0.0206  0.0510 -0.1489
26485W        W41332  15.889  17.551  16.963  0.1905 -0.0586  0.1593
26486W        W41333   1.304   6.294  16.418 -0.0831 -0.1322  0.1706
26487W        W41334  10.554  16.086   0.937 -0.0783 -0.3021 -0.1442
26488W        W41335   9.977  10.316  13.338  0.3074 -0.0610 -0.1646
26489W        W41336   7.426  13.404  15.503  0.2229 -0.0956 -0.0134
26490W        W41337   0.686   5.371   1.296  0.2047  0.0264 -0.1490
26491W        W41338   4.803  11.386  14.618 -0.1130 -0.0671  0.3228
26492W        W41339   4.613   9.089  14.810 -0.1522 -0.0717  0.0537
26493W        W41340  13.990   1.500  13.451 -0.1403 -0.1474  0.2474
26494W        W41341   1.776  17.059  13.861  0.0171 -0.3191  0.0060
26495W        W41342  11.134   0.105   4.117 -0.1325  0.3426 -0.3431
26496W        W41343  13.570   4.432  17.496  0.2913 -0.2181 -0.0986
26497W        W41344   1.407   1.047  15.172 -0.2918  0.0654  0.0806
26498W        W41345  13.341   6.272   0.634  0.1218 -0.1232 -0.3264
26499W        W41346   2.947   9.193   2.992 -0.1203 -0.1944 -0.0768
26500W        W41347  15.659   5.095   1.799 -0.3620  0.0033  0.2564
26501W        W41348   5.916  13.807   5.173  0.2228 -0.1999 -0.0953
26502W        W41349  17.542   2.402  13.047  0.0639 -0.0554  0.0668
26503W        W41350  11.170   9.727  13.888 -0.2715  0.1543 -0.1351
26504W        W41351  16.234  11.582  12.500 -0.0939  0.0255 -0.0198
26505W        W41352   3.906  11.113  16.603 -0.1435 -0.0964 -0.1355
26506W        W41353  12.432  17.640  12.588 -0.1882 -0.1113  0.4825
26507W        W41354  11.757   2.581   5.483  0.1258  0.3630  0.4736
26508W        W41355   0.780   4.073  12.140  0.0905 -0.1590  0.0155
26509W        W41356  11.803  10.744  16.897  0.0601 -0.1098  0.4562
26510W        W41357   1.426   1.730  16.064 -0.4139 -0.1995  0.2977
26511W        W41358   4.166  10.681   0.388  0.0258  0.0983 -0.0266
26512W        W41359   5.080  17.053  14.524 -0.1164 -0.0415  0.1172
26513W        W41360  14.067   4.564  15.761 -0.5018  0.0687  0.1347
26514W        W41361  15.907   8.333   0.072  0.3210 -0.2125  0.0308
26515W        W41362  15.231  13.973   0.871  0.1240 -0.0161  0.0097
26516W        W41363  14.579  13.740   1.776  0.2273  0.0112 -0.3786
26517W        W41364  10.875   2.391   1.088 -0.3683 -0.0239  0.0145
26518W        W41365   5.474   3.982   4.648  0.3657 -0.0286  0.1413
26519W        W41366  10.332  13.473   5.917  0.0549 -0.0056  0.3631
26520W        W41367   6.559   4.575  16.385 -0.2940  0.0902  0.1299
26521W        W41368   8.212   5.582   4.874  0.1579 -0.1092 -0.0444
26522W        W41369   9.558   1.899  12.974  0.0177  0.0801 -0.0968
26523W        W41370  14.005  12.683  17.359  0.1455  0.0736  0.1904
26524W        W41371  16.727  14.966   0.265 -0.3432  0.0621  0.3778
26525W        W41372  12.599   6.012   2.180 -0.0810  0.1628  0.0442
26526W        W41373  16.986  16.448   0.197  0.1154  0.0090 -0.1237
26527W        W41374  13.610   1.067   6.315 -0.4842 -0.0963 -0.2839
26528W        W41375  15.419   5.274  14.025  0.2987 -0.2590 -0.0826
26529W        W41376  13.666   2.802  16.616  0.1944  0.2452  0.1470
26530W        W41377   3.725  11.238   4.960 -0.1476 -0.1608  0.4279
26531W        W41378  15.924   1.238   4.033  0.0245  0.1457 -0.1429
26532W        W41379   3.052   4.085   4.249 -0.0574 -0.0892  0.1095
26533W        W41380  17.005   4.174   6.646  0.1750 -0.1565 -0.0263
26534W        W41381   2.650   1.296  14.007  0.1296  0.0072  0.0301
26535W        W41382   4.781  10.874  13.817  0.0807  0.0451 -0.0308
26536W        W41383   8.370  15.926  14.706  0.1185 -0.0461 -0.0826
26537W        W41384   4.421   1.729   0.648 -0.1059 -0.2370 -0.1708
26538W        W41385  15.322  14.147  15.492 -0.0601 -0.0853 -0.1213
26539W        W41386   9.025  12.618  17.518  0.0480 -0.1020 -0.1042
26540W        W41387  13.735   9.198   3.107  0.2275  0.2319  0.3268
26541W        W41388   7.352  14.734  16.303 -0.3046 -0.0637 -0.0116
26542W        W41389  11.349  16.961   0.641 -0.3336  0.0710  0.2400
26543W        W41390  13.949  10.977   0.359 -0.0235  0.3848  0.1862
26544W        W41391  13.360  16.785   1.507  0.0232  0.0565 -0.2575
26545W        W41392   9.231   5.261   4.845  0.0309  0.3015  0.0805
26546W        W41393   2.731   2.431   4.885  0.2741 -0.0524  0.1252
26547W        W41394   1.491   8.589  14.360  0.2150  0.1996  0.1391
26548W        W41395  16.639   5.806  13.495  0.0049  0.0299 -0.0830
26549W        W41396  11.877   8.438   1.552  0.1427  0.2529  0.0543
26550W        W41397   9.629  11.094   3.480 -0.1463  0.0739  0.4341
26551W        W41398   1.481  15.037   3.999 -0.3129  0.3651  0.0857
26552W        W41399   9.440   4.078   5.101 -0.1785  0.2195 -0.4527
26553W        W41400   4.981  17.496   4.717 -0.1160  0.2033 -0.1507
26554W        W41401   8.421  16.140  16.249  0.0387 -0.1030  0.1132
26555W        W41402   8.428  13.327  15.223 -0.0576  0.3276 -0.0859
26556W        W41403  10.325   8.866  15.422 -0.0936 -0.3258 -0.1481
26557W        W41404   8.529   8.596  15.889 -0.0826  0.1028 -0.0954
26558W        W41405  15.155   5.330   0.323  0.1193  0.0372 -0.0081
26559W        W41406   8.709   7.445   0.312 -0.1001  0.2494  0.2699
26560W        W41407  15.638  15.144   0.631 -0.0741  0.1594 -0.0227
26561W        W41408   7.933   7.765  16.835  0.2225  0.4352  0.0115
26562W        W41409   6.946   5.373   1.235  0.0302 -0.2442  0.0014
26563W        W41410  16.301   2.819  17.680  0.0411 -0.0301  0.1270
26564W        W41411   2.443   2.483  13.828 -0.1586 -0.1109 -0.0622
26565W        W41412  10.294   3.092   4.030 -0.2730 -0.1145  0.2028
26566W        W41413   3.518   4.371  12.850 -0.1482 -0.1405 -0.0001
26567W        W41414   8.021   4.635   1.676  0.2144 -0.0703  0.2129
26568W        W41415  15.830   4.498  14.656  0.1918 -0.2436 -0.2327
26569W        W41416   4.786   9.285  16.823  0.0239 -0.1001  0.3406
26570W        W41417   4.738   8.322  14.249 -0.0817 -0.1656 -0.2022
26571W        W41418  11.662   1.820   5.995  0.0629 -0.3819  0.0707
26572W        W41419  15.993   3.064  10.869 -0.0103 -0.1315 -0.0436
26573W        W41420   2.747   4.834   0.857 -0.1173 -0.0998  0.1583
26574W        W41421   7.484  13.404  14.179 -0.0446  0.1218  0.0491
26575W        W41422   3.519  15.982   6.130 -0.1535 -0.2424 -0.1271
26576W        W41423   1.908  13.522   0.719 -0.1253 -0.4068  0.0025
26577W        W41424  16.624   5.411  14.350  0.1668  0.0102  0.1952
26578W        W41425   7.465  17.256  16.365 -0.2438 -0.2743 -0.0096
26579W        W41426   9.245  11.980  16.550 -0.0686  0.1281  0.2166
26580W        W41427   8.114   0.376   4.176  0.0779  0.0843  0.1810
26581W        W41428  13.199  10.726  14.222 -0.1001  0.2691 -0.3457
26582W        W41429  11.383   8.938   5.246  0.1789  0.0220  0.0155
26583W        W41430  10.769   8.768   1.781 -0.0008 -0.6215  0.1943
26584W        W41431   3.415   8.720  17.396 -0.0753  0.0840  0.1848
26585W        W41432   2.596   7.961   1.140 -0.2143 -0.0227 -0.1797
26586W        W41433  14.461  14.399  14.376 -0.1136  0.1021 -0.0796
26587W        W41434  13.922   4.390  13.475  0.0300  0.0854 -0.0021
26588W        W41435   9.680   4.661   1.930  0.2755 -0.1919  0.1278
26589W        W41436   2.459   4.853   2.514  0.0107  0.0086  0.3344
26590W        W41437   1.710   6.053  14.566  0.0736 -0.0754 -0.0820
26591W        W41438   4.891  11.446   2.412  0.1648 -0.4189  0.1176
26592W        W41439   5.441  17.327  13.019  0.0238  0.2774 -0.0157
26593W        W41440  12.778   5.844  16.818 -0.2730 -0.0075  0.1418
26594W        W41441   6.527   1.272  15.982  0.0804 -0.1091  0.1687
26595W        W41442  14.200   5.298  12.136  0.2210  0.0209 -0.0282
26596W        W41443  17.564   1.620   0.492  0.0063  0.2670 -0.2247
26597W        W41444   0.009   8.930  15.167  0.3584 -0.1093  0.3355
26598W        W41445   0.687  17.176  15.608 -0.0136 -0.1116  0.1556
26599W        W41446  15.436   9.106  13.729 -0.0026 -0.1904 -0.2409
26600W        W41447  14.434  15.768   6.583 -0.1271 -0.2104  0.1641
26601W        W41448  14.782   7.716   6.527 -0.2579  0.2085 -0.0731
26602W        W41449   3.796  16.613   0.860  0.0828  0.0302  0.1634
26603W        W41450   2.288   6.297  13.047  0.3100 -0.1390  0.3805
26604W        W41451   7.327  14.498  16.777  0.1215  0.0466 -0.4869
26605W        W41452   5.515   0.053   4.070  0.1548  0.1698  0.1279
26606W        W41453  14.301  13.283   4.865 -0.2474 -0.1948  0.0699
26607W        W41454  14.605  10.209  17.114 -0.0495 -0.0165 -0.0262
26608W        W41455  14.220   4.232  16.238  0.2209  0.1216  0.1994
26609W        W41456  12.461  11.624  13.540  0.2806  0.0079 -0.0543
26610W        W41457   3.924   3.103  17.251  0.2966  0.0406 -0.0232
26611W        W41458  15.758  16.720   4.892 -0.1169  0.0586 -0.3743
26612W        W41459  14.749  15.063  12.836  0.2423 -0.1206  0.0252
26613W        W41460   0.457   0.022   6.688  0.2296 -0.1696  0.2315
26614W        W41461   4.974   2.901   4.509  0.0260  0.1786  0.3154
26615W        W41462   0.314  16.917  14.619 -0.1473  0.2264 -0.0513
26616W        W41463  16.605  16.434   1.545 -0.2477  0.0000  0.1919
26617W        W41464   5.423  13.896  11.679  0.0591 -0.0407  0.0011
26618W        W41465   1.089  14.788  13.464 -0.3147 -0.0244 -0.2150
26619W        W41466  10.264   6.390  16.892 -0.0113 -0.1641 -0.2084
26620W        W41467   4.280  15.054   5.356  0.0989 -0.2606  0.2216
26621W        W41468   0.687  15.234  12.843  0.0077  0.3472 -0.3666
26622W        W41469   4.500   2.394  17.601 -0.0993 -0.1376  0.2466
26623W        W41470   6.691   9.077  13.398 -0.4425  0.4235  0.2725
26624W        W41471   7.498  11.932   4.843  0.0235 -0.2094  0.0243
26625W        W41472   9.197   0.856  15.069  0.1874 -0.2843 -0.0445
26626W        W41473  17.285   9.326  12.805  0.1078 -0.0453 -0.0107
26627W        W41474  15.356   9.845   1.972 -0.2058 -0.0025 -0.1553
26628W        W41475   4.201   4.429  16.618  0.2996 -0.0716  0.1330
26629W        W41476   0.145   0.595  15.414  0.0713 -0.0696 -0.2513
26630W        W41477  13.597  16.990  16.390  0.0153 -0.2426  0.1184
26631W        W41478   6.833   6.446  15.203 -0.0515 -0.0826 -0.1842
26632W        W41479  12.864  17.249  15.446 -0.3278 -0.0963  0.1893
26633W        W41480   5.674   2.090   4.430 -0.2350 -0.2728 -0.0957
26634W        W41481   4.082   5.317  16.555 -0.2079  0.3237 -0.1031
26635W        W41482  17.461   5.331  15.263  0.0182  0.1250 -0.2363
26636W        W41483  16.673   5.568   3.574  0.3097 -0.0241 -0.0932
26637W        W41484   9.847   8.520  14.067  0.1090  0.1428 -0.0028
26638W        W41485   5.136  14.416   5.254 -0.0889  0.2639 -0.0611
26639W        W41486   0.575  15.602   0.017  0.1903  0.1676  0.0654
26640W        W41487   5.242  14.279  13.207  0.0073 -0.0522 -0.3435
26641W        W41488   9.156   8.529  17.173  0.1094  0.2119  0.0263
26642W        W41489  10.409  12.873   2.698 -0.0663 -0.0723  0.3077
26643W        W41490  11.217   2.308  14.252 -0.2183 -0.2444 -0.0711
26644W        W41491  15.093  16.893   6.342  0.0219 -0.1366 -0.0996
26645W        W41492   6.788   4.465  12.150 -0.0552 -0.0522 -0.0046
26646W        W41493  13.832   1.791  16.995  0.0724 -0.0997  0.1204
26647W        W41494  16.877   7.119  11.148 -0.1043 -0.0554 -0.2084
26648W        W41495   9.695   5.779  16.868 -0.1922 -0.0689  0.2123
26649W        W41496   2.867  16.008   5.559 -0.0704  0.0123 -0.0038
26650W        W41497   4.635  12.200   0.282  0.0683 -0.1770 -0.4265
26651W        W41498   2.862  16.675  14.206 -0.0813  0.1867  0.1809
26652W        W41499  12.496   8.494   0.193  0.0625 -0.0167  0.0546
26653W        W41500   2.882   6.257   0.855 -0.1284 -0.4458  0.0716
26654W        W41501  14.399   9.965   1.870 -0.0755 -0.0757  0.0280
26655W        W41502   9.455  14.280   6.679 -0.0723  0.0234  0.2726
26656W        W41503   7.208  17.470  13.577 -0.0611  0.1279  0.2404
26657W        W41504  11.967  13.709  13.326  0.2524  0.3737 -0.2295
26658W        W41505   3.391   1.889   0.449  0.4167  0.2517  0.0241
26659W        W41506   0.614  14.971   2.755 -0.1652  0.2625 -0.2754
26660W        W41507  10.291   3.257   0.706  0.0004 -0.1262  0.0725
26661W        W41508  13.208  17.596  13.491  0.0605  0.0475 -0.2300
26662W        W41509   1.263   9.340  15.146 -0.1984 -0.2164  0.2358
26663W        W41510  12.694  11.195  13.287  0.1895  0.1503 -0.1880
26664W        W41511  13.478   6.064  12.752  0.0604 -0.0793 -0.0043
26665W        W41512   2.715   8.077   3.739 -0.2670 -0.0080 -0.1684
26666W        W41513  10.748   5.437  11.885  0.2170 -0.1759 -0.2310
26667W        W41514   5.659  16.339   0.492 -0.0543  0.0419 -0.1729
26668W        W41515   2.470  14.481  17.688 -0.0982 -0.3444  0.1745
26669W        W41516  14.851  16.547   2.967 -0.1681  0.0238  0.0041
26670W        W41517  10.337  14.486   6.262  0.0996 -0.3699  0.2093
26671W        W41518   2.650   8.137   2.731 -0.0974  0.0486 -0.2078
26672W        W41519   5.606  14.011   0.005  0.1532  0.1167  0.1457
26673W        W41520  16.963  16.758   3.567  0.3242  0.0474 -0.1016
26674W        W41521  11.298  16.149  14.770 -0.0485 -0.0736  0.0746
26675W        W41522  15.880  12.297  16.994 -0.3313  0.0083 -0.0444
26676W        W41523  14.133   7.350   0.570  0.0214  0.1812 -0.4181
26677W        W41524  14.333   1.087   1.223  0.2316 -0.0506  0.1060
26678W        W41525  16.655   2.503  14.896 -0.1774 -0.0307  0.1570
26679W        W41526  14.373   6.072   0.218 -0.1918  0.3288  0.3432
26680W        W41527   5.885   8.277   2.720  0.4514 -0.0496 -0.0676
26681W        W41528  16.531  16.278  15.694  0.1318  0.2199 -0.1815
26682W        W41529   8.983   9.545  12.172 -0.5363  0.0406  0.1279
26683W        W41530  15.395   7.305  16.171 -0.0153 -0.0420  0.1244
26684W        W41531  13.557   1.898  13.227  0.3339  0.1904 -0.0170
26685W        W41532   5.133   1.747  13.201 -0.1647 -0.0891 -0.0248
26686W        W41533  15.636  14.941   3.288 -0.0046 -0.2969 -0.0309
26687W        W41534  11.125  12.156  16.706 -0.2061 -0.2615 -0.1479
26688W        W41535  15.564  16.297  14.865 -0.0448 -0.2141  0.0468
26689W        W41536  13.486   9.767   1.793  0.0893  0.3432  0.0580
26690W        W41537   6.638   8.701  15.648 -0.0093  0.2236  0.2983
26691W        W41538   2.453  13.143  15.881  0.1047  0.2226  0.2290
26692W        W41539   6.035  14.993  16.103 -0.3808 -0.0180  0.1008
26693W        W41540  17.146  11.470   2.279  0.0191  0.3768 -0.2103
26694W        W41541  17.551  14.608   6.019  0.0216  0.0214 -0.2876
26695W        W41542   9.891  10.803   3.110 -0.0235 -0.1708  0.2002
26696W        W41543  14.046   3.117   6.012  0.0996  0.1478 -0.0633
26697W        W41544   7.807  15.823  14.717  0.1642 -0.0217 -0.0401
26698W        W41545  15.901   2.823  14.597  0.1863 -0.0274 -0.0558
26699W        W41546   9.866  10.264  12.753  0.2635 -0.1227  0.0543
26700W        W41547  13.653  17.576  13.366 -0.3115 -0.1108 -0.1056
26701W        W41548  11.458  17.505  14.860 -0.0213  0.2073 -0.0195
26702W        W41549   3.173   9.097   0.137  0.0352  0.0790 -0.0171
26703W        W41550  10.030   2.951   6.084 -0.0771  0.0691  0.0344
26704W        W41551  13.324  13.609   4.051  0.1308 -0.1331 -0.1399
26705W        W41552  12.671  14.325   5.461 -0.1994  0.0815 -0.0276
26706W        W41553  11.101  11.931  15.075 -0.0052 -0.0234 -0.1585
26707W        W41554   3.039   1.503   3.097 -0.0249 -0.2585  0.1940
26708W        W41555   0.387  15.200  16.870  0.2410  0.0223 -0.0548
26709W        W41556   6.216  12.704  13.922 -0.2109  0.4669 -0.0365
26710W        W41557   4.830   3.976   3.506  0.0890 -0.3557  0.2918
26711W        W41558  14.488   0.506   1.343  0.0722  0.0573  0.0277
26712W        W41559   0.544   2.012  16.435  0.0075  0.0645 -0.2372
26713W        W41560  12.276   7.153   4.989  0.0577  0.1815 -0.2505
26714W        W41561   4.839   7.828  13.739  0.0991 -0.0536 -0.0111
26715W        W41562  10.770   5.384  13.921  0.2800 -0.3799 -0.1232
26716W        W41563  11.420  16.264   1.723  0.0133 -0.0322  0.1557
26717W        W41564  10.338  11.475  15.019  0.0862 -0.1706 -0.0751
26718W        W41565  12.508   3.576   5.440 -0.3314  0.2274 -0.0515
26719W        W41566  15.523   7.987   4.786  0.0555 -0.2317  0.0459
26720W        W41567   6.671   7.830  17.356 -0.1041 -0.1390 -0.2455
26721W        W41568  15.745   7.220   1.473  0.3521 -0.1706  0.3360
26722W        W41569   1.291   5.745  13.920  0.1857  0.2295 -0.0441
26723W        W41570  10.729  10.410  14.286 -0.1360  0.0720 -0.2484
26724W        W41571   9.830   8.193   1.842 -0.1844  0.0687 -0.1749
26725W        W41572  14.786  12.497   2.241 -0.3269 -0.1248 -0.1720
26726W        W41573  14.869   4.953   0.517  0.4365 -0.0126  0.0521
26727W        W41574  15.649  16.295   4.645  0.2312 -0.3754 -0.2357
26728W        W41575   5.065   9.154   3.517 -0.1272  0.1239 -0.2706
26729W        W41576  13.351  14.165  15.727  0.1274  0.1048  0.0903
26730W        W41577  10.267   2.677  17.425 -0.3790 -0.1898  0.0616
26731W        W41578  12.563   1.436  13.526 -0.1526  0.1378 -0.0412
26732W        W41579  15.017   2.276   5.867 -0.1718 -0.1093  0.0310
26733W        W41580  14.008  14.771   4.554  0.0808 -0.1993 -0.2624
26734W        W41581   6.142  15.735  17.020 -0.1504 -0.0111 -0.0815
26735W        W41582   5.421   6.556   2.558 -0.1210  0.0491 -0.1715
26736W        W41583   7.873   1.182  12.624  0.3102  0.2187  0.1074
26737W        W41584  17.662  10.291  14.568  0.4919  0.0301 -0.0303
26738W        W41585  13.890   9.454  13.000 -0.1989  0.2833 -0.1789
26739W        W41586   8.643  10.626  15.161  0.1868  0.0360  0.1642
26740W        W41587  14.288   7.581   4.602  0.1122  0.0100 -0.1910
26741W        W41588   1.977   2.878   1.289  0.0790  0.0613 -0.1191
26742W        W41589   8.712   6.330   5.136  0.0965  0.0803  0.3773
26743W        W41590   2.266  17.224  14.626  0.0932 -0.1811  0.1179
26744W        W41591   8.029   1.955   3.143  0.2318  0.0035 -0.2049
26745W        W41592   6.836   1.394   4.333  0.0986 -0.1158  0.1467
26746W        W41593   5.894   7.282  15.172  0.0423 -0.0059 -0.0088
26747W        W41594   3.088   2.902   5.147 -0.0752  0.1050  0.0836
26748W        W41595  16.273  12.590   1.094 -0.2633  0.3252 -0.6616
26749W        W41596   7.175   2.254  12.454  0.1413 -0.2328 -0.0117
26750W        W41597   4.459  15.897   4.553  0.0029 -0.1125  0.2148
26751W        W41598   2.792  12.062   6.101  0.3849  0.2847  0.1748
26752W        W41599   0.813   1.763   3.577 -0.0023  0.0582 -0.0303
26753W        W41600   8.694  15.743   3.695 -0.0471 -0.2135  0.1421
26754W        W41601  10.566  15.974   3.763  0.0682  0.0671 -0.2809
26755W        W41602   4.917   4.064  12.432  0.0702  0.3236  0.1150
26756W        W41603   5.929   1.477  16.373  0.0350 -0.1317  0.0249
26757W        W41604   6.348   9.573   0.609 -0.0175 -0.1641  0.0492
26758W        W41605  11.856   4.123  14.243 -0.1224  0.0481  0.0973
26759W        W41606   3.655   9.560   1.351  0.2148  0.1143  0.4615
26760W        W41607  14.624   3.283   4.522  0.0063 -0.0553 -0.1044
26761W        W41608   6.743   7.543   4.486 -0.1571 -0.1967  0.0942
26762W        W41609   4.323  13.219   4.825 -0.2012 -0.1310 -0.1657
26763W        W41610   5.187   8.165  17.168  0.1350 -0.1354  0.5085
26764W        W41611  15.117  15.755   4.164  0.0981 -0.0251 -0.0400
26765W        W41612   3.762   8.401   3.867  0.1418 -0.0990  0.0363
26766W        W41613  13.363   4.585   1.005 -0.3900 -0.0797 -0.0255
26767W        W41614   7.682   8.481   2.400  0.0770  0.3165 -0.1034
26768W        W41615   7.406   1.120  16.293 -0.2100 -0.3250  0.0465
26769W        W41616  12.028   2.815  16.034  0.1929 -0.0785  0.0982
26770W        W41617   0.457   5.001  17.345  0.0906 -0.0732 -0.0040
26771W        W41618  16.213  11.047   3.270  0.1851 -0.0539  0.0020
26772W        W41619  13.350  16.030  17.442 -0.1359  0.1497 -0.0052
26773W        W41620   9.356   1.141  15.866  0.1204 -0.0926 -0.0003
26774W        W41621  16.253  17.609   4.742 -0.2220  0.0875 -0.1118
26775W        W41622   5.810  16.874  14.659  0.0765  0.1042  0.1479
26776W        W41623   5.445  11.802  14.899 -0.1508 -0.1487 -0.1228
26777W        W41624   4.640   9.696  12.373  0.0864 -0.1913  0.2002
26778W        W41625  12.878  16.262  12.970 -0.0121 -0.0846 -0.1194
26779W        W41626   6.693  17.321   1.940 -0.0804  0.0749 -0.1685
26780W        W41627   9.389   9.610   3.917 -0.0761 -0.2815  0.0472
26781W        W41628  10.445  14.913  16.456 -0.2772  0.0337 -0.0797
26782W        W41629   6.444  16.380  12.416 -0.1144 -0.2911 -0.1861
26783W        W41630  15.228   8.551   2.120  0.2544  0.1350  0.3054
26784W        W41631  13.908  12.661   0.227  0.1540  0.1068 -0.0664
26785W        W41632  14.668   2.621   0.196 -0.0781 -0.1819  0.0943
26786W        W41633   3.664   9.393   3.580 -0.2328  0.0081 -0.0997
26787W        W41634   1.877   0.172   2.556  0.0593  0.0015  0.1607
26788W        W41635  16.698   3.933  16.971  0.0541 -0.0781  0.0576
26789W        W41636  15.191  15.639  13.551  0.0551  0.0041 -0.4380
26790W        W41637   6.097  12.851   3.145  0.1400  0.1413  0.2333
26791W        W41638   8.889   4.445   2.222 -0.5196  0.2147 -0.1005
26792W        W41639  16.985  15.038  15.150  0.0774  0.1461  0.3195
26793W        W41640  13.798   3.518  12.089 -0.0705  0.0001 -0.2146
26794W        W41641  12.561  15.915   1.475  0.0437 -0.1086  0.3232
26795W        W41642   9.345  16.210  14.257  0.1793  0.0266  0.1243
26796W        W41643  12.265   9.442  15.148 -0.1824  0.3481  0.2150
26797W        W41644   5.433  16.244   5.564  0.0314 -0.0911  0.0696
26798W        W41645   5.083   3.003  11.718  0.0338  0.0319  0.4614
26799W        W41646   1.452  10.741  13.294 -0.1939  0.2450  0.0958
26800W        W41647   9.347   1.431   2.590 -0.2386 -0.1496  0.0677
26801W        W41648  14.495  11.783   6.019  0.0483 -0.1162  0.2074
26802W        W41649   6.179  16.942  16.512 -0.3422 -0.0103 -0.2547
26803W        W41650   6.760   4.327   3.079 -0.4124 -0.4795  0.1651
26804W        W41651   2.655  11.722   1.429 -0.2872  0.1382 -0.2451
26805W        W41652   3.797  12.605  16.241  0.3098  0.0009 -0.1799
26806W        W41653   8.405   4.889  13.325 -0.3749 -0.0889  0.0660
26807W        W41654  12.413   2.159   1.929  0.0150  0.2184  0.0583
26808W        W41655   5.941  15.426   1.359 -0.3604  0.1753 -0.0300
26809W        W41656  13.743   8.501   4.903 -0.0712  0.0368  0.2875
26810W        W41657   0.774  17.569  11.863  0.1641  0.0360 -0.1316
26811W        W41658   8.490  13.107   7.005  0.1136 -0.0425  0.2223
26812W        W41659  12.392   8.562  12.757 -0.0700 -0.0127 -0.1386
26813W        W41660  11.521  12.929   0.070 -0.2293  0.1405  0.2249
26814W        W41661  13.685  14.535   4.963  0.1380  0.3233 -0.1623
26815W        W41662   2.141  15.519   3.919  0.1131 -0.0029  0.0975
26816W        W41663   9.221   5.465  12.985 -0.3249  0.0698 -0.0325
26817W        W41664   5.811   0.995  16.481  0.2910  0.0657 -0.0095
26818W        W41665   1.923   5.449   4.720  0.0145  0.1268 -0.1153
26819W        W41666   3.541  10.717  14.663 -0.0069 -0.0973 -0.0659
26820W        W41667   9.583   6.213  16.468  0.0391 -0.0334  0.0221
26821W        W41668  10.362   4.544  13.410 -0.0405  0.0532 -0.0667
26822W        W41669   4.940   9.315   1.358  0.2676 -0.1269  0.0730
26823W        W41670   9.134  16.343  14.978 -0.2201 -0.1846  0.3784
26824W        W41671  16.779   2.049   5.617  0.2558 -0.0575  0.1088
26825W        W41672  14.921  13.101   5.923 -0.0897 -0.3025  0.2255
26826W        W41673   6.884  14.483   3.497 -0.0011  0.0423  0.0447
26827W        W41674  10.910  14.530   5.798  0.0621 -0.2201  0.0583
26828W        W41675  11.383  10.998   4.929 -0.0776 -0.5370  0.2263
26829W        W41676   9.016  17.564   0.685  0.1047  0.2887 -0.0451
26830W        W41677  11.494  12.037   0.526 -0.1269  0.1026 -0.5251
26831W        W41678  14.589  15.872  15.914  0.0829 -0.4144 -0.1546
26832W        W41679  10.715  16.880  11.949 -0.2790 -0.1805 -0.2351
26833W        W41680  15.027  15.286   2.861 -0.0170  0.0342  0.1578
26834W        W41681  13.167  12.118  13.587 -0.0404  0.2909 -0.2964
26835W        W41682  13.701  15.025   6.239 -0.1621  0.1824 -0.1311
26836W        W41683  16.576   1.359  12.601  0.3435 -0.0101  0.0890
26837W        W41684  14.960   9.520  12.499 -0.2067 -0.2900 -0.0394
26838W        W41685  15.641  16.709  16.578 -0.5322  0.0531 -0.0937
26839W        W41686   5.273  12.737  13.704  0.0800 -0.3358  0.0842
26840W        W41687   4.935  16.793  15.902  0.0046  0.3490 -0.1764
26841W        W41688   8.497   7.644   5.904 -0.1191  0.0936 -0.1302
26842W        W41689   9.935   1.539  12.870  0.0492 -0.1761 -0.1690
26843W        W41690  16.156  10.506  15.379  0.0439  0.3230  0.3460
26844W        W41691  15.274  14.525  14.501 -0.0602  0.2100  0.1806
26845W        W41692   9.355   4.563  13.493 -0.2306  0.0440 -0.2259
26846W        W41693  11.473   6.674   0.144  0.1018  0.0909 -0.0121
26847W        W41694  15.528   2.878   1.924 -0.2156 -0.1094  0.0304
26848W        W41695   4.337  13.168   1.807 -0.1505 -0.0583  0.0635
26849W        W41696   9.164  11.764  15.857  0.1725  0.0676  0.1414
26850W        W41697  14.571  10.267   0.499  0.1695  0.2668  0.0793
26851W        W41698  12.033   6.574  13.934 -0.3531 -0.1395 -0.1562
26852W        W41699  13.749  15.662   6.092  0.0417  0.2215 -0.1012
26853W        W41700   0.555  13.395   0.653 -0.0703  0.0876 -0.1196
26854W        W41701   5.323   0.598   2.620 -0.2609 -0.1331 -0.1077
26855W        W41702   4.500  14.428   3.015 -0.0242  0.1936  0.0407
26856W        W41703   7.749   8.339  12.902 -0.1759  0.1376  0.0150
26857W        W41704   0.315   5.528   1.720  0.1208  0.1776 -0.0758
26858W        W41705   9.515   1.750  13.652  0.1498 -0.0247 -0.1968
26859W        W41706  16.102   5.785   1.495 -0.2984 -0.2283  0.0469
26860W        W41707   3.551   2.813   4.536  0.1132  0.0922  0.1793
26861W        W41708   5.182   6.096   6.174  0.1461 -0.3437 -0.1934
26862W        W41709  16.422  10.196   2.177 -0.2465 -0.1094 -0.2269
26863W        W41710   5.550  11.149   3.072 -0.0108  0.2695  0.0839
26864W        W41711  10.019  15.476  15.885 -0.1362  0.0354  0.0391
26865W        W41712  16.890   2.510   6.384 -0.0235  0.4429  0.2137
26866W        W41713  12.967   0.143  17.045 -0.3566  0.2315 -0.1074
26867W        W41714   0.804   6.935   6.111  0.3194  0.0367 -0.3221
26868W        W41715  11.474  12.208   2.667  0.1456 -0.0690  0.1876
26869W        W41716   7.608  11.798  12.793  0.0655  0.3915  0.1248
26870W        W41717   0.196   8.677  13.760  0.2321  0.1818 -0.1708
26871W        W41718   3.394  12.037  12.587  0.0261 -0.2126  0.3014
26872W        W41719  13.596  17.640   5.287  0.0053 -0.1776 -0.0381
26873W        W41720   8.919   4.471  15.809  0.2680  0.1196 -0.2805
26874W        W41721  12.922   5.441   2.189  0.0683 -0.1207 -0.1392
26875W        W41722   9.842   3.912   0.861  0.0526  0.0971  0.1681
26876W        W41723  13.992  14.975   5.016  0.0562  0.1265 -0.2587
26877W        W41724  11.805  12.742   5.284  0.2441  0.0802 -0.0608
26878W        W41725  13.940   2.082   4.440  0.0878  0.3627  0.1488
26879W        W41726  15.242   9.429   2.380  0.0280 -0.1478 -0.2321
26880W        W41727   9.000  14.796   0.187 -0.1407  0.1254 -0.0605
26881W        W41728   9.911   2.156   5.260 -0.3401  0.1625  0.0435
26882W        W41729  12.712   9.865   2.270  0.1635  0.1548  0.0150
26883W        W41730   7.435   8.441   6.127 -0.1628 -0.0234  0.1204
26884W        W41731   5.898   5.956   3.204 -0.1163 -0.1998  0.0348
26885W        W41732   0.561   8.460  16.331 -0.1354  0.1241  0.2185
26886W        W41733  10.549   3.721  16.120 -0.3182  0.0251  0.2085
26887W        W41734  16.869   1.214   0.748 -0.0474  0.0693  0.0938
26888W        W41735   3.521   5.998  13.548 -0.0740  0.0315  0.3314
26889W        W41736  17.164  15.721  14.058  0.1162  0.1388 -0.1665
26890W        W41737   9.611   9.702  16.598  0.0288  0.0563  0.2535
26891W        W41738   4.789   5.033  14.031 -0.0496 -0.2490 -0.1425
26892W        W41739   0.477  13.409   6.713  0.1830  0.1938 -0.0591
26893W        W41740   3.088   1.327   0.614  0.0521 -0.0857 -0.1056
26894W        W41741  12.312   8.871  14.530 -0.2041  0.0786  0.1063
26895W        W41742   8.299   1.770  14.814  0.2922 -0.0807 -0.1444
26896W        W41743   4.695   5.265  11.974  0.5136  0.2553 -0.0206
26897W        W41744   6.757  11.153   2.825 -0.0389 -0.2097 -0.0582
26898W        W41745   3.075   9.988   2.729  0.0289 -0.0208  0.0893
26899W        W41746   3.927   8.504   5.133  0.1822 -0.1831 -0.0725
26900W        W41747  13.937   0.949  16.557  0.0094  0.0473  0.3318
26901W        W41748  14.007   5.336  13.016 -0.2884  0.1262 -0.1579
26902W        W41749   5.040   4.619  11.310  0.3346 -0.2210  0.1954
26903W        W41750   1.876   0.285  15.690 -0.1207  0.0135  0.3048
26904W        W41751   6.827   7.311  16.767 -0.1663  0.1691 -0.1733
26905W        W41752   3.051  11.531   0.304  0.1882 -0.1920  0.1927
26906W        W41753  16.630  17.270  13.746 -0.0193 -0.0139 -0.0486
26907W        W41754   6.037  15.386   1.826  0.2892 -0.0219 -0.1583
26908W        W41755   2.975   8.155  15.768 -0.0967  0.0106  0.2191
26909W        W41756   9.679   1.831   0.586  0.0279  0.0649 -0.0668
26910W        W41757  17.238  10.640  12.644  0.1934 -0.0558 -0.0814
26911W        W41758   5.777   5.750  15.529 -0.1105  0.0399 -0.0939
26912W        W41759  15.217  14.991  13.991 -0.0369  0.0826  0.0548
26913W        W41760   1.933   9.101   0.974 -0.0303  0.1283 -0.2075
26914W        W41761   3.050   1.050  17.438  0.3239  0.1013 -0.0112
26915W        W41762  14.102   7.000   6.712 -0.0642 -0.2545 -0.0494
26916W        W41763   1.514  15.804  12.907 -0.0504  0.0486 -0.2472
26917W        W41764   5.239   8.459  16.701 -0.1238 -0.0778 -0.0647
26918W        W41765   3.453  11.561  17.673  0.1097 -0.0818 -0.2139
26919W        W41766  11.739   4.139   1.178  0.0082 -0.1033 -0.1648
26920W        W41767  10.147   6.331   3.886  0.0139 -0.2095  0.2637
26921W        W41768   0.688   1.218  17.684  0.1650 -0.1210  0.2654
26922W        W41769  14.125  10.242   2.237 -0.0186 -0.0930 -0.0671
26923W        W41770  17.219  11.118  17.155  0.0861  0.2074  0.1267
26924W        W41771  15.070   4.019  12.710  0.2543 -0.0041  0.0943
26925W        W41772   5.476   9.339  16.448 -0.1717  0.0683 -0.1409
26926W        W41773  14.862   9.762  14.813 -0.2518 -0.1926  0.1801
26927W        W41774  13.115   0.903   5.310  0.1033  0.0499 -0.2383
26928W        W41775   9.998   4.122  17.099 -0.1622 -0.4795 -0.1249
26929W        W41776  16.030  10.844  13.918  0.0989  0.0122 -0.2282
26930W        W41777   5.519   7.420   3.575 -0.3241 -0.1829 -0.0514
26931W        W41778   4.195  12.233   0.567 -0.1339 -0.2929 -0.0056
26932W        W41779  13.525   8.732   3.466 -0.0071 -0.0490  0.3300
26933W        W41780   4.002   8.020  13.050 -0.0423  0.0731 -0.0126
26934W        W41781  13.649  10.778  15.993 -0.0841  0.0711  0.0542
26935W        W41782   0.950  13.397  15.390 -0.0980 -0.0344  0.2326
26936W        W41783   4.902  10.275   1.055  0.0770 -0.2122 -0.3605
26937W        W41784   4.683  14.282   0.452  0.1729  0.4460  0.6209
26938W        W41785   7.186  14.278  13.581  0.3428 -0.1968  0.1154
26939W        W41786   2.107   6.084   3.047  0.1490  0.0505 -0.1774
26940W        W41787   4.802  14.614  13.316 -0.0868  0.2751  0.1401
26941W        W41788  15.041   4.280   2.211  0.1776 -0.1182  0.0717
26942W        W41789  16.442  14.426   4.126  0.1226  0.0132  0.0036
26943W        W41790   0.099  12.488   2.566 -0.0101 -0.1067 -0.2927
26944W        W41791   8.643  16.387   4.509  0.0076  0.1223 -0.1714
26945W        W41792  12.994   0.584  14.542 -0.1901  0.1625 -0.2093
26946W        W41793  17.346  10.360   0.960  0.0948  0.1769  0.1655
26947W        W41794  16.079   0.382   4.475 -0.1645  0.0499  0.1037
26948W        W41795  11.333  10.613  16.931 -0.1150  0.0378 -0.0912
26949W        W41796   8.440   1.562   0.939 -0.1656  0.0291  0.2661
26950W        W41797  17.306   3.301   2.152 -0.0968  0.4848 -0.1812
26951W        W41798   6.921  13.739  14.353  0.0475 -0.0440 -0.2273
26952W        W41799  17.473  16.635   4.504 -0.1310 -0.0977  0.0751
26953W        W41800   0.552   9.645   1.076  0.1321 -0.0250  0.2197
26954W        W41801   9.039  16.586  13.421  0.2307 -0.0556  0.2880
26955W        W41802  16.950   5.440   0.133 -0.1774 -0.1166 -0.0414
26956W        W41803  15.588   8.909   3.806  0.0507  0.1247  0.2170
26957W        W41804   8.476   9.441  13.231  0.0277  0.0748 -0.2067
26958W        W41805   6.695  16.506   3.494 -0.2181  0.3247 -0.0843
26959W        W41806   5.629   3.533  12.218 -0.2048  0.0097 -0.0048
26960W        W41807  10.426  13.615  17.560  0.1655  0.0540 -0.1190
26961W        W41808   0.466   5.780  14.415  0.1066 -0.0181  0.0580
26962W        W41809   2.695   2.800   0.897 -0.0453 -0.0900 -0.3275
26963W        W41810  14.885   9.886  13.291  0.0611 -0.0443 -0.0133
26964W        W41811   9.043   2.264  15.282 -0.3177 -0.3146  0.1440
26965W        W41812   1.912  12.661   3.801 -0.1795 -0.0386  0.3789
26966W        W41813   9.230   9.102  13.155  0.2079  0.0833  0.1645
26967W        W41814   5.547   4.571   4.238 -0.0958 -0.0883  0.2041
26968W        W41815  15.453   3.531   4.542 -0.0268  0.0424 -0.0331
26969W        W41816   3.079   3.173   0.613  0.1275  0.1629  0.1617
26970W        W41817  11.520  13.307  15.812 -0.2426  0.0539 -0.0261
26971W        W41818   2.045  15.306  13.423  0.1109 -0.0871  0.0339
26972W        W41819  11.971   7.081  16.475 -0.0203  0.0815 -0.0445
26973W        W41820   8.001   8.239  16.775  0.1225  0.0583 -0.1804
26974W        W41821  14.448   3.246  16.405 -0.0820 -0.0214 -0.0440
26975W        W41822  15.674  17.233  15.321 -0.3276 -0.0729 -0.1948
26976W        W41823  17.484  15.838  17.188  0.1892  0.0859  0.2896
26977W        W41824  12.709   9.994  16.347 -0.1222  0.0696  0.2983
26978W        W41825  14.200  17.520   4.326 -0.1382 -0.1195  0.0637
26979W        W41826   7.959  15.564   2.907  0.1722  0.1702 -0.0145
26980W        W41827   4.641  15.445   2.854 -0.0244 -0.0784 -0.0717
26981W        W41828   2.758   9.115   4.403  0.0275  0.0384  0.1406
26982W        W41829  13.128   6.161   2.289  0.1001 -0.0595  0.0789
26983W        W41830   4.581  13.599   0.991  0.0308  0.0095  0.1636
26984W        W41831  12.773   0.826  15.973 -0.1565 -0.3142  0.1673
26985W        W41832   8.846   3.449   5.840 -0.4173 -0.1986  0.0763
26986W        W41833  14.225  17.054  17.209  0.0552 -0.0083 -0.1828
26987W        W41834  17.485  15.080   1.374 -0.1258  0.0485 -0.0875
26988W        W41835   1.903   2.457   3.155  0.1561 -0.1442 -0.0427
26989W        W41836  14.756   7.869   3.189  0.1776  0.1361 -0.0990
26990W        W41837   3.279  10.430   3.059 -0.2458  0.2764 -0.1768
26991W        W41838   3.152  15.085   2.068 -0.1177 -0.0247 -0.4748
26992W        W41839   3.547   8.736   2.455  0.0357 -0.3369  0.0678
26993W        W41840   4.327  12.018   3.137 -0.5181  0.5437  0.1943
26994W        W41841  13.321  12.881  16.303  0.0801 -0.0685  0.0314
26995W        W41842   4.232   9.848  11.723 -0.1605  0.1177 -0.3260
26996W        W41843   1.813   2.537   6.607  0.3114  0.2592  0.1866
26997W        W41844  15.347   2.108   2.078  0.2476 -0.0074  0.1820
26998W        W41845  13.698   9.461   3.957 -0.2400  0.1365 -0.3519
26999W        W41846   7.998   6.433   4.755  0.1665  0.1630  0.1255
27000W        W41847  10.776   5.722   3.481 -0.3210  0.0881 -0.3005
27001W        W41848  13.672  15.088   2.379 -0.1675  0.4223 -0.2423
27002W        W41849   0.965   9.109  17.003  0.0387  0.4745 -0.0428
27003W        W41850   6.827  13.641   2.469  0.2051 -0.0193  0.1903
27004W        W41851   3.720   7.617  13.008 -0.1130  0.0439 -0.2206
27005W        W41852  17.447  11.375   1.321  0.0124  0.2170 -0.0373
27006W        W41853  12.236   6.076   1.266  0.1157 -0.3450 -0.2524
27007W        W41854  12.192   8.844   3.489  0.1078 -0.1637 -0.0491
27008W        W41855   1.331   2.355   1.240  0.1734  0.0163 -0.1668
27009W        W41856  17.228   5.757  15.420 -0.1900  0.0769 -0.3731
27010W        W41857   5.452   0.090  15.610  0.2976  0.0192  0.1811
27011W        W41858   9.636  13.114  11.446 -0.1320 -0.0975  0.1966
27012W        W41859   9.686   3.226   2.305 -0.0527 -0.0291  0.0987
27013W        W41860   9.288   3.488  17.484 -0.1738 -0.1255  0.0166
27014W        W41861   4.129  15.476   0.831 -0.1516 -0.0126  0.1018
27015W        W41862  14.772   4.274   1.218 -0.0241 -0.0906 -0.1546
27016W        W41863  17.610   8.261  12.968 -0.0382  0.1370  0.0733
27017W        W41864   7.522  12.386   4.732 -0.1036 -0.2006 -0.1385
27018W        W41865  13.329   9.606   5.101 -0.2022 -0.0515  0.2471
27019W        W41866  15.303  16.509   1.690 -0.0392  0.0500 -0.1355
27020W        W41867   8.758  10.592   2.221  0.4198 -0.0622  0.1218
27021W        W41868   9.537  13.102   6.260 -0.1655 -0.0245 -0.2957
27022W        W41869   3.102  17.304   1.193  0.1063 -0.3614  0.0500
27023W        W41870  17.677   1.264  14.762 -0.0020  0.0248  0.2851
27024W        W41871   2.448   4.964   5.205  0.0445 -0.0734  0.2004
27025W        W41872   5.485   2.224  13.491 -0.0374  0.2306  0.1435
27026W        W41873  13.129  15.136   3.640 -0.0957  0.0760  0.0862
27027W        W41874   3.312  12.377   0.936  0.2840 -0.0845  0.2117
27028W        W41875   4.734   9.272   0.589  0.2383 -0.0828  0.0862
27029W        W41876   1.350   8.482  15.148  0.1380 -0.2701  0.0834
27030W        W41877   6.787   0.288  15.798  0.6113  0.1010 -0.3292
27031W        W41878   3.106   0.988  14.691  0.2873  0.0598  0.0314
27032W        W41879  16.165  11.848  12.876 -0.4107 -0.0981  0.0685
27033W        W41880   8.294   3.776   0.734 -0.1348  0.2702 -0.0442
27034W        W41881   5.264   3.309  15.615 -0.1057  0.1102 -0.0487
27035W        W41882   2.256   6.036   4.482 -0.1273  0.2591 -0.1247
27036W        W41883   4.817   8.325  13.552 -0.1416  0.0429  0.0609
27037W        W41884   3.387  16.695   4.953  0.2685  0.1275  0.0672
27038W        W41885   7.014  11.571   0.644  0.1499 -0.1786 -0.1792
27039W        W41886   3.019  12.135  13.565  0.0869  0.1809  0.0683
27040W        W41887   6.519   5.938   4.869 -0.2645  0.0794 -0.2808
27041W        W41888   8.632  13.690  17.314  0.0570  0.0818 -0.0542
27042W        W41889   3.105  14.825   4.470 -0.2045 -0.3044 -0.0602
27043W        W41890  17.544  12.026  16.777  0.0051 -0.0887  0.3391
27044W        W41891  13.400  12.771   0.334 -0.3067 -0.1574 -0.0973
27045W        W41892   7.778  17.153  17.136  0.0312 -0.0146 -0.1941
27046W        W41893  16.688   2.696   3.877  0.1597  0.1119  0.3045
27047W        W41894  16.431  13.618  16.232  0.0802  0.0904  0.3682
27048W        W41895  14.485   9.673   5.367  0.5090 -0.0433 -0.1058
27049W        W41896   0.127   6.077   0.236  0.0219 -0.5147  0.1092
27050W        W41897   1.774   5.708  14.977 -0.1277 -0.0210  0.2631
27051W        W41898   8.034   5.781   5.338  0.1304 -0.0959  0.0045
27052W        W41899   9.056  10.927   3.161  0.2003 -0.0075  0.3126
27053W        W41900   2.748  10.827   2.335 -0.0872 -0.2010 -0.2424
27054W        W41901  16.954  15.801   5.503  0.0508 -0.0692  0.3681
27055W        W41902   7.373   3.625  16.451  0.1105  0.0523  0.0525
27056W        W41903  12.738  10.725  15.621  0.0305  0.0808  0.2223
27057W        W41904  14.337  13.142   1.820 -0.1218  0.1276 -0.1172
27058W        W41905   6.055  13.637   2.503 -0.2146  0.0282  0.0678
27059W        W41906  15.827  14.387   3.094  0.2316  0.4066  0.1924
27060W        W41907   3.281  13.183   1.009  0.1755  0.0086 -0.4249
27061W        W41908  12.578  10.047   2.758 -0.0214 -0.2528 -0.1555
27062W        W41909  12.560   8.974  11.299  0.1149 -0.0355  0.1547
27063W        W41910   0.651   9.119   6.632  0.0255  0.1533  0.1738
27064W        W41911  15.436  17.545   1.867  0.3379  0.2086 -0.1267
27065W        W41912  11.154   7.420  12.810  0.2550  0.0351 -0.0038
27066W        W41913   2.514  15.939  14.055 -0.2940 -0.0415 -0.1039
27067W        W41914  12.918   8.779   5.298 -0.0485 -0.1168  0.4679
27068W        W41915   6.598  16.384   2.831 -0.0469  0.3594  0.1166
27069W        W41916   0.045  12.510  13.160  0.1608 -0.1334  0.1438
27070W        W41917   3.465  11.119  17.384 -0.1474 -0.0673 -0.0856
27071W        W41918  15.166   7.108   2.813 -0.1266  0.0127 -0.1708
27072W        W41919   2.084   1.236   2.499 -0.1053 -0.3057  0.0145
27073W        W41920  17.522  11.960  14.287 -0.1939 -0.1314 -0.1536
27074W        W41921   8.696  11.609   5.843 -0.0293 -0.0440  0.1557
27075W        W41922   0.766   1.868  15.304  0.1508 -0.1906  0.2422
27076W        W41923   5.974   2.410  13.793  0.1309  0.2732  0.0311
27077W        W41924   3.011   8.553  17.054 -0.0181  0.0425  0.2265
27078W        W41925   4.248  13.181   2.442 -0.0833 -0.0344  0.3426
27079W        W41926   2.555   5.166  16.753 -0.1562  0.0595 -0.0539
27080W        W41927  14.720  14.076   5.361 -0.1024  0.1789 -0.3090
27081W        W41928   6.346   0.562  13.024 -0.0488  0.2838 -0.1210
27082W        W41929  17.094  15.134  15.704 -0.1136  0.3667  0.3408
27083W        W41930  13.940   6.722   2.178  0.0712  0.2333  0.1269
27084W        W41931   8.713  13.517   3.409  0.1120 -0.2130  0.2973
27085W        W41932   9.504   8.844  13.806 -0.2516  0.0346  0.2420
27086W        W41933   3.195   0.087   3.390 -0.0537  0.1649  0.1114
27087W        W41934   3.581   5.045  16.563 -0.2217  0.2387  0.2205
27088W        W41935  17.583   9.791   6.996 -0.1126  0.0763 -0.2056
27089W        W41936   1.037   9.712  13.521 -0.0813  0.0023 -0.3633
27090W        W41937   7.564   0.340   6.252  0.0951  0.0213 -0.1679
27091W        W41938   1.802  11.017  14.964  0.5456  0.1386  0.3810
27092W        W41939  17.507   0.947  15.220 -0.1217 -0.2305  0.0236
27093W        W41940   8.626  11.594  13.478  0.2553 -0.1677  0.1953
27094W        W41941   3.563   2.866   5.109 -0.0066 -0.2993  0.3173
27095W        W41942  17.464  15.712  14.466  0.2535 -0.1368 -0.2275
27096W        W41943  15.325  17.592   0.757 -0.1441 -0.0426  0.2380
27097W        W41944   7.392  10.148  12.995  0.0136  0.1487  0.1353
27098W        W41945   6.915   9.954   5.616  0.1375 -0.2884 -0.0790
27099W        W41946   5.806  15.433  16.591 -0.0497  0.0499 -0.0597
27100W        W41947   7.162  14.613  14.368 -0.1820  0.1387  0.0637
27101W        W41948  14.797  11.738   4.502 -0.1184  0.0277  0.0972
27102W        W41949   3.274   0.502  13.930 -0.2392 -0.1142 -0.0195
27103W        W41950   7.639   2.237  12.761 -0.3101  0.3077  0.5185
27104W        W41951   7.341  15.224  13.373  0.0416  0.0628  0.1327
27105W        W41952   8.854  15.259   0.488  0.0773  0.3634  0.0120
27106W        W41953   7.835   6.725  15.979 -0.1082 -0.1580 -0.0286
27107W        W41954   1.080  15.061  15.464  0.0340 -0.0690 -0.1242
27108W        W41955   5.200  14.674   2.175 -0.1500  0.0769 -0.3990
27109W        W41956   8.916  17.568   6.197  0.1034  0.0055  0.0689
27110W        W41957   3.840  13.036   1.756 -0.0459 -0.0463  0.1221
27111W        W41958   3.342   3.265  14.810 -0.2968  0.0116  0.1355
27112W        W41959   9.356  10.745   1.345 -0.2109  0.1252  0.2729
27113W        W41960   8.474   6.566  12.824  0.1667 -0.2819  0.0088
27114W        W41961  12.797   0.171   5.913  0.2584 -0.0323 -0.0474
27115W        W41962   0.776   7.540  12.162  0.0873  0.0088 -0.1057
27116W        W41963   5.643  12.209   5.027 -0.1456 -0.0672  0.0696
27117W        W41964   4.798  14.943   5.396  0.2941  0.2874  0.2359
27118W        W41965   3.928   7.831  12.009  0.0572 -0.0689  0.0366
27119W        W41966  12.745  16.400   3.743 -0.0815  0.2191 -0.2749
27120W        W41967   8.425  17.669   0.098 -0.3672  0.0782 -0.0487
27121W        W41968  10.090   9.722  14.310 -0.5021  0.3401 -0.1616
27122W        W41969  12.985  11.196  16.704  0.0007  0.0913 -0.0966
27123W        W41970   4.356  15.512   4.219 -0.1578 -0.4034  0.0876
27124W        W41971   9.278  15.209  15.141  0.0538 -0.0246  0.0127
27125W        W41972   3.355   2.079  15.642 -0.0556 -0.1405  0.2099
27126W        W41973   3.517  11.541   6.193 -0.2553  0.1097 -0.0903
27127W        W41974   4.930   1.566  16.915  0.2093 -0.2523 -0.2073
27128W        W41975   2.058  12.065  13.640  0.1860 -0.2259  0.2464
27129W        W41976   0.918   8.094   5.091  0.1759  0.3923  0.0342
27130W        W41977  13.814   1.700  15.479 -0.1580  0.2379  0.1797
27131W        W41978   0.583  14.568   1.238  0.0638 -0.1073 -0.0438
27132W        W41979   5.230   3.592   4.972  0.1247  0.2090 -0.0835
27133W        W41980  12.789  13.565   3.208 -0.1360 -0.3429 -0.1089
27134W        W41981  15.702   1.696   1.071  0.2047 -0.2014 -0.0945
27135W        W41982  13.325   9.336  14.486 -0.0883  0.0110  0.1403
27136W        W41983   5.174   3.632  11.416 -0.0736  0.0053  0.1796
27137W        W41984  11.320  10.988   0.338 -0.2174  0.2022  0.0939
27138W        W41985  15.696   0.166   4.154  0.1356  0.2203 -0.1540
27139W        W41986  17.531   0.299   6.085 -0.0351  0.0670  0.2016
27140W        W41987   7.511   1.832  13.689 -0.0363 -0.2164 -0.1388
27141W        W41988   2.004   5.962  12.824 -0.3357 -0.0892 -0.0140
27142W        W41989   4.107  14.779   6.332 -0.1577  0.0918 -0.2232
27143W        W41990   7.641   2.474  17.171  0.2662  0.2219  0.0885
27144W        W41991   6.765   1.277  15.419  0.0412  0.2425 -0.1140
27145W        W41992  15.941   6.141  14.216 -0.0238 -0.1936  0.0625
27146W        W41993  12.452   7.941   3.095  0.0863 -0.1888 -0.0944
27147W        W41994  14.151   3.905  14.409 -0.3751 -0.0623  0.0497
27148W        W41995  10.737  14.614   1.098 -0.1358 -0.0748 -0.3947
27149W        W41996   2.339   2.197   3.028 -0.0871  0.0128  0.1501
27150W        W41997   1.012   6.727   1.468  0.0632  0.0896  0.0163
27151W        W41998  13.734  13.601   3.307 -0.0406  0.0151  0.3908
27152W        W41999   1.370   5.722   5.559 -0.0847  0.3112 -0.2124
27153W        W42000  12.648  12.748  14.787  0.0176 -0.4207  0.0832
27154W        W42001   0.671  17.252  14.136 -0.1740 -0.3221  0.0760
27155W        W42002  13.251  13.486   2.039 -0.0150 -0.0798  0.0360
27156W        W42003  14.398   8.675  16.747 -0.0899  0.1675  0.1333
27157W        W42004  17.219   6.302   4.624 -0.5395 -0.1095  0.0669
27158W        W42005  16.355  11.255  13.317 -0.0651  0.1571  0.2326
27159W        W42006   9.120   3.181   0.287  0.0502  0.1389  0.1045
27160W        W42007  14.191  16.259  16.580  0.0998  0.3195  0.2252
27161W        W42008  10.175   3.957   1.317  0.1003  0.1849 -0.0207
27162W        W42009  16.712   1.486  17.590 -0.2610 -0.1758  0.2037
27163W        W42010  13.780   5.219   5.802 -0.5751 -0.0273 -0.0678
27164W        W42011   5.575   4.301   0.310  0.4066 -0.2586 -0.3491
27165W        W42012  10.413  12.995   3.148  0.0202  0.2544  0.0491
27166W        W42013   2.223  13.323   5.927  0.0904 -0.3012 -0.2524
27167W        W42014   9.685   1.888   6.014 -0.2534 -0.0535  0.0714
27168W        W42015  10.921  14.017  16.428  0.0734 -0.1793  0.0084
27169W        W42016   9.436  16.514  13.843  0.1214 -0.2140  0.3598
27170W        W42017  13.224   1.334   4.227 -0.2206  0.0661  0.1394
27171W        W42018   5.465  15.127   2.472 -0.2387  0.5256 -0.2050
27172W        W42019   6.745   2.075   2.557  0.0446 -0.2496  0.4598
27173W        W42020   5.180  10.286   0.617 -0.0058 -0.2368 -0.0495
27174W        W42021   6.497   5.632   0.111 -0.1048  0.1209 -0.0995
27175W        W42022   3.798   8.328  17.473 -0.2884 -0.2670 -0.1271
27176W        W42023  16.212  10.376  11.572  0.1094 -0.1694  0.0806
27177W        W42024  16.187   5.349   2.861  0.1716 -0.3534  0.0309
27178W        W42025  15.815   5.468  15.262  0.0391  0.0223  0.0015
27179W        W42026  12.454  13.071   4.999 -0.3230 -0.2748  0.1373
27180W        W42027   0.609   9.693  12.385  0.2015 -0.4457 -0.2476
27181W        W42028   8.380  15.044   0.741  0.0047  0.3501  0.3114
27182W        W42029  12.428   2.688   3.825  0.0603 -0.2543 -0.1414
27183W        W42030   7.436  17.136  13.314 -0.1621  0.2604 -0.0570
27184W        W42031  11.203  15.349   1.854 -0.0445 -0.0728  0.0625
27185W        W42032   1.023   9.497   1.823  0.0786 -0.0320 -0.0809
27186W        W42033  10.080   9.936   0.360  0.3266  0.2502 -0.1669
27187W        W42034  15.964   2.854  13.717 -0.2282 -0.1822  0.1185
27188W        W42035  12.383  15.485  14.767 -0.0726 -0.0585  0.2090
27189W        W42036   4.961   7.578   5.446  0.0654 -0.2006  0.0039
27190W        W42037   4.191   9.449  12.040  0.1102 -0.2363 -0.2815
27191W        W42038   8.243  14.252   3.991 -0.1227  0.2403 -0.1164
27192W        W42039   5.803   0.549  12.933 -0.0575 -0.0247  0.0687
27193W        W42040  11.228   9.633  17.294 -0.4255  0.1145 -0.2666
27194W        W42041   2.411  16.466  13.180 -0.2574 -0.0092  0.1088
27195W        W42042   9.387  12.277   6.810  0.4814  0.0335 -0.1451
27196W        W42043   2.639  11.791   2.119  0.6281 -0.0038  0.1146
27197W        W42044  14.440  16.033   2.351  0.4598  0.1850  0.3741
27198W        W42045   7.118   6.490   0.385 -0.1321 -0.1147  0.1982
27199W        W42046   0.028   3.662  16.709  0.2760 -0.1653 -0.2744
27200W        W42047   2.584   0.969  17.544 -0.1124  0.2264  0.1670
27201W        W42048   7.292  17.093   3.783  0.0619  0.2637 -0.0918
27202W        W42049   2.315  13.079   4.926  0.1864 -0.0235  0.2553
27203W        W42050   1.765   0.172   3.070 -0.0662  0.0538 -0.1287
27204W        W42051   1.008   2.570  15.091  0.5040 -0.0764  0.1603
27205W        W42052   9.407  17.402   2.543 -0.4062  0.3609 -0.1298
27206W        W42053   1.577   9.965   3.215 -0.2791 -0.2236 -0.4887
27207W        W42054   6.571  15.181   6.536  0.0527 -0.2416 -0.1360
27208W        W42055  11.438  16.258   0.791 -0.0995 -0.2647  0.2660
27209W        W42056   1.599   4.371  16.264  0.2530 -0.0361  0.1264
27210W        W42057  12.247   5.839  17.036 -0.1177 -0.3315 -0.4472
27211W        W42058  14.097   7.897   0.646 -0.4165 -0.0061 -0.1732
27212W        W42059  16.796  10.741  14.016  0.2403 -0.2105  0.0162
27213W        W42060   5.212  14.259  16.742 -0.0818  0.1971 -0.1820
27214W        W42061  11.453   7.361  14.106  0.1212  0.0194 -0.1171
27215W        W42062   6.286  13.035  15.837 -0.0644 -0.0775 -0.2714
27216W        W42063  12.133   5.389  14.481  0.2726  0.0414 -0.1125
27217W        W42064  10.581   8.312   6.744 -0.1033 -0.1958 -0.0481
27218W        W42065   7.146   2.524   5.982  0.0897 -0.1386 -0.3653
27219W        W42066   5.178   5.620   1.515  0.0011 -0.1063  0.0271
27220W        W42067   4.710   6.486   6.676 -0.0417 -0.2785 -0.1821
27221W        W42068   4.102   4.788   5.933  0.1122  0.2064 -0.2863
27222W        W42069   3.169   8.641   3.771 -0.3683 -0.2256 -0.3366
27223W        W42070   9.010   2.998  15.042 -0.0987  0.2939 -0.0174
27224W        W42071   2.731  12.674   3.560 -0.1181 -0.0274  0.0280
27225W        W42072  12.268   5.416   6.208  0.0405 -0.0041  0.2194
27226W        W42073  13.764   0.450  13.358 -0.2817 -0.0372 -0.0791
27227W        W42074  16.281   4.936  12.268  0.1659 -0.0987  0.1398
27228W        W42075  12.854   3.145   4.588 -0.3384  0.3700  0.2245
27229W        W42076  13.154   9.630   3.100 -0.2191  0.0470 -0.1175
27230W        W42077   7.058  15.754  17.284  0.1491 -0.0398  0.0075
27231W        W42078   6.037   9.424   4.575 -0.0903 -0.0143 -0.1471
27232W        W42079   8.033   4.810  14.775  0.2784 -0.3065  0.1088
27233W        W42080  16.376   0.525   0.228 -0.1826 -0.0602 -0.0954
27234W        W42081   3.461   9.296   1.751  0.2026  0.2880 -0.2323
27235W        W42082   0.147  11.684   0.993 -0.2577  0.0736 -0.1004
27236W        W42083  14.443   7.791   1.843  0.2742 -0.1311 -0.1417
27237W        W42084   4.454   1.429  16.679 -0.2468 -0.3805 -0.0756
27238W        W42085   9.192   3.795   6.148 -0.0355  0.2874  0.0366
27239W        W42086   2.594  16.746   5.417  0.0211 -0.0750  0.0345
27240W        W42087  13.223  15.519   3.986  0.2628 -0.1535  0.0036
27241W        W42088  17.280  17.609  14.509 -0.0518 -0.0384 -0.0021
27242W        W42089   2.642  11.706  10.711  0.0453 -0.2125  0.2708
27243W        W42090  14.604   5.331   4.932  0.0190  0.1426 -0.2951
27244W        W42091  13.804   0.036  15.223  0.3204 -0.0228  0.1551
27245W        W42092  14.302  16.526   1.466 -0.0252  0.2898  0.0597
27246W        W42093  13.960   4.817  15.287  0.0087  0.3050  0.0348
27247W        W42094   7.511   8.676  17.504  0.0088 -0.1370 -0.1793
27248W        W42095   0.941   0.581   4.809 -0.1198  0.0907 -0.1808
27249W        W42096  10.721  11.020  13.420 -0.0775  0.0996 -0.0096
27250W        W42097   4.566   9.219  15.890  0.4413 -0.3711 -0.2813
27251W        W42098  13.550   8.290  15.760 -0.0196 -0.1113 -0.0594
27252W        W42099   5.917   8.353  14.267  0.1820 -0.0089 -0.0426
27253W        W42100   0.836   4.488   5.021  0.2704  0.2985 -0.3872
27254W        W42101  15.024   3.107   4.784 -0.3501  0.1302  0.0168
27255W        W42102   6.096   0.139  11.721 -0.1455 -0.0509 -0.0578
27256W        W42103   9.409  10.826   0.818  0.1262 -0.1110  0.0776
27257W        W42104  12.426  17.640  15.196 -0.1127 -0.1754  0.0782
27258W        W42105   9.557   4.377   4.646  0.0217 -0.0349 -0.0936
27259W        W42106   4.399   7.641   5.390  0.2748  0.2285 -0.0914
27260W        W42107  15.358  10.470  12.923  0.1233  0.0586 -0.1053
27261W        W42108   1.817   6.716  12.260 -0.0009  0.2222 -0.0572
27262W        W42109   3.975  14.878   5.670  0.1098  0.0326 -0.0227
27263W        W42110   8.468   7.649  12.325  0.4173 -0.2582 -0.0544
27264W        W42111  11.905   6.184  16.155  0.0465  0.0807 -0.2361
27265W        W42112   6.804   7.896   2.374  0.0446 -0.2327 -0.2659
27266W        W42113  12.497   5.952  13.846  0.1675  0.0725 -0.1349
27267W        W42114   7.607  12.527   0.474 -0.0045 -0.0739 -0.1909
27268W        W42115   0.164   1.620  13.081  0.0490 -0.0513 -0.0171
27269W        W42116  12.572   3.123   1.832 -0.0399 -0.1379  0.0345
27270W        W42117   2.814   2.382  17.661 -0.0683  0.1385 -0.2090
27271W        W42118  10.630   2.381   0.167  0.0070  0.2810  0.1506
27272W        W42119  10.824  12.740  13.923 -0.2796  0.2790 -0.0901
27273W        W42120  11.807   0.006  12.518 -0.2162  0.2443  0.0291
27274W        W42121   4.733  14.040   2.357 -0.2976  0.0311  0.1422
27275W        W42122  17.033   0.561  11.629 -0.0144  0.0028 -0.1669
27276W        W42123  12.155   3.900  14.551 -0.0213 -0.0633 -0.1841
27277W        W42124  10.969   6.918   6.633 -0.2713  0.1650  0.1195
27278W        W42125   6.202   7.528  17.144  0.1090  0.1361  0.0091
27279W        W42126   7.711  10.563  13.719 -0.2364  0.2058  0.2750
27280W        W42127   1.211   2.724  16.431 -0.2168 -0.2784 -0.1820
27281W        W42128   5.504   2.126  17.077  0.0417 -0.1303  0.1061
27282W        W42129  10.300  11.420  12.955  0.1827  0.1542  0.1495
27283W        W42130   9.226   8.014  14.871 -0.0572  0.0889 -0.1088
27284W        W42131   1.250   1.370  14.337  0.2631 -0.2343 -0.1312
27285W        W42132  10.501  12.194   0.185  0.2348 -0.1589 -0.2387
27286W        W42133  13.712   1.402  15.116 -0.3785  0.2561  0.1722
27287W        W42134  17.203  11.055   2.554 -0.0549 -0.3328 -0.3977
27288W        W42135  15.848  11.439   2.220 -0.3857  0.1326  0.3614
27289W        W42136   4.217   5.095  13.063  0.1834 -0.1049  0.1449
27290W        W42137  16.110   5.837   0.062  0.2455  0.0119  0.4029
27291W        W42138  11.212  10.150  17.117 -0.1297 -0.2047  0.1643
27292W        W42139  10.011   6.339  17.441 -0.0598  0.3003 -0.1078
27293W        W42140   1.360  12.139   3.055 -0.1135  0.1561  0.2503
27294W        W42141   9.199   2.444  16.708  0.1562  0.1732 -0.2326
27295W        W42142   5.669   1.071   3.640  0.2016 -0.0708  0.0509
27296W        W42143  16.569  14.355   4.626  0.1001  0.2822  0.0465
27297W        W42144   7.883  17.665  17.169 -0.0269 -0.3788 -0.0948
27298W        W42145  13.931  14.843  13.146 -0.2692 -0.2546 -0.1982
27299W        W42146  16.779   2.281   4.182 -0.2564  0.1052 -0.0617
27300W        W42147   6.556   7.130  13.912 -0.0982 -0.1173 -0.2464
27301W        W42148  11.367   4.875   2.426 -0.0158 -0.2455 -0.1430
27302W        W42149   9.857  15.217  12.876  0.0382 -0.1524 -0.1527
27303W        W42150   9.723   0.110  15.497 -0.0172  0.0883  0.3332
27304W        W42151   4.376  14.002   0.793  0.0986  0.0338  0.3424
27305W        W42152  12.420   1.986  15.502  0.1540  0.0900 -0.2867
27306W        W42153   3.886  16.787  14.384 -0.0076  0.0457 -0.0888
27307W        W42154  14.027   8.102  13.419 -0.0110 -0.2376 -0.1906
27308W        W42155   6.144   5.646  13.942  0.1090 -0.2825  0.5098
27309W        W42156   1.716   2.907  16.239 -0.3587  0.0990  0.1074
27310W        W42157   1.860   2.397  12.226  0.3719 -0.2587  0.0881
27311W        W42158  10.809   6.895   0.061 -0.0114 -0.0498 -0.0519
27312W        W42159   0.251   7.132  15.175 -0.3742 -0.3241 -0.1299
27313W        W42160   4.167  10.570  16.822 -0.0528 -0.3863  0.0874
27314W        W42161   2.196  17.586   2.983 -0.5781  0.0233  0.1898
27315W        W42162   9.686   2.368  13.164  0.1054  0.0877  0.6711
27316W        W42163  13.730  16.542  16.585 -0.1811 -0.1635  0.0061
27317W        W42164   5.578   2.887  11.570  0.3676 -0.0308 -0.3226
27318W        W42165   2.613  13.448   6.703 -0.0245  0.1425  0.0359
27319W        W42166   5.443   0.223  12.052  0.1803 -0.0728 -0.1240
27320W        W42167   0.903  10.098   5.049 -0.1128  0.0668 -0.2940
27321W        W42168   3.695  15.185  15.516 -0.0881 -0.0898  0.2180
27322W        W42169   1.388   6.096   1.468 -0.0202  0.0710  0.0063
27323W        W42170   2.235   4.773  14.794 -0.3335  0.1822 -0.2430
27324W        W42171  11.670   0.071  12.068  0.0199  0.0498  0.0272
27325W        W42172   5.807  16.151   3.226 -0.1751 -0.0510 -0.2461
27326W        W42173  13.593   3.930   5.860 -0.0711  0.0487  0.3919
27327W        W42174  13.955  14.728   6.534  0.0667  0.0349  0.0952
27328W        W42175   9.280  16.157  13.406  0.2490  0.2344 -0.1463
27329W        W42176  15.820   5.184  12.984 -0.0732 -0.1546 -0.3111
27330W        W42177  16.839   8.341  17.656  0.0639 -0.3234  0.2367
27331W        W42178  10.728   1.023  11.619 -0.1929  0.0071  0.3052
27332W        W42179   0.330   2.953  13.467  0.3275 -0.1930 -0.0285
27333W        W42180   3.598   6.973  13.331  0.0327 -0.0436 -0.1784
27334W        W42181   6.708   5.801  13.319 -0.3065 -0.1075  0.4255
27335W        W42182   2.910   8.295   6.059  0.1001  0.2800 -0.1128
27336W        W42183  17.482  13.317   3.040  0.2455  0.0367 -0.1610
27337W        W42184   9.772  10.912   5.876  0.4948 -0.3525  0.1199
27338W        W42185   4.331  16.628   0.424  0.0183  0.0961 -0.2018
27339W        W42186  12.939   3.738   1.407  0.2640 -0.3264  0.0113
27340W        W42187  17.093  16.490   2.848 -0.0312 -0.0348  0.2083
27341W        W42188   1.237   0.735   3.649 -0.1134  0.0466  0.1630
27342W        W42189  16.261  14.574   2.821  0.0677 -0.0527 -0.0263
27343W        W42190  12.853  11.723   6.067  0.1223 -0.0901  0.0749
27344W        W42191  12.914  15.013  17.481 -0.0897  0.2784 -0.0015
27345W        W42192   4.244  10.041  16.615 -0.1712 -0.0298 -0.0120
27346W        W42193   3.427  15.931  11.882  0.0348  0.1613  0.1566
27347W        W42194   4.128   6.908  14.548 -0.4096 -0.1312 -0.2728
27348W        W42195  17.097  14.972   4.826  0.2207  0.5271  0.0604
27349W        W42196   2.583   8.295  14.778 -0.0301 -0.2565  0.3208
27350W        W42197   1.548   6.048  16.039 -0.0705 -0.1167 -0.3056
27351W        W42198   2.130  14.232  12.557  0.2671 -0.0227  0.0400
27352W        W42199   4.385   0.390   2.114  0.0246  0.1401 -0.3921
27353W        W42200   3.875   4.805   0.207  0.3192 -0.0581  0.1959
27354W        W42201   9.389   2.967  14.663 -0.0459 -0.1452 -0.2275
27355W        W42202   1.839  17.380   5.184 -0.1435  0.2804  0.1272
27356W        W42203  17.312   7.818  15.790 -0.0912 -0.3154  0.1419
27357W        W42204  16.518  10.366  15.869 -0.1065 -0.2350  0.2043
27358W        W42205   9.909  11.190   4.733 -0.1464 -0.0085 -0.0576
27359W        W42206   6.998   8.126   6.097 -0.1136  0.0351  0.0630
27360W        W42207  10.377   9.238   6.026  0.0971 -0.0624 -0.0479
27361W        W42208  17.017  15.472  11.455  0.1369 -0.0455  0.0597
27362W        W42209   8.461  15.899  11.216 -0.1256 -0.1515 -0.0907
27363W        W42210  16.729   9.951   5.996  0.0967  0.1723  0.0731
27364W        W42211   5.389  10.202   2.650  0.0505 -0.1698  0.1238
27365W        W42212  11.754   6.725  11.910 -0.1530 -0.1976 -0.1129
27366W        W42213  11.761  12.835   1.399 -0.0429 -0.1687  0.2241
27367W        W42214  14.500  11.389   4.782 -0.0818 -0.1013  0.4532
27368W        W42215  13.258  12.769  12.468  0.3716 -0.0967 -0.0137
27369W        W42216   1.746  10.402   6.002  0.0548  0.0528 -0.1808
27370W        W42217  12.836   4.118   3.726 -0.0839  0.0281 -0.0879
27371W        W42218  14.604  10.871  14.218  0.2955  0.2767  0.3101
27372W        W42219  10.070   0.400   6.762 -0.0308  0.1411  0.1047
27373W        W42220   5.215  10.688  15.590 -0.0703 -0.2517 -0.2419
27374W        W42221   1.106  17.383  12.720 -0.2395  0.1006 -0.2007
27375W        W42222   3.628  16.887  16.411  0.2314  0.0638 -0.0760
27376W        W42223  13.820   6.808   4.159  0.2076 -0.1145 -0.2764
27377W        W42224   5.411  17.560   2.347  0.0707  0.1842  0.3757
27378W        W42225   1.156  14.591  13.969  0.0348 -0.2850  0.1123
27379W        W42226   5.238  17.337  14.001  0.0148  0.0795 -0.2086
27380W        W42227  15.629  16.914   6.569  0.2266  0.1873  0.0731
27381W        W42228  10.712  16.605  14.305 -0.0184  0.3203 -0.0866
27382W        W42229   5.739  12.284  11.604  0.0095  0.1454  0.0560
27383W        W42230   6.971   3.693  15.180 -0.2660  0.1786 -0.3829
27384W        W42231  16.401   8.669   3.383 -0.2411 -0.1890  0.1514
27385W        W42232  12.437  14.535  13.601  0.1973  0.1167 -0.2196
27386W        W42233  14.770  14.347   4.213  0.0014  0.0373  0.1761
27387W        W42234  10.184  16.480  13.216  0.1218 -0.1056 -0.0918
27388W        W42235   7.748  10.204   1.517 -0.1553 -0.0416  0.0317
27389W        W42236   6.436  16.456   2.313 -0.1849  0.1674 -0.1344
27390W        W42237   8.880  11.857   4.014  0.1675 -0.0895 -0.2196
27391W        W42238  12.560  15.092  12.594  0.2025 -0.2518 -0.1520
27392W        W42239   5.927  14.862   3.335  0.3256 -0.0944  0.0329
27393W        W42240   9.472   5.482  15.983  0.3758  0.0951 -0.1586
27394W        W42241  13.830  15.336   0.439  0.1550 -0.0065  0.1571
27395W        W42242   1.069  14.192  15.412 -0.0731 -0.0809  0.2825
27396W        W42243  14.440  13.424   1.404  0.1612  0.0729 -0.3959
27397W        W42244   5.605   6.733  12.326 -0.0174 -0.0152  0.2274
27398W        W42245  14.639   9.001   5.406  0.4533  0.3185 -0.2359
27399W        W42246  11.703   3.262   1.275 -0.4076 -0.0480 -0.1235
27400W        W42247  15.274   2.779   1.108  0.3953  0.2596 -0.0482
27401W        W42248   7.252   6.006  17.096 -0.1693  0.2305  0.1174
27402W        W42249   8.519  13.826   4.043  0.1507 -0.2673 -0.0925
27403W        W42250   2.491   3.641  12.263  0.2954 -0.0111  0.0965
27404W        W42251   6.738   7.174   0.513 -0.0521 -0.2410  0.1758
27405W        W42252   3.769   5.416   6.265  0.1408 -0.2876 -0.0943
27406W        W42253  13.256  13.064   3.876  0.1833  0.0001  0.0949
27407W        W42254  12.512  10.412   0.501 -0.0998  0.1189  0.1661
27408W        W42255  14.085  10.810   3.525 -0.3076 -0.0439  0.2643
27409W        W42256  15.659   4.916   1.003  0.1046  0.0992 -0.2110
27410W        W42257  16.663   7.668  12.484 -0.0139 -0.1732  0.0234
27411W        W42258   6.137   0.155   0.624  0.0701 -0.3469 -0.0388
27412W        W42259  10.141  15.935   6.048  0.0283 -0.0500  0.0741
27413W        W42260   3.189   9.544  17.510 -0.2989 -0.1984 -0.2609
27414W        W42261   1.229  12.807  15.138  0.1071  0.0415 -0.1698
27415W        W42262   1.857  13.051   6.437  0.1462 -0.2078 -0.1847
27416W        W42263  15.169   9.684   1.105 -0.2129  0.4638  0.2233
27417W        W42264   6.150  14.230  12.840 -0.0234  0.2853  0.2853
27418W        W42265  16.158  11.342   5.653  0.2766  0.0342 -0.1722
27419W        W42266   1.570   6.641  11.828 -0.1811  0.2121  0.0856
27420W        W42267   9.125   8.991   6.394  0.0790 -0.2540 -0.0083
27421W        W42268  16.801   4.442  15.041 -0.1326 -0.0257  0.1534
27422W        W42269   3.789   1.929   5.066 -0.1457  0.1340 -0.1442
27423W        W42270   9.868  13.389   2.135 -0.0381 -0.1275  0.2820
27424W        W42271   5.694  15.489   2.161  0.3719  0.0087  0.2579
27425W        W42272  17.623   4.635  14.640  0.1364  0.3171  0.0811
27426W        W42273   1.249   7.297  14.900 -0.1091  0.2714  0.1068
27427W        W42274   1.343   6.762  16.690 -0.0456 -0.3296 -0.3519
27428W        W42275   5.191   1.240   5.553 -0.1234  0.0565 -0.1731
27429W        W42276   2.936   1.689   4.138  0.2170 -0.2972 -0.0730
27430W        W42277  10.394   0.272  16.314  0.2115  0.0817 -0.4497
27431W        W42278   9.882  10.029  15.806  0.0242  0.1857  0.2106
27432W        W42279  17.049  15.661   6.428  0.0961 -0.1612  0.3072
27433W        W42280   1.380  14.967  16.955 -0.1821 -0.0189 -0.1811
27434W        W42281   7.310  10.987  12.623 -0.1882  0.3289  0.0676
27435W        W42282   4.531   6.969   3.446 -0.1064 -0.3869  0.0480
27436W        W42283   0.307   9.488  16.343 -0.2391 -0.0558  0.0499
27437W        W42284  12.945   2.453  13.648 -0.0754  0.1055  0.1828
27438W        W42285   6.614   6.143   1.491 -0.3280  0.0210 -0.1206
27439W        W42286   0.822   0.993  13.643  0.0286  0.1566 -0.2043
27440W        W42287  10.462  13.921  16.673 -0.0749  0.0813 -0.0275
27441W        W42288  15.202  16.200   5.568  0.1473 -0.2378  0.0478
27442W        W42289  11.701  12.544   0.487  0.0048 -0.3767 -0.0669
27443W        W42290   8.481   0.191   4.636 -0.2345 -0.0647  0.0848
27444W        W42291  17.630  16.161  12.628 -0.0310 -0.2056 -0.1741
27445W        W42292  11.092   3.513   4.033 -0.2897 -0.1329  0.2943
27446W        W42293   2.171  12.556  13.534 -0.2501  0.1013 -0.0212
27447W        W42294   5.753  14.185  12.550  0.3071  0.0609  0.1476
27448W        W42295   4.144   1.581   2.877  0.0516  0.1059 -0.1651
27449W        W42296   3.596  16.836   2.314 -0.0128  0.1971 -0.1946
27450W        W42297   4.710  11.937   2.331  0.2143  0.0696 -0.0184
27451W        W42298   0.487  12.072   1.537 -0.1636  0.0274  0.0335
27452W        W42299   9.897  14.815   5.148 -0.0657  0.2054  0.0115
27453W        W42300  11.807   5.811   1.448 -0.1110  0.0165  0.0505
27454W        W42301  10.757   7.500   0.716 -0.2030  0.3151 -0.0996
27455W        W42302   4.456   1.952  16.894  0.2112  0.0497 -0.2026
27456W        W42303   4.781  17.565   3.461 -0.0617  0.2258 -0.0027
27457W        W42304   9.976   9.312   5.073  0.2230  0.3387 -0.2846
27458W        W42305  16.217   8.522  14.597 -0.0154  0.1548  0.1921
27459W        W42306   8.860   3.992   0.881  0.1155 -0.0136  0.2970
27460W        W42307   1.478  13.012   2.164  0.2763 -0.0153 -0.1280
27461W        W42308   0.874   3.182  12.501  0.0453  0.0322 -0.0334
27462W        W42309   9.413   4.367  17.035  0.0084  0.0517  0.0206
27463W        W42310  10.617  13.623  13.449 -0.1028  0.3221  0.1327
27464W        W42311  16.337   4.767   4.348 -0.0126 -0.2285  0.1061
27465W        W42312   5.639   0.863  14.240  0.1960 -0.0102  0.0908
27466W        W42313  11.767   5.080  16.500  0.2040 -0.0173  0.0704
27467W        W42314  13.326   1.669  15.284  0.5031 -0.1698  0.1896
27468W        W42315   4.299  11.172  17.286  0.1068  0.2248  0.4370
27469W        W42316  13.325  13.197   0.646 -0.1502 -0.0181  0.1031
27470W        W42317  10.685  10.614  12.654  0.3843 -0.3463 -0.0694
27471W        W42318  17.446   7.035   1.425 -0.1532  0.4100  0.2089
27472W        W42319   9.377   6.930  12.514 -0.1283  0.0021 -0.1492
27473W        W42320   1.591  17.587  15.880 -0.0457 -0.1133  0.1922
27474W        W42321  14.525   4.700   2.307 -0.3748  0.1290 -0.0047
27475W        W42322   5.274  10.636   4.329  0.3799 -0.1327 -0.6055
27476W        W42323   1.426  13.560   1.033  0.1896 -0.1244  0.2233
27477W        W42324  10.884   2.172   4.071 -0.2287  0.1054 -0.0513
27478W        W42325   4.668  11.121   4.790 -0.1639  0.1041  0.1023
27479W        W42326  12.045  12.207   4.701  0.0556  0.1694  0.1644
27480W        W42327   2.311   9.320  11.594  0.1931 -0.0810  0.0460
27481W        W42328  16.999  13.510   4.870 -0.0474 -0.2537  0.0045
27482W        W42329   7.407   9.912  15.822 -0.1412 -0.0040  0.1247
27483W        W42330   4.546   3.324  15.689  0.1001 -0.0580 -0.2949
27484W        W42331  13.311  11.233  15.859  0.2434  0.2890  0.0461
27485W        W42332  10.998   5.943  15.957 -0.0117  0.1988  0.1630
27486W        W42333  14.770   3.628  16.416  0.0989 -0.0154  0.0199
27487W        W42334   1.510   2.071  12.072 -0.1863  0.0129  0.0632
27488W        W42335   7.114   4.471   1.445 -0.1037  0.2702 -0.2223
27489W        W42336   7.023  12.195   2.076  0.2167 -0.0970 -0.0631
27490W        W42337   7.588  15.762   1.481 -0.0041  0.3167 -0.1936
27491W        W42338  14.467   0.834  15.159 -0.2516 -0.1582 -0.2658
27492W        W42339   6.321   1.703   0.025  0.1030 -0.0086  0.2936
27493W        W42340  15.702   9.186  14.991 -0.0264 -0.0959 -0.1121
27494W        W42341  17.633  12.984  13.220  0.2572 -0.2795 -0.0525
27495W        W42342  10.641   4.690  16.445  0.0249  0.5159 -0.1741
27496W        W42343  15.197  10.992  15.450 -0.2688 -0.0754 -0.2679
27497W        W42344  13.290  11.949   4.053 -0.0583 -0.2916  0.1745
27498W        W42345  16.948  12.801   1.040 -0.0122 -0.1104 -0.2642
27499W        W42346   2.860   0.399   0.311 -0.0024  0.1817  0.4335
27500W        W42347   5.280   9.054  16.865  0.1771  0.1516  0.1015
27501W        W42348  16.418   5.534  13.926  0.3099 -0.2245 -0.2098
27502W        W42349  15.436  11.800   5.358  0.0720  0.0158  0.0313
27503W        W42350   6.062   8.155  12.843 -0.1211 -0.3112 -0.0648
27504W        W42351   2.190  15.430  16.987  0.0154 -0.2130 -0.0783
27505W        W42352  13.014  16.025   4.818 -0.2510  0.0830 -0.0287
27506W        W42353   1.919  14.789  16.109  0.2171  0.0286 -0.0865
27507W        W42354   1.813   6.476   3.089 -0.1762  0.0015  0.1197
27508W        W42355   0.011  13.319   3.685  0.1088  0.0047  0.3358
27509W        W42356  14.225  17.273   5.692  0.1850  0.0474 -0.1092
27510W        W42357  15.504  10.860  12.587 -0.0185  0.1219 -0.3129
27511W        W42358   3.968  12.336  15.801  0.1378  0.0781  0.3406
27512W        W42359  14.622  15.519   0.101 -0.1870 -0.3845 -0.2320
27513W        W42360   0.408  16.892  13.159 -0.0688 -0.0765 -0.0237
27514W        W42361   4.623  13.102  16.025  0.0760  0.0780  0.1729
27515W        W42362  10.258  17.544   2.166  0.1852  0.0735  0.2570
27516W        W42363   1.666   3.461  15.029 -0.3162 -0.1339  0.4507
27517W        W42364  14.977  15.491   1.828 -0.2545  0.0780  0.1078
27518W        W42365  14.467   0.271  16.697  0.0293 -0.0748 -0.1493
27519W        W42366   7.461   2.930  17.154 -0.1645  0.0975 -0.3143
27520W        W42367   3.611  11.334  13.406 -0.2185 -0.0422 -0.0786
27521W        W42368  13.173  16.463   6.155 -0.0280  0.1012  0.1919
27522W        W42369   6.374  17.438   6.800 -0.2184 -0.1445  0.0522
27523W        W42370   8.361   1.186   3.072 -0.1052  0.0305  0.1995
27524W        W42371   7.728  10.813   5.814  0.0009 -0.0868 -0.3348
27525W        W42372  10.631  16.418  12.953  0.3311 -0.1846  0.0283
27526W        W42373   1.880   7.576  16.202  0.0963 -0.2660 -0.1114
27527W        W42374  17.662   6.915   3.256 -0.2249 -0.2302  0.0459
27528W        W42375  16.439   4.667  11.871  0.0771  0.0530 -0.0704
27529W        W42376   3.001   4.024  16.059  0.0372 -0.1128  0.4677
27530W        W42377   8.763   8.883  11.012  0.1519 -0.0346  0.1401
27531W        W42378  15.902  16.035  11.071 -0.0913  0.1421  0.3166
27532W        W42379  16.184  15.738   4.873  0.0814  0.1695 -0.2673
27533W        W42380  12.874  10.190   1.439  0.3612  0.3729 -0.0570
27534W        W42381   0.016   4.912  12.860  0.0731 -0.2462 -0.1556
27535W        W42382  15.379   0.154  16.673 -0.3462 -0.1798 -0.1151
27536W        W42383  13.161   1.707   4.743  0.2140 -0.2484  0.2462
27537W        W42384   0.637  15.102  16.412 -0.2147 -0.0826  0.0174
27538W        W42385  15.608  14.310   2.663 -0.2121  0.0504 -0.0127
27539W        W42386   9.298  12.880  13.113  0.2792 -0.2623  0.1314
27540W        W42387   3.147  15.783   0.014  0.0286 -0.0563  0.1267
27541W        W42388  10.163   6.054   2.759 -0.3730  0.1609 -0.0415
27542W        W42389   6.040   1.124   3.177  0.3351  0.1439  0.1193
27543W        W42390   6.980   7.688   3.624 -0.1134 -0.0191  0.2722
27544W        W42391  14.335   1.145   5.544 -0.1142 -0.0239  0.2249
27545W        W42392   7.660   1.491  17.549  0.1278 -0.1863  0.0512
27546W        W42393   2.033   0.029  11.656 -0.1016  0.3154  0.1688
27547W        W42394   9.446   5.425  14.396  0.1343  0.0323 -0.0597
27548W        W42395   6.753   3.308  13.917 -0.0190  0.1187  0.0300
27549W        W42396   5.846  15.964  17.347  0.0714 -0.2088 -0.1843
27550W        W42397   3.414  14.327   3.094  0.1506 -0.0173 -0.0768
27551W        W42398   2.622  12.302   5.172 -0.1012  0.3188 -0.2486
27552W        W42399   7.968   8.616   4.322 -0.0268  0.1915 -0.0298
27553W        W42400   1.871  11.949   0.839  0.2284  0.0099  0.2148
27554W        W42401   8.380   0.965  11.444  0.4065 -0.3792  0.2850
27555W        W42402   7.435  15.549  17.613  0.3171 -0.1711  0.1485
27556W        W42403  10.961   9.259  16.919 -0.1222 -0.1061 -0.0261
27557W        W42404  13.143  12.093   3.212  0.0465 -0.1474 -0.0164
27558W        W42405   1.047   7.813   2.656 -0.1353  0.2305  0.1366
27559W        W42406  14.731   8.350   3.046 -0.1096 -0.0409 -0.0381
27560W        W42407   0.996  13.577  13.056  0.1053 -0.2036  0.2977
27561W        W42408   6.774   0.228   5.105  0.0015 -0.2415 -0.2547
27562W        W42409  17.209   8.734   3.946 -0.0391 -0.2418 -0.1365
27563W        W42410   6.942  13.500   5.223 -0.4174 -0.1411  0.3438
27564W        W42411  11.456   2.004  12.081  0.4226 -0.3763  0.0915
27565W        W42412   5.857  14.471   2.855 -0.2131  0.1113  0.2749
27566W        W42413   0.235   9.710  15.919  0.2087  0.4069 -0.0551
27567W        W42414  16.983  17.440   2.783 -0.3855  0.2709  0.2492
27568W        W42415   2.471   1.784  14.910  0.2034  0.1289  0.1057
27569W        W42416  13.295   7.027  12.584  0.2179  0.1535  0.0494
27570W        W42417  11.011  15.824   5.707 -0.0506  0.0675 -0.0281
27571W        W42418   5.458  12.059   3.589  0.1102 -0.1256  0.0350
27572W        W42419  15.123  10.660  16.427  0.0093  0.0508 -0.0735
27573W        W42420   9.178   8.429  13.857 -0.2199 -0.5124 -0.3446
27574W        W42421   2.614  14.866  14.792 -0.0007  0.1426  0.0993
27575W        W42422   7.858   5.889   1.677  0.0008 -0.2355  0.1044
27576W        W42423  17.211   7.770   2.053  0.3045  0.2781  0.2451
27577W        W42424  15.331   1.035   5.189 -0.3839 -0.0089 -0.1201
27578W        W42425   0.064  10.271   1.320  0.0721  0.1177  0.3026
27579W        W42426  14.346   6.460  13.280  0.1446  0.2712  0.1946
27580W        W42427  11.042   7.028  15.273 -0.0352 -0.0931 -0.2340
27581W        W42428   9.545   0.133   6.724 -0.0617 -0.0269  0.3003
27582W        W42429  13.983   6.948  14.819  0.1427  0.2768  0.2978
27583W        W42430   3.593  12.642   1.184 -0.0720  0.3460 -0.0813
27584W        W42431   0.340  11.819   4.588  0.2672  0.1677  0.1870
27585W        W42432  15.633   1.217  16.028 -0.0138  0.1249  0.2192
27586W        W42433  12.757  14.374   4.403  0.0492 -0.0422 -0.2768
27587W        W42434   1.392   1.075  16.145 -0.1861  0.0307  0.1879
27588W        W42435  12.151  15.649  15.625  0.0844  0.3140 -0.0630
27589W        W42436  14.091   9.265  14.217  0.2413  0.3483 -0.1985
27590W        W42437   8.142   8.907   3.956 -0.1426  0.2712 -0.0895
27591W        W42438  14.448   7.222   1.973 -0.0084  0.3085  0.1463
27592W        W42439   9.915  13.643   1.672 -0.1479  0.4403  0.1587
27593W        W42440   7.063  15.040   2.469 -0.3452  0.0995  0.3852
27594W        W42441  16.356   0.408   1.459  0.1373  0.1538 -0.0051
27595W        W42442  14.565   0.606  11.955 -0.2563 -0.0244 -0.1453
27596W        W42443   4.417   0.911   1.176  0.2423 -0.1599  0.1875
27597W        W42444   4.101   7.644  16.007  0.2243  0.1419 -0.0599
27598W        W42445  10.664  10.642  15.136 -0.1270  0.1169 -0.0680
27599W        W42446  13.670   2.485  12.982  0.0551  0.0524 -0.5614
27600W        W42447   5.911   1.003   4.521 -0.0956  0.0676 -0.1264
27601W        W42448  15.468   8.915   4.762 -0.0443 -0.0265  0.1064
27602W        W42449  12.802  15.372  11.902 -0.0603 -0.2465 -0.2751
27603W        W42450   9.941   4.694   1.482 -0.0344 -0.4753 -0.1350
27604W        W42451   2.032   1.883  15.388  0.1507  0.3200 -0.0787
27605W        W42452  10.877  14.983   5.490  0.1424  0.1803  0.2229
27606W        W42453  14.068   5.539   1.268 -0.0678  0.1819 -0.0438
27607W        W42454   3.746   2.269   5.792  0.1301 -0.0782 -0.0421
27608W        W42455   4.889   6.794  12.203 -0.0207  0.1495 -0.1299
27609W        W42456   4.584  12.645   0.533  0.1231  0.0388  0.2976
27610W        W42457   3.951  11.247   2.342  0.2288  0.0084 -0.2241
27611W        W42458   7.979  16.670  15.657 -0.0855  0.2893  0.0405
27612W        W42459   8.180  14.185   1.867  0.1990 -0.0393 -0.1333
27613W        W42460   3.165  14.743   3.590 -0.0545 -0.0993  0.0055
27614W        W42461  12.734   8.544   6.241 -0.0634  0.0056 -0.1077
27615W        W42462  11.037   2.011   5.543  0.2075  0.2998 -0.1679
27616W        W42463   9.578  17.385  14.562  0.1503 -0.4421  0.2654
27617W        W42464  10.050  15.302   1.912 -0.2646 -0.1187  0.0276
27618W        W42465   8.236   1.966   1.266 -0.1702 -0.0525  0.1243
27619W        W42466  11.191   5.033   4.683 -0.1545  0.1059 -0.2084
27620W        W42467  12.458  16.807  14.191 -0.1423  0.2675 -0.1587
27621W        W42468  10.389   3.978   0.791  0.2049 -0.1122  0.2371
27622W        W42469   8.148  12.518  16.264 -0.3491  0.1008 -0.0986
27623W        W42470   2.490   2.447  12.621  0.3032 -0.0834  0.0100
27624W        W42471  10.067  10.635   4.674  0.1084  0.0339 -0.1995
27625W        W42472  14.285   8.305  14.622  0.0868 -0.0805  0.0360
27626W        W42473   3.817  12.108  16.527  0.2051 -0.2243  0.1081
27627W        W42474  11.699  14.261  16.505  0.0093  0.1424  0.1838
27628W        W42475  11.688   7.443  12.771  0.2477  0.0349  0.3155
27629W        W42476   3.814   1.861   2.608  0.0499  0.1412  0.0421
27630W        W42477   3.060  14.592  14.690 -0.3292  0.3347  0.0216
27631W        W42478   3.367  14.851   3.092 -0.3549 -0.0379  0.0810
27632W        W42479   1.390   5.459  15.754  0.1851 -0.0302 -0.1467
27633W        W42480   0.663   2.833   5.085 -0.0351 -0.0893  0.1497
27634W        W42481   1.735  16.812  17.331 -0.1797  0.2751  0.1639
27635W        W42482  10.830   5.634  16.295 -0.2248  0.3847 -0.0119
27636W        W42483  14.554   3.279  17.267 -0.1283 -0.3629  0.0740
27637W        W42484   3.190  15.562   1.963 -0.2224  0.0426 -0.0674
27638W        W42485   2.224  14.055  17.450 -0.0428 -0.2633  0.1214
27639W        W42486   1.722  11.402   6.171  0.0177 -0.0226  0.3476
27640W        W42487   5.546   4.689   2.314 -0.1134 -0.1228  0.2478
27641W        W42488   1.072   8.619   4.962 -0.1853 -0.1105  0.0976
27642W        W42489  10.661  11.639  12.645  0.3208 -0.0168 -0.2520
27643W        W42490   4.161   5.160   2.842 -0.0434  0.0749 -0.1444
27644W        W42491   4.610  17.506  14.153 -0.2110  0.0725 -0.0509
27645W        W42492  13.651  11.285   4.547  0.0569  0.1112 -0.2411
27646W        W42493   3.678  11.265   1.894 -0.0579  0.0375  0.4397
27647W        W42494  10.522  11.105   7.001 -0.1108 -0.1873  0.1093
27648W        W42495  10.293  11.240  16.297 -0.2180 -0.2169  0.0551
27649W        W42496   4.708  16.073  16.818  0.0366  0.0426 -0.0968
27650W        W42497  11.230  10.752   0.948  0.1558  0.2541 -0.2240
27651W        W42498   7.941   4.464  15.715 -0.2153 -0.0122 -0.2648
27652W        W42499   5.328  16.717   0.463 -0.0782 -0.0691  0.1166
27653W        W42500  10.925   8.097   2.464  0.0973 -0.0669 -0.0125
27654W        W42501   6.109   9.091   1.886  0.1020  0.0346  0.0484
27655W        W42502   6.893  12.016  11.673 -0.3593  0.0344 -0.1322
27656W        W42503  14.424   1.840   1.777 -0.1515  0.0236  0.0672
27657W        W42504  16.495  12.543  15.515  0.0310  0.1306  0.1974
27658W        W42505   3.269   3.225   4.655  0.3905  0.1333 -0.2756
27659W        W42506   1.113   7.129  13.823  0.0623  0.2233 -0.2767
27660W        W42507  11.382   9.974  14.404 -0.1708  0.1251  0.1443
27661W        W42508   2.161   5.314  14.350 -0.1486 -0.0419  0.1119
27662W        W42509  10.036   2.983   5.002 -0.1354 -0.0025  0.1009
27663W        W42510   3.098   3.431  12.182 -0.1463 -0.3002  0.4051
27664W        W42511   5.038   1.857  12.250  0.2378  0.3793  0.1183
27665W        W42512   6.595   6.457   1.097 -0.0324 -0.2608 -0.1083
27666W        W42513   4.145   4.731   4.408 -0.1150 -0.0019  0.0425
27667W        W42514  17.260  10.662   6.104  0.0125 -0.0765  0.0479
27668W        W42515  14.217  11.140  14.048 -0.1934  0.3296  0.0759
27669W        W42516   4.227   6.126   0.261 -0.1738  0.0500  0.0712
27670W        W42517   6.085  15.443  16.173 -0.0868 -0.1529 -0.0271
27671W        W42518  13.150  13.852  13.736 -0.3448  0.1629  0.0830
27672W        W42519   9.116  13.745   1.128  0.0735  0.0235  0.2417
27673W        W42520   7.263  17.018  17.475  0.3389  0.0688  0.1074
27674W        W42521   4.196   9.521  16.634 -0.1686  0.2534 -0.0666
27675W        W42522   1.992  10.493  16.466 -0.1209 -0.1195 -0.0734
27676W        W42523   8.534   9.125   4.865 -0.1340  0.1597 -0.1282
27677W        W42524   8.738   9.636   2.283 -0.1020 -0.1195  0.2684
27678W        W42525  16.442   7.155   0.540 -0.0672 -0.1150  0.1339
27679W        W42526  12.602  15.853  14.364 -0.0040 -0.1939 -0.3396
27680W        W42527   1.808  11.881   0.212 -0.2518  0.4836 -0.1942
27681W        W42528  17.141   2.032   3.136 -0.1771 -0.3734 -0.0868
27682W        W42529   7.684   8.126  13.929  0.1453 -0.0412 -0.0710
27683W        W42530   1.601  10.415   0.433  0.6812 -0.2033  0.1389
27684W        W42531  12.104   1.679   0.196  0.0624  0.6871  0.1518
27685W        W42532  12.585  12.669  15.287 -0.0350 -0.1762 -0.1105
27686W        W42533   1.002   8.004   3.193  0.0337 -0.2351 -0.0621
27687W        W42534   9.118  17.389  13.532 -0.0913 -0.0462 -0.2934
27688W        W42535   9.659  13.817   1.106  0.0074  0.1557 -0.1586
27689W        W42536   9.063   8.933  12.644 -0.5172  0.0802 -0.2706
27690W        W42537  11.868  10.144  14.498 -0.0284  0.2362  0.1466
27691W        W42538   0.465  16.321  13.350  0.0923  0.1189 -0.2429
27692W        W42539   3.515   0.498   6.666  0.0598 -0.0383 -0.1758
27693W        W42540   7.160   1.602  11.751 -0.0536 -0.2507 -0.2985
27694W        W42541   6.467   8.820   0.495 -0.5624 -0.0957  0.1019
27695W        W42542  17.338  14.761  15.408  0.0975  0.2627 -0.0950
27696W        W42543   7.400  15.297   1.428  0.2480 -0.1428  0.0408
27697W        W42544   2.453   5.003  11.729  0.1043 -0.1880 -0.0186
27698W        W42545   9.182   7.910  12.391  0.0932 -0.0024 -0.0265
27699W        W42546  10.369  14.165  17.511  0.2139  0.1741 -0.3685
27700W        W42547  12.120   2.957  16.513 -0.0595 -0.2184  0.1140
27701W        W42548   8.624   4.506   3.841 -0.3982  0.0976 -0.2003
27702W        W42549   3.560  10.336   5.416  0.0658 -0.0732  0.1218
27703W        W42550   4.744   0.953  16.573  0.1311 -0.4840 -0.2492
27704W        W42551   4.165  14.819  13.190 -0.0722 -0.2357 -0.0024
27705W        W42552   6.329   0.059   1.756  0.2891  0.0008  0.2402
27706W        W42553  14.341  13.939   1.351 -0.4337  0.1861 -0.0379
27707W        W42554  16.663   9.076   2.427 -0.0663 -0.0073 -0.5370
27708W        W42555   5.832   8.982  13.967  0.0581  0.1473  0.0521
27709W        W42556   8.792  17.131   4.906  0.0296  0.4017  0.0674
27710W        W42557  17.490  13.241   2.152  0.1649 -0.1147  0.2613
27711W        W42558   3.264   5.244   3.519  0.0665 -0.1971 -0.1823
27712W        W42559   5.977  15.489   0.854 -0.0006 -0.1791  0.4303
27713W        W42560   9.359   3.596   4.928  0.0233  0.2774 -0.0906
27714W        W42561   0.612   0.123   3.957 -0.2840  0.1553 -0.4465
27715W        W42562   3.347   0.583   2.309  0.4323 -0.0305 -0.2933
27716W        W42563   5.524   0.880   5.729  0.1529 -0.1189  0.2669
27717W        W42564   1.835   2.824  12.460 -0.1657 -0.5019  0.1137
27718W        W42565  13.332   1.788  17.223 -0.0190  0.0864 -0.3044
27719W        W42566  14.614   6.309  12.101 -0.2636 -0.3765 -0.0255
27720W        W42567  13.680   9.737  16.709  0.1077  0.3766  0.0858
27721W        W42568   2.270   3.532   3.224 -0.1838 -0.1505  0.0895
27722W        W42569  16.245   1.941   0.228  0.1138  0.1035 -0.3728
27723W        W42570  17.566  13.434  14.151  0.1029  0.1970 -0.1650
27724W        W42571   7.600  11.889   1.660 -0.0153 -0.2553 -0.2387
27725W        W42572  11.889   4.565   4.621 -0.1691  0.0255 -0.1807
27726W        W42573   9.707   8.877  15.001  0.0813 -0.0318 -0.1108
27727W        W42574   7.986   4.996   1.085 -0.0755 -0.1652 -0.1777
27728W        W42575   0.694   9.157   1.985  0.0609  0.1403 -0.0982
27729W        W42576  14.405   2.501   5.119 -0.1531 -0.0617 -0.2762
27730W        W42577   3.924   8.551  14.783  0.0557  0.1774  0.1200
27731W        W42578  14.807   7.958   2.701 -0.0325 -0.1812  0.1214
27732W        W42579  17.546   2.447   5.279 -0.4073 -0.0112 -0.0926
27733W        W42580   5.138   4.325  13.600 -0.0793 -0.1070 -0.2283
27734W        W42581  12.084   6.115  12.212 -0.3825 -0.0854 -0.0380
27735W        W42582   0.712   2.227   5.680  0.1882 -0.2092 -0.2142
27736W        W42583  15.517  14.635   4.374 -0.2343  0.2192 -0.3549
27737W        W42584   1.580   0.053  11.855 -0.2636 -0.0970 -0.0164
27738W        W42585  13.455   5.264   2.231  0.1466 -0.2756 -0.2279
27739W        W42586   3.927   5.722   2.115 -0.0462 -0.0935 -0.1083
27740W        W42587   2.940   5.282  15.362 -0.4455 -0.1037  0.1200
27741W        W42588  17.645  11.057  13.727  0.3509 -0.0948  0.1426
27742W        W42589   6.189   2.458  14.809  0.2079  0.1796  0.0632
27743W        W42590  13.085  16.798  16.321 -0.2618  0.0056  0.2145
27744W        W42591   4.637   5.004  14.952  0.0375 -0.1095  0.1016
27745W        W42592  14.412   9.601   2.210  0.2037 -0.0228  0.0603
27746W        W42593   9.799  15.105   4.736 -0.3451 -0.0727  0.0131
27747W        W42594   6.774   3.288  14.957  0.0244  0.3801 -0.0731
27748W        W42595  13.902   6.901  13.100 -0.2604 -0.2551 -0.1749
27749W        W42596   5.182   4.158  15.947  0.1241  0.0036  0.1304
27750W        W42597   7.588  10.228   4.256 -0.2761  0.0887 -0.0257
27751W        W42598   4.057  12.701  12.288 -0.0213 -0.0692 -0.1538
27752W        W42599   3.981  14.042  12.590 -0.1810  0.0509 -0.0077
27753W        W42600  10.118  10.331   2.359  0.1332 -0.0863  0.1542
27754W        W42601   7.589  12.252   5.730 -0.0795 -0.2447 -0.2644
27755W        W42602  16.587   1.110   3.326  0.2688  0.4250  0.0935
27756W        W42603   5.035  11.602  17.385  0.0973  0.1440 -0.5007
27757W        W42604   6.608   1.973  16.615 -0.2134  0.1260 -0.3208
27758W        W42605   5.754  17.669  16.470 -0.1977  0.3078  0.0563
27759W        W42606  16.025   6.793   4.214  0.1455 -0.1443  0.2502
27760W        W42607   2.558   3.146   2.907  0.2741  0.2870 -0.2026
27761W        W42608   6.983   3.557  16.069 -0.1792  0.1289  0.1333
27762W        W42609   0.879   4.581  14.429 -0.1131  0.0672  0.3353
27763W        W42610  15.988  15.827  17.457 -0.1138 -0.0904 -0.1755
27764W        W42611  10.966  11.219   3.803 -0.0335  0.2580  0.0690
27765W        W42612  13.498   2.814   0.638 -0.1341 -0.0185  0.3818
27766W        W42613   4.947  11.208  13.347  0.0094 -0.3938 -0.1202
27767W        W42614  16.446  17.209  13.188  0.1266 -0.2014 -0.0408
27768W        W42615  10.649   7.354  16.088  0.2280 -0.0169  0.2590
27769W        W42616  10.977   9.000   2.842 -0.0538  0.0282 -0.0952
27770W        W42617   5.842   5.275   2.672  0.1228 -0.0702  0.3183
27771W        W42618   2.457   8.931   2.076  0.3840  0.0823 -0.1828
27772W        W42619   8.611  12.400   0.593  0.2678  0.0332 -0.0726
27773W        W42620   3.246   9.335   4.492  0.1348  0.2311  0.1079
27774W        W42621   3.302   7.780   4.287 -0.2539  0.3636  0.1245
27775W        W42622   3.448  15.330   5.197  0.3351  0.2908 -0.0570
27776W        W42623  10.364   1.472  16.656 -0.0011 -0.2246  0.3630
27777W        W42624  16.720  15.998   1.275 -0.1244 -0.2411 -0.0746
27778W        W42625   8.745   9.661  14.860  0.2685 -0.1269 -0.1248
27779W        W42626   5.058  15.573  16.193  0.2828 -0.3237  0.1839
27780W        W42627   9.415  11.575   1.879  0.2584 -0.1501 -0.3222
27781W        W42628  16.654   3.580   0.034  0.1201 -0.2068 -0.1379
27782W        W42629   9.648  10.755   3.927 -0.1390 -0.0914 -0.0133
27783W        W42630   1.175   0.224  16.630  0.0812 -0.0152 -0.2666
27784W        W42631   7.984   0.309   5.431  0.2192  0.1155  0.1295
27785W        W42632   6.180  15.831   1.643  0.2737 -0.0698 -0.1461
27786W        W42633   6.461  11.764   2.721 -0.0802 -0.0506  0.2471
27787W        W42634  15.389  16.779  13.446 -0.1264  0.0019 -0.1179
27788W        W42635   0.982   9.968  17.112 -0.2499 -0.0665 -0.1848
27789W        W42636   4.741   9.528  15.093  0.0112 -0.1964 -0.0001
27790W        W42637   7.036   6.344   1.679  0.1601  0.0777 -0.0188
27791W        W42638   0.071   4.181  17.341  0.2874 -0.1778 -0.4544
27792W        W42639   3.528   1.585   1.731  0.1925 -0.3288  0.0059
27793W        W42640   4.647  11.717  15.066  0.0655  0.1120 -0.0620
27794W        W42641  15.249   0.498   4.034  0.1854 -0.0902 -0.0907
27795W        W42642   2.449   6.769  16.491 -0.1327 -0.3804  0.2391
27796W        W42643  10.445   4.468   2.149 -0.1330 -0.2566  0.0953
27797W        W42644   6.203   1.430  13.454 -0.1044  0.1888 -0.0068
27798W        W42645  12.897  15.434  12.864  0.2523  0.0719  0.3074
27799W        W42646  14.179   2.330   0.140  0.1380 -0.0533 -0.1448
27800W        W42647  15.534  12.041   2.656  0.1134  0.0985  0.2094
27801W        W42648   6.977   9.765   3.750 -0.1345  0.2594 -0.0842
27802W        W42649  14.632   1.565   5.215 -0.4392  0.0435  0.0192
27803W        W42650   2.876  14.853  13.253 -0.0333 -0.0564  0.3042
27804W        W42651   9.273   8.662   0.390 -0.1448  0.1976  0.0662
27805W        W42652   9.038  11.142   0.755 -0.0481 -0.1230 -0.3562
27806W        W42653  15.798   9.810   3.020  0.0476 -0.2548 -0.1077
27807W        W42654  13.929   7.687  16.333  0.0740  0.0033 -0.1232
27808W        W42655  13.492  16.017   3.904 -0.0691 -0.0182 -0.1257
27809W        W42656  16.141   5.273   4.231 -0.1295 -0.1439 -0.1257
27810W        W42657   6.374   0.140   1.181  0.1070 -0.0667 -0.0715
27811W        W42658   3.293   0.611   0.503  0.3068 -0.1953 -0.1523
27812W        W42659  10.302   4.213  13.871  0.2110  0.0511  0.0353
27813W        W42660   5.930   9.479   0.895  0.0917 -0.0869  0.0089
27814W        W42661  17.389  12.794   4.240 -0.0038  0.1018 -0.1888
27815W        W42662   7.290  14.507  17.666  0.0858  0.3265 -0.3342
27816W        W42663  11.017  13.527  16.297 -0.0681 -0.0382 -0.1573
27817W        W42664   0.497   5.914  14.895  0.0205 -0.1089 -0.0240
27818W        W42665  11.726   9.764   0.190  0.1808  0.0275 -0.3071
27819W        W42666   0.708  12.528   1.728 -0.0841 -0.1418 -0.2765
27820W        W42667   5.075  14.604  12.840  0.2326 -0.4289  0.1116
27821W        W42668   2.995  17.561  11.993  0.0058  0.4138  0.1889
27822W        W42669   3.031   2.888  15.036 -0.2422  0.0941 -0.0989
27823W        W42670   0.116   3.441   3.001  0.1493  0.1515 -0.0748
27824W        W42671  11.401   6.163  14.952 -0.1546  0.1121 -0.1281
27825W        W42672   3.714  10.442   4.343  0.1539 -0.3050 -0.0701
27826W        W42673   0.287   0.684  12.104 -0.1309  0.0681 -0.0231
27827W        W42674  13.147   8.993   4.314  0.1014 -0.1818 -0.2190
27828W        W42675   6.940  10.960   3.682 -0.0689 -0.3064  0.0457
27829W        W42676  15.277  16.806  15.188  0.0859 -0.0147 -0.0818
27830W        W42677   9.550   3.809  12.665 -0.3036  0.1217  0.1511
27831W        W42678  10.576   4.486  12.055  0.1397  0.1282 -0.0034
27832W        W42679  13.784  11.897   2.297 -0.2304  0.1246  0.2299
27833W        W42680   3.290  10.609  15.779 -0.1833  0.0308  0.2793
27834W        W42681   3.387  11.653  11.647 -0.2678  0.1387  0.0986
27835W        W42682   7.011   8.535   4.756  0.0473 -0.1441  0.0770
27836W        W42683   9.813  15.795   0.264 -0.2486  0.2393 -0.1289
27837W        W42684  15.289   3.320   0.304 -0.1847  0.0541 -0.0695
27838W        W42685  11.128   2.146   6.501 -0.0776 -0.3663  0.2140
27839W        W42686  16.951  14.165   6.505  0.2134 -0.1414  0.0034
27840W        W42687  13.724  16.515  13.976 -0.0607 -0.1235  0.2173
27841W        W42688  13.187  12.978   2.010 -0.0515  0.0219 -0.3839
27842W        W42689  16.192   8.100  13.549  0.1347  0.1588 -0.3476
27843W        W42690   4.019   7.126   3.947 -0.0486 -0.0795 -0.2571
27844W        W42691  16.871  17.653   5.908 -0.2218  0.1307 -0.1369
27845W        W42692  14.982   0.812  12.621 -0.1570  0.0898  0.0866
27846W        W42693   9.523   8.175  12.640  0.0683  0.1426 -0.0451
27847W        W42694  11.648  12.116   3.912 -0.1261  0.0748  0.0239
27848W        W42695   4.797  15.216  14.984  0.0116 -0.1515 -0.1006
27849W        W42696   9.737  12.912   2.123  0.0557  0.3813  0.2646
27850W        W42697   2.147  13.886   5.092 -0.0835  0.1380 -0.1555
27851W        W42698  14.439   4.627   2.888  0.1333 -0.1494 -0.0181
27852W        W42699  14.880   2.959  17.530  0.0688  0.2605 -0.0831
27853W        W42700   1.049  10.356  13.561 -0.1998  0.2240  0.0187
27854W        W42701  12.803  10.094   3.207  0.1071  0.1445  0.0211
27855W        W42702   5.884  12.915  12.555  0.0840  0.2474 -0.0343
27856W        W42703   3.845  16.772  13.840 -0.0089  0.0814 -0.2467
27857W        W42704  11.952   8.765  15.690  0.1827  0.1760  0.1697
27858W        W42705   0.997   2.286   4.317  0.0262 -0.3261  0.1466
27859W        W42706  15.704   9.265   0.153  0.2593 -0.1029  0.1807
27860W        W42707  13.411   0.626   3.777 -0.2914  0.0757  0.3209
27861W        W42708   4.223  15.200   1.321  0.0704 -0.3017  0.1070
27862W        W42709   7.454  13.903  14.032 -0.1168  0.2007  0.1937
27863W        W42710   3.392  16.587  14.572 -0.3061  0.0942  0.2120
27864W        W42711  14.058   0.556   5.702  0.3443 -0.0194 -0.1712
27865W        W42712   2.908  11.805  12.522  0.0392 -0.4508 -0.1911
27866W        W42713   9.942   1.312  14.719 -0.0887  0.0504  0.1549
27867W        W42714  13.476   6.631   2.266  0.3527  0.1839 -0.1196
27868W        W42715  13.595   0.596   5.989  0.0646  0.0977 -0.2237
27869W        W42716   9.981  16.994  12.309  0.0297 -0.2194  0.0607
27870W        W42717  10.842  11.200  12.319  0.1459  0.2162 -0.0600
27871W        W42718  12.009  15.092  17.025 -0.3255 -0.2628 -0.0864
27872W        W42719   2.060   2.042   2.575  0.3558 -0.2664  0.1688
27873W        W42720   8.639   0.242  16.904  0.1803  0.1359  0.0818
27874W        W42721  14.672  15.881  14.938 -0.2729  0.0514  0.0372
27875W        W42722  10.582   9.653  16.646 -0.0569 -0.1271  0.1482
27876W        W42723   1.987   2.770   5.425 -0.0731  0.1150 -0.2155
27877W        W42724   8.133   8.282  15.858 -0.1073 -0.3215 -0.2102
27878W        W42725  13.025   0.894  10.990 -0.3178 -0.0274  0.0051
27879W        W42726  13.905   2.494   4.851 -0.1024  0.0352 -0.0976
27880W        W42727   3.070  11.113  17.094 -0.0418  0.1897 -0.1516
27881W        W42728  13.732   2.282  15.805 -0.0323 -0.0453 -0.1348
27882W        W42729  11.392   2.034  13.882 -0.1604  0.1998  0.1408
27883W        W42730   6.320   1.901  14.717  0.0709 -0.4646 -0.0739
27884W        W42731  14.067  16.394  13.607  0.1373 -0.2117  0.1233
27885W        W42732   0.406   6.613   1.360 -0.0908  0.2465 -0.1584
27886W        W42733  17.310  12.424  11.258 -0.0773  0.2350 -0.0482
27887W        W42734   5.543  10.429  12.925 -0.3794  0.0503  0.1614
27888W        W42735   6.799  12.591   1.930 -0.0748 -0.1011  0.0691
27889W        W42736  15.142  17.405  15.356  0.1820 -0.0991  0.1254
27890W        W42737   9.411   0.221   3.949 -0.0924 -0.1670 -0.0166
27891W        W42738   9.412   1.487  17.254 -0.1312 -0.3516  0.1968
27892W        W42739  14.525  15.813   1.086 -0.2016  0.2498 -0.1911
27893W        W42740   4.996   2.400   1.067 -0.1737 -0.2294 -0.0165
27894W        W42741   9.215  17.140   6.084 -0.0110 -0.1012  0.3295
27895W        W42742   5.828   2.392   2.333  0.1552 -0.0312 -0.0251
27896W        W42743  11.472   3.615  17.376 -0.0045  0.1812 -0.1700
27897W        W42744   1.535  11.700  12.562  0.1041  0.1741 -0.0427
27898W        W42745   8.705   4.699  12.896 -0.1550 -0.0273 -0.1168
27899W        W42746   5.352  10.494   3.807  0.0061 -0.4268 -0.1314
27900W        W42747   7.387  14.112  16.303  0.2216 -0.4281 -0.0341
27901W        W42748   7.193   4.057  13.309  0.0532  0.1506 -0.0479
27902W        W42749   4.141  14.611   5.249 -0.0262 -0.0886  0.0208
27903W        W42750  11.711   2.707  15.256  0.2537  0.0384  0.2218
27904W        W42751   8.407   8.692  17.592  0.0015  0.2942  0.0347
27905W        W42752   2.062   9.545  11.159 -0.1689 -0.2427 -0.1273
27906W        W42753  16.530   6.865   1.932 -0.0032 -0.0015  0.1088
27907W        W42754   2.986   8.010  12.466 -0.1434  0.0396  0.3576
27908W        W42755   8.457  17.105   2.130 -0.1306 -0.0354  0.0799
27909W        W42756   5.160   0.614   1.051  0.0275 -0.1490  0.0836
27910W        W42757   6.546  17.011  11.773 -0.1407 -0.1496  0.3593
27911W        W42758   9.291   0.760   5.106 -0.0615  0.0027 -0.2672
27912W        W42759  14.867   9.442   5.569  0.5114  0.3934  0.2692
27913W        W42760  14.728  17.150  17.188  0.0081 -0.3652 -0.1113
27914W        W42761  13.658  13.489   6.451  0.1782  0.1403  0.2538
27915W        W42762   0.946   4.620   4.332  0.0822  0.0174 -0.1281
27916W        W42763   9.585  12.457  14.308  0.3856 -0.1416 -0.4023
27917W        W42764   0.571   9.813   0.352 -0.0849 -0.2195  0.3251
27918W        W42765  10.879   5.397   3.895  0.2640 -0.1260 -0.1320
27919W        W42766   9.257   7.369  12.365 -0.1956 -0.2585 -0.0515
27920W        W42767   2.052   2.731   5.947 -0.0736 -0.1698 -0.1135
27921W        W42768  12.530   6.224   4.887  0.0162  0.0532 -0.0577
27922W        W42769  10.512  15.068   0.887  0.1847 -0.1362 -0.3741
27923W        W42770   0.457  11.321   0.618 -0.1549 -0.1858 -0.0852
27924W        W42771  11.090  10.799  12.437 -0.2361 -0.0314 -0.2002
27925W        W42772   1.606  17.105   1.464 -0.1293 -0.0587  0.0028
27926W        W42773  17.379   1.304  13.163 -0.4484  0.0621 -0.2553
27927W        W42774  15.226   6.016  14.612  0.0760  0.3408 -0.2851
27928W        W42775   0.838   1.470   1.418 -0.0369  0.0470 -0.0257
27929W        W42776   6.021  15.218  14.917 -0.1497 -0.3073 -0.2216
27930W        W42777   4.750   8.350   4.046 -0.1002 -0.2617  0.0439
27931W        W42778   9.339  15.198  16.563 -0.0098  0.1368  0.2036
27932W        W42779   5.002   3.769   4.545 -0.0910  0.0687  0.0720
27933W        W42780   5.740   5.178  14.817 -0.0395  0.2536  0.5967
27934W        W42781  15.788  11.793  16.331 -0.0869  0.2360 -0.0869
27935W        W42782   2.151  10.721   5.303  0.1703  0.1695 -0.1128
27936W        W42783   0.449   4.726   4.314  0.0309 -0.0765  0.0293
27937W        W42784   1.712  15.850   6.053 -0.2670 -0.1205 -0.1790
27938W        W42785   1.370  16.009   3.095  0.0907 -0.0008  0.0858
27939W        W42786   5.776  10.081   2.297  0.0371 -0.2402  0.0462
27940W        W42787   9.411   5.040   4.059  0.0738  0.0409 -0.3528
27941W        W42788   4.763   7.387  14.586  0.1207 -0.2769 -0.0574
27942W        W42789   1.325   6.784   5.417 -0.1403 -0.1397 -0.0245
27943W        W42790   8.041   3.801   2.800 -0.1577 -0.0076  0.0041
27944W        W42791   8.379   8.476   0.820  0.0075 -0.0629  0.1805
27945W        W42792  15.977   8.522   3.601 -0.0776  0.0673 -0.1696
27946W        W42793   3.124   1.088   4.386 -0.0201 -0.3395 -0.0254
27947W        W42794   7.345  11.055  13.714 -0.0278  0.4487  0.0610
27948W        W42795  12.139  13.836  12.334 -0.0955 -0.3579  0.0752
27949W        W42796   0.079  11.221  13.247 -0.1337  0.0593 -0.3557
27950W        W42797  15.426   6.616  16.520 -0.0611 -0.0866  0.0698
27951W        W42798   4.516  17.042   5.478  0.1734  0.3945 -0.0922
27952W        W42799   9.074   4.246   3.828  0.0650  0.1703  0.0370
27953W        W42800   2.666   2.435   2.119 -0.2751  0.0793 -0.0426
27954W        W42801  16.905   2.443   2.981 -0.1822  0.0140 -0.0627
27955W        W42802  11.922   3.659  12.832 -0.1109 -0.2490  0.0184
27956W        W42803  11.370   4.164   0.559  0.2491 -0.1549  0.1694
27957W        W42804   7.370   3.283  11.577  0.4259 -0.1755  0.2402
27958W        W42805  12.660   4.314   2.761 -0.0468  0.0781 -0.1839
27959W        W42806  13.120   6.568   2.760  0.3052 -0.0376 -0.0657
27960W        W42807   4.599   6.327  12.642 -0.3249  0.0662  0.4456
27961W        W42808   2.798   3.289   5.344  0.3040 -0.1992 -0.1713
27962W        W42809  14.830  11.131   3.518 -0.4354  0.1702  0.1256
27963W        W42810   0.320  10.767   0.123  0.2986  0.0682  0.0093
27964W        W42811  14.429  10.062  13.524 -0.3444 -0.0238  0.1865
27965W        W42812   4.207  11.941   5.995  0.0008  0.1795  0.1209
27966W        W42813   8.145   9.426  12.429  0.2381  0.2618  0.0712
27967W        W42814  17.052  10.195  16.705  0.0025 -0.1590  0.2113
27968W        W42815   0.912  16.392   5.102  0.0458  0.2699 -0.0200
27969W        W42816  17.514  10.021  12.079  0.0958  0.2864  0.0831
27970W        W42817  17.503  10.933   7.014 -0.0055 -0.1489  0.0070
27971W        W42818  10.735   9.879  12.400 -0.0713  0.1079 -0.1064
27972W        W42819   8.279   4.336   2.854  0.1453 -0.2840 -0.0327
27973W        W42820   3.158   7.918   4.694  0.0818 -0.1102 -0.0416
27974W        W42821  17.398   9.037   1.350 -0.0010  0.1360  0.0052
27975W        W42822  16.386  15.554  15.886  0.0606 -0.0825  0.2478
27976W        W42823   4.704   2.190  14.265 -0.2267 -0.3063 -0.1560
27977W        W42824  10.708   7.607   6.022 -0.2865 -0.0636  0.1735
27978W        W42825   5.652   6.442   0.042  0.0638  0.0085 -0.0523
27979W        W42826  13.159   9.225  14.018 -0.0687  0.2094 -0.1101
27980W        W42827  13.416   9.507   0.187 -0.2882  0.1355  0.0118
27981W        W42828  10.150  17.341   4.698  0.1159  0.1205 -0.1528
27982W        W42829  15.138   4.513   0.488 -0.0693  0.0696  0.3838
27983W        W42830  13.190  16.401   0.040  0.0412  0.0297  0.1470
27984W        W42831   1.220   4.805   4.835  0.2433  0.0434 -0.1349
27985W        W42832   6.059   1.369   0.717 -0.0749 -0.2200 -0.1376
27986W        W42833  11.537  13.928   6.918 -0.2381  0.1916 -0.0230
27987W        W42834   5.708   5.269  15.403 -0.3361  0.1160 -0.0131
27988W        W42835  10.396   7.048   0.403 -0.0557 -0.2154 -0.0281
27989W        W42836  17.576  10.562  16.673 -0.0805 -0.0432  0.1924
27990W        W42837  12.402   8.036   6.335 -0.1565  0.1211  0.2940
27991W        W42838  12.338  14.526   2.661  0.0176 -0.0637  0.0770
27992W        W42839  15.418   7.763  12.862  0.1102  0.1286 -0.2233
27993W        W42840   2.522  17.049   5.906 -0.0632  0.2265 -0.2614
27994W        W42841  15.432  10.017  14.145  0.1112 -0.2458  0.3228
27995W        W42842   5.170  14.778  16.775  0.0110 -0.1085 -0.1689
27996W        W42843  12.297  17.585  16.628  0.4329 -0.0161  0.0811
27997W        W42844   8.551  10.773  15.604 -0.2432 -0.2103 -0.1560
27998W        W42845  12.535  17.383   5.922 -0.1187 -0.0502 -0.1271
27999W        W42846   1.355  12.728  12.132  0.1311 -0.1657 -0.1452
28000W        W42847   2.880   6.772  16.051 -0.1749  0.1029  0.1302
28001W        W42848   4.717   2.676   3.445 -0.0445 -0.2362 -0.0398
28002W        W42849   4.829   3.280  12.778 -0.0191  0.0717 -0.1825
28003W        W42850  13.021  10.799  13.745 -0.1313 -0.0061 -0.1958
28004W        W42851   5.490  12.819   2.975 -0.1200 -0.4363 -0.2761
28005W        W42852   2.648   0.054  12.350  0.3526 -0.0487  0.2230
28006W        W42853  15.369  16.382   6.412 -0.0224  0.2002 -0.0669
28007W        W42854  10.792  14.223   0.682  0.2502  0.0476  0.1255
28008W        W42855  16.354   2.965   0.940  0.3029  0.2592 -0.0980
28009W        W42856   3.825   0.702  13.470 -0.2481 -0.0151  0.1715
28010W        W42857  10.525   9.932  13.962  0.0735 -0.0565 -0.0210
28011W        W42858   6.093   2.840  15.397  0.0199 -0.1152 -0.0937
28012W        W42859   2.723  16.490  12.284 -0.0524  0.3060 -0.1796
28013W        W42860   6.412   5.202   0.473 -0.1439  0.0176  0.1792
28014W        W42861   5.952   2.612   3.220  0.0429  0.3735  0.1205
28015W        W42862   1.272   9.471  12.528  0.0818 -0.1439 -0.1727
28016W        W42863  12.748  10.584   3.448  0.4556  0.2634 -0.1155
28017W        W42864   5.564   4.277   5.256 -0.1881  0.0491  0.0162
28018W        W42865   1.786   6.408  13.733  0.1286  0.1827  0.0417
28019W        W42866   6.251   3.193  17.345  0.0962  0.2844  0.1958
28020W        W42867  14.237  11.641   2.307  0.1210  0.0448  0.1503
28021W        W42868   7.581  16.321   1.474  0.0183 -0.1340  0.0698
28022W        W42869   5.017   1.886   0.141  0.0130  0.3051 -0.1661
28023W        W42870  16.335  10.694  16.252  0.3288  0.2393 -0.1043
28024W        W42871  17.510  13.113  17.555 -0.2002 -0.0190 -0.4157
28025W        W42872   0.080  10.168   3.356 -0.0568 -0.0227  0.1104
28026W        W42873   2.436  15.355  16.531  0.1159  0.0767 -0.2679
28027W        W42874   5.751   8.737  13.443  0.2375  0.0294  0.0555
28028W        W42875   7.259  10.429  12.503 -0.0289  0.3163 -0.0420
28029W        W42876   8.083  15.698  12.121 -0.3610  0.1406 -0.0750
28030W        W42877  16.554  12.175  12.663 -0.1063 -0.1100 -0.1551
28031W        W42878  15.990  15.747   1.558  0.0208  0.1817 -0.0581
28032W        W42879   8.130  11.246   2.815  0.1259  0.0904  0.2804
28033W        W42880   4.101  11.286  13.548  0.0600  0.0647 -0.0204
28034W        W42881   4.531   6.416   3.528 -0.0503  0.0955 -0.2155
28035W        W42882  16.968  11.527   3.831  0.2927  0.2234 -0.1040
28036W        W42883  10.777   6.955  11.859  0.2390  0.0922 -0.1321
28037W        W42884  15.762  16.965  14.140 -0.1515  0.0823  0.0597
28038W        W42885  17.090  12.982   3.101  0.1287  0.2315  0.0073
28039W        W42886   6.099   3.415  13.131 -0.2070 -0.0712  0.1774
28040W        W42887  15.165   5.993   4.924  0.0673 -0.1321  0.0017
28041W        W42888   1.968  10.843   6.195  0.3424 -0.0612  0.0280
28042W        W42889   3.098   8.900  12.861  0.0683 -0.2830 -0.1258
28043W        W42890  14.614   4.784  15.498  0.1988  0.0010  0.2761
28044W        W42891  14.261  17.219   3.466 -0.0879 -0.3140  0.0712
28045W        W42892   2.714  10.562  11.634 -0.2759 -0.0631 -0.0602
28046W        W42893   5.303   9.578   5.090  0.2011 -0.1170  0.4637
28047W        W42894  13.304  13.851   1.435 -0.0943  0.2289 -0.0466
28048W        W42895  16.678  14.982  13.830 -0.3255  0.1626  0.0094
28049W        W42896   7.090   9.650  12.650  0.1868  0.0345 -0.0854
28050W        W42897  13.396  16.099   2.430  0.1355 -0.2071  0.0159
28051W        W42898   4.176   4.474   1.992  0.1287 -0.1040 -0.0335
28052W        W42899  15.276  14.136  16.320  0.1120 -0.0442  0.0498
28053W        W42900  14.657  12.143  16.452  0.1361 -0.0186  0.0801
28054W        W42901  16.775  12.741   3.591 -0.0265 -0.0512  0.1635
28055W        W42902  16.525  15.794  17.543 -0.0186  0.1016 -0.0329
28056W        W42903   1.327   1.206   4.023 -0.1118 -0.0375 -0.2135
28057W        W42904  14.525  15.786   3.588  0.1049 -0.0947  0.1179
28058W        W42905  14.376  13.361   2.815  0.0984  0.1402  0.1028
28059W        W42906   5.340  12.465  17.082  0.2759 -0.1354  0.2226
28060W        W42907   4.278  15.079  16.356 -0.0793  0.0448 -0.2511
28061W        W42908  17.387  11.910   0.552  0.0162 -0.0779 -0.0041
28062W        W42909  11.599  11.441  13.211 -0.2016  0.3670 -0.0499
28063W        W42910  15.043  10.145  14.568  0.1555 -0.1948 -0.0826
28064W        W42911  14.875  12.582  17.505 -0.1911  0.0412  0.0171
28065W        W42912   2.687   4.149   0.219 -0.0009  0.0159  0.2821
28066W        W42913  10.681   4.869  15.846  0.1191 -0.0894  0.5320
28067W        W42914   1.047   0.411   2.862  0.0416  0.0030 -0.1328
28068W        W42915   8.412   0.791  14.405  0.2151 -0.0612  0.1930
28069W        W42916  12.382  10.157  13.246 -0.3503  0.5273  0.1409
28070W        W42917   0.506   1.048   0.948  0.0050 -0.0523  0.0167
28071W        W42918   2.067   3.984   5.734  0.1427 -0.1953 -0.1856
28072W        W42919   3.703   5.497   2.742 -0.0349  0.0096 -0.0530
28073W        W42920   4.361   8.742   5.386 -0.3799 -0.2047  0.0094
28074W        W42921  13.550   5.152  12.043  0.0582  0.1199 -0.3381
28075W        W42922  15.192  11.144  17.321  0.2908  0.0758  0.3899
28076W        W42923   8.295  11.883  12.035 -0.0590  0.1463 -0.0376
28077W        W42924   6.705   8.940   4.981  0.1373  0.0492 -0.1417
28078W        W42925  16.095   4.943   0.357  0.2709  0.0472 -0.0929
28079W        W42926   0.062   4.900  15.188  0.1741  0.3938  0.4504
28080W        W42927   0.615  11.309   4.507 -0.2320  0.1965  0.0713
28081W        W42928   4.167   4.830  15.593 -0.0045  0.2688 -0.2812
28082W        W42929  15.380   5.292  17.559 -0.1178 -0.0821 -0.0692
28083W        W42930   1.479   8.372   2.099 -0.4790  0.0806 -0.1744
28084W        W42931  14.851   8.923  15.414  0.2429 -0.0592  0.0100
28085W        W42932   1.830   4.150  15.331 -0.0874  0.2036 -0.2130
28086W        W42933  16.678   9.641   3.236 -0.0017 -0.1801 -0.2296
28087W        W42934   7.970   8.137  15.396  0.2375  0.0598 -0.2913
28088W        W42935   5.617   4.855  16.537  0.0118  0.0897 -0.1752
28089W        W42936   8.744   9.689  16.840  0.3589 -0.1747  0.0465
28090W        W42937   2.194  14.515  17.237  0.5185  0.2405 -0.2454
28091W        W42938   0.095  17.134   0.340  0.1210 -0.0366 -0.0724
28092W        W42939   7.786  12.131   5.208 -0.1215  0.0153  0.2591
28093W        W42940  17.423   1.935   0.104 -0.0096  0.3521  0.3255
28094W        W42941   2.344  12.495   5.643  0.0342  0.0252  0.1084
28095W        W42942   9.254   3.132  13.378  0.0463  0.2118 -0.1740
28096W        W42943  11.519  15.888  13.070 -0.1171  0.0111 -0.0390
28097W        W42944   7.249   0.455   1.980  0.0661  0.3567 -0.2422
28098W        W42945  13.902  11.653  16.418 -0.0514 -0.2130  0.0206
28099W        W42946   7.216  12.877   5.949 -0.0489  0.0920 -0.2886
28100W        W42947   0.319   2.123  12.114 -0.3228  0.1561 -0.1492
28101W        W42948  17.033  16.893   4.457  0.0222  0.0830  0.0922
28102W        W42949  17.021   6.209  17.444 -0.2896  0.0976 -0.0605
28103W        W42950   6.965   5.333  17.546 -0.3286 -0.3822  0.3407
28104W        W42951   1.527  14.817   2.710 -0.1210 -0.0313 -0.4097
28105W        W42952  14.395   5.914   0.716  0.0039  0.1805 -0.0052
28106W        W42953   0.350  10.985   3.379 -0.2251 -0.0768  0.0736
28107W        W42954   5.625   8.740  12.310  0.0714 -0.1629  0.0761
28108W        W42955   8.736  12.901   5.729  0.2779 -0.1144  0.2557
28109W        W42956  14.331  14.581   4.201 -0.1377 -0.1337  0.2869
28110W        W42957   9.183   5.494   0.296  0.0029  0.1460  0.0385
28111W        W42958   3.462  12.143   2.630  0.2438 -0.0799  0.0893
28112W        W42959  12.418  16.072   0.769 -0.0143  0.2825 -0.1251
28113W        W42960  16.454   0.439  13.721  0.1566  0.0846 -0.1236
28114W        W42961   6.332   6.450   2.157 -0.1503  0.1929 -0.0014
28115W        W42962  13.209   5.292  17.579 -0.0606 -0.0353  0.1089
28116W        W42963   7.300  16.417  15.801 -0.0218  0.0508  0.0977
28117W        W42964   7.820   8.614  11.649  0.0349  0.0755  0.0040
28118W        W42965   0.737  13.776  13.487 -0.0932 -0.3590  0.0369
28119W        W42966  14.580   0.354   3.263  0.1911  0.1367 -0.0949
28120W        W42967   9.753   6.803  12.910  0.1289 -0.3153  0.2392
28121W        W42968   5.577   8.900   3.680  0.0850 -0.3407  0.2118
28122W        W42969  15.809   3.279   1.685  0.3121 -0.3420 -0.2868
28123W        W42970   9.214   0.945   5.624  0.0120 -0.1035 -0.1424
28124W        W42971   0.985  15.663  14.607  0.2085 -0.1785 -0.4014
28125W        W42972  15.664  11.643  14.274 -0.2934 -0.1727 -0.2835
28126W        W42973  15.691  13.304   4.069 -0.3463 -0.0560  0.1183
28127W        W42974  14.613  13.846   0.294 -0.0151 -0.1426  0.3426
28128W        W42975   6.867  13.822  16.635 -0.1533 -0.0667 -0.1493
28129W        W42976   3.650   6.216   0.305 -0.1655 -0.1390 -0.1665
28130W        W42977  15.938  12.119  17.656 -0.2833 -0.0013  0.1413
28131W        W42978  17.350  13.455   1.691  0.3311  0.0304 -0.1167
28132W        W42979   1.951  13.446   4.911 -0.0135 -0.0593 -0.3586
28133W        W42980  12.824  16.368   5.579 -0.3464 -0.0152  0.2125
28134W        W42981  11.120   7.861   6.270  0.2395 -0.2305  0.1048
28135W        W42982  11.901  16.659  16.911 -0.1258 -0.3301  0.2849
28136W        W42983   4.698   4.537  12.544 -0.2764  0.2720 -0.0449
28137W        W42984  16.771  15.955  16.059 -0.0685 -0.2671  0.2419
28138W        W42985   3.131  13.349   6.685 -0.0324  0.3115 -0.1093
28139W        W42986  11.844  10.214   4.501 -0.1498 -0.1431 -0.0414
28140W        W42987   7.691  10.710  12.501 -0.4156 -0.0363  0.1254
28141W        W42988   0.424   9.068  17.501  0.0844 -0.0430 -0.1852
28142W        W42989  17.379  11.804   1.483 -0.2441  0.2908 -0.2204
28143W        W42990  12.758   7.265  12.753 -0.0682 -0.0079 -0.2203
28144W        W42991   3.695  13.991  13.224 -0.0661  0.1178  0.1219
28145W        W42992  13.964  17.503  17.212  0.0236 -0.1442  0.0356
28146W        W42993   6.055  15.315  12.864 -0.0209  0.1613  0.0800
28147W        W42994   8.091   7.366  17.346 -0.1745  0.1527 -0.0596
28148W        W42995  12.253   7.068  16.899  0.2000 -0.0014 -0.1353
28149W        W42996  11.586  14.222  17.000 -0.1562 -0.0098 -0.2386
28150W        W42997  14.167   9.594  16.067  0.0293  0.0220  0.3177
28151W        W42998  12.395  13.984   1.997 -0.2295 -0.2030  0.2028
28152W        W42999  15.080   8.117  15.767 -0.3482 -0.0755 -0.1202
28153W        W43000   0.642  11.678  14.714 -0.0058  0.0697 -0.1167
28154W        W43001  16.527   3.781  15.947  0.1228  0.0901  0.0215
28155W        W43002  11.358   4.449  16.970  0.1830 -0.1726 -0.1550
28156W        W43003  15.521  10.188   3.174 -0.1352 -0.0232 -0.0350
28157W        W43004   3.486  15.751   5.548  0.0454  0.1372  0.2601
28158W        W43005   0.424  11.171  14.715  0.2507 -0.0081  0.0108
28159W        W43006  12.271   8.655   4.858 -0.2044  0.0954  0.2131
28160W        W43007   9.216  17.598   5.672  0.0601  0.0116  0.0727
28161W        W43008   5.325   1.042   1.493 -0.0323  0.2324 -0.1464
28162W        W43009   0.096  13.311   1.226  0.3202  0.0072 -0.0554
28163W        W43010   8.541   4.091   0.301  0.0347  0.1382 -0.1170
28164W        W43011  13.534  12.585  15.960  0.0899  0.1940 -0.0015
28165W        W43012  15.731  16.825  16.032 -0.2131 -0.0936  0.1092
28166W        W43013   3.184   6.562   2.208  0.0571  0.0050  0.1418
28167W        W43014   2.080  15.324  16.153  0.1576  0.1139  0.4300
28168W        W43015   8.981   0.059   2.649 -0.3576  0.2988  0.1976
28169W        W43016  13.507  16.305   4.420  0.0900  0.3455 -0.2134
28170W        W43017  14.073   3.756   2.787  0.0071 -0.0200  0.0545
28171W        W43018   9.733  11.634   6.364 -0.1634 -0.1207 -0.0210
28172W        W43019   3.415  13.872  15.137  0.0447 -0.1471  0.1969
28173W        W43020   5.915   7.440  13.701 -0.1121  0.0315 -0.1819
28174W        W43021  16.101  13.628   2.830  0.0076  0.0306  0.2454
28175W        W43022   9.873   8.806  14.460 -0.1247  0.0600  0.0922
28176W        W43023   9.364   8.552   4.239  0.1149  0.0241 -0.0660
28177W        W43024  13.328   6.537   5.573  0.0102  0.2103  0.1359
28178W        W43025   5.397  11.446   2.214  0.0159 -0.0548 -0.3462
28179W        W43026   4.837  15.977   3.533 -0.1693  0.0352 -0.3816
28180W        W43027  14.096   2.283   3.846 -0.2159  0.1106  0.3102
28181W        W43028  16.147  12.604  16.108  0.0943 -0.1293 -0.2283
28182W        W43029   9.045   2.236   1.533 -0.3005 -0.0606  0.0603
28183W        W43030   9.015  14.412  14.918  0.6055 -0.0679  0.0411
28184W        W43031  14.404   4.758   5.249 -0.0311  0.1415 -0.1704
28185W        W43032  14.990   9.123   4.676 -0.1088  0.0288 -0.1708
28186W        W43033   5.553  13.738   2.348 -0.2469  0.0136  0.1502
28187W        W43034  13.632   4.907  13.603 -0.0491 -0.1894 -0.3646
28188W        W43035   2.398   4.865   3.422 -0.1912 -0.2107 -0.0077
28189W        W43036   2.022   7.004  12.665  0.0351 -0.2005  0.1264
28190W        W43037   8.149  13.610   5.760 -0.1690  0.3608  0.2324
28191W        W43038  10.692  16.187  16.074 -0.1327  0.0523 -0.1404
28192W        W43039   4.054   9.422  11.548 -0.0114 -0.0513 -0.1267
28193W        W43040  10.805   4.299  17.610  0.0937 -0.0139  0.0340
28194W        W43041  16.531   0.814  12.312 -0.3006 -0.0389 -0.2241
28195W        W43042   2.753   6.589  15.619  0.1206 -0.0099  0.2665
28196W        W43043  15.524  16.148   5.135  0.2183 -0.1383 -0.5630
28197W        W43044   7.758  13.425   2.979 -0.1570  0.4348 -0.1752
28198W        W43045  13.212  13.650   4.540  0.0529  0.0833 -0.2134
28199W        W43046   6.111   8.723  17.014  0.2260  0.1164  0.0194
28200W        W43047  12.833  14.122  17.069  0.1539 -0.0616 -0.1158
28201W        W43048   2.026   6.570   0.631  0.1649  0.0303  0.1420
28202W        W43049   4.219   0.287   5.108 -0.1830 -0.2367 -0.2189
28203W        W43050   4.868   2.852   3.921  0.2774  0.5129 -0.0236
28204W        W43051   1.251   1.870   0.426  0.1143 -0.1959  0.0959
28205W        W43052  11.605   1.176   0.753  0.2154 -0.2480 -0.0016
28206W        W43053   8.950  10.938  15.404  0.1772 -0.0624  0.0244
28207W        W43054  17.235   6.065  15.056 -0.1665 -0.1233 -0.2347
28208W        W43055   4.457   0.055   2.563 -0.3393  0.1710  0.0167
28209W        W43056  13.284   4.008  13.118  0.0548  0.3469 -0.4524
28210W        W43057   4.176   9.853  15.262  0.0586 -0.1491 -0.2769
28211W        W43058   8.047  17.353  17.525  0.3012  0.1487 -0.0439
28212W        W43059   4.270   5.328   1.953 -0.1053  0.0485  0.3016
28213W        W43060   9.835   5.006   4.974  0.1640 -0.0795  0.2583
28214W        W43061   1.426  11.806   3.955  0.0713 -0.1205 -0.1703
28215W        W43062  14.933  10.896   6.326  0.0652  0.0908 -0.1750
28216W        W43063   6.472  10.559   3.451 -0.1496 -0.1856  0.0796
28217W        W43064  13.853   5.595   4.525 -0.0881 -0.1308  0.1128
28218W        W43065  17.262  17.505  12.944 -0.3464 -0.2057  0.1936
28219W        W43066   0.655   7.572   3.071  0.4589  0.1456 -0.1035
28220W        W43067  11.282  11.904   2.180 -0.0732  0.0059  0.2969
28221W        W43068  14.431   3.285  12.586  0.0396 -0.0504  0.2703
28222W        W43069  13.089   2.624   5.056  0.3313 -0.1105  0.1345
28223W        W43070   0.279   8.209  13.585  0.1839 -0.1635  0.1031
28224W        W43071   3.677  16.797   1.851 -0.1268 -0.2431  0.2203
28225W        W43072  12.944   2.367   1.244 -0.0188  0.0604 -0.1513
28226W        W43073   8.287   5.060   0.154  0.3446 -0.0597 -0.1158
28227W        W43074   8.949  14.880  13.008  0.1761  0.0607 -0.0018
28228W        W43075   2.268  11.073   1.248 -0.2622  0.0164 -0.0799
28229W        W43076  12.447   6.658   1.671 -0.1127 -0.2658 -0.2600
28230W        W43077  16.357  14.355   3.275  0.1344  0.1641  0.1975
28231W        W43078   8.113   7.240   5.764  0.0768 -0.2848  0.0502
28232W        W43079   6.777  16.033   0.630  0.0016 -0.1079  0.1063
28233W        W43080   5.729  10.169  15.573 -0.1669 -0.1089  0.1391
28234W        W43081   9.710  12.872  12.761 -0.1240 -0.0159  0.1251
28235W        W43082   2.636   9.144   3.893 -0.3161  0.0621  0.0961
28236W        W43083   7.997  13.174   2.624  0.0047 -0.1672 -0.2206
28237W        W43084   3.035   2.397  16.444  0.2966  0.1298 -0.1089
28238W        W43085   0.067   1.261   4.219  0.0723  0.1792  0.1035
28239W        W43086   4.460   9.158  11.715  0.0438  0.4449  0.0341
28240W        W43087   2.736  13.280   5.315  0.0894 -0.0542 -0.1425
28241W        W43088   6.617  12.310   4.450  0.0249 -0.0577  0.1378
28242W        W43089   7.402  15.705  12.659  0.0923 -0.0418 -0.0478
28243W        W43090   8.937  15.462  14.199 -0.0520  0.2445  0.0126
28244W        W43091  12.506   3.731   4.388 -0.0165  0.1033  0.0707
28245W        W43092   0.089  16.364   4.049 -0.3321 -0.3558 -0.1700
28246W        W43093   1.183  17.222  14.417 -0.0660 -0.0072  0.0237
28247W        W43094   6.920  10.255  13.625  0.1625 -0.1059 -0.3411
28248W        W43095  13.695   3.887  12.530 -0.1103  0.1658 -0.0805
28249W        W43096   3.781  17.526   2.466  0.2281 -0.2865  0.0701
28250W        W43097  14.035  12.544  16.395  0.0640  0.1474  0.1593
28251W        W43098   7.360  11.718  15.404 -0.0086 -0.2284 -0.1286
28252W        W43099  10.868   2.002  17.551 -0.0416  0.2155  0.1163
28253W        W43100   2.753  15.107   2.413  0.2749  0.3624  0.4651
28254W        W43101  16.213   0.863   0.982  0.1532 -0.0557  0.3089
28255W        W43102   8.358   2.128   0.214  0.0029  0.1149 -0.0433
28256W        W43103   4.002  12.592   2.488  0.0170  0.3038 -0.0077
28257W        W43104   2.429   6.924  15.730 -0.0018 -0.0890 -0.4415
28258W        W43105  14.388   8.631   4.236 -0.2068  0.1897 -0.1968
28259W        W43106   7.262   2.824   0.548  0.3133 -0.0333 -0.1278
28260W        W43107  16.546  10.454  14.945  0.1629 -0.2229  0.3652
28261W        W43108   0.790  16.529  16.091  0.1637  0.1616 -0.1578
28262W        W43109   9.980  13.337  14.281 -0.1028 -0.1607 -0.0679
28263W        W43110  13.393   8.837  14.314  0.2963 -0.0903  0.0680
28264W        W43111  17.002   6.503   3.221  0.0244  0.1019  0.1280
28265W        W43112  13.680   2.319  11.953  0.2434  0.0200  0.1268
28266W        W43113   7.769   7.514  15.857  0.1615 -0.0276 -0.0327
28267W        W43114   8.286   0.704   3.039 -0.1144  0.0979  0.2878
28268W        W43115   7.465   0.571   3.461 -0.0938 -0.2085 -0.1062
28269W        W43116   4.293   7.346   1.002 -0.1503 -0.1276 -0.0459
28270W        W43117   3.001  15.160   2.843 -0.0937 -0.0957  0.2213
28271W        W43118   6.753  13.992  13.515 -0.0627 -0.3731  0.2252
28272W        W43119  10.844   2.257   6.124  0.1352  0.0010 -0.0763
28273W        W43120   9.669  10.273  15.380 -0.1720 -0.3485  0.0770
28274W        W43121  14.596   7.106   0.515 -0.1200 -0.1927 -0.0083
28275W        W43122   9.665  17.058  16.210  0.0356 -0.0989 -0.0256
28276W        W43123  17.462   6.687   1.931  0.0405  0.1506 -0.1879
28277W        W43124  12.362   6.591  17.202  0.2509 -0.0355 -0.0420
28278W        W43125  15.233   0.355   2.070  0.0670  0.2059  0.0278
28279W        W43126  16.912   2.679  12.262  0.1125 -0.1924 -0.0447
28280W        W43127  15.036   8.788   3.175  0.3655  0.0039  0.1582
28281W        W43128  11.404  14.349  12.769 -0.0029 -0.0802  0.1661
28282W        W43129  11.369   0.199  16.687  0.0967 -0.1028  0.1070
28283W        W43130   1.677   3.176  13.768 -0.0927  0.0437 -0.0629
28284W        W43131   4.851   2.981  15.492  0.1584 -0.0076 -0.0123
28285W        W43132  14.816  13.015  15.954 -0.2993 -0.0599 -0.0971
28286W        W43133   5.783  16.790   6.360 -0.1327  0.1274 -0.1004
28287W        W43134   0.241   4.637  16.662 -0.0674  0.1870  0.0667
28288W        W43135   2.039  12.849  14.044 -0.3249 -0.0325  0.0967
28289W        W43136  15.343  14.440   6.995  0.0125 -0.1324 -0.1810
28290W        W43137  15.969   0.276   0.187 -0.3432  0.0965 -0.1559
28291W        W43138   9.151   9.916  14.190 -0.0314 -0.2037 -0.2372
28292W        W43139  15.391  12.696   0.703 -0.1040  0.1829 -0.4419
28293W        W43140  13.534  13.842   1.885  0.1472 -0.0595 -0.0785
28294W        W43141  15.943  15.540   0.838  0.0814 -0.1744  0.1145
28295W        W43142  11.118  14.162  15.593  0.1146  0.3449  0.2558
28296W        W43143  11.089  15.800   4.509 -0.0673 -0.1232  0.2401
28297W        W43144   0.701   3.995   2.568 -0.3068 -0.6239  0.0354
28298W        W43145   9.368  10.582   2.896  0.0091  0.1227  0.1832
28299W        W43146   3.900   0.003  17.468 -0.1997  0.1175  0.0061
28300W        W43147  14.140   0.045   2.845  0.2249 -0.2356 -0.2966
28301W        W43148   4.519  10.672   1.198 -0.2004  0.1723  0.0129
28302W        W43149   4.306   7.566  12.259  0.0081  0.1703 -0.2611
28303W        W43150  11.401  17.192  15.321 -0.2930  0.4382 -0.2628
28304W        W43151  14.933   9.376  16.635 -0.0415  0.2501 -0.2852
28305W        W43152  10.175  15.320   3.991  0.1982 -0.0560  0.1514
28306W        W43153   4.617  14.462  14.859  0.1762 -0.0921 -0.0416
28307W        W43154  16.177  16.200   2.719 -0.3015 -0.1401 -0.0939
28308W        W43155   4.843  14.108  12.286  0.2950 -0.3698 -0.0668
28309W        W43156   7.709  11.049   4.734 -0.1272 -0.1488  0.2193
28310W        W43157   8.928  14.435   2.113 -0.1411 -0.1200  0.1143
28311W        W43158   6.389  10.470  14.891  0.0043 -0.1731  0.0229
28312W        W43159  11.645   1.574   1.020  0.1548 -0.0922 -0.2015
28313W        W43160  15.218   7.628  17.645 -0.0106 -0.3032 -0.1066
28314W        W43161   5.451   9.101  12.593  0.1943 -0.3113 -0.1714
28315W        W43162   3.624  14.779   4.455 -0.0063  0.0806 -0.0768
28316W        W43163   4.726   1.473  12.025  0.1248  0.1148 -0.4486
28317W        W43164  16.784   4.141  12.194 -0.1018 -0.1736  0.0361
28318W        W43165   4.304   4.152  15.064  0.0504  0.3030  0.1285
28319W        W43166   1.363   7.532  15.661  0.1439 -0.4792  0.2510
28320W        W43167  10.573   9.660  14.761  0.0231  0.3994 -0.1691
28321W        W43168  13.905  13.299   2.551  0.0621 -0.1376 -0.2301
28322W        W43169   0.541   6.157  13.722  0.4274 -0.3212 -0.0263
28323W        W43170  11.680  17.251   0.860  0.0803  0.0085  0.0731
28324W        W43171  11.889   3.351   2.009  0.1098  0.1850  0.0753
28325W        W43172   1.106   1.421  15.416  0.2514 -0.0119  0.1153
28326W        W43173   7.879  12.436  15.076  0.3353 -0.2091  0.2043
28327W        W43174   9.716  14.306  12.594 -0.3569 -0.1187 -0.0945
28328W        W43175  12.945  14.292   3.874 -0.1166  0.0391  0.0492
28329W        W43176  13.111  12.414   2.787 -0.0686 -0.1451  0.0659
28330W        W43177   2.197   9.144   2.488 -0.1292 -0.2667  0.0369
28331W        W43178  16.093   8.352   2.674 -0.1508 -0.1481 -0.2607
28332W        W43179   4.112   1.047   6.022 -0.0437 -0.0295  0.2288
28333W        W43180   6.123   3.430  11.638  0.1371  0.1527  0.2696
28334W        W43181  14.378   4.689   6.346  0.1094  0.1819 -0.1151
28335W        W43182  11.858   8.242  15.493  0.1876  0.1977 -0.2098
28336W        W43183   6.075  10.614  14.432 -0.0647 -0.2620  0.0432
28337W        W43184  11.628  15.810   4.396 -0.0385 -0.0780 -0.1359
28338W        W43185   3.416   7.903   2.641 -0.0668  0.2795  0.0470
28339W        W43186   9.736  15.722  17.052 -0.2017  0.1041  0.0874
28340W        W43187   2.979  10.853   4.381  0.1417 -0.2397 -0.1648
28341W        W43188   7.040   1.286   0.377  0.0027 -0.1329 -0.0786
28342W        W43189  16.045   2.213  12.861 -0.0170 -0.2875 -0.0096
28343W        W43190  11.429  13.022  17.089  0.0798 -0.0678 -0.0453
28344W        W43191   7.074  14.507   2.485 -0.1835  0.2849 -0.0492
28345W        W43192   9.047   9.420   5.403  0.0777  0.2322 -0.2997
28346W        W43193   4.284   3.720   0.161 -0.0380  0.2926  0.1225
28347W        W43194  11.032   6.016   4.081 -0.0159 -0.1604 -0.0257
28348W        W43195   1.581   9.747  15.241  0.2142  0.1615 -0.0390
28349W        W43196  14.237   5.060  12.669 -0.1224 -0.5415  0.0268
28350W        W43197  13.138   8.736   3.165  0.1253  0.3316  0.3510
28351W        W43198  11.842  11.275  15.413 -0.1761 -0.0119 -0.2024
28352W        W43199  16.838  16.036  13.829  0.2575 -0.3587 -0.0889
28353W        W43200   4.591  15.074  14.582 -0.1204  0.0436 -0.0311
28354W        W43201  15.228   5.664   4.292  0.3543 -0.1886 -0.2780
28355W        W43202   2.924   2.506   6.412  0.1010 -0.1466  0.1268
28356W        W43203  17.271  10.522  15.879 -0.1100  0.0450  0.1443
28357W        W43204  16.056  10.834  12.921  0.0229  0.0146 -0.1871
28358W        W43205   6.422  14.690   2.876 -0.1752  0.2125  0.0264
28359W        W43206   6.688   3.996  13.295  0.0753 -0.0401 -0.0376
28360W        W43207  10.995   4.450   4.125 -0.1940  0.1798 -0.1264
28361W        W43208   0.309  16.237   1.414 -0.2071 -0.0679  0.0414
28362W        W43209   7.220   8.380   2.175  0.0767  0.0639 -0.0994
28363W        W43210   8.739  15.695   6.541 -0.0497 -0.1885  0.2298
28364W        W43211   3.529   7.006  11.727  0.0139 -0.1601 -0.2180
28365W        W43212  15.280  11.108   0.166 -0.1897  0.0830 -0.2010
28366W        W43213   6.404   6.527   3.865 -0.1434  0.3029  0.1839
28367W        W43214  15.519  10.923  15.841  0.0409 -0.1360 -0.1252
28368W        W43215   8.229  16.944  14.434  0.0226 -0.2071 -0.2396
28369W        W43216  10.540  14.167  16.121  0.2836  0.1364  0.1071
28370W        W43217   8.265  17.138   3.169  0.0030  0.1389 -0.1897
28371W        W43218   3.872   3.144   3.644  0.1695 -0.3868  0.0334
28372W        W43219  16.083  17.641  12.144 -0.5772 -0.0260  0.0248
28373W        W43220  16.706   3.717   1.655 -0.0402  0.3214  0.5048
28374W        W43221  13.980  14.606   3.216 -0.0454 -0.1829 -0.2169
28375W        W43222   7.929   4.586  11.371 -0.2817  0.1525  0.1602
28376W        W43223   3.697   6.478   4.807 -0.2667  0.4188  0.0198
28377W        W43224   3.741  13.322  17.325  0.0309  0.0047  0.4688
28378W        W43225   0.727  14.796  13.096  0.4221 -0.0713  0.0828
28379W        W43226  12.638   0.421   2.119  0.1995 -0.0606 -0.2848
28380W        W43227   4.809   9.095  13.898 -0.0734  0.2861  0.1347
28381W        W43228  10.122   0.398   5.616 -0.2480  0.0119 -0.0197
28382W        W43229   8.207  13.212  11.691  0.0275 -0.0638  0.0290
28383W        W43230   6.572  12.231  15.823 -0.3787 -0.4666 -0.0252
28384W        W43231   7.455   6.267  13.637 -0.2149  0.1647  0.1325
28385W        W43232  16.759   3.762  11.589  0.1323 -0.0179 -0.2071
28386W        W43233   1.280   7.357   0.809  0.0479  0.1670  0.2072
28387W        W43234  11.100  15.180  16.742  0.1453  0.0820  0.2379
28388W        W43235  16.073   5.792  12.603 -0.0639 -0.0511 -0.2230
28389W        W43236  13.037   1.084  15.646  0.0965 -0.0938 -0.2587
28390W        W43237  13.109   9.136   3.545  0.2955 -0.1771  0.0052
28391W        W43238  16.893   5.858  12.091  0.1033 -0.1324  0.1192
28392W        W43239  10.376   2.393  12.512  0.1212  0.1527 -0.1554
28393W        W43240  14.218   7.026   2.828  0.2579 -0.2849 -0.0371
28394W        W43241  17.231   7.920  15.260  0.0660 -0.0441  0.0018
28395W        W43242  13.818   5.247  13.938  0.1218 -0.2488  0.1121
28396W        W43243   5.191   1.178  13.182 -0.2760 -0.1127  0.2482
28397W        W43244   4.649  11.546   5.131 -0.0687  0.0038  0.2637
28398W        W43245   6.335   0.650   2.547  0.0787 -0.0419  0.2578
28399W        W43246   4.992   3.037  13.706 -0.0157 -0.1354  0.1903
28400W        W43247   3.751  16.653  11.687 -0.1852 -0.1627  0.0485
28401W        W43248  11.958   3.273  16.231  0.0445  0.1425  0.3073
28402W        W43249  12.009  13.886  15.141  0.0643  0.1125 -0.2010
28403W        W43250   4.436   1.842   1.437  0.5012  0.1939  0.0752
28404W        W43251  14.777  16.887   3.838  0.0763  0.0458 -0.1986
28405W        W43252   8.084  13.308  12.514 -0.3886  0.4350  0.2027
28406W        W43253   4.368   0.742  12.614 -0.0784  0.1207 -0.1124
28407W        W43254   2.902   2.004   4.615 -0.2646 -0.0882  0.1206
28408W        W43255  11.216  10.953   2.718 -0.0564 -0.2291  0.0426
28409W        W43256   6.273   1.058  16.406 -0.1953  0.0107 -0.1320
28410W        W43257  15.229   8.514  16.586 -0.0155 -0.0723 -0.3696
28411W        W43258  14.257   3.726  17.330 -0.1694  0.0882 -0.0971
28412W        W43259   4.246  13.751  15.253 -0.0777 -0.0461 -0.2872
28413W        W43260  13.240   5.792  13.558 -0.2127 -0.0537 -0.2370
28414W        W43261   1.989  15.596  12.942 -0.0133  0.2549  0.0120
28415W        W43262   4.597   5.326  12.876  0.5114 -0.1163 -0.1538
28416W        W43263   0.378   1.940   5.417  0.2346 -0.0145  0.2137
28417W        W43264   6.031  15.993  15.306 -0.2991 -0.0939 -0.1727
28418W        W43265  10.677   5.724   2.742  0.1328  0.0634  0.0400
28419W        W43266  11.931  15.136   6.292 -0.1149 -0.4099  0.3500
28420W        W43267   6.004  16.454   2.891 -0.1030  0.1827 -0.4144
28421W        W43268  17.207   1.882  16.145 -0.0186  0.0849  0.4087
28422W        W43269  17.278  12.101   4.965  0.1289  0.1113  0.1447
28423W        W43270   4.340  11.742   5.543 -0.0423 -0.1170 -0.2604
28424W        W43271  17.456   6.195   0.542  0.1986 -0.0404 -0.1370
28425W        W43272  13.856   8.236  16.222  0.0712  0.0178  0.1512
28426W        W43273   4.512   9.558  11.372 -0.0002  0.0976  0.3009
28427W        W43274  11.294  15.766  17.556  0.1389 -0.3395  0.0129
28428W        W43275  10.768  11.664   1.245 -0.0912  0.0444 -0.1805
28429W        W43276  10.742   9.731  16.133  0.1152 -0.1853  0.0936
28430W        W43277  15.718   1.874   6.098 -0.1237 -0.0333 -0.1322
28431W        W43278   2.104  11.597   5.725  0.3117  0.0849  0.0028
28432W        W43279  14.128   6.535   4.470 -0.0455 -0.1004 -0.0611
28433W        W43280   6.606   7.029  17.667 -0.2433  0.1045 -0.2365
28434W        W43281   8.582   6.442   2.351 -0.1162 -0.0292  0.0716
28435W        W43282   4.259   6.200   1.183  0.0505  0.1594  0.4187
28436W        W43283   4.034   7.216   0.400 -0.1123 -0.0210  0.0693
28437W        W43284   8.804  11.310   3.484 -0.0023 -0.0769 -0.0250
28438W        W43285   6.581   0.323   3.249  0.1571  0.2051  0.2243
28439W        W43286   4.670   3.595  13.731 -0.3160  0.0330  0.0507
28440W        W43287   1.369   1.002   0.710  0.1237 -0.2233 -0.0320
28441W        W43288  13.945   1.961  16.432  0.0962  0.0575 -0.0197
28442W        W43289   5.177   8.091   5.335 -0.2964 -0.2371 -0.1674
28443W        W43290   4.565   9.822  17.538  0.3594  0.2490  0.3793
28444W        W43291  15.026   8.416  14.157  0.0053 -0.1239  0.6275
28445W        W43292  14.148  16.320   5.743 -0.0902  0.2116 -0.5611
28446W        W43293  14.339  13.703   0.819 -0.0643  0.0067 -0.3621
28447W        W43294  11.958   7.133  13.906  0.0462  0.1405 -0.2525
28448W        W43295  16.701  10.799   0.260  0.1193 -0.2004 -0.0652
28449W        W43296   6.646  13.023  17.200 -0.1846  0.1961  0.0011
28450W        W43297   0.063   8.963  13.344 -0.0420  0.1446  0.0497
28451W        W43298   8.540   8.440  16.811 -0.0391  0.2622 -0.0397
28452W        W43299   9.627  11.769  15.843 -0.1787 -0.2770  0.0901
28453W        W43300  14.899  12.176   2.664  0.1748 -0.2339  0.0055
28454W        W43301   1.415   6.323   5.636  0.2721  0.1951  0.2910
28455W        W43302  14.371  10.775  11.959 -0.3429 -0.0717  0.0582
28456W        W43303  12.348  14.680  16.917  0.0607  0.1901 -0.3275
28457W        W43304   8.460  14.356  15.194 -0.3115  0.2128 -0.1134
28458W        W43305  12.221   6.917   1.322  0.0277  0.0043  0.2597
28459W        W43306   9.577  13.097   3.642 -0.1579  0.1336 -0.0404
28460W        W43307   9.257  14.016  15.038  0.0349  0.2902 -0.0188
28461W        W43308   3.180  10.645   2.113 -0.1094  0.0433  0.0871
28462W        W43309   6.332   0.834   5.788  0.0681 -0.1178 -0.2714
28463W        W43310   2.088  17.202   4.488  0.2627  0.2150 -0.1450
28464W        W43311   7.797   9.957  13.242 -0.1389 -0.3613  0.0493
28465W        W43312   7.196  16.513   3.631 -0.0403 -0.0300 -0.3610
28466W        W43313   0.329  11.184   2.376 -0.0672 -0.2236  0.1575
28467W        W43314   4.321   4.681   2.820 -0.4981  0.2663 -0.0404
28468W        W43315  11.527  16.068  13.959 -0.2637 -0.1430 -0.0620
28469W        W43316  13.810   3.838   4.064  0.0712  0.0561  0.0621
28470W        W43317   2.831   4.486   4.082 -0.0115  0.2107  0.3585
28471W        W43318   5.704  13.219   3.288  0.0481  0.0271 -0.3042
28472W        W43319   6.508  16.475  16.667 -0.0719 -0.2293 -0.1565
28473W        W43320  12.779   7.648   6.463 -0.2694 -0.0559  0.1652
28474W        W43321  11.697   4.090  16.941 -0.2870  0.3132 -0.1881
28475W        W43322  16.079  12.445   4.383 -0.1235  0.0262 -0.1149
28476W        W43323   2.282   6.364  11.598 -0.0577 -0.0935  0.1447
28477W        W43324  13.751  11.295  16.122  0.4532 -0.1325 -0.0151
28478W        W43325   9.452   1.703   4.128  0.1357 -0.0359  0.3239
28479W        W43326   6.974   6.034  14.458 -0.0427 -0.0789  0.1473
28480W        W43327   8.389   4.584  11.885 -0.3877 -0.0323 -0.0649
28481W        W43328   1.746  12.401  12.336  0.0447  0.4389 -0.0553
28482W        W43329   8.851   5.895  15.292  0.0889 -0.0277  0.1701
28483W        W43330  17.652   6.416   1.449  0.0984  0.1842 -0.1009
28484W        W43331  11.785   0.756   1.263  0.1938 -0.1396  0.1238
28485W        W43332   9.178   7.761  15.727  0.0499  0.1298  0.2732
28486W        W43333  15.570  11.750  17.638 -0.4368 -0.0444  0.0643
28487W        W43334  10.340   2.854   4.595 -0.2095 -0.0586 -0.3023
28488W        W43335   4.770   6.572   2.825 -0.0703  0.1863  0.0128
28489W        W43336   0.686   4.363   1.018  0.3619  0.0146 -0.0065
28490W        W43337  12.683  15.785   6.416  0.2696 -0.2411 -0.0645
28491W        W43338   6.059   6.197  14.830  0.0786 -0.2634 -0.0199
28492W        W43339  14.967  13.865   2.049 -0.2128 -0.0591  0.0006
28493W        W43340   0.248  10.647   0.632 -0.1432 -0.0903  0.0488
28494W        W43341   4.227  12.624   4.584 -0.0409  0.0095  0.0178
28495W        W43342  15.116   3.176  12.137  0.0610  0.0034  0.0979
28496W        W43343   4.335   7.628   1.736 -0.1322 -0.0626 -0.1281
28497W        W43344  16.603   8.392  14.191  0.1372 -0.0125 -0.0066
28498W        W43345   8.598  14.184   0.496 -0.0990 -0.0231  0.2295
28499W        W43346   2.332   1.357  13.573  0.0742 -0.2003  0.2084
28500W        W43347   8.085  10.142  17.181 -0.0570  0.3185  0.1366
28501W        W43348  12.487  15.964  13.902 -0.2107  0.0606 -0.2266
28502W        W43349  13.447  12.226   3.632 -0.2324 -0.0276  0.1760
28503W        W43350   6.868   4.937   0.210 -0.2101 -0.0962 -0.4550
28504W        W43351  10.074   4.406   0.621  0.1954 -0.1851  0.0690
28505W        W43352   4.670   3.776   5.414 -0.1564 -0.2262  0.0629
28506W        W43353   6.159   1.940   3.684  0.1114  0.0877  0.0649
28507W        W43354   6.897  14.153  17.367  0.1440  0.0292  0.1277
28508W        W43355  10.491   8.915  17.186  0.0601  0.0548  0.0781
28509W        W43356   1.392   2.192  17.395  0.0191  0.3112 -0.0727
28510W        W43357   7.296  15.474   4.788  0.0379  0.0841  0.4345
28511W        W43358  13.748   0.044   0.061  0.1470  0.0574 -0.1038
28512W        W43359   0.040   7.844  15.394 -0.0243 -0.1424  0.1931
28513W        W43360   7.862   7.868   4.015  0.2036  0.2056 -0.4171
28514W        W43361  17.493   6.641   2.877  0.0186 -0.0357 -0.0255
28515W        W43362   7.814   8.023  14.854 -0.0745 -0.3562 -0.1178
28516W        W43363  17.555   5.610   6.900  0.2037  0.2950 -0.1811
28517W        W43364  13.446   1.095  16.565 -0.1763 -0.2624  0.0833
28518W        W43365  15.409  16.254   2.220 -0.1958 -0.3081 -0.0296
28519W        W43366  13.573  11.221  16.718 -0.2721 -0.0566  0.0189
28520W        W43367  10.914  11.756   5.481  0.2358 -0.1554  0.2362
28521W        W43368  13.118   1.112  12.094 -0.0545  0.0079  0.0826
28522W        W43369   8.160  10.357  14.713  0.4301  0.3049  0.0906
28523W        W43370   9.002  15.815   6.134 -0.1245  0.2936 -0.1103
28524W        W43371   7.069   9.676  17.153 -0.0510 -0.0133  0.0698
28525W        W43372   1.443  13.518  12.903 -0.1554  0.1735 -0.1139
28526W        W43373  10.495   5.958  15.858 -0.0659 -0.0105  0.1517
28527W        W43374   5.710  12.293  14.962 -0.0671  0.0734 -0.2026
28528W        W43375   9.211   5.238   2.033 -0.0022  0.2129 -0.2040
28529W        W43376  12.045  11.773   3.958 -0.0221 -0.0845 -0.1562
28530W        W43377  14.424  10.979   1.986 -0.0199  0.0721 -0.0283
28531W        W43378   2.936   0.727   6.017 -0.0604  0.2602 -0.3633
28532W        W43379   1.471   2.278   3.075 -0.0969  0.0967  0.1236
28533W        W43380  11.521  17.311  15.760  0.2489 -0.1239 -0.1323
28534W        W43381  12.765   1.736   1.465 -0.1215 -0.0878  0.0271
28535W        W43382   2.464   4.987  17.534  0.1290 -0.2345  0.2669
28536W        W43383  11.491   2.599  13.946  0.0621 -0.0647 -0.0028
28537W        W43384   2.723  10.733  17.193 -0.1031 -0.0105  0.0507
28538W        W43385   4.175  11.723   2.374 -0.0842  0.1533  0.0548
28539W        W43386   2.703  16.884  17.481 -0.0341  0.0801 -0.3643
28540W        W43387   0.008   9.961   3.856 -0.0244  0.3193  0.4548
28541W        W43388   3.231  16.579  13.772 -0.2715  0.1569 -0.1602
28542W        W43389  16.130  16.356  14.841  0.0042 -0.1699  0.6133
28543W        W43390   5.425  10.983  15.236  0.0147 -0.0142  0.1850
28544W        W43391   3.114   4.065  15.327  0.1032 -0.0033  0.1464
28545W        W43392   3.068  13.903   3.190 -0.2164 -0.3454 -0.3754
28546W        W43393  14.508   8.555   6.663 -0.0381 -0.0531  0.4592
28547W        W43394   4.237  11.587  16.959  0.1030 -0.0067  0.1475
28548W        W43395  16.543  11.308   0.451  0.0654  0.0866 -0.0902
28549W        W43396   3.287   7.100  14.833  0.1325 -0.0023 -0.1475
28550W        W43397   0.071   1.848   2.339 -0.4623  0.2037  0.3479
28551W        W43398   7.368   0.457   0.869  0.0999 -0.0978  0.1784
28552W        W43399   4.235  13.369  12.373  0.0247 -0.1894 -0.0035
28553W        W43400   2.606  15.819   0.743 -0.4215 -0.2416  0.0622
28554W        W43401   3.574  14.885  16.898 -0.1015  0.5193  0.1623
28555W        W43402  16.373   0.941  13.461  0.3231  0.0295  0.2959
28556W        W43403   3.051   1.342   1.254  0.0774  0.0643  0.0535
28557W        W43404  13.150   0.129  16.587  0.1279  0.1410  0.2976
28558W        W43405  16.925   9.126  15.746  0.2310  0.0790 -0.0611
28559W        W43406   7.240   1.529  10.866 -0.1014 -0.1574 -0.1876
28560W        W43407  13.422  13.892  16.925  0.0817 -0.1375 -0.1465
28561W        W43408   4.301   9.173   3.008  0.0814  0.1972 -0.1029
28562W        W43409  13.085   2.284  17.296 -0.0647  0.3638  0.1083
28563W        W43410  16.542  13.778  14.913  0.2213 -0.3532 -0.1156
28564W        W43411  13.325   2.840  17.246  0.3220 -0.2013 -0.2918
28565W        W43412   4.828   5.521  14.111  0.1472  0.0135  0.3462
28566W        W43413  16.355   2.566  13.015 -0.0530  0.0431 -0.0358
28567W        W43414  16.627   9.428   1.396 -0.0626 -0.0778 -0.0055
28568W        W43415  10.254  16.840   5.451 -0.1173  0.1521 -0.0566
28569W        W43416  13.692   0.860  16.983 -0.0042 -0.0584 -0.1598
28570W        W43417  13.305   7.834  13.020  0.1489  0.1581 -0.1142
28571W        W43418   6.869  16.119   3.267  0.0463 -0.0458 -0.2031
28572W        W43419   8.740  14.217   1.065  0.3406  0.1035 -0.0531
28573W        W43420   0.681   1.680  13.087  0.1575  0.1704 -0.3812
28574W        W43421   5.044   2.098   2.886  0.0398 -0.1999  0.2214
28575W        W43422   2.792  17.283   2.388 -0.3103  0.0502  0.0891
28576W        W43423   8.167  15.276   4.969 -0.1886 -0.0839  0.0794
28577W        W43424   9.357  16.708  15.377  0.0093  0.1974  0.0794
28578W        W43425   3.669  10.674   0.541  0.0946 -0.1701 -0.0399
28579W        W43426   6.517   4.924   3.994 -0.1723 -0.0964 -0.2043
28580W        W43427   6.235  17.373  13.798 -0.0381  0.3103 -0.2325
28581W        W43428   3.001  13.850   0.076  0.2237 -0.0284  0.0552
28582W        W43429   2.083   3.316   0.654 -0.0568  0.1828  0.2011
28583W        W43430  17.471   5.103  14.774  0.1037 -0.3268 -0.0369
28584W        W43431   1.992   8.298  15.659 -0.1552  0.3373  0.2112
28585W        W43432  10.311  17.207   5.142 -0.0075  0.3342  0.0138
28586W        W43433   9.009  10.701  12.477 -0.4064  0.0122  0.0853
28587W        W43434   2.856   5.903  16.060 -0.1681 -0.0540 -0.0742
28588W        W43435   8.959  10.747   1.028  0.1163  0.1396  0.0047
28589W        W43436   8.317  15.256   2.784 -0.1031  0.0036  0.0341
28590W        W43437   1.724   7.485   4.989 -0.0834 -0.0957  0.1067
28591W        W43438   1.473  10.640  13.874 -0.0794 -0.1802 -0.0517
28592W        W43439  14.123   5.172   3.208  0.1381  0.1323  0.0604
28593W        W43440   0.411  11.606  14.236 -0.0151  0.2414  0.3377
28594W        W43441  15.756  17.467   5.819  0.1141 -0.1222  0.1561
28595W        W43442  16.683  10.181  17.331  0.2184 -0.0752  0.0482
28596W        W43443   4.533   0.774   4.608  0.1318 -0.0714  0.0467
28597W        W43444   8.457  15.663  16.419 -0.2020 -0.1481 -0.1434
28598W        W43445  13.298  13.930  14.228 -0.0693 -0.1317  0.2256
28599W        W43446   4.105   7.697   3.955  0.0752  0.2301  0.0529
28600W        W43447   9.404  10.814   1.846 -0.0865 -0.0383  0.0375
28601W        W43448   5.284   1.111  15.311 -0.2951  0.0381 -0.1008
28602W        W43449   2.151  16.104   5.023 -0.1862  0.0264  0.1114
28603W        W43450  16.254   1.659   6.231  0.0358 -0.0819  0.0902
28604W        W43451   7.936   9.811  17.556 -0.2698  0.2048 -0.2307
28605W        W43452   4.322   2.984  14.605  0.1729  0.1827 -0.2533
28606W        W43453  14.641  13.289   6.381 -0.0070  0.3110  0.2817
28607W        W43454   8.212   7.065   2.593 -0.2800  0.2247  0.0594
28608W        W43455   3.170  12.629   2.725  0.0944  0.0879 -0.1592
28609W        W43456   8.087   7.369   0.593  0.0875  0.0408  0.2759
28610W        W43457   0.534  14.155   4.502 -0.0727 -0.2082  0.0973
28611W        W43458  16.533  14.506   0.140 -0.1358  0.1279  0.3492
28612W        W43459  17.360   8.141   6.699  0.0413 -0.1653  0.1296
28613W        W43460  10.430  10.138  15.666 -0.0869  0.2428  0.0140
28614W        W43461   1.971   8.431  14.305 -0.2847  0.0658 -0.0682
28615W        W43462   7.300   6.855  13.270 -0.1671 -0.0658  0.0573
28616W        W43463  16.729   7.172   3.751  0.0120  0.4212  0.2772
28617W        W43464  13.640   9.429  13.977 -0.0062  0.0656 -0.1646
28618W        W43465   1.944  13.655   3.526 -0.1177 -0.1272  0.2754
28619W        W43466   3.382   5.306   0.064  0.1036 -0.2464 -0.2408
28620W        W43467   0.752  16.550   1.999 -0.2222 -0.0126  0.0984
28621W        W43468   7.888   1.040   6.195  0.1263  0.3948  0.0604
28622W        W43469   9.838   5.981   3.751  0.2020 -0.0305  0.3122
28623W        W43470   3.649   2.769  15.400 -0.0295 -0.0188  0.1636
28624W        W43471   5.218  11.987   0.860 -0.0199  0.0218 -0.1958
28625W        W43472  15.702  10.627   3.989  0.1464 -0.0560  0.3115
28626W        W43473   3.766   1.803   3.541 -0.1298 -0.1883 -0.0282
28627W        W43474   9.462   0.309   4.486 -0.0378 -0.1330 -0.1844
28628W        W43475  11.776   5.333   6.301 -0.2427 -0.1490 -0.0702
28629W        W43476  17.599   2.108   4.382 -0.2029 -0.0970 -0.0212
28630W        W43477  14.594   3.626   3.717 -0.2811 -0.0939  0.0270
28631W        W43478   3.872  11.965   4.073 -0.0987 -0.2527 -0.1124
28632W        W43479  12.268   9.039  14.061  0.0035 -0.0925 -0.1607
28633W        W43480   4.943  17.232  16.160  0.2168  0.1124 -0.1912
28634W        W43481  10.864   3.494   6.744  0.0557  0.0293  0.1547
28635W        W43482  16.481  13.829   2.339 -0.2028  0.1023  0.1339
28636W        W43483  10.656  15.884  14.477 -0.1247  0.0304  0.4174
28637W        W43484  13.837   2.712   1.004 -0.1634 -0.0457  0.0096
28638W        W43485   0.220   0.487   3.951  0.2308 -0.0186  0.0928
28639W        W43486   1.913   5.598   1.901  0.1954  0.3410 -0.1232
28640W        W43487  10.522   7.121   2.210 -0.0494  0.2933  0.1039
28641W        W43488  15.307   0.269   4.880 -0.0287 -0.0525  0.0531
28642W        W43489   9.862  10.807   1.089  0.0148  0.0031 -0.1086
28643W        W43490  14.615   8.638   5.766  0.1193  0.2687 -0.1461
28644W        W43491  10.430  12.866   3.823  0.1421 -0.1041 -0.0910
28645W        W43492  11.759  14.358   2.664  0.1652 -0.2946 -0.1408
28646W        W43493  17.114   5.415  12.333  0.3422  0.0251  0.0026
28647W        W43494  15.922  16.360  16.296  0.0595  0.0805 -0.2894
28648W        W43495   0.950   3.152  13.359 -0.2799 -0.0468  0.0974
28649W        W43496   0.255  14.162   0.112  0.0573  0.1759 -0.0540
28650W        W43497  15.496   0.294   5.338  0.0584  0.1132  0.4644
28651W        W43498   6.989   1.448  14.547  0.0903 -0.1147  0.1879
28652W        W43499   5.793   4.740   2.723  0.0292  0.0059 -0.0454
28653W        W43500   8.968   6.127   0.409  0.0729 -0.0853 -0.1805
28654W        W43501  14.350   1.185  13.722 -0.0203 -0.0593 -0.1018
28655W        W43502  14.979   7.181  15.321  0.0432 -0.1528 -0.1781
28656W        W43503  14.878   1.250   1.153 -0.2272 -0.0652  0.1669
28657W        W43504  15.615  15.341   0.084 -0.0499  0.2681  0.0010
28658W        W43505  16.957   4.625   6.196 -0.1550 -0.0960  0.0196
28659W        W43506  17.577   9.804  13.293  0.0626 -0.2882  0.3062
28660W        W43507   5.083   9.621   0.424  0.1142  0.1820  0.2278
28661W        W43508   9.174   0.404   0.349  0.0460  0.0676  0.0045
28662W        W43509  17.554  10.725   1.292 -0.2046 -0.0778 -0.1930
28663W        W43510   5.907   2.039  14.280 -0.0650 -0.1649  0.2710
28664W        W43511  16.964   3.543   2.998  0.1585  0.0716 -0.0586
28665W        W43512   0.548  17.403   5.768  0.1188  0.0033  0.0624
28666W        W43513   8.908  15.856  12.562  0.0048  0.0932  0.2844
28667W        W43514  12.854   9.113  15.889 -0.2376  0.0504 -0.0591
28668W        W43515  13.521   1.439  12.473 -0.1961  0.3239 -0.1194
28669W        W43516  13.676   0.398  12.471 -0.0355  0.0328  0.0404
28670W        W43517  12.358   6.015   2.971  0.0023  0.2142 -0.1461
28671W        W43518   3.492  12.241  11.685 -0.0459  0.2290 -0.0975
28672W        W43519  12.442   8.968   6.206 -0.3028 -0.0211 -0.0625
28673W        W43520  17.098   0.262  15.886  0.1559 -0.1799  0.0021
28674W        W43521  17.010   7.872   3.544  0.1166  0.0477 -0.0623
28675W        W43522  10.279   3.589   4.211 -0.0309  0.0170  0.1704
28676W        W43523  10.221  15.145   6.084 -0.0128  0.3211  0.1174
28677W        W43524   4.147  11.534   3.851 -0.2493  0.2929  0.1017
28678W        W43525   4.127   2.666   2.505  0.0637 -0.1730  0.2885
28679W        W43526  15.219  13.652   3.191 -0.3901 -0.3007 -0.0242
28680W        W43527   0.951   3.576   3.268  0.0381  0.2174 -0.2469
28681W        W43528   1.960  11.041   2.831 -0.1244 -0.0761  0.1988
28682W        W43529   8.465   5.858   1.047 -0.3836  0.2010 -0.1111
28683W        W43530  12.441   0.730  15.375  0.0052  0.0696 -0.2154
28684W        W43531   8.697  13.366  16.577  0.1758  0.2224 -0.0698
28685W        W43532   0.276   0.067   1.870  0.2252  0.0581  0.3104
28686W        W43533   4.923   0.962  12.780 -0.1010  0.2585 -0.0473
28687W        W43534   0.676   0.734  13.160  0.1028  0.0459  0.1246
28688W        W43535  16.774  16.942   1.530  0.2496 -0.1870  0.0944
28689W        W43536  14.281  14.979  12.240  0.0342  0.3563 -0.0200
28690W        W43537  14.811   0.329   4.646  0.0824 -0.4306  0.2585
28691W        W43538  16.977  15.837   4.948 -0.2779  0.1883  0.0912
28692W        W43539  11.875  13.747   3.410 -0.0313  0.1546  0.0861
28693W        W43540   7.552   1.089  15.808  0.2377 -0.3431 -0.2828
28694W        W43541  10.118   3.719  17.474  0.1386 -0.0889  0.1872
28695W        W43542  13.355  16.490   3.346 -0.2124  0.2791  0.1202
28696W        W43543   9.173  11.372  13.270 -0.1055 -0.1081 -0.0052
28697W        W43544   4.136   5.376   3.510 -0.0566 -0.1777  0.0499
28698W        W43545   2.175  14.822  12.670 -0.0177  0.0145  0.0842
28699W        W43546   3.448  10.881   4.102 -0.1748  0.0933  0.2736
28700W        W43547  16.243   0.393   1.923  0.1964 -0.0197 -0.1365
28701W        W43548   6.975  14.128   0.207 -0.1528 -0.3258  0.0686
28702W        W43549   7.208   4.020   5.130  0.1134  0.2639 -0.0401
28703W        W43550  16.963   0.945  15.166  0.0904  0.0201 -0.2547
28704W        W43551  12.015   2.337   2.099  0.0298  0.1092  0.0718
28705W        W43552   7.439  15.644   3.021  0.0896 -0.0141  0.1108
28706W        W43553   9.390  17.634  13.171 -0.0485 -0.4204  0.3166
28707W        W43554   3.230   2.045  17.659 -0.0495  0.0814  0.0188
28708W        W43555  11.046   5.793  13.220 -0.2012 -0.1323  0.2088
28709W        W43556  17.288   9.522   5.420 -0.1980 -0.0442  0.0465
28710W        W43557  17.123  17.331  16.431 -0.3943 -0.2050  0.1016
28711W        W43558   9.120  10.434   1.726  0.2671  0.0468  0.0628
28712W        W43559  14.794   0.132  17.351  0.0646 -0.1443 -0.2041
28713W        W43560  13.095  15.677  14.379 -0.1347 -0.1264 -0.0059
28714W        W43561  14.331  15.214   0.361 -0.0371 -0.2473 -0.2120
28715W        W43562   6.943   1.892   4.440  0.1327  0.0782 -0.0808
28716W        W43563   5.198   5.047  11.225 -0.2739  0.1995  0.0307
28717W        W43564  12.887  16.212  14.181 -0.0094  0.1073 -0.1808
28718W        W43565   7.654  15.124  14.329 -0.0024 -0.1997  0.0277
28719W        W43566  10.563  16.992   4.758 -0.2866  0.1356  0.0418
28720W        W43567  17.667  17.378  13.367 -0.1517 -0.1929  0.1899
28721W        W43568   7.573   8.482  16.809 -0.0861 -0.2338  0.0025
28722W        W43569  11.331   6.387   1.985  0.0189 -0.2045  0.0612
28723W        W43570   6.180   3.659  15.552  0.0762 -0.2618 -0.0974
28724W        W43571   7.839  11.139  17.312  0.0488 -0.0076  0.0866
28725W        W43572   5.358  10.368  13.783 -0.1702 -0.1472  0.0839
28726W        W43573   6.202  14.021  12.166  0.0644 -0.3010 -0.1575
28727W        W43574  12.617  13.727   5.584 -0.0437 -0.1479  0.0509
28728W        W43575  16.927  15.865  13.119  0.3573  0.1611 -0.1293
28729W        W43576  10.026   0.118  13.064 -0.0659 -0.0915 -0.0098
28730W        W43577   6.714   2.546  10.619  0.1554  0.1421 -0.0511
28731W        W43578  17.136  11.026   3.837  0.1815  0.0020  0.0485
28732W        W43579   7.869  11.866   2.100 -0.0327  0.1262  0.2479
28733W        W43580   0.130   0.314   5.693  0.0843  0.0591  0.0862
28734W        W43581   6.935  14.614  15.882  0.0712  0.3142  0.0085
28735W        W43582  13.983   3.739   2.222  0.3645  0.1913  0.2136
28736W        W43583  12.075   8.072   5.503  0.5335 -0.1867  0.0538
28737W        W43584   8.469   7.592  16.411  0.1626 -0.3250 -0.1251
28738W        W43585  13.089  13.725   2.750  0.1044 -0.0659  0.1079
28739W        W43586   2.964   6.423   4.952  0.0088  0.2251  0.0992
28740W        W43587  15.349   1.699  17.294  0.1662  0.0114  0.0939
28741W        W43588   1.342  14.853  12.876  0.2046  0.0122  0.1796
28742W        W43589  15.926   4.464  11.780 -0.1002  0.1112 -0.1599
28743W        W43590   8.771  14.620   0.652  0.0960  0.1310  0.1268
28744W        W43591  12.336  10.721   6.866  0.1157  0.0886 -0.0651
28745W        W43592   1.399   1.110   6.941  0.0273  0.0346 -0.0301
28746W        W43593   9.061  12.706   3.681 -0.0575 -0.1588 -0.3687
28747W        W43594  13.728   4.800   3.414 -0.0210 -0.5240 -0.0917
28748W        W43595   1.671   6.038  14.012  0.1693 -0.2064 -0.0005
28749W        W43596   3.094  13.729  14.155 -0.0423 -0.0557  0.2285
28750W        W43597   2.405   9.549   6.460  0.0387 -0.4307 -0.2412
28751W        W43598  13.654  10.493  14.100  0.0836  0.1339 -0.0673
28752W        W43599   3.589   0.872  12.536  0.1376  0.0092 -0.0226
28753W        W43600  11.692  11.927  14.630 -0.1209 -0.1253  0.0300
28754W        W43601  10.473   7.152   4.212 -0.1639 -0.2746  0.0334
28755W        W43602  15.813  14.932  15.135  0.0736  0.2045 -0.0189
28756W        W43603   3.665   4.893   1.168 -0.1128 -0.1749 -0.1688
28757W        W43604  13.173  10.999   1.383 -0.1607 -0.0240 -0.2372
28758W        W43605   7.778  14.910   1.266 -0.3802  0.0608 -0.1082
28759W        W43606  11.324  12.952  15.448 -0.1538  0.0309 -0.1088
28760W        W43607  12.254  15.591  11.951  0.0996  0.0130  0.1565
28761W        W43608   0.078   3.019  11.793  0.4126  0.1089 -0.1899
28762W        W43609  16.468  16.584   3.579 -0.1156  0.1412  0.1732
28763W        W43610   3.043   6.548  14.083  0.3224  0.1638  0.0762
28764W        W43611   3.163   0.171  14.347  0.0372  0.1264 -0.2547
28765W        W43612   4.976   2.093  15.619 -0.1999 -0.0828  0.0261
28766W        W43613   2.810  17.615  14.637  0.0089 -0.0254 -0.1727
28767W        W43614  12.447  16.422  13.786  0.0381  0.2390 -0.2206
28768W        W43615   3.963  15.283   6.055  0.0935  0.0007  0.0941
28769W        W43616   7.549   9.591  13.862 -0.3279 -0.0269 -0.0769
28770W        W43617   7.133  15.170   3.085 -0.1705 -0.2860 -0.0454
28771W        W43618  15.349   7.164   5.450 -0.1789 -0.1360  0.2123
28772W        W43619  14.247   7.838   5.712 -0.2774  0.2652  0.1689
28773W        W43620   0.507   3.631  12.232  0.1817  0.1140  0.0941
28774W        W43621   1.903  14.500   3.865 -0.1878  0.1950  0.1152
28775W        W43622   9.011  16.795  17.468 -0.0861  0.1634  0.1630
28776W        W43623   0.919   3.935  15.185 -0.2841 -0.1202  0.1893
28777W        W43624   6.230  13.144   5.934 -0.2371 -0.2968 -0.2116
28778W        W43625  11.427   6.016   5.585 -0.3281 -0.1887  0.0527
28779W        W43626   4.853  11.929   6.234 -0.0455  0.0136  0.0178
28780W        W43627   4.141   0.977  14.146 -0.0849 -0.0491  0.1653
28781W        W43628  17.244  13.420   2.544  0.0727 -0.1064 -0.2497
28782W        W43629   8.570  14.655  14.799  0.2427 -0.0618 -0.0877
28783W        W43630   1.237  10.270  17.557  0.2067  0.1903  0.1885
28784W        W43631  10.279   4.371  17.510  0.2488  0.1202  0.0295
28785W        W43632  13.627   9.456  14.853  0.3421  0.1503 -0.0126
28786W        W43633   6.963   6.914  16.078  0.1389  0.0974 -0.0491
28787W        W43634   5.484  16.868  13.709  0.3435  0.3911  0.0321
28788W        W43635   7.362  12.267  13.051  0.1010  0.1778 -0.0215
28789W        W43636   2.994  14.013   0.563  0.1041 -0.1100  0.2393
28790W        W43637   8.777   3.868   1.351  0.0064 -0.0688 -0.2595
28791W        W43638  12.771  17.157  16.544  0.2576 -0.2361 -0.1645
28792W        W43639   9.307   8.024  17.267  0.0469  0.2531  0.0182
28793W        W43640  17.671   3.902   5.220 -0.3138  0.0752 -0.3135
28794W        W43641   7.925   1.685   6.694  0.3474  0.3503 -0.2015
28795W        W43642   8.020  17.426   2.105  0.1091 -0.3172 -0.1313
28796W        W43643   3.752   5.122   5.749 -0.2312  0.3780 -0.0215
28797W        W43644  13.350   3.110  14.161 -0.2457  0.0493 -0.2261
28798W        W43645   6.471  12.489   5.824  0.4447 -0.0962 -0.2341
28799W        W43646  16.695   1.104   5.026 -0.2894 -0.1554 -0.0805
28800W        W43647  15.805   5.683   2.680  0.0161 -0.1228  0.2793
28801W        W43648   5.841  10.504   5.667  0.3442  0.0127  0.0853
28802W        W43649   5.451  14.725  16.346 -0.0054 -0.0543 -0.0393
28803W        W43650  10.307  10.081   4.786  0.1646  0.1661  0.1684
28804W        W43651  10.150  17.420  17.490 -0.0214  0.1714 -0.0412
28805W        W43652   9.487   1.550  14.564  0.1738  0.2886 -0.0102
28806W        W43653   2.984  12.912   3.159 -0.0688 -0.1977 -0.0460
28807W        W43654   8.234  16.812   4.017 -0.1090  0.2152 -0.1812
28808W        W43655   8.677  17.500  13.302  0.3046 -0.1356 -0.2236
28809W        W43656  15.465   1.964  16.822  0.3287  0.0597 -0.0363
28810W        W43657  15.062   9.307   3.254 -0.3267  0.4432  0.1464
28811W        W43658   8.664  14.486   3.688 -0.0051 -0.2112  0.1685
28812W        W43659  16.554   1.438  14.071  0.1109  0.1331  0.0619
28813W        W43660   8.075   9.640  16.293  0.1511 -0.1201 -0.1603
28814W        W43661  15.814  17.162   2.854 -0.1116 -0.0582 -0.1561
28815W        W43662  14.326  12.696  13.126 -0.1434  0.3957 -0.2440
28816W        W43663  10.873  11.350  16.419  0.4595  0.0813  0.1856
28817W        W43664   8.617  15.419  11.971 -0.1523 -0.3427 -0.0359
28818W        W43665   2.707   6.419   2.633 -0.3198 -0.1880 -0.2239
28819W        W43666  11.194   8.090   3.163  0.2840  0.3114  0.1446
28820W        W43667   0.789   9.414   3.432  0.0322 -0.3218  0.2972
28821W        W43668   2.284   1.306  15.287  0.2563 -0.0659 -0.2415
28822W        W43669  12.974  15.655   2.713 -0.2486  0.2520 -0.2355
28823W        W43670   3.176  12.962  11.981  0.3072  0.2569  0.2314
28824W        W43671   3.885   7.077  17.620 -0.1501 -0.0126  0.0301
28825W        W43672  11.498   4.640   1.991  0.2961  0.0518  0.4304
28826W        W43673   8.529   5.805  14.888  0.0527  0.0673  0.1241
28827W        W43674  14.447  10.858   4.617  0.0154 -0.0480 -0.1524
28828W        W43675  12.954  16.668   2.486 -0.3342 -0.2338  0.2682
28829W        W43676   3.446  16.325  15.899  0.4549  0.0012 -0.3394
28830W        W43677   0.246   1.119  10.736 -0.0920  0.2004 -0.0276
28831W        W43678   7.470  12.652  12.366 -0.3099 -0.1372 -0.0247
28832W        W43679  13.538  14.396   3.488  0.1295  0.2989 -0.1532
28833W        W43680   8.947   5.458   5.134  0.1421 -0.1364 -0.0181
28834W        W43681   3.742   6.415  13.396 -0.0972  0.0190  0.0417
28835W        W43682  15.632   2.058   2.925  0.1476 -0.1207  0.0297
28836W        W43683   7.042  11.625   2.876  0.0584  0.2169  0.0063
28837W        W43684  16.382  12.703   1.643  0.0558  0.1360  0.2571
28838W        W43685   4.573   5.732  17.332 -0.2779  0.1270  0.2374
28839W        W43686  12.085   3.064  17.549  0.0793 -0.0674  0.2722
28840W        W43687   8.797  15.604  17.286 -0.2767  0.0129  0.0169
28841W        W43688   2.392   7.351   4.486  0.3985  0.0148  0.1566
28842W        W43689  12.650  15.024  16.670 -0.2373  0.1463  0.4447
28843W        W43690  12.426   5.876  13.260 -0.2320 -0.0526  0.0191
28844W        W43691   3.033  16.242   0.679  0.0137 -0.1188 -0.1410
28845W        W43692   9.359  16.433   2.757  0.0135 -0.1573  0.1543
28846W        W43693  10.089  10.019   0.846 -0.1244  0.1523 -0.0619
28847W        W43694   1.193  16.788   5.229  0.0115  0.2504 -0.0104
28848W        W43695   4.137  10.776   0.902 -0.1349 -0.0070 -0.2619
28849W        W43696   1.913   7.949  16.547  0.2228 -0.1303  0.2481
28850W        W43697  15.569  13.470  14.840  0.0126  0.0781 -0.2820
28851W        W43698   8.317   4.976  14.346  0.1170  0.1107  0.2006
28852W        W43699  17.039  17.145  16.876  0.5080 -0.3133  0.0775
28853W        W43700   3.632  13.403   0.702  0.0405 -0.0607  0.3030
28854W        W43701  12.842   4.569   2.055 -0.3806 -0.1180  0.2620
28855W        W43702   8.451  15.769  13.496 -0.1568  0.1843  0.2534
28856W        W43703   8.224   3.672   0.114 -0.5470 -0.0055 -0.0294
28857W        W43704   4.535   4.967   0.827  0.1060 -0.1708  0.0730
28858W        W43705  16.983  14.024   4.800  0.1333 -0.0118  0.0506
28859W        W43706  13.895  16.095  13.245 -0.0469  0.3197 -0.0655
28860W        W43707   5.442   7.167   4.077  0.0854 -0.0640  0.0356
28861W        W43708   0.221  13.944  14.651  0.3023 -0.1302  0.1636
28862W        W43709   5.511  15.292   1.731 -0.1198  0.1194  0.0859
28863W        W43710  14.247   1.435  14.315  0.0883 -0.3612  0.3075
28864W        W43711   3.679  11.692   6.748  0.0086 -0.0608 -0.1132
28865W        W43712   1.585   7.740  16.971  0.1377  0.2534  0.1136
28866W        W43713   4.053  14.702  15.462  0.2682 -0.0733  0.1212
28867W        W43714  17.205   1.245  17.460  0.1547 -0.0688 -0.0185
28868W        W43715  15.173  11.580   1.994 -0.0787  0.3321  0.1136
28869W        W43716  11.418   9.159  17.058  0.1001 -0.3068  0.0300
28870W        W43717   8.663   8.352  13.746 -0.2154  0.0295  0.2436
28871W        W43718  16.823  15.847   6.828  0.0922  0.1704 -0.1492
28872W        W43719   5.326   5.983   1.870  0.0137  0.1388 -0.2740
28873W        W43720   9.310   4.393  13.969 -0.0975 -0.1711 -0.2783
28874W        W43721  10.999   2.891   1.071  0.2826 -0.1165  0.2947
28875W        W43722   6.113   3.573  12.110  0.1033  0.1098 -0.1081
28876W        W43723  14.929   2.563   4.938  0.1589 -0.1273  0.0203
28877W        W43724  17.574   4.990   2.849  0.2495 -0.0149 -0.2435
28878W        W43725  12.670  12.491   0.397  0.4256  0.0889 -0.0778
28879W        W43726   2.422  12.457  13.946 -0.0337  0.2942  0.0803
28880W        W43727  15.415  13.135   5.167 -0.2360  0.1934  0.1871
28881W        W43728  13.760  15.627   4.109  0.4914  0.1377  0.0551
28882W        W43729   4.552  13.697   1.900  0.1365  0.1738 -0.0613
28883W        W43730  16.654   2.930  17.232  0.0950  0.2550 -0.0281
28884W        W43731   2.227  17.335   6.332  0.0130 -0.2795  0.0629
28885W        W43732   8.103  14.998   4.465  0.2980  0.0185  0.0532
28886W        W43733   3.490   7.599  14.838 -0.2826 -0.2347  0.2020
28887W        W43734  13.133   2.121   5.151 -0.2469  0.0254  0.0321
28888W        W43735   6.964   8.901   0.516 -0.2474 -0.3174 -0.0652
28889W        W43736   5.876   3.504  17.494  0.0057  0.2027 -0.0594
28890W        W43737   4.891   7.585   1.879  0.1385  0.0824 -0.3758
28891W        W43738   7.631   2.496   3.132 -0.1314 -0.4258 -0.0425
28892W        W43739  14.586   9.264  15.614 -0.4844  0.0481  0.0760
28893W        W43740   0.616   6.064   4.653 -0.0484 -0.0334 -0.0201
28894W        W43741  13.131   9.802  13.691 -0.0996  0.1081 -0.2135
28895W        W43742   5.414   4.079  11.272 -0.3064  0.1311  0.1746
28896W        W43743  11.592   7.883  15.195 -0.2857 -0.1462  0.0456
28897W        W43744  16.463  15.331  14.877  0.0555  0.2212 -0.2397
28898W        W43745  14.612   9.282  11.466 -0.1251 -0.2407  0.0193
28899W        W43746  13.228   2.061  13.681  0.3043 -0.0781 -0.1256
28900W        W43747   4.297  14.022   5.403  0.1460 -0.3366  0.0455
28901W        W43748   4.721   9.784   3.500 -0.0584  0.1126  0.0019
28902W        W43749   1.807   8.675  17.120  0.0960 -0.0134  0.0303
28903W        W43750  13.537  17.031   3.046  0.0697 -0.1371  0.0624
28904W        W43751   9.772   0.800   5.296  0.1254 -0.0347 -0.1108
28905W        W43752   4.993  12.958   5.198  0.0209  0.0776 -0.1731
28906W        W43753  10.960  14.826  16.434  0.0822  0.0842 -0.1799
28907W        W43754  16.051   1.219   3.493 -0.1172  0.1710 -0.1068
28908W        W43755  11.327  12.750   6.140  0.2222  0.0551  0.3551
28909W        W43756   7.801  12.886   3.019 -0.0997  0.0157 -0.1374
28910W        W43757   5.945   2.872   1.047 -0.2141  0.0939  0.3053
28911W        W43758  10.147   6.219  12.841 -0.1582 -0.2127  0.1807
28912W        W43759   9.778   6.146  14.308  0.2137 -0.1101  0.0960
28913W        W43760   6.677  17.631  16.138  0.3257 -0.0542 -0.0458
28914W        W43761  10.532  12.392  16.559 -0.0196 -0.0835  0.0640
28915W        W43762   6.284  16.321  17.612 -0.2805  0.0395 -0.2358
28916W        W43763   3.238   0.239  12.240  0.0808  0.0040 -0.1116
28917W        W43764  17.623   8.753   3.100 -0.0241  0.0692 -0.1773
28918W        W43765  11.746  11.621   0.336  0.0548  0.1757  0.2236
28919W        W43766  11.761   1.807  14.734  0.0446  0.4144  0.0038
28920W        W43767  16.627   1.598   5.615 -0.2775  0.0280  0.0818
28921W        W43768   2.663   0.420   1.290  0.2247 -0.3402 -0.0859
28922W        W43769  13.761   2.275  13.432 -0.0014  0.0257  0.0388
28923W        W43770  16.342  17.007  16.006  0.0645 -0.3262  0.2357
28924W        W43771  14.785  14.621  14.692 -0.0076  0.2256 -0.0303
28925W        W43772  16.493  17.459  11.885 -0.1074  0.1261  0.4077
28926W        W43773   7.137   1.211   1.044  0.0754 -0.4073  0.0197
28927W        W43774   9.155   8.777   2.003  0.2473  0.1488  0.0605
28928W        W43775  17.426   3.006   4.295 -0.1257  0.3078 -0.0037
28929W        W43776   9.747   1.160   2.358 -0.3082 -0.1360 -0.1783
28930W        W43777  14.772   1.514  13.775  0.2028  0.2265  0.1916
28931W        W43778  16.440  10.963  14.404 -0.1798  0.6017  0.0675
28932W        W43779   7.176   0.629  17.203 -0.1428 -0.3890  0.0691
28933W        W43780   6.375   9.495   1.118 -0.0355  0.1061 -0.2304
28934W        W43781  15.163   1.746   0.445  0.5379  0.0396 -0.0705
28935W        W43782  15.442   0.926   2.710  0.2563 -0.1851  0.0076
28936W        W43783  16.364  12.092   2.782 -0.0669 -0.2425 -0.1214
28937W        W43784  16.264   2.172  16.188 -0.0967 -0.0659 -0.0509
28938W        W43785  10.048  11.964   0.089 -0.1207 -0.2520  0.3492
28939W        W43786   9.973  14.364   2.040 -0.0321  0.0753  0.1389
28940W        W43787  11.426  11.741   3.075  0.1641  0.0690  0.0719
28941W        W43788  17.590   2.326   2.004  0.1043 -0.2248 -0.1127
28942W        W43789   7.621  14.901   1.747 -0.0024  0.0264 -0.1807
28943W        W43790  13.109  13.401  14.165 -0.1087  0.0064  0.2180
28944W        W43791  15.461   8.765   1.610  0.0157  0.3326  0.0226
28945W        W43792   9.210  13.113   0.543  0.1452 -0.1773 -0.1658
28946W        W43793  11.345  12.420   0.112  0.4822  0.1490  0.1370
28947W        W43794  10.414   2.457  15.688  0.0182  0.2762  0.0672
28948W        W43795   4.691  15.379   5.270  0.3796 -0.1777  0.1655
28949W        W43796   1.262   2.989  15.040 -0.4174 -0.2288 -0.0110
28950W        W43797   1.720   1.965   6.001 -0.0273 -0.1376 -0.1511
28951W        W43798  17.063  12.018  12.512  0.0441  0.0172  0.2331
28952W        W43799   7.424  16.919  14.334  0.2748  0.1148 -0.5283
28953W        W43800  17.370   6.510  12.236  0.2073  0.1767 -0.1165
28954W        W43801  16.724   7.882  16.001 -0.1474  0.1932  0.0866
28955W        W43802  12.804   6.233  13.576  0.1365  0.0630 -0.2935
28956W        W43803   8.510   4.491   1.442 -0.1349 -0.3433 -0.0985
28957W        W43804  15.707  13.771   5.660  0.1504  0.0288  0.2567
28958W        W43805  12.660  15.991   4.394 -0.1300  0.4125  0.0980
28959W        W43806  14.303   1.432  16.720  0.0448 -0.1998  0.0051
28960W        W43807  14.590  13.755   3.498  0.1185 -0.0590 -0.2303
28961W        W43808  16.451  10.722  17.499  0.0124  0.0332  0.1697
28962W        W43809  11.275  15.452  15.563 -0.3517  0.0016 -0.0503
28963W        W43810   1.381  12.603   3.843  0.0028 -0.3211  0.4232
28964W        W43811   6.885  10.753   4.617  0.0855 -0.0614 -0.1067
28965W        W43812   2.929   1.133  16.616  0.1808  0.2885  0.1248
28966W        W43813   6.775  10.551  15.251 -0.2871 -0.0766  0.2170
28967W        W43814   2.663  10.938   0.903 -0.3848 -0.1116  0.1441
28968W        W43815   2.586   9.601   1.370 -0.1573 -0.0941 -0.1060
28969W        W43816  13.379   3.039  13.600 -0.0088 -0.2429 -0.2179
28970W        W43817   7.186   0.622  14.155  0.0917 -0.1962  0.1739
28971W        W43818   9.805  15.328   2.554 -0.1011 -0.1496  0.0673
28972W        W43819   6.971   9.161   1.413  0.1224 -0.3079  0.0653
28973W        W43820  13.598   9.096   5.718  0.1706  0.2418 -0.2449
28974W        W43821   4.550   9.072  16.384 -0.2584  0.1364  0.0541
28975W        W43822   0.824   7.713  15.609 -0.0149  0.2930 -0.1422
28976W        W43823  10.777   3.314  15.879  0.2204  0.0185  0.5052
28977W        W43824  12.828  10.013  14.550  0.0792 -0.0171 -0.0253
28978W        W43825   6.095  12.183  15.438 -0.2607 -0.2221 -0.0568
28979W        W43826   5.365   2.158   2.082 -0.4779  0.2699 -0.1632
28980W        W43827   2.107   5.240  14.980  0.1935 -0.0608 -0.2048
28981W        W43828  12.839   2.799   1.489 -0.0267 -0.0572  0.3447
28982W        W43829   2.559  17.571   1.147  0.0084 -0.2930 -0.1720
28983W        W43830   5.275  17.250  16.566  0.1754 -0.1042  0.1674
28984W        W43831  12.512   4.301  15.715 -0.0880  0.0834 -0.0215
28985W        W43832   8.544   4.552   3.296 -0.0313 -0.1321  0.2475
28986W        W43833   3.879   9.869   2.391  0.1298  0.2551  0.2445
28987W        W43834   3.481   4.017  16.711 -0.0392 -0.0370 -0.1565
28988W        W43835  13.160   5.472   0.585 -0.2094 -0.1987  0.0910
28989W        W43836  11.688   9.050   5.674 -0.0510  0.0662  0.0212
28990W        W43837   1.532   9.167   4.014  0.1211 -0.1629  0.1350
28991W        W43838   5.620   5.363   6.713 -0.2856 -0.3285 -0.0661
28992W        W43839   6.512  14.236  16.540 -0.1109 -0.0647  0.2954
28993W        W43840  13.210  11.340  13.492 -0.1411  0.1415  0.0195
28994W        W43841   6.693   2.936   1.444  0.0348 -0.2869  0.2504
28995W        W43842  14.359  12.920   2.963  0.2642  0.0153  0.1849
28996W        W43843  15.324   8.970  15.277  0.0708  0.3807  0.0599
28997W        W43844  11.794  12.743  15.590  0.3464  0.2609 -0.1056
28998W        W43845   8.775   4.159  12.733  0.0683 -0.2057  0.0241
28999W        W43846   0.882   7.936  14.287 -0.1355 -0.0821 -0.1553
29000W        W43847  12.485   3.688  16.435 -0.1914 -0.1524  0.2699
29001W        W43848  17.157   2.548   3.913  0.1152  0.0195 -0.0670
29002W        W43849   3.981   6.018  15.512  0.1624 -0.0602  0.0062
29003W        W43850   5.876   1.892   0.864 -0.2213 -0.0469 -0.2392
29004W        W43851  11.479  14.862   2.774 -0.0626  0.1060  0.0658
29005W        W43852  10.663  12.137   0.793 -0.0306  0.3417  0.3496
29006W        W43853   6.265   7.113   0.323 -0.0606 -0.0730 -0.0288
29007W        W43854  15.804   2.847   5.548 -0.1822 -0.2138  0.1889
29008W        W43855   4.565   4.924  16.686  0.1890 -0.0724  0.0959
29009W        W43856   3.194   5.328  11.618  0.0848 -0.0332 -0.1895
29010W        W43857   1.079  15.243   1.760 -0.0767 -0.0506  0.0684
29011W        W43858   2.386   4.113   5.354  0.0148 -0.0216 -0.0230
29012W        W43859   9.805   7.047  16.377  0.0762  0.2468  0.0365
29013W        W43860   5.150  16.615  13.926  0.0127 -0.1070  0.3197
29014W        W43861   1.070   8.595   4.440  0.2492 -0.0950  0.1088
29015W        W43862  16.085   0.319   2.424 -0.0680  0.1513  0.3782
29016W        W43863  15.343  16.743   2.205 -0.0011 -0.0399  0.1079
29017W        W43864   1.709   3.455   1.859  0.2424 -0.0366 -0.0661
29018W        W43865   0.486  13.666   0.148  0.1225 -0.0123 -0.0162
29019W        W43866   4.606  16.054   0.076 -0.1277  0.0157  0.0173
29020W        W43867   1.795  10.484   2.978 -0.1160  0.1944 -0.0926
29021W        W43868  13.040  10.770   4.999  0.2309  0.0552 -0.2899
29022W        W43869   1.287   4.877  12.762 -0.2334 -0.0744 -0.3297
29023W        W43870   5.406  11.023   0.216 -0.0466 -0.0940 -0.3082
29024W        W43871   0.494  13.950   2.991  0.0031 -0.1555  0.2289
29025W        W43872   6.111   3.176   3.393  0.0432 -0.0564  0.1085
29026W        W43873  14.107   1.239   3.903  0.0535  0.0331  0.1053
29027W        W43874   2.201   7.270  17.597 -0.0485 -0.0294 -0.2908
29028W        W43875   6.241   3.304   4.312 -0.0616  0.0777 -0.2261
29029W        W43876  14.731  13.276  14.985 -0.0032  0.1972  0.1532
29030W        W43877  15.923  15.953   3.983  0.3110 -0.1025 -0.2209
29031W        W43878   9.791  15.205  13.952 -0.0225  0.0625  0.0639
29032W        W43879   5.698   7.657  11.501 -0.3519 -0.2409  0.0904
29033W        W43880  13.611   3.984   1.843 -0.0030  0.4216 -0.0456
29034W        W43881  14.756   1.151  13.366 -0.0030  0.0986  0.2939
29035W        W43882  14.160   2.740  13.694 -0.2078 -0.0997 -0.0093
29036W        W43883  14.679  10.600  12.873 -0.2131 -0.1744  0.0240
29037W        W43884   2.997  13.811   5.865 -0.2856  0.2450 -0.2520
29038W        W43885   2.038   7.167   1.800 -0.1873  0.2524 -0.1400
29039W        W43886   5.496   3.929  13.707 -0.0961 -0.2163 -0.1306
29040W        W43887   4.433   8.858  12.553  0.0134  0.0104  0.1028
29041W        W43888  10.912  13.243  15.301 -0.2555  0.1369  0.0837
29042W        W43889   4.565   9.195  12.195  0.0209 -0.2446 -0.0540
29043W        W43890   3.093   7.114  11.559  0.2789  0.2201 -0.0080
29044W        W43891   3.654   1.414   5.170 -0.0667 -0.2356 -0.0351
29045W        W43892  16.498   6.401   3.255 -0.2312  0.1523  0.2104
29046W        W43893   0.168  11.653   1.466 -0.3308  0.2360 -0.1523
29047W        W43894  12.491   1.127  15.673 -0.0099  0.1987  0.2082
29048W        W43895  11.148  14.608   3.389 -0.1423 -0.1933  0.3144
29049W        W43896  17.154  10.985   5.248  0.1748 -0.0814 -0.4033
29050W        W43897   8.876  13.615  15.297  0.3335  0.2045 -0.0684
29051W        W43898  12.424   3.104  17.135 -0.0828 -0.0817  0.1202
29052W        W43899   5.289  10.266   2.105 -0.0914 -0.1429 -0.0641
29053W        W43900  14.896  14.959  17.264 -0.0035 -0.2696  0.1267
29054W        W43901   5.839   3.283  15.686 -0.0888 -0.2884 -0.1697
29055W        W43902   4.449  17.056   0.198  0.1510 -0.2516  0.0893
29056W        W43903   4.972   3.215   6.870  0.1115  0.0546 -0.0512
29057W        W43904   2.300   1.645   1.177  0.1978 -0.1667 -0.1263
29058W        W43905  16.248  10.358   5.767  0.1640  0.1298  0.0622
29059W        W43906   6.219   5.225   3.399 -0.0418  0.0090  0.1159
29060W        W43907   3.444   8.391   3.411 -0.4289 -0.1639  0.1574
29061W        W43908  10.149   4.819   1.898  0.1991 -0.0636  0.2371
29062W        W43909   4.692   7.008   1.252  0.0501 -0.3111  0.2382
29063W        W43910  16.401   1.894  16.578  0.1421 -0.0192  0.1644
29064W        W43911   2.435   3.730  13.442  0.1799  0.0518  0.1220
29065W        W43912   1.240  10.294   4.697 -0.0209 -0.1632 -0.2154
29066W        W43913   9.125  10.651  13.482 -0.0958 -0.1350 -0.0129
29067W        W43914  14.250   4.450  13.104 -0.0375 -0.0880  0.0559
29068W        W43915   2.462  13.314  16.977  0.1588 -0.0689 -0.0372
29069W        W43916   1.612   2.782   2.205 -0.2582 -0.2843 -0.1050
29070W        W43917   2.686   9.396   3.475  0.0807 -0.6041  0.0634
29071W        W43918  11.416   1.361   4.836  0.1126  0.0194  0.0779
29072W        W43919  16.224   4.267  13.238 -0.3616  0.1379  0.0149
29073W        W43920   5.678   4.257   1.091 -0.2402  0.0069 -0.1969
29074W        W43921  17.014   8.409   0.629 -0.1731 -0.0770 -0.2830
29075W        W43922   8.047  11.602   6.142  0.0876 -0.1248  0.1186
29076W        W43923   3.713   1.415  12.424 -0.0983 -0.1431  0.1282
29077W        W43924   3.002   9.099  11.428  0.0335  0.1266 -0.0803
29078W        W43925  10.815  14.179  14.959  0.0639 -0.0610  0.1730
29079W        W43926   6.049  11.867  13.281 -0.0491 -0.1022 -0.2578
29080W        W43927   5.689   2.734  12.500 -0.2219  0.0324  0.1581
29081W        W43928  12.752   8.218  15.382 -0.1859 -0.0199  0.2946
29082W        W43929  17.202   1.256  16.906  0.1001 -0.2013  0.0112
29083W        W43930   6.018   1.008  11.760  0.1066  0.0480  0.0287
29084W        W43931  16.060  17.454  14.359  0.2112  0.2667  0.3362
29085W        W43932   5.811  17.671   5.985 -0.1441  0.2931  0.2022
29086W        W43933   8.069  14.006  11.978 -0.0699 -0.0130 -0.0817
29087W        W43934   0.617  17.042   0.211  0.0154  0.1878 -0.2128
29088W        W43935  14.530  12.443  13.478 -0.0304 -0.1749 -0.1130
29089W        W43936   3.999   9.967   1.017 -0.0956 -0.2333 -0.1670
29090W        W43937  11.312   7.107  16.463  0.1680 -0.0911 -0.0037
29091W        W43938  13.111  10.066   0.992  0.5252  0.1943 -0.0725
29092W        W43939   2.401  15.328  12.745  0.0410  0.2769 -0.0244
29093W        W43940   6.110  14.101  14.470 -0.0919 -0.1642  0.0923
29094W        W43941   8.082  16.560  16.870 -0.0975 -0.1613 -0.0764
29095W        W43942   8.161  11.017   4.590 -0.1047 -0.3521  0.0417
29096W        W43943   2.761  11.422  15.497  0.3554  0.1653 -0.1432
29097W        W43944   5.149   7.140   5.357 -0.0970 -0.0610  0.0089
29098W        W43945   6.415   2.007   6.305  0.1064 -0.0036 -0.4338
29099W        W43946  14.533  14.386   1.125  0.2275 -0.0202 -0.1036
29100W        W43947   4.468   6.249  17.507 -0.1007 -0.0754 -0.1314
29101W        W43948   8.131  10.577  14.107  0.1282 -0.0913  0.2970
29102W        W43949  12.276  16.474  17.618  0.2399  0.0781  0.0497
29103W        W43950  12.012  12.586   0.054  0.1855  0.0255  0.0394
29104W        W43951  13.852  15.436   2.650 -0.2522  0.0812  0.0369
29105W        W43952  14.436   2.946  11.668 -0.1649 -0.1356 -0.0686
29106W        W43953  17.614   3.688   2.083 -0.1878 -0.1737  0.0104
29107W        W43954   4.157   0.986   2.813  0.3220 -0.0774  0.0714
29108W        W43955   7.669  17.359   1.384  0.0872 -0.2475 -0.1385
29109W        W43956   7.189   4.849   2.424  0.1083  0.4491  0.1764
29110W        W43957  15.647  11.641   4.219 -0.0396  0.0795 -0.0984
29111W        W43958  15.173  16.649  16.572  0.2875  0.3593 -0.0998
29112W        W43959  11.314   1.721   0.574  0.2847  0.2166  0.2146
29113W        W43960   5.121   2.584  12.009 -0.0733 -0.0000  0.0418
29114W        W43961   1.804   2.690  17.669  0.3578  0.0645  0.0523
29115W        W43962  12.069   8.274  14.492 -0.3737 -0.0268  0.1779
29116W        W43963   3.153   3.126  14.096  0.2094 -0.0982  0.1405
29117W        W43964  13.360  13.213   4.361  0.0846  0.0882 -0.1578
29118W        W43965   1.356  15.737  13.408  0.0240 -0.2280 -0.0897
29119W        W43966   5.386   0.629  15.549 -0.1179  0.1611 -0.1346
29120W        W43967   1.004  12.532  17.097 -0.1223 -0.4225  0.2513
29121W        W43968   5.902  13.910  16.308 -0.0189 -0.3512  0.0715
29122W        W43969   4.867   2.843  14.694 -0.1098  0.2341  0.1799
29123W        W43970   8.190  13.422  17.265  0.0817 -0.1833 -0.2487
29124W        W43971  11.245  11.274  16.155  0.0020 -0.0648  0.1346
29125W        W43972   9.059   2.006   0.766 -0.0384 -0.0443 -0.3470
29126W        W43973   7.829   4.450  15.160  0.0878  0.5043 -0.1551
29127W        W43974  12.433   1.666  15.132 -0.0966 -0.0665 -0.1099
29128W        W43975   3.967   6.232   2.146 -0.1043  0.1641  0.1640
29129W        W43976  15.917   9.596   5.114  0.0263  0.0460  0.1999
29130W        W43977  10.955   4.946  12.059  0.0193  0.1384 -0.0820
29131W        W43978  15.578  12.239   5.748  0.1637 -0.0202 -0.0147
29132W        W43979  12.926  13.617   5.032  0.3613  0.1686 -0.1508
29133W        W43980   5.629   0.777  15.995  0.0727 -0.1233 -0.2176
29134W        W43981   3.269  14.319  12.256  0.1270  0.1443 -0.2998
29135W        W43982  16.120   2.235   6.179 -0.1668  0.1807 -0.2628
29136W        W43983   8.144  13.598   4.420 -0.0944  0.0673  0.0976
29137W        W43984   2.407  10.075   1.174 -0.1235 -0.2320  0.0185
29138W        W43985   1.291   5.052  11.920 -0.1922 -0.1613  0.1051
29139W        W43986  12.218   5.827   0.358 -0.1224  0.0635 -0.1869
29140W        W43987   2.267   1.335   1.940  0.1313 -0.1283  0.0405
29141W        W43988   7.543   6.422  13.172  0.3683  0.2103 -0.0070
29142W        W43989  16.012   9.376  12.463  0.1056  0.1165 -0.1519
29143W        W43990  13.029   1.892   0.961 -0.2193  0.0870  0.0051
29144W        W43991   5.915   8.677   1.789 -0.2300  0.2383  0.1926
29145W        W43992   6.927  16.568  13.127 -0.0108 -0.0733  0.1741
29146W        W43993  11.689  11.037   3.638  0.1315 -0.0673 -0.1279
29147W        W43994  16.032   3.225  12.377 -0.0766  0.0654  0.1235
29148W        W43995   8.348   8.108   0.003 -0.3079 -0.1172 -0.0751
29149W        W43996  11.001   3.625   1.512 -0.3407  0.1263  0.1570
29150W        W43997  11.571   4.744  16.243 -0.0928 -0.3051 -0.1580
29151W        W43998   3.584  12.851  17.269 -0.3827 -0.3736 -0.0073
29152W        W43999   8.376   0.454   3.705 -0.1455 -0.3163  0.0253
29153W        W44000   5.611   2.575  17.305  0.0831  0.0064  0.3585
29154W        W44001   2.919   6.135  12.748 -0.0735 -0.0184  0.0042
29155W        W44002   2.600   9.382   2.566 -0.3687  0.0336 -0.0927
29156W        W44003   3.517   0.928  16.037  0.0696 -0.1085  0.0097
29157W        W44004   0.262  17.560   3.670  0.0678 -0.0181  0.0963
29158W        W44005   9.301   7.085   3.155  0.0627 -0.0587 -0.0540
29159W        W44006   8.879  15.943   5.323  0.0683  0.0184  0.0571
29160W        W44007   0.683   6.218  12.361 -0.1052  0.1479 -0.1157
29161W        W44008  10.649  14.388   3.612 -0.4235  0.3287 -0.1738
29162W        W44009   9.096   7.939   3.045 -0.4188 -0.0223  0.0606
29163W        W44010  16.780   3.515  13.745  0.1201 -0.5627  0.0654
29164W        W44011  16.248  10.362  12.785 -0.1701 -0.0514 -0.1008
29165W        W44012  14.958  14.888   3.235 -0.0123 -0.2318 -0.1186
29166W        W44013  13.656   9.045   2.594  0.0001  0.0200  0.0476
29167W        W44014   2.653  10.165  14.326 -0.4611  0.1563 -0.2516
29168W        W44015   6.928   0.348  17.612 -0.0345 -0.1179  0.2454
29169W        W44016   0.890   7.116  12.478 -0.1637 -0.0293 -0.0344
29170W        W44017  15.430   0.512   3.086 -0.1817 -0.2339  0.2065
29171W        W44018  16.869   7.831   5.389 -0.0868 -0.2847 -0.3516
29172W        W44019   1.168   4.591  12.003 -0.1466  0.2384 -0.0433
29173W        W44020   3.782   1.138   1.807 -0.3653 -0.3747  0.2554
29174W        W44021   6.810   9.761  11.472  0.1935 -0.1173 -0.0756
29175W        W44022   3.645   4.439  13.453 -0.0315  0.2713 -0.1041
29176W        W44023   9.190   4.888   5.265  0.2122 -0.2693  0.0693
29177W        W44024  16.563   9.091   5.546  0.3457 -0.1996 -0.1915
29178W        W44025  11.189   4.540   3.243 -0.0913 -0.0078 -0.1632
29179W        W44026  13.004   9.083   0.906  0.1251  0.1729 -0.0901
29180W        W44027   0.147   1.676   4.515 -0.1700  0.0039  0.1226
29181W        W44028  13.193  15.207  14.386 -0.2390  0.0962  0.0816
29182W        W44029  12.835  14.813  14.192 -0.0117  0.1599 -0.1244
29183W        W44030  10.552   9.038  13.904 -0.0152  0.2488 -0.3248
29184W        W44031  16.939   3.797   0.982  0.1172  0.0356  0.0784
29185W        W44032  11.416  10.487   1.471  0.3116  0.0982  0.4445
29186W        W44033   3.532   3.800   2.917 -0.0579  0.1808 -0.0846
29187W        W44034   5.329  14.021  15.412  0.2940 -0.0797 -0.1011
29188W        W44035   1.052   9.279  16.039  0.4959 -0.1810 -0.3143
29189W        W44036  15.919   9.999   2.021  0.0166  0.2678 -0.0203
29190W        W44037  15.330   3.826  13.730 -0.3073  0.0498  0.1543
29191W        W44038  10.959   1.470   0.895 -0.0570 -0.0785  0.0738
29192W        W44039  13.129  15.837  12.680 -0.0479 -0.1285 -0.0574
29193W        W44040   6.710   2.689  17.636  0.1952  0.0278  0.0874
29194W        W44041   5.499  16.779  15.655  0.1668 -0.1687 -0.0806
29195W        W44042  15.365  11.486  13.906 -0.0366 -0.0624  0.1918
29196W        W44043   7.776   8.089   5.983 -0.2357 -0.0391 -0.0621
29197W        W44044  10.960  14.342   2.019 -0.0926  0.2600  0.0328
29198W        W44045  12.083  13.430   4.634  0.0640  0.0625 -0.1193
29199W        W44046   0.763  15.131  17.684  0.0025 -0.0275 -0.0360
29200W        W44047   3.329  12.040   3.683  0.1632 -0.1838  0.3524
29201W        W44048   0.096   5.681  17.116 -0.0390 -0.3586  0.0180
29202W        W44049   6.360  17.329   3.652 -0.1059  0.2183  0.2430
29203W        W44050  10.318   4.003   3.438  0.0279 -0.2995 -0.1025
29204W        W44051   7.765  10.324   6.465 -0.3455  0.2891 -0.0289
29205W        W44052  14.074   3.753  13.735 -0.0570 -0.2999 -0.0511
29206W        W44053   6.493  14.996  14.930  0.0143 -0.1389  0.1581
29207W        W44054   1.946   5.189   2.619 -0.0211 -0.1507  0.1593
29208W        W44055  16.722   4.853   3.283  0.0453  0.0066  0.0167
29209W        W44056   6.016  13.183  12.190 -0.1757  0.0774  0.3564
29210W        W44057   6.861  11.285   0.168 -0.0999 -0.1656  0.1128
29211W        W44058   3.429  17.153   3.965 -0.1463  0.3139  0.0742
29212W        W44059  10.019   5.426  16.729 -0.0111 -0.1154 -0.0645
29213W        W44060   1.111   0.385   2.314  0.2313 -0.0191  0.0588
29214W        W44061   6.649  11.863   0.883 -0.5498 -0.1355 -0.2354
29215W        W44062  17.112  16.090  14.525 -0.0099 -0.3458  0.4264
29216W        W44063   4.677   4.412  16.415 -0.1641  0.2126 -0.1571
29217W        W44064   9.754  14.069   4.021  0.2057 -0.1374 -0.0526
29218W        W44065   9.640   9.128  12.897  0.0644  0.1189 -0.1968
29219W        W44066   5.970   2.013  11.793  0.1208 -0.4950  0.0586
29220W        W44067   2.662  16.641   3.083 -0.3967  0.1524  0.1623
29221W        W44068   9.238  15.803  13.967  0.0575 -0.2314  0.0854
29222W        W44069  11.189  11.048  14.493 -0.2552 -0.0772  0.2361
29223W        W44070  14.742  17.064   0.646 -0.0360 -0.2382 -0.1660
29224W        W44071   6.317   0.946  15.054 -0.2566 -0.2722  0.1574
29225W        W44072   7.828   0.179  14.680  0.2050 -0.0560  0.0650
29226W        W44073   4.191   3.523  13.834  0.2172 -0.0421 -0.1286
29227W        W44074  12.849   2.834   0.905 -0.3036  0.0299  0.0012
29228W        W44075  12.444   7.555  14.141 -0.2781  0.0816  0.4761
29229W        W44076   6.759   7.499   5.136  0.1279  0.3034  0.1946
29230W        W44077  10.184  15.944   1.268 -0.1147  0.0440  0.0653
29231W        W44078   0.373   5.454   5.517 -0.0971  0.1611 -0.1601
29232W        W44079   4.280  15.398   1.866 -0.1011 -0.1888 -0.0611
29233W        W44080  13.967  15.783   2.263  0.0268 -0.2755 -0.0761
29234W        W44081   8.966   7.522  13.907  0.2184  0.1999 -0.4072
29235W        W44082   9.589  11.820   2.869  0.0390  0.3099 -0.0153
29236W        W44083   0.409   8.904  11.690 -0.0776 -0.0641 -0.1019
29237W        W44084  17.147   0.278   4.936  0.1683  0.1321  0.0179
29238W        W44085   9.415   4.911  17.151  0.2698 -0.1128  0.0334
29239W        W44086   1.992  15.539   1.897  0.1801 -0.1926 -0.0407
29240W        W44087  13.204   2.146  12.934 -0.1779  0.0926  0.2375
29241W        W44088   4.381  10.085  16.004  0.1271 -0.1380  0.4102
29242W        W44089  16.999  16.741   6.451 -0.1405  0.3652 -0.0471
29243W        W44090   0.307   8.181   2.057 -0.0124 -0.0500 -0.2423
29244W        W44091  13.934   7.273  17.617 -0.0492 -0.0065  0.0172
29245W        W44092   9.404   4.514   0.046 -0.0649  0.4199  0.0843
29246W        W44093   6.212   9.664  14.634 -0.1087  0.2398 -0.1884
29247W        W44094   3.162   9.926   5.436 -0.1136 -0.0016 -0.0646
29248W        W44095  12.907  16.073  16.834  0.1284 -0.1100 -0.0679
29249W        W44096   4.933  14.820  14.323 -0.2153  0.1636 -0.0189
29250W        W44097   8.675   2.315  15.920  0.2185 -0.3282 -0.0193
29251W        W44098   5.797  17.220  12.314  0.1749 -0.0724 -0.1025
29252W        W44099   5.263   6.028  15.963 -0.1217  0.0413 -0.2749
29253W        W44100  10.003  13.112   6.557 -0.1669 -0.1223 -0.0733
29254W        W44101   7.862   5.883  11.332 -0.1107  0.0459 -0.1469
29255W        W44102  12.168  15.773   5.199  0.3627  0.2460  0.0223
29256W        W44103   9.032   8.582   5.963 -0.0698  0.1435 -0.1662
29257W        W44104   8.995   7.674   5.407 -0.1915 -0.1134 -0.3060
29258W        W44105   6.552  15.744  10.949 -0.1988 -0.1199  0.1421
29259W        W44106   8.690   8.068  12.163 -0.1446  0.2854  0.0114
29260W        W44107  14.452  17.226   4.027 -0.0290  0.1807  0.4282
29261W        W44108   0.567   3.763  16.494  0.3553 -0.1247  0.0458
29262W        W44109   4.197  12.428   5.053  0.5227  0.0800  0.0292
29263W        W44110   0.903  15.026  16.877  0.1272  0.0798 -0.0516
29264W        W44111  13.804   3.349  13.314 -0.4420  0.0921 -0.0303
29265W        W44112  16.208   3.024   4.550  0.2257 -0.1785  0.1744
29266W        W44113   0.529  16.853  15.128  0.4585  0.2318 -0.0738
29267W        W44114   2.660   5.072   4.276 -0.1532  0.2229  0.0412
29268W        W44115   1.750   3.231  10.685  0.1278  0.4085  0.1416
29269W        W44116   9.112   2.511   3.436 -0.1227 -0.0939  0.4398
29270W        W44117   0.070  10.634   3.086  0.1696 -0.0271  0.0104
29271W        W44118  16.388   5.346  15.379  0.0235 -0.0593  0.0601
29272W        W44119  15.516   4.978   5.991  0.2045 -0.0753  0.0539
29273W        W44120   9.098   6.492  16.650  0.2245 -0.0904  0.1563
29274W        W44121  17.438  12.571   4.746 -0.2200  0.4845  0.0245
29275W        W44122   5.231  13.708   0.291  0.0416 -0.1297 -0.0399
29276W        W44123  17.637  11.092  16.761  0.1590  0.0359 -0.1296
29277W        W44124  15.989  10.258   3.014 -0.0934  0.2435  0.0533
29278W        W44125  16.627  17.648   0.758 -0.0244  0.0416 -0.0099
29279W        W44126   2.487  17.511   2.054  0.0679  0.0797 -0.0363
29280W        W44127  13.242  11.825   7.145 -0.1133 -0.2393  0.0001
29281W        W44128  16.637   5.101   6.077 -0.0991 -0.1627 -0.0335
29282W        W44129   4.160   4.679  12.674 -0.0512 -0.0761 -0.1466
29283W        W44130   5.197  13.791  13.166 -0.1732 -0.0002 -0.4650
29284W        W44131   4.163  16.353   4.443  0.0270  0.2793 -0.0961
29285W        W44132  16.962  12.528   4.645  0.1862  0.0939 -0.0595
29286W        W44133  16.517   8.214   0.533 -0.0281  0.3986 -0.1583
29287W        W44134   5.687   5.117   1.495  0.0757  0.1038 -0.3931
29288W        W44135  16.327   2.028   5.823 -0.2116  0.1400 -0.1172
29289W        W44136   6.363  12.045  12.476  0.2147  0.2177  0.0828
29290W        W44137   1.787   0.694   3.130 -0.1663  0.1646  0.1027
29291W        W44138  10.574   6.042   3.151  0.2143  0.1314  0.1861
29292W        W44139   9.712   1.380  13.307 -0.2503  0.2342  0.0766
29293W        W44140  16.205   8.967   1.078  0.1938  0.1775  0.2425
29294W        W44141   9.255  11.622  14.233  0.0647 -0.1927  0.0840
29295W        W44142   3.096  13.396   0.626  0.0753  0.0083 -0.1567
29296W        W44143   7.130  17.563  15.986 -0.1376 -0.1441 -0.0008
29297W        W44144   1.363  11.755   4.443 -0.0031 -0.0952 -0.1453
29298W        W44145   0.231   3.629  13.870 -0.0576 -0.4975 -0.0517
29299W        W44146   8.513   3.903  15.064 -0.4255  0.0006 -0.1101
29300W        W44147  10.661   0.778   3.100  0.2824 -0.1851  0.3573
29301W        W44148   5.701  17.429   0.109 -0.1987  0.2086 -0.0799
29302W        W44149  11.114   7.709  14.779 -0.1763 -0.3139 -0.0524
29303W        W44150  10.510   3.899  12.652 -0.1051  0.0733 -0.1094
29304W        W44151  10.358   1.689  14.621 -0.0480  0.1115 -0.2860
29305W        W44152   0.912  11.591   3.641 -0.2670  0.1150 -0.0246
29306W        W44153  13.033  17.434   6.073 -0.0991 -0.0448 -0.1282
29307W        W44154   5.117  16.941  15.369  0.1570  0.1665 -0.0633
29308W        W44155   8.416  12.267   6.338 -0.2089 -0.0395 -0.1157
29309W        W44156  17.380   5.563  14.853  0.0361 -0.0910 -0.1480
29310W        W44157  11.187   0.487   3.143  0.0260  0.1350  0.2157
29311W        W44158  17.375  13.859   5.120 -0.0475 -0.1050 -0.0853
29312W        W44159   3.739   4.612   2.910 -0.1869  0.0657 -0.0823
29313W        W44160  10.492   8.336  15.206  0.1705 -0.1335 -0.1129
29314W        W44161   4.699   1.007  17.502  0.0504 -0.1501 -0.0363
29315W        W44162   6.397   1.477  13.971 -0.0030  0.1811  0.2696
29316W        W44163   0.377   7.456   4.803  0.1156 -0.3865  0.0381
29317W        W44164  15.667   3.232  17.229 -0.0511 -0.2313 -0.0993
29318W        W44165   1.491  16.829   2.533  0.1467  0.2180  0.2557
29319W        W44166   6.804  10.226   3.984 -0.2040  0.0168  0.0166
29320W        W44167  14.726   9.429  13.491  0.1381 -0.2471 -0.1354
29321W        W44168  10.688   0.173   2.585  0.3882 -0.0320 -0.1746
29322W        W44169  13.892  10.451   0.190 -0.2208  0.3214  0.0806
29323W        W44170  13.270   7.915   0.295  0.2955  0.1481  0.0618
29324W        W44171  17.180   1.137  15.679  0.0262  0.0042  0.1910
29325W        W44172  10.281  16.968  15.487  0.3547 -0.1630 -0.1455
29326W        W44173  16.395   2.985  13.928  0.1259 -0.2658  0.0381
29327W        W44174   7.806  10.392   3.808 -0.0996  0.0881 -0.0367
29328W        W44175   5.407   4.014  12.690 -0.3649 -0.0646 -0.0033
29329W        W44176  13.920   7.666   6.042 -0.1460  0.0142  0.1300
29330W        W44177   9.122   8.166   1.269 -0.0933 -0.1438 -0.1518
29331W        W44178  15.088  10.729  14.269 -0.1182 -0.1398  0.3046
29332W        W44179  11.452   9.436  14.190  0.0250  0.0722  0.2100
29333W        W44180   9.822  15.761   2.811  0.1974  0.1325  0.1219
29334W        W44181  17.101   9.881   3.339  0.1674  0.2570 -0.0732
29335W        W44182  17.070   2.994   3.645 -0.0095 -0.3603 -0.0793
29336W        W44183   6.162   8.521   4.429  0.2035  0.1894 -0.1561
29337W        W44184  13.101  16.577  13.981 -0.2384  0.0428  0.1142
29338W        W44185  16.578   5.156   0.350  0.3035  0.2178  0.5387
29339W        W44186   0.631   6.256  12.872 -0.1989 -0.0724 -0.1645
29340W        W44187   9.467   3.714   3.978  0.0169 -0.0973  0.2962
29341W        W44188  10.762   7.921   5.613  0.0713  0.1347 -0.4056
29342W        W44189   3.247  12.015   6.068 -0.0424 -0.1922  0.1033
29343W        W44190  11.448  12.198   1.798  0.0006 -0.1394 -0.1006
29344W        W44191   2.038   0.815   0.032  0.1605  0.0319  0.3725
29345W        W44192   7.098  13.385   5.853 -0.0049 -0.0981 -0.1862
29346W        W44193   2.463   2.560   2.641 -0.2043  0.0898  0.0682
29347W        W44194  12.598  16.633   5.241  0.0329 -0.0562  0.0610
29348W        W44195   6.855  14.040   2.193 -0.3078 -0.1604  0.0199
29349W        W44196   0.390  13.137   2.993  0.4280  0.0794 -0.3001
29350W        W44197  12.228  12.094   1.243  0.0062 -0.0579  0.0727
29351W        W44198   8.712  16.905  14.421 -0.1042  0.0333  0.0601
29352W        W44199   1.073   9.572  16.501  0.1033 -0.0119  0.0198
29353W        W44200  16.568   4.189  13.707  0.1197 -0.1839  0.0712
29354W        W44201  11.949   9.265   4.417  0.0662 -0.3238 -0.0913
29355W        W44202  14.907  14.208  14.380 -0.3625 -0.1152  0.2231
29356W        W44203  12.861  15.746  16.061 -0.2400  0.0363 -0.1422
29357W        W44204   8.825  10.529   4.649 -0.0122 -0.2349  0.0990
29358W        W44205   7.564  10.232  16.244 -0.3190  0.0059  0.0999
29359W        W44206  13.941  14.957  13.616 -0.0221  0.2376  0.0484
29360W        W44207   0.954  10.224   5.666 -0.0870  0.1121 -0.2825
29361W        W44208   4.501  12.642  14.219 -0.2855  0.3095  0.0450
29362W        W44209   6.657   2.725  12.622  0.1995 -0.0665  0.0287
29363W        W44210   3.773   4.069   5.433  0.2237 -0.1961  0.0257
29364W        W44211   7.919  10.983  12.953 -0.0684  0.1559  0.1611
29365W        W44212  14.022   5.619  15.528 -0.0754 -0.0277  0.2835
29366W        W44213   9.672  10.105   5.786 -0.0828  0.1115 -0.0050
29367W        W44214   6.859   8.571   1.349  0.1869  0.0815  0.0294
29368W        W44215  13.747   8.016  14.920 -0.1175  0.1834 -0.0151
29369W        W44216  10.583   0.999   2.270  0.1248  0.1205  0.1098
29370W        W44217  15.051  10.552  15.872  0.0488 -0.2231 -0.0402
29371W        W44218  14.282  13.022   0.506  0.3557 -0.0727  0.5005
29372W        W44219   4.345   7.394  17.681  0.1270 -0.3499  0.3297
29373W        W44220  10.940  11.537  13.593  0.1998  0.0686  0.3330
29374W        W44221  17.527   4.898   4.960 -0.0444 -0.2094  0.1020
29375W        W44222   2.027   8.462   5.307 -0.1050 -0.2253 -0.0416
29376W        W44223  10.013   8.426  14.955  0.0673 -0.0497  0.2221
29377W        W44224   6.737  13.770  17.626 -0.3774 -0.1479 -0.4933
29378W        W44225   8.978  11.378   4.965  0.4559  0.0681  0.1348
29379W        W44226   4.489   6.709  16.860 -0.0417  0.1064 -0.1078
29380W        W44227  11.030   0.229   1.290  0.2160 -0.2880  0.1030
29381W        W44228   2.313  10.272  11.654  0.0219  0.2739 -0.2489
29382W        W44229   0.651  15.580   4.817 -0.0223 -0.1357  0.0778
29383W        W44230   6.033   4.058  15.961 -0.0682  0.3165  0.2407
29384W        W44231   3.942  14.214  17.522 -0.1252 -0.2426 -0.1089
29385W        W44232   9.487   8.369   2.653 -0.0795 -0.0464 -0.1014
29386W        W44233   0.244  12.004  14.594  0.0312  0.1053 -0.1050
29387W        W44234  16.526  12.313   0.664 -0.3621 -0.0213 -0.1375
29388W        W44235  13.819   2.605   3.285  0.3425  0.0231 -0.0482
29389W        W44236   1.324  15.864  15.640  0.1995  0.0887  0.0439
29390W        W44237   9.323   2.035   0.295  0.0097 -0.1517 -0.2560
29391W        W44238   8.045   0.093   3.745  0.1588  0.5203  0.1091
29392W        W44239   8.423  14.675   6.597  0.2223 -0.0382 -0.0662
29393W        W44240   7.836  11.240   4.291 -0.1668 -0.3124 -0.1471
29394W        W44241   8.640   3.703   4.968 -0.5199  0.2303  0.1723
29395W        W44242  11.222  11.509   1.240  0.1795 -0.2458  0.2278
29396W        W44243   3.321  14.494  13.426  0.1414 -0.2536  0.2340
29397W        W44244   7.057   6.114  13.336 -0.0552  0.0100 -0.0616
29398W        W44245  16.961  11.500   1.220 -0.0293 -0.2363 -0.4752
29399W        W44246  17.371   2.708  15.253  0.0307 -0.0063 -0.0060
29400W        W44247   4.969  12.146  13.930 -0.2377 -0.0044 -0.2259
29401W        W44248  10.659   2.976  14.046 -0.2351 -0.2498  0.2588
29402W        W44249  15.233   1.501  16.725 -0.0572 -0.2776  0.2680
29403W        W44250  16.989  10.075  15.713  0.2272 -0.3535 -0.0115
29404W        W44251   8.102  16.376   1.833  0.4451  0.0028  0.0562
29405W        W44252  13.544   5.188  14.895  0.2272  0.4965 -0.0909
29406W        W44253  12.602   8.465   4.347  0.0538 -0.1228  0.1495
29407W        W44254   8.906   7.675  16.591  0.1569 -0.1424  0.0180
29408W        W44255   6.902  11.449  13.415 -0.3984 -0.1361  0.1434
29409W        W44256   6.810  11.106   4.980 -0.2290 -0.1310  0.1296
29410W        W44257   2.808   2.718   0.429  0.1831 -0.2042 -0.3104
29411W        W44258   8.564  13.181   6.522  0.2398  0.3213  0.1192
29412W        W44259  15.740  16.612   6.187 -0.2617 -0.0903 -0.1861
29413W        W44260   1.623   2.467   5.092  0.1199 -0.1223 -0.1400
29414W        W44261  10.484   0.163  17.653  0.0986  0.3517  0.0181
29415W        W44262  12.534  12.612  16.767  0.4512  0.1616  0.0762
29416W        W44263   9.793   0.062   4.869 -0.0332  0.1356 -0.2157
29417W        W44264   2.558  15.622  15.326  0.1188  0.0120 -0.1956
29418W        W44265  17.247   5.091   6.834  0.0907  0.1518 -0.0606
29419W        W44266   0.316  11.352  15.175  0.0310 -0.3597  0.1806
29420W        W44267  11.717   3.426  16.870  0.1458  0.0352  0.0606
29421W        W44268  16.254  14.905   0.363  0.0894 -0.0006 -0.0512
29422W        W44269   0.087   5.957  12.312  0.1236 -0.0609 -0.2773
29423W        W44270   1.218  17.299   4.483  0.0212 -0.2376  0.0157
29424W        W44271  13.246   7.201   4.620 -0.0948 -0.0616 -0.0265
29425W        W44272  13.866  11.644   1.282  0.0050 -0.2400 -0.0028
29426W        W44273   8.087   7.443  13.213  0.1993 -0.1641 -0.1122
29427W        W44274   2.077   3.620   2.210  0.1516 -0.0973  0.1679
29428W        W44275   2.358   1.871  15.788  0.1074 -0.2707 -0.3985
29429W        W44276   4.586  11.705   3.722 -0.0090  0.2098  0.2886
29430W        W44277  16.377  17.347   6.009  0.1613 -0.1759  0.2917
29431W        W44278  14.572   0.906  16.755 -0.1903  0.0611  0.0343
29432W        W44279   3.589  10.061   2.817 -0.1814  0.2565 -0.0625
29433W        W44280   0.076  13.818   1.468  0.0136  0.1876 -0.1265
29434W        W44281   4.014  13.461   2.126 -0.0684  0.2086 -0.1660
29435W        W44282   9.875  11.465   0.580 -0.0826 -0.0111 -0.1977
29436W        W44283  15.891  15.247   1.766  0.0866 -0.2848 -0.1132
29437W        W44284  14.790   4.935   3.906 -0.2496  0.3174  0.2277
29438W        W44285   1.339  11.866   3.467 -0.2481 -0.0604  0.1344
29439W        W44286  11.197   2.207  15.162  0.1209  0.0518 -0.0519
29440W        W44287  17.170   5.119  17.467 -0.2720  0.1533  0.0477
29441W        W44288  17.653  17.526  11.949 -0.0807  0.0098  0.1682
29442W        W44289  13.319   8.474   5.383 -0.0819 -0.0860 -0.1000
29443W        W44290   6.270  16.501  13.583  0.0933  0.1530 -0.3023
29444W        W44291   6.183  10.164  16.532  0.0206  0.1325  0.3913
29445W        W44292   6.596   0.514   1.441  0.2193 -0.0829 -0.2280
29446W        W44293   3.986   1.079  15.724  0.0032  0.1085 -0.1024
29447W        W44294  10.160   0.376   3.974 -0.1082  0.2990  0.1935
29448W        W44295   4.092  10.923  12.654 -0.4107  0.4984 -0.0383
29449W        W44296   3.443   1.258   4.756  0.1286 -0.0755 -0.0448
29450W        W44297   4.212   6.412  13.533 -0.2475 -0.2784  0.5073
29451W        W44298  13.176  15.030   4.186  0.4600  0.2013  0.2299
29452W        W44299  10.948  17.097   0.180  0.2593  0.1059  0.1533
29453W        W44300   2.727   1.651   5.196  0.0497 -0.2529  0.1584
29454W        W44301   7.951   4.203   3.997 -0.2523 -0.0970  0.1252
29455W        W44302   5.560  12.934   0.137 -0.2056 -0.1516 -0.2829
29456W        W44303   8.522   2.039   5.457  0.1457 -0.2872 -0.2420
29457W        W44304  14.784  10.254  16.255 -0.0155 -0.0801  0.0442
29458W        W44305   6.156  10.314   1.552 -0.1478 -0.3024  0.0137
29459W        W44306   0.625   5.137   4.541  0.4879 -0.0145 -0.0724
29460W        W44307   6.197  15.576   7.355  0.1647  0.5312 -0.0664
29461W        W44308  15.500   3.507  13.408 -0.0562  0.2139  0.3660
29462W        W44309   7.232  10.574  13.868 -0.1660 -0.3693 -0.4228
29463W        W44310   6.227  17.362  17.189 -0.4356  0.1665 -0.2286
29464W        W44311  12.956   9.331  13.590  0.0927 -0.0451  0.3376
29465W        W44312   3.564   9.221  17.502  0.0348 -0.1806  0.1467
29466W        W44313   9.257   2.801   3.012 -0.2680  0.2279  0.0221
29467W        W44314   7.742   9.183   3.750  0.1915  0.1308 -0.1668
29468W        W44315   2.937   3.788  16.504 -0.2549 -0.1737 -0.1660
29469W        W44316   4.069   4.313   0.161  0.0668 -0.1482 -0.3012
29470W        W44317   9.904   3.028   1.029 -0.1283  0.0904  0.1700
29471W        W44318   3.479  13.035   3.076 -0.0507 -0.0947 -0.1439
29472W        W44319   9.250  12.202   4.005  0.1410 -0.1662 -0.1269
29473W        W44320   0.314   8.323  16.747 -0.1333 -0.0736  0.0480
29474W        W44321   1.400   5.738   2.785 -0.1001 -0.1328 -0.2093
29475W        W44322   7.145  14.766  13.889 -0.0772 -0.1443  0.0098
29476W        W44323  12.888  11.185   2.848  0.3849  0.2983  0.1143
29477W        W44324   9.614  17.424  16.466  0.1159  0.2975 -0.2393
29478W        W44325  10.704   5.372   0.227  0.1904 -0.3072  0.2494
29479W        W44326   3.906  12.029  13.870 -0.2219 -0.0801  0.2242
29480W        W44327   6.914   9.343  11.208  0.2594  0.0287  0.2455
29481W        W44328  12.050  16.668   2.429  0.0156  0.0910 -0.0091
29482W        W44329   8.747   9.008   1.717  0.0413  0.1075 -0.1548
29483W        W44330   5.699  10.201   0.789  0.2137 -0.1733 -0.2240
29484W        W44331   3.369   6.378  10.548  0.3081  0.3655 -0.1407
29485W        W44332   7.634  10.500  14.254 -0.0799 -0.1936  0.0274
29486W        W44333  15.623  11.550   6.243  0.3612 -0.1259  0.3107
29487W        W44334   9.032   8.663  13.071 -0.1789  0.0082 -0.0215
29488W        W44335   8.443   7.941  16.780  0.0081  0.4125  0.2461
29489W        W44336   7.330  16.123  12.105 -0.1924  0.1920 -0.3014
29490W        W44337   7.075   4.703  13.093  0.2403 -0.0761 -0.2111
29491W        W44338   5.459   1.539   1.511 -0.0394 -0.1091  0.1114
29492W        W44339   7.631  11.482   5.090 -0.1679  0.0451  0.2227
29493W        W44340  16.833   2.799  11.754  0.0986 -0.1311 -0.0003
29494W        W44341   0.923   5.770  16.538 -0.0695 -0.0350  0.1156
29495W        W44342  10.689   5.607   6.690  0.1195 -0.2028 -0.1228
29496W        W44343  11.746   2.035  15.614 -0.0135  0.0283 -0.0650
29497W        W44344   6.453   1.559   2.415 -0.0544  0.0235 -0.0703
29498W        W44345   9.583   5.547   0.035  0.0915  0.0352  0.0035
29499W        W44346   9.938   9.582   3.059  0.0363 -0.2628  0.0692
29500W        W44347   5.975   1.409   2.216  0.2327 -0.0505  0.1414
29501W        W44348   1.470  17.023  12.457  0.1815  0.1191  0.0425
29502W        W44349   2.824   4.061  12.144 -0.1465 -0.1007  0.0260
29503W        W44350  15.296  14.157   3.068  0.0182 -0.0071  0.1947
29504W        W44351  14.157   4.740  16.232 -0.2210 -0.0632 -0.1218
29505W        W44352  11.585   1.951   6.570  0.1773 -0.1541  0.1071
29506W        W44353   8.329   0.845  14.947  0.1233 -0.3129 -0.1211
29507W        W44354   4.589   3.472  16.196  0.0846 -0.0862  0.0058
29508W        W44355   1.059  15.482   1.289 -0.1535 -0.0464 -0.2247
29509W        W44356  11.508  12.167   0.988 -0.2103  0.0013  0.0766
29510W        W44357   5.133   0.211  13.260 -0.0526 -0.0723  0.1457
29511W        W44358   2.745  15.728  16.355 -0.0337 -0.0301  0.2992
29512W        W44359  12.386  14.892   1.734 -0.0111 -0.0074 -0.0974
29513W        W44360   4.036   2.062  14.883 -0.1148 -0.1475  0.2198
29514W        W44361  14.117  13.531  13.543 -0.0707 -0.0172  0.2035
29515W        W44362   1.333   7.095   1.305  0.0725 -0.3185 -0.3434
29516W        W44363   3.093   6.574   6.102 -0.0517  0.4524 -0.0206
29517W        W44364  16.691   7.705   4.872  0.1863  0.0123 -0.0388
29518W        W44365   9.979  14.272   3.623  0.2854 -0.2284  0.2651
29519W        W44366   7.749  12.569   7.184  0.1240  0.0340  0.1183
29520W        W44367  16.293   3.696  14.692  0.2148  0.2128  0.1377
29521W        W44368   5.548   0.666   0.660 -0.1175 -0.0254 -0.0978
29522W        W44369  10.682  13.124   5.924  0.4055 -0.1420 -0.1062
29523W        W44370   0.837  15.102   4.956  0.1453 -0.2269 -0.0746
29524W        W44371  15.602  12.186  13.989  0.0968  0.0271  0.1980
29525W        W44372  10.167  16.777   4.949  0.0324 -0.2536 -0.2182
29526W        W44373   0.396  11.086  16.420  0.0558 -0.0370 -0.0447
29527W        W44374   0.827   2.718   5.554 -0.1540  0.1218 -0.0808
29528W        W44375   0.591  13.010   1.774 -0.1997  0.6148 -0.0775
29529W        W44376  11.621   7.279   3.458  0.0607  0.3354 -0.0629
29530W        W44377  10.917   6.565   1.706 -0.0481 -0.1075 -0.2838
29531W        W44378  14.001  15.629   5.647 -0.0573  0.2255  0.1233
29532W        W44379   6.693  10.041  11.928  0.1292  0.1707 -0.1068
29533W        W44380  17.366   6.147   1.788  0.4575  0.1085 -0.0118
29534W        W44381   9.960  15.237   0.186 -0.0879 -0.2282  0.0407
29535W        W44382  12.953   2.727  17.615  0.0618  0.1887  0.0977
29536W        W44383  12.121  16.864  15.827  0.0986  0.0072 -0.0026
29537W        W44384  12.948   6.873  15.149 -0.0099  0.0116  0.2988
29538W        W44385  17.556  17.367  15.346  0.2732 -0.1661  0.2259
29539W        W44386   1.524  11.385   5.662 -0.4467 -0.2338  0.0371
29540W        W44387   5.673   9.285   5.987  0.1239 -0.1454  0.0781
29541W        W44388   5.189   7.332  12.899  0.0649 -0.0066 -0.4079
29542W        W44389   2.613   9.247  15.046 -0.2395  0.0293  0.1126
29543W        W44390   3.854  15.777   6.517 -0.0461 -0.1015 -0.1627
29544W        W44391   4.461  12.713  11.862  0.2653  0.2527  0.0674
29545W        W44392   8.236  14.687  16.562  0.0185  0.0528 -0.0370
29546W        W44393   8.739   0.671  13.483 -0.2071  0.2485 -0.2702
29547W        W44394   0.575   7.934   6.271 -0.2387  0.0448 -0.0393
29548W        W44395  17.420   0.394  13.575  0.0895 -0.0080  0.0970
29549W        W44396   5.317  15.138  14.062 -0.1217 -0.0995 -0.0131
29550W        W44397   0.444   6.127   3.637 -0.3541  0.1673 -0.0537
29551W        W44398   3.432  13.676  12.816  0.4054 -0.2604 -0.1522
29552W        W44399  15.187  10.985   3.848 -0.2361 -0.1309 -0.4051
29553W        W44400  16.851   0.112  14.418  0.0404  0.5496 -0.2658
29554W        W44401  16.411   3.375  16.944  0.1030  0.0144  0.1433
29555W        W44402  10.267   1.878   1.256  0.0875  0.1497  0.0728
29556W        W44403  12.561  17.216  12.958  0.1513  0.0517 -0.0858
29557W        W44404  13.035   8.072  16.697 -0.1796  0.0497 -0.0544
29558W        W44405   0.028   1.365  13.563  0.0165 -0.1950  0.0013
29559W        W44406   6.492  16.707  14.922 -0.1019 -0.0115  0.1591
29560W        W44407  11.216   3.894   4.802 -0.1390 -0.2556 -0.0878
29561W        W44408   2.285  17.619  14.964 -0.1551 -0.1531  0.0613
29562W        W44409  14.049   1.873  14.199 -0.0958  0.0239  0.1215
29563W        W44410  15.594  17.212  13.258  0.1234 -0.1773  0.0128
29564W        W44411   1.789   9.862   5.377  0.1395 -0.0306 -0.0662
29565W        W44412  13.968   0.323   1.566  0.3477  0.0578 -0.1799
29566W        W44413   4.841   7.354   0.010  0.0559 -0.0251  0.3153
29567W        W44414   6.898   3.574  16.595 -0.0336  0.2677 -0.3219
29568W        W44415   3.402   9.710  12.340 -0.0139 -0.0304  0.3593
29569W        W44416   4.382  14.690  16.872 -0.2389  0.2165 -0.1106
29570W        W44417  12.399   7.581   5.094 -0.1041  0.1367  0.2697
29571W        W44418   3.241  15.005  15.618  0.4166 -0.0956 -0.2395
29572W        W44419  17.360   2.307  13.547 -0.1438 -0.1349  0.0683
29573W        W44420   3.575  11.172  12.853 -0.3304  0.2314 -0.1185
29574W        W44421  12.763   7.318  16.040  0.2025  0.1547  0.0812
29575W        W44422  15.649  11.721   0.692 -0.1020  0.3003 -0.2470
29576W        W44423   6.120  16.025  16.393 -0.1323  0.0349  0.0197
29577W        W44424  16.185  10.616   7.045  0.0187 -0.0443  0.0178
29578W        W44425   3.529  14.360  15.065 -0.0470 -0.1847  0.1619
29579W        W44426  13.387   5.743   3.746  0.2156 -0.2849 -0.0719
29580W        W44427   3.236   2.471   2.179  0.0147 -0.3598  0.2073
29581W        W44428   4.001   6.586   4.104 -0.1780 -0.1529 -0.1832
29582W        W44429   4.960  13.730  11.822 -0.2248  0.1767  0.1647
29583W        W44430   2.118   1.598  13.972  0.1709 -0.2061 -0.0950
29584W        W44431  13.133  16.674  13.482 -0.1262 -0.4066  0.1065
29585W        W44432   6.467  15.537   1.333  0.0165 -0.1762 -0.0678
29586W        W44433   2.398   9.398   3.014  0.2804 -0.1713 -0.0580
29587W        W44434   0.789  15.204   6.412 -0.1338  0.1983  0.1468
29588W        W44435   4.243  11.948  15.599  0.0300  0.0337  0.1296
29589W        W44436  16.541   5.733   0.286  0.0458  0.1180 -0.2429
29590W        W44437  17.538   9.418   2.726 -0.0679 -0.1817  0.1608
29591W        W44438   5.960   9.103  12.496  0.1170 -0.0249 -0.1399
29592W        W44439   0.160  11.294   2.877  0.2715 -0.0619 -0.0335
29593W        W44440  16.175   4.906   1.237  0.0613  0.4335 -0.1840
29594W        W44441   0.403  17.391   4.139 -0.0936 -0.0476 -0.2937
29595W        W44442   1.642  13.800  14.459 -0.0559 -0.0744 -0.0075
29596W        W44443  11.748  10.128  12.330 -0.0776 -0.2549  0.1108
29597W        W44444  10.083   3.670  12.429 -0.0619  0.1078  0.0258
29598W        W44445   3.871  10.918   4.605  0.2934 -0.1299  0.0292
29599W        W44446   9.518   6.101  15.916  0.1135  0.3527  0.0795
29600W        W44447   1.259  11.344  13.382  0.1047 -0.0664 -0.0576
29601W        W44448   3.764  15.189   0.961 -0.1510  0.0277  0.3435
29602W        W44449   6.002  12.380  14.574 -0.0478  0.0279  0.0312
29603W        W44450   7.025   0.176   1.204  0.2479  0.1138  0.2845
29604W        W44451   1.106  16.525   3.372  0.0160  0.1095  0.2071
29605W        W44452   2.158   1.042   1.236  0.0350  0.1069 -0.0090
29606W        W44453  16.044   8.904  16.034 -0.1283 -0.2713 -0.0266
29607W        W44454  10.909  14.057   5.460 -0.1111  0.0475 -0.0379
29608W        W44455  13.927   4.003  16.573  0.1909  0.2294  0.1948
29609W        W44456  10.297   1.524  15.617  0.0242  0.0454 -0.1111
29610W        W44457  15.646   6.605  17.516 -0.1441  0.1166  0.1012
29611W        W44458   7.020  12.220  13.385  0.0128 -0.1414  0.1425
29612W        W44459  17.405   4.414  15.098  0.1200 -0.0951 -0.0017
29613W        W44460   7.181   7.331   5.466  0.2378 -0.0846 -0.1812
29614W        W44461  13.597  12.192  12.763  0.0751  0.1079  0.1675
29615W        W44462  16.324   3.730  13.646 -0.2646  0.0088  0.1889
29616W        W44463   3.701  12.435   0.661 -0.0295 -0.0782 -0.0862
29617W        W44464  12.444  10.487   1.513 -0.1579 -0.0543  0.3360
29618W        W44465   9.673   2.315  16.692 -0.1216 -0.0024  0.0511
29619W        W44466   5.299   1.042  16.282  0.2116 -0.2029 -0.3436
29620W        W44467  11.695  15.189   5.802  0.0062  0.0720  0.0824
29621W        W44468  15.725  13.479   3.169 -0.1866  0.2451  0.1129
29622W        W44469   6.161   4.574  15.991 -0.0218 -0.3299 -0.2311
29623W        W44470   2.774  16.345  15.196  0.0724  0.2763  0.0143
29624W        W44471  17.372  16.616  15.240  0.0476  0.1090 -0.0296
29625W        W44472  10.263   9.661  17.534 -0.1429  0.1609  0.3767
29626W        W44473  15.610   8.341  16.987  0.4062 -0.0706 -0.2210
29627W        W44474   0.977   0.859   4.234  0.0534 -0.0296 -0.3001
29628W        W44475   1.106   9.181   3.768 -0.0729  0.3842  0.1360
29629W        W44476  13.921  16.140   4.208  0.1305 -0.2865  0.2767
29630W        W44477   0.024   7.610  17.406  0.0307  0.0391 -0.1605
29631W        W44478   2.628  11.128  15.900 -0.1911 -0.0961  0.3182
29632W        W44479  17.358  15.265   0.249  0.1090  0.1549 -0.0846
29633W        W44480   3.139  10.327   5.803 -0.1197  0.0674  0.1921
29634W        W44481   7.857   5.479  16.507 -0.3700 -0.3379  0.0297
29635W        W44482   6.765  13.591  17.079 -0.4443 -0.1209  0.1480
29636W        W44483   0.799  11.941   2.432 -0.0157  0.0589  0.0899
29637W        W44484   0.103  13.584   0.635 -0.0287 -0.0470  0.0249
29638W        W44485  16.376  12.652  13.923 -0.0712  0.0422 -0.4086
29639W        W44486   7.381   0.815   4.877 -0.0674 -0.0976  0.0373
29640W        W44487  17.270   1.289   1.694  0.0115  0.0207 -0.2831
29641W        W44488   0.525  10.910   6.458 -0.1292 -0.0378  0.3365
29642W        W44489  11.291   0.663  13.874 -0.2157 -0.3348  0.1677
29643W        W44490  13.485  17.627  17.040  0.0736 -0.0362  0.0146
29644W        W44491  17.151   2.343  15.643  0.1525 -0.0078  0.2358
29645W        W44492   8.335  16.827  15.330 -0.1598 -0.1391  0.1919
29646W        W44493  14.068   6.074   2.542 -0.2625 -0.1951 -0.1709
29647W        W44494   1.616   4.000  13.259  0.3329  0.1870  0.2880
29648W        W44495   2.497  11.957  13.938  0.2033 -0.2542 -0.0034
29649W        W44496   6.718  12.528  17.432  0.1150 -0.2930  0.1110
29650W        W44497  10.619   3.613   2.726  0.0739  0.1009 -0.1260
29651W        W44498   0.804  15.854  15.494  0.1117  0.0174 -0.0822
29652W        W44499  12.057  13.250  15.898 -0.0570  0.1583 -0.2611
29653W        W44500  10.576   0.895   6.140 -0.3953  0.1132  0.0277
29654W        W44501   6.457   2.756  16.608  0.0427 -0.1335  0.2450
29655W        W44502  15.836  12.917  12.918  0.2273  0.0735  0.0289
29656W        W44503  17.533  17.006  13.088  0.3111  0.0481  0.2040
29657W        W44504   3.514  12.708  13.073 -0.0411 -0.2281 -0.0210
29658W        W44505   1.918   8.269   0.299  0.1976  0.1389 -0.0615
29659W        W44506   0.873  13.927   1.759  0.0132 -0.1457 -0.1459
29660W        W44507  12.414  13.136  15.097  0.1435 -0.3611 -0.2118
29661W        W44508   2.457   3.415  14.901 -0.4086 -0.0549 -0.1124
29662W        W44509   8.064   2.272  16.928  0.1118  0.1130 -0.1734
29663W        W44510  13.216   3.728  14.146 -0.1197  0.0816 -0.0613
29664W        W44511   3.243  11.038  13.657 -0.0475 -0.0709 -0.1465
29665W        W44512   6.237   8.697  15.928 -0.0342 -0.3062 -0.2238
29666W        W44513   2.122  12.467  12.714  0.1261  0.0907 -0.0201
29667W        W44514   3.531  15.834  15.272  0.2745 -0.1881  0.0564
29668W        W44515   7.996  13.063  14.063 -0.1455  0.1243 -0.1086
29669W        W44516   5.954   4.659   5.167 -0.0038  0.0569  0.1016
29670W        W44517   3.672   3.878  13.112 -0.0750 -0.2618  0.1906
29671W        W44518  17.296   7.258  16.227 -0.2478  0.2478  0.0291
29672W        W44519   8.464  16.872   1.588  0.1344  0.0685  0.1993
29673W        W44520  15.916  12.620   5.598  0.0276  0.1632 -0.0261
29674W        W44521   6.368  13.855  16.828  0.0722  0.0914 -0.1751
29675W        W44522  10.000  17.287  14.815  0.0903  0.0730  0.1356
29676W        W44523  16.573  14.178  17.041 -0.5480  0.0668  0.0345
29677W        W44524   3.710  14.560   3.995  0.2021 -0.0159  0.0841
29678W        W44525  13.350  11.396   3.269  0.1183 -0.4037 -0.0735
29679W        W44526  16.897   1.408  15.360  0.1286  0.3325  0.2064
29680W        W44527  12.520   3.734   1.777 -0.2073 -0.3295  0.1680
29681W        W44528   3.655  15.162   4.781  0.0909 -0.1690  0.1865
29682W        W44529   1.227   9.812  16.082  0.2924 -0.1991  0.0433
29683W        W44530   1.824   0.699  16.033  0.0711  0.1792 -0.0027
29684W        W44531  14.932  10.884   1.189  0.2059 -0.1732  0.0278
29685W        W44532   2.819   9.687   3.055 -0.0169 -0.0950  0.0873
29686W        W44533  16.335   7.396  15.362  0.0181 -0.0984  0.0963
29687W        W44534   4.192  13.438  16.110 -0.2992 -0.2104  0.0186
29688W        W44535   1.068  16.800   3.005 -0.2022 -0.1333  0.1835
29689W        W44536   6.278   6.606   0.050 -0.0864  0.1935  0.0210
29690W        W44537  16.926   1.819  14.060  0.2097 -0.0671  0.1558
29691W        W44538   0.447  16.403  17.359 -0.1389 -0.2554 -0.1755
29692W        W44539   6.634  15.495  17.267 -0.0067 -0.2795  0.0063
29693W        W44540   9.645   4.483  16.336 -0.0634  0.2230 -0.1727
29694W        W44541   1.632  15.066  14.661 -0.0793 -0.0121  0.1831
29695W        W44542   2.381   9.572   5.953  0.0092 -0.1152 -0.2768
29696W        W44543  12.093   1.292   0.998  0.0404 -0.2130  0.0744
29697W        W44544  15.462   6.990  15.258 -0.0786  0.3578  0.0687
29698W        W44545  14.439  16.937   7.157  0.0628 -0.0981  0.0968
29699W        W44546  11.680  14.476  13.563  0.2397 -0.0829 -0.0332
29700W        W44547  13.011  16.423  17.191 -0.0078  0.2445  0.3025
29701W        W44548   4.394  12.770   6.274  0.0429  0.0231 -0.3139
29702W        W44549  10.190  15.990  16.122  0.2407  0.0458  0.1857
29703W        W44550  10.509  14.039   5.838 -0.1474 -0.0154  0.3018
29704W        W44551   1.050   8.759   3.456  0.2419  0.2649  0.2106
29705W        W44552   5.308   4.480   0.790 -0.2134  0.0131 -0.0898
29706W        W44553   7.275  10.978   2.952  0.0123  0.2473 -0.1145
29707W        W44554   7.604  15.193  12.598  0.1313 -0.3920 -0.4524
29708W        W44555   0.442   1.149  12.408 -0.0883 -0.2464  0.0367
29709W        W44556   5.937   1.427  17.299  0.0356 -0.2427  0.2379
29710W        W44557  16.614   0.299  10.783 -0.1647  0.0088  0.2160
29711W        W44558   3.818   1.340   0.180 -0.1235  0.3455  0.0455
29712W        W44559  16.920  13.891   0.218 -0.0212 -0.2997 -0.2201
29713W        W44560   0.870  11.303  16.611  0.2126 -0.0188  0.1782
29714W        W44561   7.963  14.474  13.650  0.0532  0.1446 -0.0581
29715W        W44562  14.309   7.222  17.162 -0.2093  0.2125  0.0691
29716W        W44563   0.961   5.559   2.871  0.1707 -0.0362 -0.1873
29717W        W44564  14.409  12.206  15.505 -0.2614 -0.0276  0.2110
29718W        W44565   4.416   9.729   0.918 -0.0688 -0.1820  0.0483
29719W        W44566  14.389   4.496  14.536  0.0679 -0.3147  0.0784
29720W        W44567   0.125  15.613   5.057 -0.1986 -0.3602  0.0816
29721W        W44568   0.170   3.690   0.812  0.1405 -0.1323 -0.0347
29722W        W44569   6.171   7.416  10.744  0.0264 -0.1767 -0.3306
29723W        W44570   8.079   3.616  14.348 -0.1576  0.1926 -0.2092
29724W        W44571   1.662   1.866  14.097 -0.1690 -0.0333 -0.2232
29725W        W44572   1.148   3.245   4.896  0.1741 -0.1766 -0.0379
29726W        W44573   9.504  10.781  14.196  0.2511 -0.2645 -0.0571
29727W        W44574  16.365   3.392  15.572 -0.0576 -0.0888  0.0594
29728W        W44575  14.006  14.710   5.990 -0.3351 -0.2110  0.0012
29729W        W44576   9.162  13.274   3.461 -0.2661  0.1487  0.2315
29730W        W44577   2.562   1.264   4.909  0.2499 -0.3075  0.1065
29731W        W44578  10.072   9.987   1.844 -0.1315 -0.0860 -0.2252
29732W        W44579   0.307  10.771  16.963  0.1133  0.0881  0.1918
29733W        W44580  15.826  14.183  12.901  0.1253 -0.0677  0.0577
29734W        W44581  12.198   5.139   5.148  0.1072 -0.0715  0.1014
29735W        W44582   7.431  11.779   5.510  0.4216  0.2829 -0.2500
29736W        W44583   3.640  11.387   3.283  0.2179  0.0883  0.1427
29737W        W44584   9.089  16.114   0.817 -0.0003  0.3094 -0.0224
29738W        W44585   3.223   1.104  14.192 -0.2928 -0.0718  0.2245
29739W        W44586   7.046  17.216  15.465  0.0102 -0.1142  0.0603
29740W        W44587   6.026   4.005  12.594 -0.0217  0.0160  0.0424
29741W        W44588   6.971  15.744  12.926 -0.1335  0.0343  0.4927
29742W        W44589   9.525  16.642   4.631 -0.1301  0.0977  0.2640
29743W        W44590  14.387   4.050  12.861 -0.1287  0.0866 -0.3008
29744W        W44591  13.878   4.177  12.883 -0.1125 -0.1926 -0.3639
29745W        W44592   1.898   7.378   2.660  0.0622  0.1809 -0.0161
29746W        W44593  14.934  10.324  16.728 -0.3650 -0.0071  0.2375
29747W        W44594   6.038  10.970  13.502  0.0346  0.2033 -0.0153
29748W        W44595   1.392   5.535  15.289  0.3009 -0.2055  0.0630
29749W        W44596   4.939   7.103  15.932 -0.1704 -0.0431  0.4468
29750W        W44597  14.582   3.823   6.779 -0.2412 -0.2642 -0.1383
29751W        W44598   7.187   7.965  13.786 -0.1429  0.1984  0.1848
29752W        W44599  16.686  17.489  17.293 -0.0345 -0.0729 -0.0222
29753W        W44600   7.536   4.692   2.983  0.2260  0.3501  0.2374
29754W        W44601  13.235  15.876   1.980 -0.1991  0.4395  0.1421
29755W        W44602   3.166   6.099   0.420  0.0610 -0.0962 -0.1181
29756W        W44603   6.257   6.341   3.160 -0.2340 -0.0100  0.0372
29757W        W44604   1.394   1.733   3.108 -0.0051  0.0191  0.1441
29758W        W44605   8.851   2.981  16.570 -0.2224  0.1566  0.0734
29759W        W44606   6.033   1.357   6.924  0.0719 -0.1349 -0.1799
29760W        W44607   9.630   2.657   5.138  0.0343 -0.2202 -0.3251
29761W        W44608  13.098  16.716  11.532  0.0816 -0.0686  0.0508
29762W        W44609   8.056  16.897  12.134  0.1879  0.1681  0.0143
29763W        W44610   2.961  15.513   5.483  0.2425 -0.2258 -0.2458
29764W        W44611  12.749   0.885   2.249  0.1111  0.2968  0.3218
29765W        W44612  13.447   9.459  15.309  0.1828 -0.2656 -0.1487
29766W        W44613  15.122   9.834   3.842 -0.1840  0.2514 -0.0591
29767W        W44614   6.156  16.473  15.312  0.0622  0.2053  0.2696
29768W        W44615  10.802   7.589  14.076 -0.0297 -0.0198  0.1273
29769W        W44616   3.599  14.907  15.062  0.2602 -0.1876  0.0643
29770W        W44617  15.007   1.504  14.272 -0.0502  0.0584  0.1414
29771W        W44618   6.609   1.932   3.362  0.2087 -0.2459 -0.2417
29772W        W44619   4.949  13.632   4.648 -0.2433 -0.1805 -0.0839
29773W        W44620   2.763   2.731  12.235 -0.1520  0.0352  0.2352
29774W        W44621   2.306  10.531   0.902  0.0387 -0.0557 -0.3289
29775W        W44622   5.758   7.462   5.056  0.0594  0.1999  0.0176
29776W        W44623   6.480  14.110  14.154  0.1363 -0.0576  0.0388
29777W        W44624   9.104  15.227   1.876  0.0131 -0.1947  0.2022
29778W        W44625   6.001   8.170  15.867 -0.1075 -0.1338  0.1204
29779W        W44626   4.928   6.433  17.170 -0.1846  0.3599 -0.0532
29780W        W44627   2.715  13.552   4.076 -0.2775 -0.2566  0.2902
29781W        W44628  12.364   4.330  15.195  0.0257 -0.3502  0.2037
29782W        W44629   6.663   6.669   0.424 -0.2786 -0.4734 -0.0605
29783W        W44630  16.054   0.785  15.285 -0.0991 -0.0401 -0.0760
29784W        W44631  15.842  11.137   5.986 -0.1777  0.1200 -0.0742
29785W        W44632   7.035   1.309   2.157  0.0395  0.0961  0.0723
29786W        W44633   2.646   8.434  13.493 -0.0198 -0.2278 -0.0097
29787W        W44634   8.106   2.356  12.581  0.0763  0.1148 -0.0224
29788W        W44635  11.923   5.923  13.758 -0.2894 -0.0303 -0.0272
29789W        W44636  17.471   8.547   2.669  0.1881 -0.1261  0.0996
29790W        W44637   1.985  12.853  14.892  0.1388 -0.2696 -0.0145
29791W        W44638  16.917   4.503  13.068 -0.0553 -0.0451 -0.0836
29792W        W44639  12.643   7.433   3.318 -0.0409 -0.2304 -0.0270
29793W        W44640   5.947   6.491   4.140 -0.2642 -0.1701  0.1326
29794W        W44641   5.744  13.659   4.595 -0.1767  0.1361  0.2411
29795W        W44642   1.239  16.637  17.673 -0.2295  0.3193 -0.0373
29796W        W44643  11.439  13.134  11.796  0.2142  0.2074 -0.3603
29797W        W44644  17.455  16.523   5.006 -0.2677 -0.1273 -0.0757
29798W        W44645  13.079   3.280   0.069  0.1869 -0.0703 -0.4042
29799W        W44646   2.041   5.072  12.598 -0.1771  0.2996 -0.2479
29800W        W44647  11.536  17.039   4.951 -0.0013 -0.0537 -0.1705
29801W        W44648  14.917  14.209  16.642 -0.2032  0.0056  0.2800
29802W        W44649  12.281  17.562   0.735  0.0533  0.0167  0.0014
29803W        W44650   4.946   2.217  13.361  0.0499  0.3110 -0.0023
29804W        W44651   7.873  14.051  12.852  0.1124 -0.2196  0.3499
29805W        W44652   5.057   2.480   2.522 -0.2639 -0.3385 -0.1470
29806W        W44653   6.059  11.506  17.327  0.0607  0.2442  0.0695
29807W        W44654  10.075  15.733   3.198  0.1835  0.1383  0.0008
29808W        W44655   5.461   3.188  17.644 -0.2138  0.2154 -0.0095
29809W        W44656   3.798  13.578  16.415  0.0413  0.1342 -0.2134
29810W        W44657   1.720   0.915   1.004  0.3090 -0.2725  0.1674
29811W        W44658   9.937   2.930  14.473 -0.1021 -0.0412 -0.4979
29812W        W44659   8.542  10.092   0.444 -0.2835 -0.1358 -0.0330
29813W        W44660  11.888  17.450  15.469 -0.2070  0.3203  0.1677
29814W        W44661  16.601   5.995  16.000  0.1253  0.0308  0.3350
29815W        W44662   0.141   8.160  15.824 -0.1122  0.0442 -0.3117
29816W        W44663   0.601  13.017  16.537 -0.0047  0.2264  0.0847
29817W        W44664   3.041   5.646   0.104 -0.0223 -0.3353  0.0276
29818W        W44665   1.616   4.213   1.439  0.1993  0.0426  0.0872
29819W        W44666   1.089  16.711   6.588  0.0431 -0.0770 -0.0161
29820W        W44667   5.717  17.282   4.123 -0.1302 -0.0593  0.0229
29821W        W44668   3.629  14.578  17.329  0.2078 -0.0759  0.0670
29822W        W44669   4.909   5.958  12.465  0.0552 -0.1440  0.1232
29823W        W44670  12.663   6.160  17.241  0.0637 -0.1141  0.0892
29824W        W44671  10.186  17.435  15.677 -0.1879  0.0842  0.0654
29825W        W44672  13.253   7.428   0.450  0.2665 -0.1260 -0.1207
29826W        W44673  16.439  15.090   6.469 -0.0835  0.2824 -0.1517
29827W        W44674   0.374  13.989   5.836 -0.0774 -0.3993 -0.1200
29828W        W44675   7.748   7.085  16.360  0.0934  0.0127 -0.1134
29829W        W44676   8.439  16.742   1.096 -0.1680  0.0678 -0.0172
29830W        W44677  16.261   5.768  14.386 -0.0188  0.0827 -0.0144
29831W        W44678   2.889   3.976  13.877 -0.0634 -0.4030  0.0363
29832W        W44679  15.569   4.094  17.462  0.0395 -0.1832  0.1140
29833W        W44680   3.701   8.871   5.718 -0.0646 -0.4467 -0.2370
29834W        W44681  10.778  12.514   6.607 -0.0604  0.0803  0.0826
29835W        W44682   6.119   6.035  12.151  0.1306 -0.0895  0.2309
29836W        W44683  15.044  12.466   3.452  0.1333  0.0214  0.0816
29837W        W44684   1.713   3.922   0.093 -0.2747 -0.1532  0.0222
29838W        W44685   7.122   5.647   0.775  0.0855  0.1585 -0.0742
29839W        W44686  14.962   5.789  15.554  0.0396 -0.0513 -0.2160
29840W        W44687   0.853   8.888  13.085  0.0627 -0.0445 -0.4053
29841W        W44688   6.122  14.455   5.335  0.2022  0.0530  0.1488
29842W        W44689  16.090  12.189  12.533  0.1607  0.0637 -0.1375
29843W        W44690   6.758   1.359  13.586 -0.1857  0.1582  0.0109
29844W        W44691  14.213   0.623  14.535 -0.2417 -0.1838 -0.0478
29845W        W44692  17.602   9.462   5.922  0.1760 -0.2514  0.0366
29846W        W44693   4.769   2.779   1.353  0.0292 -0.3570 -0.0268
29847W        W44694   9.260  12.979  14.477  0.3225  0.2543  0.1907
29848W        W44695   2.043  13.230   3.242 -0.0823  0.0550  0.1782
29849W        W44696   6.667   0.716  17.346 -0.2103  0.3260  0.1961
29850W        W44697   0.742  16.875   5.071  0.0413  0.0891 -0.2186
29851W        W44698   2.713   5.989   4.087 -0.1046 -0.1015  0.2558
29852W        W44699   5.628   7.802   1.632  0.3806  0.0627 -0.0097
29853W        W44700   4.205   3.445  13.361  0.0389 -0.0461 -0.2502
29854W        W44701  17.645  15.703  14.963 -0.2223  0.2204  0.0401
29855W        W44702   4.473  13.672   6.358  0.2203  0.2678 -0.0573
29856W        W44703  12.211  15.124   5.856  0.0218 -0.1143 -0.0731
29857W        W44704  10.772  11.582   0.613  0.5340 -0.3402  0.1846
29858W        W44705   3.343   5.888  16.089  0.0817  0.1720  0.0105
29859W        W44706   8.700  11.280  16.367  0.3871  0.0996  0.0734
29860W        W44707   3.729  14.523  13.129 -0.0969  0.2098  0.0679
29861W        W44708  13.832   6.074   5.774 -0.1448  0.0392 -0.0318
29862W        W44709  10.471  14.598  12.414 -0.0965  0.0485 -0.1032
29863W        W44710  16.244   9.731  16.485  0.0092  0.1793  0.1648
29864W        W44711   2.255  11.146  14.238 -0.3685  0.0696  0.1147
29865W        W44712  12.960   5.911  12.608  0.3029 -0.0930  0.0843
29866W        W44713   9.118   4.452   4.859 -0.0150 -0.1682  0.0665
29867W        W44714   4.770   9.418   3.179  0.1697 -0.2436  0.3645
29868W        W44715   6.037  14.031   4.455 -0.1725  0.2991  0.0782
29869W        W44716   3.562   1.445   1.255  0.3002  0.0766 -0.0264
29870W        W44717   6.962  13.107   2.434  0.1497 -0.1562 -0.2079
29871W        W44718  17.204   3.603   5.430  0.0584  0.0946 -0.1809
29872W        W44719   2.057  13.012   1.586  0.1147 -0.0674  0.1501
29873W        W44720  13.504   8.704  16.334 -0.1008 -0.3424 -0.5187
29874W        W44721  15.448   3.742   3.540 -0.1501 -0.1756  0.0252
29875W        W44722   4.904  15.771  14.318 -0.1382 -0.1876  0.1134
29876W        W44723   4.703   2.564  15.679  0.1229  0.4015 -0.2113
29877W        W44724  14.155   8.619   1.706  0.0892 -0.1700  0.2479
29878W        W44725   3.083   7.959   1.526 -0.0278  0.1434 -0.0393
29879W        W44726   2.179  16.653   5.686  0.0356  0.3944 -0.0487
29880W        W44727  17.582  11.104  16.261 -0.0885  0.1500 -0.2532
29881W        W44728  10.090   5.771   0.902 -0.0175 -0.0601  0.0704
29882W        W44729   3.200   4.284  17.624  0.2125  0.3049 -0.3809
29883W        W44730  17.294   0.942  14.761  0.1328  0.0428  0.0268
29884W        W44731   7.672   6.268  17.357  0.4271 -0.1038  0.2030
29885W        W44732   8.553   8.399   6.003 -0.0481 -0.0501  0.0608
29886W        W44733  12.596  15.530   3.056 -0.1153  0.1735 -0.1464
29887W        W44734   2.782  14.209   5.696 -0.1690 -0.3982 -0.0854
29888W        W44735   2.400   8.050  16.644  0.0597  0.0003 -0.0802
29889W        W44736  16.782  17.407  14.805 -0.2573 -0.1401 -0.0522
29890W        W44737   2.266   8.894   0.630  0.3224  0.1179 -0.1153
29891W        W44738   2.478   1.817  11.831  0.0758  0.0997  0.1192
29892W        W44739  17.260  15.155  14.585 -0.1810 -0.0319 -0.0964
29893W        W44740  17.131   4.498  16.018  0.2725  0.0963 -0.2277
29894W        W44741   3.546  10.364   1.576 -0.1214  0.1756 -0.3918
29895W        W44742  17.657   0.521   2.924  0.4553  0.0926  0.0766
29896W        W44743  14.660   1.449   3.988  0.1623  0.2065 -0.2406
29897W        W44744   0.977  12.229  16.133  0.0591  0.2829 -0.5348
29898W        W44745  16.120   5.437   2.304 -0.2379  0.1302  0.2790
29899W        W44746   6.214  10.360  11.817 -0.0411 -0.0178  0.2794
29900W        W44747   9.549  11.912  17.009 -0.1453  0.0579  0.0513
29901W        W44748  14.599   0.251   5.197 -0.2333  0.3647  0.0459
29902W        W44749  11.237   3.953  12.654  0.4493  0.3685  0.1285
29903W        W44750  15.274   6.296   0.648  0.4486  0.0431 -0.1278
29904W        W44751  13.073   6.196  16.924 -0.1974  0.3272 -0.0900
29905W        W44752   9.638   5.229   5.985 -0.1209  0.2070 -0.1321
29906W        W44753  14.181   2.142  13.665 -0.3611 -0.1155  0.2430
29907W        W44754   1.836   9.265   2.943 -0.2183 -0.1998  0.1434
29908W        W44755  11.679   2.666  12.626 -0.2815 -0.1610 -0.5204
29909W        W44756   1.890   3.015   2.591 -0.1786  0.1765  0.4982
29910W        W44757  12.008   5.551  13.417  0.1986  0.0316  0.0514
29911W        W44758  17.278   2.649   2.753 -0.0123 -0.3636 -0.0014
29912W        W44759   3.449   3.346  17.266 -0.0839 -0.2092  0.1644
29913W        W44760   1.109  10.547   0.337 -0.0105  0.1065  0.2530
29914W        W44761   9.467   9.071  12.411 -0.0995  0.1779 -0.0759
29915W        W44762  17.204   7.334  15.658 -0.0890  0.2690 -0.0889
29916W        W44763   4.418   5.517  11.641  0.0206 -0.1076  0.1945
29917W        W44764   1.776   2.084  13.232  0.1451 -0.2890  0.1140
29918W        W44765   2.642   1.892  12.684 -0.1192 -0.0850 -0.3809
29919W        W44766   5.475   2.121   1.053  0.1579 -0.0773  0.0730
29920W        W44767   1.052   2.160  12.162 -0.0891 -0.3072 -0.0854
29921W        W44768  12.261  12.613   5.036 -0.0526 -0.2915 -0.1376
29922W        W44769  10.363  16.619   4.373  0.0639  0.2302  0.1622
29923W        W44770   2.049  14.790   2.949  0.3685  0.1477 -0.0295
29924W        W44771   1.596  17.050   4.549  0.0898  0.2855  0.1162
29925W        W44772   1.607   7.212  12.497  0.0333  0.0408  0.0666
29926W        W44773  10.208  13.886  13.589 -0.0962  0.2403 -0.0307
29927W        W44774  10.867   2.841  16.062 -0.0313 -0.1098  0.2245
29928W        W44775   1.690   0.368   1.158 -0.0482  0.0549 -0.1232
29929W        W44776   5.547   7.419  13.291  0.0514 -0.0686 -0.0780
29930W        W44777   5.882  12.746  13.076 -0.1721 -0.0408 -0.0205
29931W        W44778   0.559  13.057  12.392  0.1717  0.0235 -0.1271
29932W        W44779   8.371   2.874  16.478  0.1125  0.1416  0.1660
29933W        W44780  13.529   6.983  16.624 -0.0602 -0.0803 -0.1416
29934W        W44781   9.415  15.876   1.757  0.0211 -0.0196 -0.0792
29935W        W44782   3.080  16.888   1.516  0.0429  0.0134  0.0695
29936W        W44783  14.812   3.896   2.084 -0.4427  0.4213  0.0699
29937W        W44784   5.981  11.433   4.820  0.0830 -0.1375 -0.2035
29938W        W44785  11.137   7.400  13.716 -0.0786  0.1679 -0.2506
29939W        W44786   2.346  11.773   6.146  0.1802  0.3153 -0.2201
29940W        W44787  16.699  12.314  15.936 -0.1787  0.0242  0.3673
29941W        W44788   8.393  12.188  13.778 -0.1830 -0.0983  0.2281
29942W        W44789  17.622   2.724  12.621  0.0308 -0.0239 -0.1003
29943W        W44790   4.227   5.875   4.522 -0.0688  0.0881  0.1603
29944W        W44791  13.215  12.888  17.073 -0.1547 -0.1015 -0.2166
29945W        W44792   1.673   0.179   0.582 -0.4029 -0.1075 -0.3347
29946W        W44793   7.224   7.129   0.697  0.0781  0.0830  0.0197
29947W        W44794   2.583   1.030  16.095  0.4461  0.1567  0.0103
29948W        W44795   8.154  11.099   2.335 -0.2327  0.4668  0.2020
29949W        W44796  12.884   4.418   6.128 -0.0772  0.1400  0.0846
29950W        W44797  12.358   9.442  14.570 -0.1007  0.1940 -0.1437
29951W        W44798   0.035  10.219  17.091 -0.1086 -0.0507  0.1486
29952W        W44799   8.390   5.768  17.443 -0.0413  0.1175  0.3118
29953W        W44800   1.516   4.564  13.205  0.0412  0.0494 -0.1279
29954W        W44801  12.699   8.692  15.621  0.0354  0.0641  0.0607
29955W        W44802   5.086   8.240  14.947  0.0888 -0.2559 -0.2520
29956W        W44803   3.597  15.739   2.670 -0.0568  0.1450  0.0533
29957W        W44804   0.154  16.029  14.086  0.2876  0.2877 -0.1005
29958W        W44805  14.735  12.896  13.323  0.0091  0.0628  0.2455
29959W        W44806  11.395   4.207   2.327  0.0215  0.1095  0.1108
29960W        W44807   1.988   5.778  14.257  0.0661  0.1424  0.2136
29961W        W44808   1.327   8.609  13.069  0.1594  0.1010  0.4454
29962W        W44809   5.883   4.137   4.355  0.0334  0.3175  0.3552
29963W        W44810  16.431   6.092   3.678  0.3800  0.1060 -0.1784
29964W        W44811  12.681  12.663  15.785  0.3719  0.3751 -0.0766
29965W        W44812  12.896  10.760  12.842  0.0700  0.2594  0.0360
29966W        W44813   9.409   9.577   5.730  0.1508  0.0121  0.3875
29967W        W44814  14.212   7.190  14.389 -0.1740 -0.1615  0.2226
29968W        W44815  13.542   4.166   2.464 -0.0232  0.1698  0.3241
29969W        W44816   0.956   2.033  12.930  0.0111  0.2048  0.2287
29970W        W44817   3.750  10.247  16.548  0.0853  0.2737  0.0748
29971W        W44818   0.713   0.623  14.839  0.0398  0.1970  0.0258
29972W        W44819  10.513   6.674  13.102 -0.2075 -0.2386 -0.0977
29973W        W44820   5.382  10.473  15.120  0.0578 -0.0079  0.3918
29974W        W44821   0.028   5.149  15.611  0.1544  0.2086 -0.0577
29975W        W44822  12.617   4.439  12.122  0.0415 -0.1859 -0.5402
29976W        W44823  11.366  13.955   0.044 -0.3049  0.2871 -0.1722
29977W        W44824  12.957   1.506  16.818 -0.2074 -0.3861 -0.1906
29978W        W44825   7.632   9.865  15.376 -0.0216 -0.0235  0.1012
29979W        W44826   5.915  12.587   3.640  0.1159 -0.0142  0.3811
29980W        W44827   4.654   4.222   5.245  0.2576  0.1713  0.3490
29981W        W44828   8.090   1.772  17.656 -0.0298 -0.1162  0.0919
29982W        W44829  11.683  15.468   1.478 -0.0095 -0.0149  0.1781
29983W        W44830   9.815  14.021  11.996 -0.1134 -0.1104 -0.2980
29984W        W44831  13.645  14.868   3.576  0.0686 -0.1904 -0.0529
29985W        W44832   3.107  12.031  14.755  0.0705 -0.1398  0.0439
29986W        W44833   1.911  16.482  15.910  0.3509  0.0281  0.1744
29987W        W44834   1.040   5.260  11.409  0.0624  0.0630  0.0667
29988W        W44835   6.164  10.661  13.939 -0.1068 -0.1394 -0.1287
29989W        W44836   9.514   4.145   6.223  0.0350  0.1281  0.3536
29990W        W44837   0.356   5.134  12.527  0.0256 -0.0441 -0.0137
29991W        W44838  11.591  17.259  12.264 -0.0582  0.0104 -0.0244
29992W        W44839   4.594   4.956   6.040  0.3892 -0.0152  0.3852
29993W        W44840  10.699   9.205   1.121  0.1753  0.3706  0.2588
29994W        W44841   2.262  13.642   6.395 -0.1046 -0.0287 -0.2390
29995W        W44842   2.691   9.578   4.542  0.0738 -0.1386  0.0310
29996W        W44843   2.766   9.087   0.872 -0.0629  0.0344 -0.1135
29997W        W44844   5.771  16.792   1.371  0.0674  0.2764  0.0335
29998W        W44845  16.574  12.808   4.377 -0.1762 -0.0745 -0.0261
29999W        W44846  16.577   2.470  17.363  0.2128  0.0147  0.1756
30000W        W44847   9.678   4.701  15.308 -0.0980  0.2686  0.0774
30001W        W44848   1.198  13.190   6.250  0.0876 -0.2085 -0.0478
30002W        W44849  14.319   5.144  17.323 -0.5238 -0.0355  0.3181
30003W        W44850   7.856   5.742  14.315 -0.1290 -0.4169  0.1575
30004W        W44851  16.381   0.811  15.911 -0.1841  0.0524 -0.1091
30005W        W44852   4.213   3.994  16.862  0.1411  0.2001  0.1349
30006W        W44853  10.790   5.026  13.096 -0.2894  0.0821 -0.2338
30007W        W44854  10.833  17.374   4.267  0.1071 -0.0087 -0.1769
30008W        W44855   9.245  12.730   2.277 -0.2096 -0.2455 -0.0022
30009W        W44856   7.520   3.523  10.651 -0.2362 -0.1579 -0.0507
30010W        W44857  16.797  12.013   4.882  0.3188  0.0895  0.0854
30011W        W44858   4.764  13.519  12.268 -0.2722  0.1332 -0.2899
30012W        W44859   6.735  13.110   4.909 -0.4572 -0.0109 -0.0140
30013W        W44860   6.294  13.168   6.487 -0.4335  0.1266 -0.1624
30014W        W44861  16.159  16.595  15.842  0.0553 -0.0196 -0.0805
30015W        W44862   7.037  14.229  14.131  0.1279  0.0189 -0.0194
30016W        W44863  13.523   0.773  15.735  0.0571 -0.3017 -0.1429
30017W        W44864   6.251   7.221  13.469  0.2892  0.1512 -0.0531
30018W        W44865   3.405   0.157   0.795 -0.0376 -0.1565  0.1381
30019W        W44866  14.856   6.410  14.606  0.1813  0.1188  0.2114
30020W        W44867   0.264  17.351  12.369  0.1941 -0.1779 -0.0009
30021W        W44868   6.338   8.113   2.537  0.0755 -0.0929  0.1887
30022W        W44869  16.302   8.141   4.723  0.0711  0.0590  0.2869
30023W        W44870  16.562  16.791  15.562  0.2626 -0.0343  0.2056
30024W        W44871   7.936  10.131  15.104 -0.2088 -0.2217  0.1753
30025W        W44872   8.313   1.337  14.090 -0.2290 -0.1136  0.0965
30026W        W44873   9.836   3.914   4.479 -0.1054  0.1224 -0.1417
30027W        W44874  12.421  10.931   4.284  0.1822 -0.1929  0.1276
30028W        W44875  14.605  14.405  13.772 -0.1027  0.1100  0.0675
30029W        W44876   0.103   4.520   2.091  0.0795 -0.1989 -0.0083
30030W        W44877   4.751  11.979  12.681  0.2833 -0.1211  0.2049
30031W        W44878  13.146  14.955   6.233 -0.2693  0.0340 -0.1096
30032W        W44879  14.348  14.512  15.504  0.0149 -0.0881 -0.1994
30033W        W44880   4.562  11.514   2.034  0.0843 -0.0653 -0.0152
30034W        W44881   8.282  12.548  14.199 -0.0414 -0.1689 -0.0710
30035W        W44882   5.762  10.106  12.411  0.0676  0.1446 -0.2010
30036W        W44883  14.148  11.313   6.749  0.0177 -0.0165  0.1677
30037W        W44884   9.895  14.273   0.835 -0.0617 -0.0218 -0.2414
30038W        W44885   6.952   3.054  12.384 -0.2402  0.1655 -0.1420
30039W        W44886  16.679  12.662   3.097  0.0235  0.0595 -0.0358
30040W        W44887  17.078  12.925   5.028  0.1172  0.0076  0.2047
30041W        W44888  11.292  12.064  12.847 -0.1492  0.3356  0.1546
30042W        W44889   7.249  17.414  12.870  0.0741  0.0613  0.2162
30043W        W44890   1.207   2.808   1.761  0.1385  0.1659 -0.0649
30044W        W44891   6.830  13.151   6.352 -0.2993 -0.0946 -0.1628
30045W        W44892   1.089   2.082   0.900  0.3783  0.1050  0.0411
30046W        W44893   4.227   9.579   4.888 -0.2007 -0.2236  0.0232
30047W        W44894   0.402   7.812   0.013 -0.0297  0.0507 -0.0362
30048W        W44895   9.163   4.866   2.974  0.0944 -0.1376  0.2631
30049W        W44896  10.705  15.448  13.751  0.1281  0.0643  0.1771
30050W        W44897   2.883   7.984  11.989  0.0142  0.2847 -0.0610
30051W        W44898  14.730   8.862  16.356 -0.0377 -0.3110 -0.1319
30052W        W44899  12.677   7.686   1.475  0.1400 -0.1822  0.0173
30053W        W44900   2.517  12.270   2.162 -0.0053 -0.1593 -0.0987
30054W        W44901   4.300  16.958   2.976  0.3303 -0.1766 -0.0770
30055W        W44902  16.368  16.637  13.104  0.2716  0.0968  0.0393
30056W        W44903   2.211  11.518   4.855 -0.2384  0.0038  0.0614
30057W        W44904  14.432  11.990   0.455 -0.1263  0.0304  0.0075
30058W        W44905  13.984   3.960   3.238  0.0565  0.0333 -0.1106
30059W        W44906  11.844  10.158   3.333  0.2404  0.1685 -0.1743
30060W        W44907  15.853   6.613  13.790  0.1856  0.0714  0.1406
30061W        W44908   2.274  16.778  16.052 -0.0270  0.0868 -0.0212
30062W        W44909   5.509  10.814   1.425 -0.2781 -0.2635 -0.2384
30063W        W44910   6.662  12.522   0.923  0.0501  0.1300 -0.2296
30064W        W44911  10.178   6.418  13.364 -0.3074  0.1383  0.1200
30065W        W44912   2.528   3.725  14.530  0.1701 -0.0164 -0.1278
30066W        W44913  12.101   1.284  16.996  0.2042  0.0872  0.0095
30067W        W44914  16.268  13.557   0.054  0.2431 -0.1504 -0.0584
30068W        W44915  17.370  13.975  12.636  0.0656  0.2282  0.0951
30069W        W44916   4.140  16.263  17.684 -0.2301 -0.0094 -0.2441
30070W        W44917   9.566  11.911   0.347 -0.0068 -0.0918  0.0814
30071W        W44918  12.508  16.665  14.678 -0.1081 -0.2511  0.2579
30072W        W44919   6.831  15.794  12.075 -0.0336  0.0359  0.2688
30073W        W44920   1.017  16.255   3.822 -0.0171 -0.2721  0.0728
30074W        W44921  15.559   4.162   2.269 -0.3392 -0.0997  0.1289
30075W        W44922  16.595  14.919  15.776 -0.3438  0.0319 -0.0896
30076W        W44923   0.844   1.188   3.351  0.2319  0.0934  0.3123
30077W        W44924  11.357   2.279   4.956  0.1974 -0.0806  0.2194
30078W        W44925   4.755   8.800   3.767 -0.0813  0.0993 -0.2691
30079W        W44926  13.545   7.991   4.036  0.1885  0.4245 -0.0541
30080W        W44927   5.601  14.195   5.343 -0.2927 -0.2191  0.0049
30081W        W44928  12.635   7.793  12.067  0.0542 -0.2409 -0.1260
30082W        W44929   2.412   2.177  15.219 -0.0668  0.0255 -0.0727
30083W        W44930  16.614   4.033  15.520 -0.1162  0.1432 -0.0116
30084W        W44931   5.709  16.005  14.513  0.0930  0.2097  0.3353
30085W        W44932  15.069   9.387  15.589  0.0302 -0.3578  0.0777
30086W        W44933  17.201  12.904  15.297  0.0354 -0.1099 -0.0594
30087W        W44934   6.314  16.081   5.817  0.0068  0.1371  0.2010
30088W        W44935   9.480   6.438  17.592 -0.1634  0.0393 -0.2632
30089W        W44936   6.408   5.854  12.927  0.1232  0.2198 -0.1563
30090W        W44937  10.871  12.053   1.801  0.4549  0.0939  0.1814
30091W        W44938  11.701   7.000  14.423 -0.2677  0.0760 -0.2073
30092W        W44939   7.157   8.879  13.398 -0.0654  0.4856  0.0041
30093W        W44940  12.323   8.424  15.387 -0.0694  0.1190 -0.3618
30094W        W44941   6.532   6.830   5.960  0.0247 -0.3102 -0.1703
30095W        W44942   1.071   8.115   4.566 -0.1396  0.1822 -0.2437
30096W        W44943   0.276   4.541  17.601 -0.1180 -0.1803  0.3829
30097W        W44944   5.531   4.535  11.982  0.0993  0.0020 -0.0103
30098W        W44945  16.484   6.976  17.559  0.0773  0.0121 -0.0339
30099W        W44946  13.804   1.227  15.596 -0.2919  0.0403  0.1093
30100W        W44947   1.951   1.510  14.964 -0.1491  0.1076  0.1639
30101W        W44948  12.533  12.936   0.806  0.1776 -0.0007  0.2797
30102W        W44949  15.561  16.547   3.789  0.1005  0.3855  0.1841
30103W        W44950   5.760   8.897   0.942  0.1554  0.1048  0.0024
30104W        W44951  17.498   2.174  12.082 -0.0863  0.2006  0.0846
30105W        W44952  10.128   1.930   6.139 -0.0695  0.0657  0.1958
30106W        W44953   8.031   4.199  13.905 -0.0119 -0.0199  0.5433
30107W        W44954  12.661   0.745   1.658  0.2303  0.0583  0.0975
30108W        W44955  16.649   5.989   0.772 -0.3543  0.0762 -0.1746
30109W        W44956   4.289   1.233  12.843  0.1335 -0.0314  0.2088
30110W        W44957  13.674  11.051  13.406  0.1915 -0.0958  0.0833
30111W        W44958   1.461   9.247  14.463 -0.2638 -0.0867  0.0073
30112W        W44959  12.970  17.597   4.219 -0.0630 -0.1267 -0.4731
30113W        W44960  10.754   5.606  17.082 -0.0871  0.0810 -0.1094
30114W        W44961  16.838  12.143   0.346 -0.0837  0.2092  0.2204
30115W        W44962  15.947  10.599  12.445 -0.0902 -0.0222 -0.0925
30116W        W44963  13.089  12.791   3.138  0.3888 -0.0326  0.0438
30117W        W44964   0.496   0.264   3.507  0.1272  0.0740 -0.0164
30118W        W44965   1.381   2.657   0.814 -0.1190 -0.0419  0.3992
30119W        W44966   5.697  14.132  12.064  0.1050 -0.3004 -0.1643
30120W        W44967  17.509   5.685   0.661  0.2283  0.0674 -0.3142
30121W        W44968   4.590  10.857  17.065 -0.0221  0.1004 -0.3706
30122W        W44969   9.247  13.078  15.186  0.2652 -0.3043  0.0642
30123W        W44970   8.306  17.386   4.584  0.5932 -0.1680  0.0643
30124W        W44971  17.378  13.844  14.449 -0.0368  0.2414 -0.2154
30125W        W44972   5.371   3.828  16.636 -0.0141 -0.0400  0.0190
30126W        W44973   6.268  13.695   4.755 -0.3482  0.0631 -0.2349
30127W        W44974  10.537  15.162   1.797 -0.0770  0.0025  0.0477
30128W        W44975   5.291  13.778  16.957  0.1534 -0.0882 -0.0007
30129W        W44976   7.485  14.065   0.511 -0.1267 -0.0500 -0.1934
30130W        W44977   2.751   9.972   3.686  0.0307  0.2109  0.1748
30131W        W44978  10.204   0.423   1.392 -0.1338 -0.0648 -0.3500
30132W        W44979   2.021  16.959   3.593  0.1074  0.2429  0.0634
30133W        W44980  13.239   2.644   1.680  0.1237 -0.1184  0.5399
30134W        W44981   2.612  13.026   0.627 -0.2126  0.0884 -0.2298
30135W        W44982   7.824   8.602   5.730  0.2322 -0.0169 -0.2857
30136W        W44983   7.255  13.433   1.291 -0.0505 -0.1212 -0.2611
30137W        W44984  12.276   6.350  13.530 -0.2819 -0.1552  0.1240
30138W        W44985   3.716   0.809   2.647 -0.1342  0.1266 -0.2483
30139W        W44986  15.797   1.960   4.416  0.4881  0.2892 -0.0292
30140W        W44987  16.312   2.184   4.457  0.4276  0.0137  0.2133
30141W        W44988   4.048   4.851  16.455 -0.4043  0.0941  0.4024
30142W        W44989   0.436  17.411   2.303 -0.2495 -0.3149  0.0785
30143W        W44990   7.817  12.058   6.145  0.0181  0.0184 -0.3051
30144W        W44991  14.021  12.255   2.720  0.3185 -0.4102  0.1581
30145W        W44992  14.996   3.536  13.327 -0.1061  0.0356 -0.0762
30146W        W44993   4.618   4.318  13.339 -0.1012 -0.0709 -0.1035
30147W        W44994   1.078  17.393   5.994 -0.2613 -0.0264 -0.1966
30148W        W44995   0.761   3.118   1.823  0.3328 -0.1987  0.0808
30149W        W44996   8.468  15.818  15.401  0.0614 -0.3726  0.0103
30150W        W44997   5.586   8.407   5.373  0.1321  0.0020 -0.0901
30151W        W44998  13.855  13.721  15.119  0.1644  0.1662  0.2273
30152W        W44999  14.508  12.411   5.322 -0.0631  0.0863  0.0410
30153W        W45000  10.857  15.641  16.757  0.3106 -0.0604 -0.1042
30154W        W45001   6.209   6.979  17.320 -0.2456  0.0978  0.2719
30155W        W45002   2.217   3.320   4.622  0.1946  0.0529  0.2234
30156W        W45003  16.829  15.842   6.032  0.1780  0.0216  0.1256
30157W        W45004  12.584   8.525  14.213  0.0135  0.1484  0.0604
30158W        W45005   4.078   1.964  15.418  0.2069  0.0989  0.3400
30159W        W45006   2.622   0.933   1.806 -0.1985 -0.1361 -0.0772
30160W        W45007  13.044   4.887  11.994  0.0133 -0.0557  0.3078
30161W        W45008  16.736   9.745  12.261 -0.0061 -0.1524  0.1984
30162W        W45009  14.228   1.656   4.830 -0.2505  0.0650 -0.0175
30163W        W45010   3.719   9.542   4.643 -0.2946  0.1776  0.1071
30164W        W45011  15.015  13.487  12.761 -0.1256  0.0934 -0.0457
30165W        W45012  15.644  14.205  17.465  0.2249 -0.1573 -0.4703
30166W        W45013  14.822   6.526   2.481  0.1308 -0.0972 -0.1434
30167W        W45014   4.727  10.806  15.570 -0.1431  0.0665 -0.1705
30168W        W45015   0.022   2.525  14.391 -0.2390  0.0050  0.1169
30169W        W45016   6.557  14.655   5.388  0.1902  0.3671 -0.4596
30170W        W45017  15.312   3.441   6.996  0.0922  0.1501  0.0842
30171W        W45018  17.562   3.836   3.746  0.1837 -0.1001 -0.2340
30172W        W45019  17.253   8.530  14.580 -0.0805 -0.0732 -0.0753
30173W        W45020  13.580   8.675   4.469 -0.3517  0.1567 -0.1310
30174W        W45021   9.361   1.760  15.975  0.1265 -0.1015 -0.2255
30175W        W45022  14.416  16.172  13.985 -0.3175 -0.1604 -0.0061
30176W        W45023   6.536  16.292   3.925  0.1501  0.0274  0.0858
30177W        W45024   0.897   3.955  11.628 -0.3676  0.0129 -0.1630
30178W        W45025   4.041   4.353   3.177 -0.3134 -0.2415 -0.1665
30179W        W45026   0.009   9.690  12.538 -0.1107  0.0961 -0.2177
30180W        W45027   3.215   5.710   3.526 -0.2244 -0.2218 -0.1057
30181W        W45028   0.074  17.151   2.488 -0.2842 -0.0236  0.1532
30182W        W45029   8.202   7.670   0.122 -0.0923  0.2833  0.1096
30183W        W45030   3.086   2.989   6.078  0.0718 -0.0058 -0.0245
30184W        W45031   6.065  15.479   0.352 -0.3804  0.2123 -0.4404
30185W        W45032  12.007  14.675   0.900 -0.0224 -0.0636 -0.2955
30186W        W45033   2.424   6.258  12.552  0.0902  0.1207 -0.1624
30187W        W45034   7.999   0.461  13.424 -0.0619  0.1118 -0.0654
30188W        W45035  13.305  10.409   5.867 -0.0595  0.2703 -0.3706
30189W        W45036   9.191  10.978  16.268  0.0620  0.0313  0.0722
30190W        W45037   8.042  13.719   1.683  0.1357  0.0770  0.2208
30191W        W45038  11.780   6.862  12.383  0.0365 -0.3543  0.0492
30192W        W45039   3.245  16.852  11.569 -0.0595 -0.1107  0.1095
30193W        W45040   8.607  11.061   0.274  0.5095 -0.0997 -0.3237
30194W        W45041   3.515   4.295   5.841 -0.1046  0.2537  0.2949
30195W        W45042   3.411   2.179   2.817 -0.1526  0.0893 -0.0813
30196W        W45043   1.849  12.517   6.374 -0.1613 -0.1004 -0.0311
30197W        W45044   5.384   1.097   1.007  0.0985  0.0045  0.0013
30198W        W45045   7.982   2.376   0.036  0.2658  0.1384  0.2148
30199W        W45046  11.161  16.173   3.278 -0.0107  0.1137  0.0941
30200W        W45047  14.725  17.107  12.579  0.1626 -0.0131 -0.0687
30201W        W45048   7.879   7.926  13.189  0.2012  0.1863  0.0069
30202W        W45049  13.009   2.275  14.677  0.2788  0.0749 -0.1780
30203W        W45050   2.685   6.463  12.024  0.0612 -0.4458 -0.2468
30204W        W45051   2.830   4.869  13.381  0.0877 -0.1674  0.1231
30205W        W45052  16.623  11.822   3.129  0.1966  0.0127  0.0525
30206W        W45053   8.460   1.406  13.549  0.0664  0.1175  0.1110
30207W        W45054   5.780  11.213  15.461 -0.2557  0.1082 -0.0819
30208W        W45055   0.622  16.623   4.535  0.0416  0.0191  0.0389
30209W        W45056   4.715   0.569  13.528 -0.0776 -0.2065  0.1266
30210W        W45057  16.854   8.107   6.476  0.1836 -0.0433 -0.1176
30211W        W45058  14.389   3.080   0.068 -0.2853  0.0732 -0.1328
30212W        W45059  17.286  12.780   3.762  0.1616  0.0661 -0.0592
30213W        W45060  14.565   2.266  15.465  0.0198 -0.3177  0.1146
30214W        W45061   8.971   4.849   4.482 -0.2368  0.5673  0.2074
30215W        W45062   3.864   1.307  10.644  0.0666 -0.3945 -0.0854
30216W        W45063  15.933   6.595  16.869  0.1464  0.1371 -0.1201
30217W        W45064  14.564  11.333  14.935  0.0527 -0.0626 -0.3374
30218W        W45065  17.002  12.224   0.889 -0.2155 -0.2636  0.0387
30219W        W45066   9.029  12.503   0.891  0.0257  0.0833  0.3652
30220W        W45067   7.419  10.898  17.162  0.0435  0.0478  0.1101
30221W        W45068   6.907   1.983  14.532  0.1028  0.0111 -0.0513
30222W        W45069   4.466   7.369  15.017 -0.2158 -0.1331  0.0443
30223W        W45070   4.698   3.760   4.912  0.2720  0.1902  0.2423
30224W        W45071   9.564   6.514   1.358  0.1036  0.0719 -0.1092
30225W        W45072  11.688  12.927  16.050 -0.2219 -0.1959  0.0333
30226W        W45073  15.764  16.547  14.448  0.0153 -0.1786  0.2537
30227W        W45074   3.240   9.196   3.942 -0.2369 -0.0970 -0.0130
30228W        W45075  17.662   0.092  12.983 -0.0858  0.2037 -0.1279
30229W        W45076   4.310  11.929  13.161  0.2779 -0.3203 -0.1500
30230W        W45077   7.752  14.850   3.458  0.1793 -0.0470 -0.0250
30231W        W45078   3.845   7.537   3.583  0.0352  0.2464 -0.1100
30232W        W45079  13.126   8.457   3.562  0.4520 -0.1989 -0.1572
30233W        W45080  12.222  10.935   2.409 -0.0036 -0.3687 -0.0841
30234W        W45081   4.883   2.277   3.939 -0.1334 -0.2013 -0.0022
30235W        W45082   9.846  17.138   5.140  0.0718 -0.0163  0.0751
30236W        W45083  15.969  14.056  13.609 -0.1341  0.0115 -0.1338
30237W        W45084   5.487   3.137  13.956  0.2388  0.2074 -0.1103
30238W        W45085  11.664  16.233   6.126 -0.2617  0.0901 -0.2465
30239W        W45086  15.506   3.485  14.059 -0.0190 -0.0115 -0.0261
30240W        W45087  10.014   2.156   1.742  0.1112  0.1032 -0.0997
30241W        W45088   1.461  13.133   2.762 -0.0345  0.1166  0.0593
30242W        W45089  12.948   7.081  14.149 -0.0530 -0.0219  0.4042
30243W        W45090   8.565   9.922  17.235 -0.4469 -0.0709 -0.0711
30244W        W45091  16.886   8.370  16.215  0.1983 -0.5351 -0.0455
30245W        W45092   6.190  17.432  16.716  0.0143  0.1728  0.2162
30246W        W45093   4.241   0.491   2.687 -0.1593 -0.0635  0.1552
30247W        W45094  11.675   4.842  13.670  0.0486 -0.2298 -0.1017
30248W        W45095   7.184   4.348  14.498 -0.1000  0.0007  0.1878
30249W        W45096  12.431   3.198   3.127  0.0656 -0.0879 -0.1397
30250W        W45097   2.359  11.943  11.306  0.0905  0.0443  0.0490
30251W        W45098  16.911   2.151  13.153  0.2683  0.1444 -0.0654
30252W        W45099  11.133   4.683  12.942  0.0216  0.0272  0.1465
30253W        W45100   5.181  15.433   6.123 -0.0203 -0.3591  0.0271
30254W        W45101   3.362  15.557   4.736 -0.0235  0.0416  0.0367
30255W        W45102  17.553   0.034   1.527 -0.1251 -0.1321 -0.1865
30256W        W45103  10.665   5.200  17.443 -0.0247 -0.2248  0.2242
30257W        W45104  15.116  11.198  12.535  0.0465 -0.0786 -0.0978
30258W        W45105   5.269  10.832  13.657 -0.1637 -0.0055 -0.3096
30259W        W45106   5.830   7.144   2.728  0.0613 -0.0201  0.1209
30260W        W45107  11.976  16.252  17.234 -0.0656  0.1125 -0.3872
30261W        W45108   5.550   3.727   1.802  0.2324  0.0617  0.0120
30262W        W45109   0.519   1.244  13.400 -0.2443 -0.0077  0.2260
30263W        W45110   7.873  12.769   5.643  0.0057  0.0653  0.0541
30264W        W45111  10.601   4.654  11.170  0.3548  0.1068  0.1025
30265W        W45112  12.217   2.324   4.716 -0.0706  0.0973  0.2596
30266W        W45113  11.716   6.472  13.612  0.3405  0.1460  0.0520
30267W        W45114   8.530  13.299   2.543 -0.0238  0.0377  0.0230
30268W        W45115  14.236  11.564   0.887 -0.0125  0.2151 -0.1902
30269W        W45116   9.281  17.089   0.608 -0.2962  0.0541 -0.0299
30270W        W45117   6.169   4.896  16.402 -0.0799  0.1771  0.0107
30271W        W45118   7.652   9.238  12.364  0.0845  0.1169  0.0626
30272W        W45119  16.446  11.848  14.995  0.0881  0.2735  0.1205
30273W        W45120   1.782  16.157   2.823 -0.0805  0.0268  0.1346
30274W        W45121   6.509  14.205  15.040  0.3669 -0.0294 -0.1555
30275W        W45122  11.008  13.090   6.374  0.0006 -0.2782  0.4786
30276W        W45123   6.965  17.021   4.820 -0.4785 -0.0411 -0.0872
30277W        W45124   2.394   9.430   2.061 -0.1322  0.1710  0.0302
30278W        W45125   1.962  13.212  16.639  0.0913  0.0583 -0.0953
30279W        W45126   1.320  11.005  16.772 -0.0092 -0.0239 -0.2915
30280W        W45127   1.549   4.329  13.682  0.4592  0.1419  0.1300
30281W        W45128  10.073  14.108  15.838 -0.1844 -0.2868 -0.0958
30282W        W45129   7.950   5.311   5.203  0.0273 -0.0150 -0.1962
30283W        W45130  10.448  17.622  17.059 -0.0888 -0.2344  0.2389
30284W        W45131  16.808  13.360   6.175  0.0324  0.0004 -0.0350
30285W        W45132  11.563  14.212  16.020  0.2175  0.1385  0.1775
30286W        W45133  15.712   8.412  14.724  0.1419 -0.2570 -0.1398
30287W        W45134   6.627   6.655   1.755 -0.0828 -0.1197 -0.0390
30288W        W45135   4.763   1.942   5.936 -0.1721 -0.2211 -0.0228
30289W        W45136   4.911  17.392  12.247  0.0129 -0.0641  0.3482
30290W        W45137   7.872  16.523   4.217 -0.0535 -0.0056 -0.3051
30291W        W45138   8.156   3.256   3.722  0.0562 -0.0818  0.3979
30292W        W45139   4.451   5.168  14.508 -0.2160 -0.0144  0.4622
30293W        W45140  10.371  15.573   6.828 -0.0994 -0.2061 -0.1910
30294W        W45141  17.178   7.272   2.099 -0.1630 -0.0772  0.0264
30295W        W45142  15.277  14.977   2.498 -0.2137  0.1123 -0.1304
30296W        W45143  13.900  16.491   1.082 -0.1472  0.0648 -0.3769
30297W        W45144  10.390   8.134   3.993 -0.0426  0.1170 -0.3430
30298W        W45145   0.343   5.032  12.060 -0.2196  0.2044 -0.1405
30299W        W45146  14.780   1.886  17.360 -0.0908  0.0427  0.0852
30300W        W45147  12.333  12.582  17.346 -0.2402 -0.0432 -0.0124
30301W        W45148   7.578   2.266   3.958  0.1175  0.2613 -0.2156
30302W        W45149  11.762   0.516   0.009 -0.3325 -0.1323  0.0165
30303W        W45150   3.434   8.142  17.130 -0.1606 -0.3946  0.2122
30304W        W45151   9.381   4.305  12.124 -0.4403  0.1405 -0.0103
30305W        W45152   3.806   3.027   2.864 -0.4497  0.3425  0.1886
30306W        W45153   4.593   0.576  15.247 -0.1633  0.1985 -0.3183
30307W        W45154   0.914   5.286  17.572 -0.0179  0.1561 -0.2514
30308W        W45155  16.998   0.332   2.870 -0.0462  0.3801  0.0030
30309W        W45156   8.927   7.090  14.362 -0.0126 -0.1114 -0.1446
30310W        W45157  10.232   1.923   2.787 -0.0833 -0.3594  0.0056
30311W        W45158   7.385   7.349   1.218  0.0228  0.0110  0.0376
30312W        W45159   2.281  13.458   5.351  0.4107  0.1994  0.2053
30313W        W45160   5.393   0.230   0.872  0.0588 -0.0250  0.2032
30314W        W45161   4.249   0.514  14.862 -0.2520 -0.1205 -0.2352
30315W        W45162   6.856  12.520   5.306  0.1787  0.2119  0.2051
30316W        W45163   3.319  17.038  16.927  0.0067  0.0747 -0.2024
30317W        W45164   1.362  11.545  16.766  0.3267 -0.0874  0.3596
30318W        W45165   3.983  10.035  17.487  0.0673  0.1721 -0.1040
30319W        W45166  12.816  12.791   5.632  0.1613  0.0518 -0.2841
30320W        W45167  17.052   6.951   5.331  0.0620 -0.2100  0.2175
30321W        W45168   3.100   7.158  15.772  0.1280  0.0511 -0.1304
30322W        W45169  13.241   9.455  15.779 -0.1071  0.0246 -0.0071
30323W        W45170  11.929  10.226   1.843 -0.2181 -0.0853 -0.0267
30324W        W45171  17.517  14.462   0.762  0.2147 -0.2935 -0.1703
30325W        W45172   3.234  16.548  11.938 -0.1465  0.1866 -0.1517
30326W        W45173   2.511  15.062   2.872 -0.0537 -0.0637  0.1169
30327W        W45174   3.824  14.582  13.651 -0.2341  0.0487 -0.0720
30328W        W45175   8.222   3.403  13.239 -0.0252  0.0859  0.1226
30329W        W45176  10.788   8.817  13.398  0.1407  0.2622  0.0619
30330W        W45177  13.250  14.654   2.118  0.0558  0.2318  0.2013
30331W        W45178  10.429   7.797   3.546  0.0950  0.0291 -0.0242
30332W        W45179  14.041  10.338  12.777 -0.2550 -0.1130  0.2181
30333W        W45180  14.717  12.050  13.743 -0.3180  0.1016 -0.1535
30334W        W45181   1.577  12.524   2.196  0.2742 -0.1319  0.0828
30335W        W45182   6.166   3.781  13.456 -0.2119  0.0480  0.1464
30336W        W45183   0.257   4.635   4.885 -0.1171 -0.0506 -0.1139
30337W        W45184  12.317   8.933  15.299 -0.0898  0.1113 -0.0670
30338W        W45185  14.983   2.208   2.450  0.1391 -0.1821 -0.0761
30339W        W45186   0.879  10.541  14.870  0.3141  0.2147  0.0879
30340W        W45187   3.089  15.790   4.043  0.2128  0.0111 -0.0721
30341W        W45188  16.268  14.392  13.336  0.1544  0.1031 -0.1998
30342W        W45189   3.314  13.954   1.439 -0.4400 -0.0651 -0.0694
30343W        W45190   8.455  10.168  15.068  0.2333  0.0846  0.1205
30344W        W45191   5.706   5.825  16.054 -0.0667 -0.0612  0.0652
30345W        W45192  11.752  11.601   2.167 -0.0354 -0.0919 -0.0906
30346W        W45193  15.843   0.163   3.288 -0.3052 -0.0489  0.3622
30347W        W45194   6.584   5.108   2.086 -0.0753  0.1497 -0.0466
30348W        W45195   9.763   6.837   4.464  0.1027 -0.3329  0.0256
30349W        W45196  13.505   4.706  12.288  0.2355  0.0879  0.0221
30350W        W45197   8.517   4.741  16.487  0.2847 -0.1799 -0.0058
30351W        W45198   5.466  12.847   3.566  0.2036  0.2136  0.1071
30352W        W45199   0.389   0.929  15.170 -0.0303 -0.3219  0.0632
30353W        W45200  12.795   1.783  17.257  0.2921  0.1815 -0.0318
30354W        W45201   3.808   1.351  16.102  0.0891 -0.0230 -0.1180
30355W        W45202   1.602   5.636   6.040  0.1871  0.2294  0.2825
30356W        W45203  10.315  17.389  12.731 -0.0369 -0.1470  0.0673
30357W        W45204   1.508   7.386  13.628  0.0338 -0.0041  0.0120
30358W        W45205  13.676   3.620   1.083  0.0243  0.0408  0.1431
30359W        W45206   6.375   2.655   4.821 -0.1280 -0.0886  0.0397
30360W        W45207  12.834   8.996  16.439  0.1789  0.0099 -0.1388
30361W        W45208   6.018   8.393   5.059  0.2297  0.0144 -0.2823
30362W        W45209  11.009  16.072  12.990  0.1678  0.0816  0.1066
30363W        W45210  10.982  12.772   5.617  0.3515 -0.0495 -0.1228
30364W        W45211  17.597   3.861  15.047  0.0440  0.2321 -0.2210
30365W        W45212  17.017  16.975  15.509 -0.3363  0.0638 -0.4582
30366W        W45213   9.189  11.007  12.069 -0.0154  0.1239 -0.0500
30367W        W45214  14.223   7.420  16.088 -0.0498  0.3192  0.2797
30368W        W45215  13.745   4.484  16.260 -0.1199  0.3328  0.1069
30369W        W45216   6.347  15.573  11.995 -0.1990  0.0643 -0.0493
30370W        W45217   9.627   9.556   1.877 -0.1173  0.0904 -0.5027
30371W        W45218   6.964  14.383  16.394  0.0959  0.0453  0.1015
30372W        W45219   4.184  10.948   1.995  0.2379 -0.2189 -0.0768
30373W        W45220  12.927  13.161   5.352 -0.0891 -0.0156 -0.1739
30374W        W45221   0.190  16.921  14.152 -0.0622 -0.0251  0.1574
30375W        W45222   6.610   0.463   0.283  0.5447  0.1324  0.1408
30376W        W45223   6.907   9.279   1.925 -0.2846 -0.1674 -0.1649
30377W        W45224  16.770  12.138   5.729  0.0543 -0.0789  0.2914
30378W        W45225  14.409  13.280   3.392  0.1011  0.1203  0.1155
30379W        W45226  13.978   2.313   2.359  0.2829  0.0597  0.4718
30380W        W45227   9.646  14.056   4.581  0.4554  0.1708  0.0008
30381W        W45228   5.924  11.539   4.325  0.0616  0.1708  0.0343
30382W        W45229   1.199   4.723   5.805  0.2054  0.0575 -0.1506
30383W        W45230  16.943   1.735   6.579 -0.0569  0.2722  0.0297
30384W        W45231  13.481  12.424  15.486 -0.0632 -0.0132  0.2514
30385W        W45232  17.048  15.441   5.888  0.2708  0.1710  0.0725
30386W        W45233   0.189  16.116   5.126  0.1558  0.0686  0.1223
30387W        W45234  16.214  12.524   5.250  0.1826  0.1667  0.2744
30388W        W45235   9.194   3.369   0.734 -0.1355 -0.2169  0.2365
30389W        W45236  13.260  16.625  12.991  0.4834 -0.0827 -0.1953
30390W        W45237   5.838  11.937  14.583 -0.0172 -0.1739 -0.1243
30391W        W45238  15.798  11.749   5.759 -0.2541 -0.1475  0.3367
30392W        W45239   9.020   7.496   1.651 -0.0719  0.2637 -0.0718
30393W        W45240   9.218   7.098  13.936  0.1527  0.4044 -0.3960
30394W        W45241  11.379  16.121  15.839  0.0450  0.0296  0.1357
30395W        W45242  14.299   1.557  12.878 -0.0741 -0.0666  0.1218
30396W        W45243   7.625  15.725   4.419 -0.0169 -0.0999 -0.1893
30397W        W45244   6.572  12.807   2.371  0.0709 -0.0561  0.0067
30398W        W45245  12.359   8.493   5.364  0.0905  0.0488 -0.3783
30399W        W45246  11.977  17.499  14.932 -0.2709 -0.0512  0.0905
30400W        W45247  13.553   3.448  13.771 -0.1595  0.0989 -0.0021
30401W        W45248   5.509   9.846   3.001 -0.0579 -0.0397 -0.1019
30402W        W45249  16.129  16.044   5.309 -0.0997 -0.0569  0.0177
30403W        W45250   6.735   6.876  12.236  0.1796 -0.2234 -0.0733
30404W        W45251   2.759   8.101   0.675 -0.2059 -0.1946 -0.0360
30405W        W45252   3.537   7.052  13.853 -0.0005  0.0168 -0.1520
30406W        W45253  12.446   3.590   1.292  0.2296  0.1113  0.0835
30407W        W45254   3.573   6.279  16.412 -0.2027 -0.4149  0.0936
30408W        W45255   3.599  16.245   2.866  0.4594 -0.0394 -0.1739
30409W        W45256  15.406   0.283  11.659  0.0757 -0.1808  0.1245
30410W        W45257  15.727  16.981   3.965 -0.0192 -0.0049  0.1835
30411W        W45258  14.133   2.170  12.228  0.2696 -0.0495 -0.1421
30412W        W45259   5.502  15.140  12.135  0.1111 -0.0961  0.1095
30413W        W45260  13.274  14.670   3.821  0.0259 -0.1899 -0.0115
30414W        W45261   1.215   5.255   3.815 -0.1379 -0.0723 -0.0722
30415W        W45262  13.884   1.619  14.697 -0.2875 -0.1263 -0.1421
30416W        W45263   1.179   5.981   3.182 -0.0186  0.1041 -0.1010
30417W        W45264   7.913   7.620   6.022 -0.1573 -0.0040 -0.0758
30418W        W45265   0.437   6.010  11.951  0.0314 -0.2641  0.0317
30419W        W45266   6.282  17.440   3.101 -0.2369 -0.0891 -0.0794
30420W        W45267   9.862   7.675   5.578  0.1455 -0.1405 -0.0509
30421W        W45268  14.302   7.590  16.685 -0.0439 -0.1326 -0.0228
30422W        W45269   9.963   9.236  12.094 -0.0658  0.2148  0.3181
30423W        W45270   4.646  14.960   4.926 -0.0791 -0.0403  0.1664
30424W        W45271   5.189   7.665  14.101  0.0881 -0.0219  0.0384
30425W        W45272  17.359   1.129   4.567  0.2091  0.1973  0.3392
30426W        W45273   9.853   2.398   5.836 -0.1639  0.0126  0.0805
30427W        W45274  11.933   6.824   6.697  0.0088  0.0130  0.2805
30428W        W45275   2.833   4.114   3.349 -0.0883  0.1647  0.0931
30429W        W45276   0.677   8.982   3.631  0.0249 -0.2243 -0.2113
30430W        W45277   8.805  12.426   4.074  0.2535 -0.0144  0.0288
30431W        W45278   4.747   2.770  10.935 -0.1751 -0.0639 -0.0455
30432W        W45279  10.266  15.568  12.596  0.1035 -0.4816 -0.0645
30433W        W45280  14.068  17.204   2.194  0.3414  0.0047 -0.0891
30434W        W45281  15.694   3.714  17.125  0.0629 -0.0151 -0.2016
30435W        W45282  13.731   5.329   6.256  0.2334  0.2078  0.0569
30436W        W45283   4.508   9.724   3.933  0.2315  0.3409 -0.0006
30437W        W45284   7.415   4.038  16.698  0.0084 -0.0485  0.0237
30438W        W45285  10.951   7.018  13.416  0.0739 -0.1034  0.0410
30439W        W45286  13.840  11.230   3.574 -0.1519 -0.0408  0.1666
30440W        W45287   4.160   9.020  13.176 -0.1039  0.2868 -0.0645
30441W        W45288  11.944  11.946   0.810  0.4397  0.1951 -0.2446
30442W        W45289   8.652   0.558   1.238 -0.1983 -0.0160  0.0986
30443W        W45290  13.816  15.213  14.060  0.1355  0.2617 -0.0037
30444W        W45291  16.501   5.479  14.924 -0.0976 -0.1092  0.0016
30445W        W45292  15.788   6.475   5.124 -0.1438  0.0414  0.1408
30446W        W45293   7.655  10.795   0.683 -0.2863 -0.1417 -0.2138
30447W        W45294  15.402   2.516   0.151  0.0053 -0.2213  0.1737
30448W        W45295  15.433   7.719  13.398 -0.3002  0.2402  0.0311
30449W        W45296   5.897  12.221   0.188  0.0215  0.1052  0.3170
30450W        W45297   4.969   5.669   6.225 -0.3377 -0.4119 -0.1975
30451W        W45298  11.851   7.420  16.135 -0.0870  0.2661 -0.0397
30452W        W45299   0.564  16.668  15.660 -0.1127  0.3327  0.3774
30453W        W45300   7.296  12.615   2.927  0.3003 -0.4309 -0.1734
30454W        W45301   0.173  14.151  12.117 -0.0519  0.0526  0.2099
30455W        W45302   2.829   1.602   3.624  0.3273  0.2921  0.1242
30456W        W45303   8.322  13.168  14.766  0.2740 -0.2763  0.0430
30457W        W45304   2.089  14.979  14.835  0.0776 -0.1261  0.1860
30458W        W45305  14.390  16.781   5.795 -0.2884 -0.0699 -0.0762
30459W        W45306   4.307  16.243  16.106  0.0584  0.0336 -0.0058
30460W        W45307   5.854   2.978  12.986 -0.2081 -0.3345  0.0535
30461W        W45308  17.327  15.615   6.974  0.2389 -0.0641  0.0686
30462W        W45309   1.742   2.445   3.660  0.0701 -0.1598  0.3026
30463W        W45310  15.683   5.930  15.059  0.0171 -0.2375  0.1006
30464W        W45311   5.096   2.328  12.896  0.1182 -0.1981 -0.2760
30465W        W45312  17.034   9.630   2.865  0.2091  0.0114 -0.7102
30466W        W45313  14.171  11.985  12.603  0.2992  0.0443 -0.3998
30467W        W45314  10.784  10.762  14.607 -0.4844 -0.1763  0.3620
30468W        W45315  10.019   1.420   0.502 -0.2826 -0.1697  0.0732
30469W        W45316   5.936  12.023   3.625 -0.0880  0.0118  0.0748
30470W        W45317  10.653   5.159   4.776  0.1900  0.0993 -0.2266
30471W        W45318   0.857   9.703   5.607  0.0427  0.1133 -0.1378
30472W        W45319  16.261   8.545  13.837 -0.0809 -0.1243 -0.3481
30473W        W45320  14.327  16.366  14.763 -0.1857  0.2526 -0.0420
30474W        W45321   8.945  10.453   3.336 -0.2030 -0.1093  0.2071
30475W        W45322  11.820   8.929   4.764  0.2265 -0.0174  0.0260
30476W        W45323   5.176  12.603   4.325  0.2398  0.1460 -0.0684
30477W        W45324   5.130   7.790   2.343  0.2638 -0.2053  0.0257
30478W        W45325   7.583   3.668   5.136  0.1881 -0.1489  0.2476
30479W        W45326   7.444   7.392  14.518  0.1581 -0.0831 -0.0375
30480W        W45327  16.835   5.484   5.160 -0.0755 -0.0283 -0.1673
30481W        W45328   3.496   4.621   2.420  0.0986 -0.1186 -0.0894
30482W        W45329  16.401  15.856   4.109 -0.0421 -0.2260  0.4411
30483W        W45330  10.974  16.838  16.482  0.0613 -0.0368 -0.1456
30484W        W45331   4.677   5.260   2.825  0.3993  0.0107  0.5050
30485W        W45332  17.167   2.670   1.397 -0.2127  0.0208 -0.1783
30486W        W45333  14.360  13.804  13.011 -0.0980 -0.0824 -0.0452
30487W        W45334  17.387  11.588  15.062  0.1442  0.2097 -0.0697
30488W        W45335   9.024  17.264   5.327 -0.0197 -0.3365  0.1496
30489W        W45336   0.971  13.782  15.106  0.0122  0.3205  0.2093
30490W        W45337  16.011   1.404   0.336  0.0746 -0.0498  0.0278
30491W        W45338   4.718  16.211  13.629  0.3194 -0.0332 -0.0465
30492W        W45339   5.414  12.209   6.483  0.0655  0.0492 -0.0181
30493W        W45340  15.290   9.113   1.292 -0.2468 -0.0042  0.0882
30494W        W45341   3.712  10.016  13.012 -0.3537 -0.0007  0.0912
30495W        W45342   0.827   7.695  12.705 -0.1723  0.2936 -0.0160
30496W        W45343   7.664  10.342  17.466  0.0094  0.1039 -0.0011
30497W        W45344   4.612  16.745  13.742  0.1932  0.1290  0.1022
30498W        W45345  13.282   5.189  13.866 -0.1569 -0.0646 -0.3605
30499W        W45346   9.302   9.064   4.333 -0.0717 -0.1190  0.1333
30500W        W45347   0.639  15.446   1.623  0.2177 -0.1298 -0.0145
30501W        W45348  12.459   6.931  15.611  0.0132  0.0678  0.0019
30502W        W45349   6.227  12.085   6.105 -0.0933  0.2010  0.2387
30503W        W45350  14.311   4.502   3.856 -0.4262 -0.1963  0.1290
30504W        W45351  11.387   8.597   4.872  0.1677  0.0754 -0.0651
30505W        W45352   0.485  15.373  13.700  0.0776  0.0185 -0.0793
30506W        W45353   6.713  14.447  13.792 -0.1754  0.0023  0.0219
30507W        W45354  14.102   7.118  16.674  0.1759 -0.0541  0.1418
30508W        W45355   3.232   2.483   0.274 -0.2247  0.0612  0.2120
30509W        W45356  13.669   7.865  15.445  0.2416  0.1215  0.0703
30510W        W45357  14.709  14.529   5.493 -0.1455  0.0029  0.1025
30511W        W45358   7.353   1.206   6.188  0.3731 -0.1804  0.1406
30512W        W45359   5.406  12.021   5.991 -0.2113  0.0594  0.2960
30513W        W45360  17.526   4.163   2.385  0.1804  0.0710  0.0517
30514W        W45361  13.046  15.253   0.744  0.0468 -0.0254 -0.2868
30515W        W45362   7.146   8.752  16.359 -0.0379  0.0032  0.4621
30516W        W45363  16.198   0.423  16.198  0.1454  0.0941 -0.2021
30517W        W45364  13.180  14.566   4.297  0.0572  0.1948 -0.3978
30518W        W45365   3.306   8.543  15.932 -0.1678 -0.1070 -0.0531
30519W        W45366   4.541  17.285  11.909  0.0410  0.0620 -0.0922
30520W        W45367   5.659  14.313  14.486 -0.3982 -0.0105 -0.1439
30521W        W45368  16.419   7.898  14.544 -0.3237  0.2296 -0.0871
30522W        W45369   0.748  17.208   0.663  0.0218  0.2253  0.0908
30523W        W45370  11.049  12.843   4.120  0.3679 -0.2344  0.0456
30524W        W45371   3.195   9.331  11.980 -0.0431 -0.1090 -0.0974
30525W        W45372  13.720  12.989   4.052  0.2176  0.3813  0.0379
30526W        W45373  11.012   3.351  13.973 -0.1275 -0.0117  0.0355
30527W        W45374  15.776  10.325   0.249  0.1584 -0.1276  0.0489
30528W        W45375   0.895  16.852  13.932  0.0123 -0.1379  0.0343
30529W        W45376   9.413   3.779   5.684  0.1229 -0.0437 -0.3209
30530W        W45377   2.945   7.087  12.422 -0.1034  0.0302  0.5029
30531W        W45378   5.891   3.936  13.095 -0.3075 -0.1119  0.2197
30532W        W45379  10.603  10.770   5.514 -0.1695 -0.2206 -0.2614
30533W        W45380  17.482  12.744   2.861 -0.3787 -0.3520  0.0056
30534W        W45381   4.664  10.415  13.779  0.0398  0.3666 -0.1220
30535W        W45382  10.830   4.801   4.461  0.1342 -0.1623  0.3276
30536W        W45383  11.141  10.323  15.015 -0.0641  0.4010 -0.1046
30537W        W45384   8.032  14.961  17.486 -0.1781  0.2555  0.0661
30538W        W45385   0.180   3.007  14.550  0.1100 -0.2984 -0.0293
30539W        W45386  13.502  10.808  14.654 -0.2040 -0.3140 -0.0654
30540W        W45387   6.115  15.036   1.127  0.0172 -0.0459  0.0342
30541W        W45388   4.158   7.846   6.304  0.2239  0.1874  0.3107
30542W        W45389   7.900   0.801  17.609  0.0053  0.0947  0.1247
30543W        W45390   6.395   3.214   1.076 -0.1835  0.0872  0.3113
30544W        W45391   9.814   1.541   4.518  0.0652 -0.1967 -0.0259
30545W        W45392  13.374   8.549   2.509  0.0411  0.0705  0.0368
30546W        W45393  15.750   9.667  15.101  0.0874 -0.0604 -0.1180
30547W        W45394  11.574   2.928  16.184  0.1135  0.1408 -0.2523
30548W        W45395   2.956  10.200  11.339 -0.1324 -0.1514 -0.1585
30549W        W45396  14.924   9.726  14.299  0.0797 -0.2403  0.3477
30550W        W45397   3.123   7.492   0.066  0.0148 -0.0430 -0.2229
30551W        W45398   0.145   2.790  11.326 -0.1148 -0.0588  0.0298
30552W        W45399  12.026   6.333   4.771  0.4162 -0.0732 -0.1096
30553W        W45400  13.425   4.732   3.058  0.0603 -0.0042 -0.0469
30554W        W45401   2.239   9.931  14.093  0.0543  0.1974 -0.0981
30555W        W45402  16.479   0.020  13.975 -0.0801 -0.0796  0.1197
30556W        W45403  14.093  10.191   0.656 -0.0847 -0.1430 -0.0248
30557W        W45404  10.549  16.694   7.201  0.2050 -0.6252 -0.2134
30558W        W45405  16.138  15.832  12.593 -0.0775  0.0978  0.1530
30559W        W45406  13.775  16.061  13.851 -0.1997  0.2428 -0.1150
30560W        W45407   0.918  10.606   0.919 -0.2427  0.1073 -0.3257
30561W        W45408   3.689   1.493   3.864  0.4245 -0.0688  0.2061
30562W        W45409   4.994  14.831   4.514 -0.2283 -0.1095  0.0260
30563W        W45410  10.927   6.015   1.693 -0.0724 -0.4328 -0.3108
30564W        W45411  10.329  16.014  12.541  0.2213 -0.1697 -0.0525
30565W        W45412   5.972  12.407  16.412 -0.3252  0.2075 -0.1319
30566W        W45413  15.788  14.498  17.048 -0.0356 -0.0580  0.1506
30567W        W45414  10.286  10.998  15.325 -0.0495 -0.0627  0.0809
30568W        W45415   6.744   5.261   4.329 -0.0867 -0.0006  0.2205
30569W        W45416   3.653  17.337   2.024 -0.1781  0.1282  0.1399
30570W        W45417  10.119  17.671  16.664  0.1183  0.0520  0.0340
30571W        W45418  10.797   1.522   6.954 -0.0162  0.1758  0.0797
30572W        W45419   6.212  14.932   3.804 -0.1877 -0.0258 -0.1285
30573W        W45420   1.966   4.149  15.944  0.3296  0.0759  0.1475
30574W        W45421  12.751  12.785  16.271  0.0928 -0.0277 -0.0006
30575W        W45422   9.079   1.351  15.361  0.0821  0.2441 -0.0374
30576W        W45423   4.443   9.070  13.590 -0.0282 -0.2379 -0.0566
30577W        W45424   8.535   1.369   4.679  0.1273  0.2617  0.0085
30578W        W45425   9.639  12.575   5.646  0.0483 -0.0823 -0.1051
30579W        W45426  17.614  16.472  13.370 -0.0317 -0.1584  0.5426
30580W        W45427   9.064  10.486  16.214  0.0267 -0.1257 -0.1374
30581W        W45428   5.084   4.916  16.531 -0.0646 -0.1295  0.1244
30582W        W45429   7.783  14.552  11.791 -0.0572 -0.1084  0.0959
30583W        W45430  10.283  12.010   5.688  0.0244 -0.2465 -0.2610
30584W        W45431   7.094   3.098   1.771  0.1879 -0.2268 -0.1327
30585W        W45432  12.421  11.449  12.945 -0.1951  0.1552  0.0078
30586W        W45433   5.396   0.125  17.273 -0.2628  0.2086 -0.0652
30587W        W45434   9.643  10.321   2.004  0.1739  0.1020 -0.0431
30588W        W45435   9.412   7.766   5.791  0.2229  0.0753 -0.1175
30589W        W45436  15.047   6.921  14.397  0.2522 -0.2616  0.0771
30590W        W45437   9.352  17.418  16.940 -0.2278  0.0671 -0.2555
30591W        W45438  17.559   5.203  12.160 -0.0665 -0.2146 -0.2346
30592W        W45439  17.277   6.968   0.197  0.1425  0.1935 -0.1204
30593W        W45440   9.322   3.260   5.564  0.1445  0.4456  0.1815
30594W        W45441  15.343   8.806  16.946  0.1089 -0.1768  0.2573
30595W        W45442   1.793   2.448   4.594  0.2785 -0.2063 -0.0106
30596W        W45443  15.421  12.847   3.925  0.1593  0.2437 -0.0780
30597W        W45444  16.610  13.894   3.396  0.2555 -0.2328  0.0084
30598W        W45445  14.872   1.461  12.410 -0.1054  0.2875 -0.0128
30599W        W45446  17.414  15.076   6.336 -0.0320 -0.0558  0.0270
30600W        W45447   0.247  15.197   0.113 -0.1514  0.2363  0.1940
30601W        W45448  15.651  13.345  15.888  0.2994  0.1739  0.0622
30602W        W45449   2.211   0.713   3.420  0.0838  0.1004  0.3116
30603W        W45450  16.311   7.104   6.130  0.2690 -0.1112 -0.1414
30604W        W45451  11.786   7.190   4.938  0.2692  0.1852 -0.0692
30605W        W45452   4.688   7.702   6.004 -0.3481 -0.1861  0.0061
30606W        W45453   6.680  17.277  13.654 -0.1298 -0.3079  0.1191
30607W        W45454   4.406  15.203  17.126 -0.0531  0.0591  0.0785
30608W        W45455  11.254   0.921  15.994  0.0709  0.2425  0.0521
30609W        W45456  12.356  14.549  15.669  0.0199  0.1993 -0.1262
30610W        W45457   5.446   8.419   3.518  0.0640  0.4827 -0.2306
30611W        W45458   5.256   7.147   6.400 -0.0141  0.2108 -0.3963
30612W        W45459   0.950   5.405  16.090 -0.1309 -0.3675  0.1583
30613W        W45460   9.211  17.343  16.060  0.0104 -0.1780  0.0015
30614W        W45461   8.555   0.642   4.891 -0.3286 -0.0322 -0.2472
30615W        W45462  12.731  12.877  17.221  0.0071  0.3400  0.0152
30616W        W45463   0.140   7.511   1.265 -0.4617  0.1103 -0.0172
30617W        W45464  14.157   1.563   4.303 -0.1791  0.2438  0.1645
30618W        W45465  15.563   3.890  16.172  0.0094  0.0548 -0.0702
30619W        W45466   2.389  14.487   4.088 -0.1112 -0.0115 -0.0540
30620W        W45467   7.214   5.720   5.770 -0.1339 -0.2328  0.0431
30621W        W45468   7.229   9.393   3.318 -0.0049 -0.1767  0.2233
30622W        W45469   7.882   8.647   1.008 -0.1655  0.0194  0.1016
30623W        W45470  11.075  14.979   6.521  0.2352 -0.3090 -0.0124
30624W        W45471   3.980  12.851   4.957 -0.1255  0.0019 -0.1517
30625W        W45472  13.607  12.575  14.509  0.0480 -0.0469 -0.1690
30626W        W45473   9.743  16.392   4.164  0.1130 -0.1036  0.3689
30627W        W45474   2.598  14.041   3.302  0.0604  0.3013  0.3997
30628W        W45475  14.225  11.275   5.640 -0.1576  0.0431  0.0339
30629W        W45476  14.395  13.628  14.705 -0.1062 -0.3110 -0.0884
30630W        W45477   9.007   0.126  12.764  0.1412  0.2503  0.0196
30631W        W45478   7.310   2.207  13.347  0.4173 -0.2472  0.0376
30632W        W45479   9.262   9.045  15.178  0.0125  0.1178 -0.1432
30633W        W45480   1.888   4.557   1.842  0.1334  0.2340 -0.0192
30634W        W45481  10.402  12.373   2.522 -0.0845  0.2749  0.0124
30635W        W45482   5.640  11.319  15.000  0.0162 -0.4858 -0.0245
30636W        W45483  12.735   2.243   0.058 -0.0224 -0.1967  0.1939
30637W        W45484   9.483  13.766  16.384  0.0325 -0.3750 -0.2989
30638W        W45485  12.261  12.898   1.693 -0.1705 -0.1073  0.2224
30639W        W45486  14.321  12.474  13.947  0.0966 -0.1899  0.0716
30640W        W45487   9.282   2.359   5.529  0.0217 -0.0773  0.0802
30641W        W45488  14.541  10.579  15.695 -0.0147  0.1129  0.2961
30642W        W45489  10.904  16.655  12.459  0.0200  0.2492  0.0282
30643W        W45490  12.466   5.072  12.744  0.2374  0.0810 -0.0144
30644W        W45491  12.652  13.866   3.557  0.1842 -0.1148 -0.0197
30645W        W45492   2.565   5.472  17.437 -0.0185  0.0530 -0.0122
30646W        W45493   2.487   3.070  11.956 -0.0774  0.2744 -0.1198
30647W        W45494  15.319   4.743  14.804 -0.0795 -0.0755 -0.0712
30648W        W45495   6.061   2.730  17.008  0.0602 -0.3117  0.1636
30649W        W45496   3.920   4.394  17.070 -0.0335  0.2977 -0.0242
30650W        W45497  14.645   1.184  14.150  0.3041 -0.0849 -0.1343
30651W        W45498   2.744   2.650   3.556  0.0908 -0.0505 -0.0892
30652W        W45499  11.544  14.801   6.251  0.2122 -0.0479 -0.1387
30653W        W45500   6.647   8.041  16.441 -0.1692 -0.1595  0.0663
30654W        W45501  14.349   7.186  13.020 -0.1441 -0.0581 -0.0611
30655W        W45502  16.002  17.143   4.694 -0.1166 -0.2104  0.0361
30656W        W45503   0.880   0.377  15.843  0.1191 -0.2953  0.2235
30657W        W45504   3.171  12.795  15.031 -0.1705  0.1199  0.0232
30658W        W45505   3.797   2.553  13.084  0.1259  0.2370 -0.1339
30659W        W45506  15.941  15.600  12.970 -0.0765 -0.0610 -0.2480
30660W        W45507  16.543  12.184  13.980  0.0075  0.1476  0.6362
30661W        W45508   3.918   6.859   1.629  0.1723 -0.1627 -0.0067
30662W        W45509  17.444   3.871  17.116  0.0925  0.1152 -0.1615
30663W        W45510   9.541   2.278   3.309 -0.2826 -0.2573 -0.3245
30664W        W45511  15.084   9.335  13.930  0.2346 -0.0813  0.0880
30665W        W45512   4.346  15.695   1.334 -0.0104 -0.2657  0.0195
30666W        W45513   2.141   6.772  13.878  0.1035 -0.1706  0.0627
30667W        W45514   3.213  15.363   4.296  0.2520 -0.4643  0.1198
30668W        W45515  15.401   4.506   1.828  0.0729  0.1383 -0.0400
30669W        W45516   3.843  11.773  12.570 -0.0098 -0.1403  0.0031
30670W        W45517  10.719   2.347  14.022  0.0405  0.0072 -0.2402
30671W        W45518   6.790   8.658  16.966 -0.1838  0.1130  0.0727
30672W        W45519  15.566   0.320  13.724 -0.0733  0.2385  0.2099
30673W        W45520   0.282  16.623   0.084  0.0065 -0.0930 -0.2396
30674W        W45521  17.244   0.002   3.161 -0.0690  0.1675 -0.3176
30675W        W45522   1.324  15.487   3.261  0.0458  0.1150 -0.3174
30676W        W45523   9.960   9.246   5.609 -0.0922  0.4910 -0.3047
30677W        W45524   8.698   4.469   0.651 -0.1731  0.2407  0.2498
30678W        W45525   8.145   1.833   5.877  0.0410  0.0785  0.0699
30679W        W45526   7.260   0.409  12.427  0.2747  0.2481  0.1885
30680W        W45527  11.016  12.958  12.873  0.0930 -0.1476  0.0855
30681W        W45528   0.480   5.944   5.402  0.2208  0.0212  0.1003
30682W        W45529  17.512  16.311   2.652  0.3043 -0.2095 -0.1356
30683W        W45530  15.211  15.252   1.272 -0.1035  0.0104  0.0062
30684W        W45531   9.023   5.632  16.264 -0.0326  0.2079  0.1413
30685W        W45532  11.754  15.606  16.985 -0.3238 -0.0181  0.1185
30686W        W45533  10.327   1.649  12.036  0.0824 -0.2008 -0.0143
30687W        W45534   6.647   9.771  13.630  0.0445 -0.2175  0.1129
30688W        W45535   5.834   0.290  16.861 -0.3408  0.0356  0.1041
30689W        W45536  10.755  12.404   4.440  0.0594  0.0826  0.0677
30690W        W45537   4.583   9.286  14.338 -0.0119  0.2824 -0.2194
30691W        W45538  12.194  12.420  15.486  0.1314  0.0360 -0.2232
30692W        W45539   8.634   2.993   3.798  0.3872  0.0262  0.0652
30693W        W45540   9.649   8.343  15.598  0.0259 -0.0186  0.0107
30694W        W45541  13.547   1.974   2.820  0.0587 -0.1820  0.3167
30695W        W45542  10.312   1.768  14.144 -0.1159 -0.0018  0.0625
30696W        W45543  10.769  12.892  14.849  0.0924  0.0045  0.1309
30697W        W45544   9.313   8.420   3.168  0.1787 -0.1014  0.0071
30698W        W45545  16.434   6.173  15.523 -0.2867 -0.0498 -0.1346
30699W        W45546  12.895   3.245  14.315  0.0314 -0.2489  0.2993
30700W        W45547  12.406  16.434  15.814  0.2066  0.3076  0.1367
30701W        W45548  10.276   1.306  12.386 -0.0302 -0.2281  0.1248
30702W        W45549  16.428  12.511   3.956 -0.1929 -0.1320 -0.1066
30703W        W45550   5.258  17.396   5.199  0.1968 -0.1712  0.0825
30704W        W45551   2.858  17.440  17.133  0.1499  0.1239  0.1960
30705W        W45552  14.219  14.418  13.275  0.0277 -0.1435 -0.1749
30706W        W45553   9.790  17.363   1.276 -0.2939 -0.2878  0.0026
30707W        W45554   7.614   3.450  14.676  0.0783 -0.1307  0.0653
30708W        W45555  16.759   0.165  12.248 -0.0077 -0.0135 -0.3631
30709W        W45556   0.607  15.985  14.318  0.0647 -0.1900  0.0050
30710W        W45557   0.160   5.573   1.245 -0.0591  0.1575 -0.2969
30711W        W45558   0.939   3.379   2.244 -0.2190 -0.0940  0.1772
30712W        W45559  10.568  12.625   3.391 -0.1966 -0.1373  0.0385
30713W        W45560   0.503   2.601  12.784  0.1548 -0.2526  0.2936
30714W        W45561   2.909   7.300  17.303 -0.1864 -0.0103  0.1522
30715W        W45562  13.487   1.481  13.442 -0.2808 -0.4062 -0.0439
30716W        W45563  13.830   3.483  11.283  0.0400 -0.0810 -0.1587
30717W        W45564   5.087   6.488  13.042 -0.2823 -0.0438  0.1691
30718W        W45565   0.550  12.964   5.138  0.2469  0.0304  0.1351
30719W        W45566   6.669  10.441   5.943 -0.1064  0.1248  0.3841
30720W        W45567  12.600   5.722   4.884 -0.0347 -0.0057 -0.1027
30721W        W45568   3.843   9.533   6.360 -0.1253  0.1991 -0.0414
30722W        W45569  16.059   6.350   3.493 -0.1052 -0.1689  0.1359
30723W        W45570   6.838  14.008   3.592 -0.1324 -0.0209 -0.1155
30724W        W45571  15.403   0.816  13.682  0.0776  0.1034 -0.3332
30725W        W45572  13.450   4.195   4.961 -0.2913 -0.1941 -0.2060
30726W        W45573  12.878   5.764  12.143  0.1781  0.1989  0.1465
30727W        W45574  14.647   1.016   4.296  0.1306 -0.1255  0.0358
30728W        W45575  15.677   7.010   0.134 -0.0976  0.2193 -0.0693
30729W        W45576   7.452  16.197   4.333 -0.2095  0.0709 -0.2312
30730W        W45577   3.763   9.697  14.382 -0.0920  0.0280  0.0438
30731W        W45578   6.885   6.031   6.000  0.2249  0.1159 -0.1064
30732W        W45579  15.045   4.099   4.346 -0.0721 -0.2272 -0.0264
30733W        W45580   2.685  16.077   6.056  0.0554 -0.0493 -0.0319
30734W        W45581   6.771   8.308   3.511 -0.0911 -0.1560 -0.0392
30735W        W45582   4.238   8.257  12.014 -0.4004 -0.0203 -0.1269
30736W        W45583  10.830   6.686   5.661  0.1704  0.0900 -0.0316
30737W        W45584   2.396  15.482  12.167  0.0317  0.1544  0.2502
30738W        W45585   5.776   1.715  14.746 -0.0291  0.4024 -0.0746
30739W        W45586  15.499   6.676  15.673 -0.2309 -0.2169 -0.1551
30740W        W45587   7.817   6.238   2.060 -0.0164 -0.0007  0.0784
30741W        W45588   4.469   8.481   1.900 -0.3068  0.0941  0.0768
30742W        W45589  14.404   3.577   2.008  0.0427 -0.3232  0.0121
30743W        W45590   9.629   6.745  17.164  0.2202 -0.1077  0.2555
30744W        W45591   4.532   9.573  15.553  0.0798  0.1135  0.0305
30745W        W45592   0.930   2.713  15.618  0.1563  0.2843  0.2318
30746W        W45593   0.326  14.409  14.799 -0.0769  0.1920  0.0541
30747W        W45594  12.386   5.678  14.787  0.1142  0.0127  0.0371
30748W        W45595   4.480  12.858  15.540  0.0472  0.2399 -0.0002
30749W        W45596  10.101   2.514   4.859 -0.1529  0.4352 -0.3611
30750W        W45597  16.819  13.677   6.557  0.0073 -0.0803  0.0066
30751W        W45598   2.656   0.916   1.161 -0.0871  0.1864  0.2089
30752W        W45599   7.731   7.436   2.782  0.0546 -0.0240 -0.0723
30753W        W45600  13.443   8.851   0.354  0.0964 -0.2440 -0.4621
30754W        W45601  11.071   4.720  16.153 -0.0739 -0.0501 -0.2195
30755W        W45602   7.211  17.586   2.596  0.2366  0.1634  0.0312
30756W        W45603   5.655   5.749  14.610 -0.3234 -0.0586  0.2067
30757W        W45604  16.467  10.998   6.894 -0.2212  0.3258 -0.1645
30758W        W45605  13.156   6.151   6.429 -0.1917  0.1039 -0.0438
30759W        W45606  16.873   4.340  16.721  0.0101 -0.0801 -0.0120
30760W        W45607   9.949   4.084  16.304  0.1398 -0.3485 -0.0308
30761W        W45608  16.764   3.416  17.286  0.0736 -0.2642 -0.0822
30762W        W45609   8.407   0.949  13.271 -0.3693  0.0466 -0.1762
30763W        W45610  11.963   5.223   0.354 -0.1939 -0.2076  0.2489
30764W        W45611   7.809  12.194   6.799 -0.0555  0.1536  0.1646
30765W        W45612  10.785   7.489   2.819 -0.3265 -0.1269  0.0810
30766W        W45613  11.760  10.476  17.521  0.1296 -0.0961  0.0322
30767W        W45614  11.788   4.197   6.044  0.1038  0.2073 -0.2318
30768W        W45615   3.737  13.849   4.139 -0.4085 -0.1024  0.2105
30769W        W45616  14.469   7.131   1.034  0.2654  0.4145 -0.2197
30770W        W45617  17.593   5.682  13.337 -0.2365  0.0007 -0.3317
30771W        W45618  16.543  12.944  12.699 -0.2345 -0.0774  0.3254
30772W        W45619  15.519   5.518   5.319  0.0868  0.2524  0.0417
30773W        W45620  16.271   2.985  12.760 -0.3843 -0.0392  0.1151
30774W        W45621   8.303   9.138   2.002 -0.2222  0.0178 -0.2441
30775W        W45622  11.174   8.225  14.022  0.1353 -0.1968 -0.4691
30776W        W45623   1.190  16.847  17.128 -0.2783  0.1267  0.1111
30777W        W45624   0.120  14.275   1.656  0.0482 -0.2431 -0.1525
30778W        W45625  10.696  10.147  15.209 -0.1316 -0.1752 -0.3368
30779W        W45626   1.804  16.471   5.383 -0.0694 -0.4172 -0.1538
30780W        W45627   0.584  14.294   3.451  0.1580 -0.0691  0.0438
30781W        W45628  14.073   5.505   4.089  0.2992  0.1955  0.0157
30782W        W45629  13.625  14.801   4.175  0.0133 -0.0539 -0.1036
30783W        W45630   2.013   1.925   4.395  0.0713 -0.3238 -0.1244
30784W        W45631   3.370  12.138  14.336 -0.0387 -0.0010 -0.2029
30785W        W45632  14.103  11.539   3.984 -0.1554 -0.0736 -0.0649
30786W        W45633  15.087   1.866   4.166  0.4866  0.3440 -0.1041
30787W        W45634   4.936   0.449  11.875  0.0976  0.2298 -0.0335
30788W        W45635   5.203   8.563   3.919 -0.1570 -0.0041 -0.2455
30789W        W45636   2.386  16.718  14.514 -0.2375 -0.0630  0.1928
30790W        W45637   1.363  10.474   3.246  0.0095  0.0395 -0.2316
30791W        W45638   0.110  12.991   2.522 -0.0593 -0.0236  0.1809
30792W        W45639  12.636   1.051  12.195 -0.1902 -0.1472  0.1257
30793W        W45640   6.458   8.046   0.157  0.2097  0.2668  0.2120
30794W        W45641   6.241  15.783   3.664  0.2053  0.1539  0.2780
30795W        W45642   2.822   7.481  11.751 -0.2853  0.4034  0.0994
30796W        W45643  15.271   4.967   4.207 -0.2047  0.3435  0.1144
30797W        W45644   6.436   3.068  12.944  0.2444 -0.0811  0.1368
30798W        W45645  10.133   4.665  13.830  0.1105  0.1376 -0.0474
30799W        W45646   0.931   0.849  14.335 -0.2628 -0.3541 -0.1172
30800W        W45647  14.980  14.310  17.157 -0.2537 -0.0257 -0.2233
30801W        W45648   6.206  17.418  11.989 -0.3123  0.0058 -0.0980
30802W        W45649  15.094   9.576   0.190  0.1571  0.2384 -0.1415
30803W        W45650  13.061   6.814  17.525 -0.2306 -0.1214 -0.2712
30804W        W45651  14.671   6.158   3.610  0.1469 -0.3904 -0.4698
30805W        W45652  14.583  12.882   1.328 -0.2716  0.1017 -0.0284
30806W        W45653   6.929   0.691  13.672 -0.1924  0.0047 -0.0599
30807W        W45654  12.867   8.207   3.201  0.0137 -0.1439  0.0608
30808W        W45655   3.163   9.886  13.025 -0.0581  0.3183 -0.0388
30809W        W45656   8.071   6.951   5.374  0.0157 -0.2241  0.0143
30810W        W45657  11.738   9.899   5.037  0.3303 -0.0012 -0.0985
30811W        W45658   9.421  17.563   3.580  0.0289  0.3503  0.2480
30812W        W45659  17.600   8.791   4.685 -0.1631 -0.1295  0.0790
30813W        W45660   4.865  13.827   4.190  0.0207  0.0217  0.2589
30814W        W45661   4.941  16.128   5.782  0.1709 -0.0727  0.2620
30815W        W45662  12.068  14.135  15.774  0.0607 -0.1189 -0.1801
30816W        W45663   4.078  14.623  16.184  0.0137  0.1043  0.1852
30817W        W45664   4.057   7.636  13.421 -0.3593 -0.1045 -0.1533
30818W        W45665   3.608  16.712   4.450 -0.3090 -0.1925  0.0491
30819W        W45666   2.357  16.233   5.485  0.0170  0.1427 -0.0836
30820W        W45667   5.779  13.755  15.802 -0.2786 -0.1985 -0.0200
30821W        W45668   1.624  12.227  12.792  0.3336  0.2629 -0.1768
30822W        W45669   0.289   6.425   4.501  0.0686 -0.0859  0.1492
30823W        W45670   1.967  13.819   2.684  0.0404 -0.0879  0.1658
30824W        W45671  10.867  13.324   5.411  0.1038  0.0245  0.2660
30825W        W45672  11.932   0.797   4.183  0.1168  0.3873  0.0888
30826W        W45673  13.178   2.769  16.427  0.0519 -0.2206 -0.2960
30827W        W45674  13.197  12.017   2.389 -0.1106 -0.3311  0.1315
30828W        W45675  12.843   0.259  13.648  0.2951 -0.0638 -0.1814
30829W        W45676   4.673   7.598  16.722  0.0995 -0.1753  0.1530
30830W        W45677  14.722   6.615   0.908  0.2578 -0.3136  0.1431
30831W        W45678  12.989   4.733   0.654  0.0191 -0.3856 -0.0603
30832W        W45679  14.646   5.167   5.477  0.1845  0.1597  0.0643
30833W        W45680   2.144   6.920   1.010  0.1063  0.1721  0.1799
30834W        W45681  10.147  14.044   0.249  0.2031 -0.2215  0.0921
30835W        W45682   0.658  10.901  15.267  0.1506 -0.0140 -0.4193
30836W        W45683   5.906  17.359  14.816 -0.1940  0.4468 -0.2411
30837W        W45684  16.502   9.841   1.767 -0.1501 -0.1818 -0.1690
30838W        W45685   3.853  16.299  16.276  0.0407  0.1551 -0.0078
30839W        W45686  15.391   4.512   6.190 -0.0682  0.1967 -0.2675
30840W        W45687  13.082   4.949  14.737  0.2981 -0.0871  0.0017
30841W        W45688  14.572  17.595   3.541 -0.1563  0.2599 -0.2089
30842W        W45689   5.159   2.962  16.721  0.2358 -0.3610 -0.2821
30843W        W45690   8.920   5.767   6.528 -0.0443  0.0186 -0.2958
30844W        W45691   5.596   0.134  13.194 -0.1305 -0.0816 -0.2096
30845W        W45692   0.821  12.551  15.742 -0.2560 -0.2871  0.1384
30846W        W45693   2.875  14.610   2.281  0.1231  0.1663  0.3448
30847W        W45694   4.609   4.211  15.947  0.4228  0.0516 -0.0622
30848W        W45695  16.139  10.509   1.907  0.0250  0.0636 -0.0297
30849W        W45696  13.707  13.833   3.777  0.0022 -0.2690 -0.0004
30850W        W45697   7.337   4.719  11.398  0.1150  0.0726  0.0739
30851W        W45698   1.858  13.397   1.239  0.1900  0.1083 -0.0257
30852W        W45699   8.187  17.138  14.915 -0.0492 -0.1993  0.2138
30853W        W45700  14.876  14.998   6.287  0.2320  0.0868  0.0118
30854W        W45701   2.899   8.253  13.923  0.1509  0.0869  0.0628
30855W        W45702  12.640  11.661   6.584 -0.0707  0.0364  0.0519
30856W        W45703  14.653   6.689  17.236 -0.0823 -0.0440 -0.2593
30857W        W45704   9.254   0.468   1.744  0.0058 -0.1991 -0.3067
30858W        W45705   8.489   2.691   2.165 -0.0315  0.2298  0.0651
30859W        W45706  15.475   4.498   3.353 -0.1496  0.0405 -0.0967
30860W        W45707  15.169   8.179   5.628 -0.2270  0.0869  0.0807
30861W        W45708   0.382  10.465   4.110 -0.1520  0.2056 -0.0677
30862W        W45709  14.968   7.285   6.770 -0.1858  0.0280  0.2277
30863W        W45710  15.476  13.607  11.811 -0.0356 -0.1113 -0.2205
30864W        W45711   0.773   5.201   5.763  0.2315 -0.1057 -0.0830
30865W        W45712   7.598  14.552   4.766 -0.2044 -0.0446 -0.4272
30866W        W45713   5.778  15.811  12.886 -0.2927 -0.1779  0.0270
30867W        W45714   6.894   2.123  16.188  0.1485 -0.1586  0.2071
30868W        W45715   4.906  16.945  17.037  0.0486  0.1638 -0.2716
30869W        W45716   2.458   8.064  10.620 -0.1036  0.1753 -0.2242
30870W        W45717  11.273   1.344  16.544  0.1851  0.2705  0.1662
30871W        W45718  10.523   3.226  13.631 -0.2156 -0.2219 -0.2973
30872W        W45719  16.274   1.467   1.192  0.0618 -0.1382 -0.0358
30873W        W45720   5.069   8.658   6.082  0.0089  0.1588  0.1455
30874W        W45721   0.156  17.082   3.311  0.2875 -0.3148 -0.0478
30875W        W45722  10.494  11.964   3.282  0.1001 -0.0685 -0.0302
30876W        W45723   7.221  11.571   1.656 -0.0858 -0.0725 -0.3296
30877W        W45724   8.273   4.144  12.092 -0.2764  0.1369 -0.1502
30878W        W45725   7.367  11.343  11.209 -0.0604 -0.2498  0.2730
30879W        W45726   1.383   1.355  17.199 -0.1539 -0.1072 -0.0509
30880W        W45727  14.357  11.511  16.743  0.2516 -0.0801 -0.0222
30881W        W45728   6.514  12.296   2.236 -0.1322 -0.0904 -0.2737
30882W        W45729   8.938  17.114  11.344 -0.0694  0.1515  0.1925
30883W        W45730  10.757  12.037   6.886  0.0359  0.1483  0.2122
30884W        W45731  16.196  12.822  15.245 -0.1025 -0.0882  0.2512
30885W        W45732   1.292  14.168   4.777 -0.0491 -0.1953  0.0523
30886W        W45733   0.678  14.694  14.145  0.0929  0.1545 -0.0667
30887W        W45734   4.066  11.576  14.641 -0.0561  0.0966 -0.2736
30888W        W45735   3.495   2.846   0.467 -0.1274  0.0116 -0.5134
30889W        W45736  12.553  12.837   0.048 -0.1003  0.0584  0.0747
30890W        W45737  12.138   4.501   1.126 -0.0602  0.2970 -0.1452
30891W        W45738  15.918   0.364  14.475  0.0496 -0.2203  0.1714
30892W        W45739   1.953   4.375   6.006 -0.5169 -0.1941 -0.2290
30893W        W45740   7.604   5.638   0.564  0.1165 -0.1081  0.1690
30894W        W45741   4.709  11.088  14.244  0.2131  0.2287 -0.3415
30895W        W45742  10.197  12.038  13.073 -0.1761 -0.4322  0.0896
30896W        W45743   7.806   2.436   4.839 -0.0160  0.3943  0.1510
30897W        W45744   5.282   0.443   4.974 -0.0088  0.1176 -0.0619
30898W        W45745   0.850   6.679  13.088 -0.0154 -0.3248 -0.0557
30899W        W45746   4.637   8.454  12.340  0.3433  0.1402 -0.0187
30900W        W45747   8.819  11.593   4.474 -0.2197  0.0072 -0.3447
30901W        W45748   0.709  13.776   4.165  0.0534 -0.0482  0.0983
30902W        W45749  17.586  12.216   2.991 -0.0400  0.2600 -0.0168
30903W        W45750  13.672   3.165  16.966 -0.2557  0.1823  0.0454
30904W        W45751   1.565   3.452   6.942  0.0935  0.0546 -0.1128
30905W        W45752  15.603  10.025   5.212  0.4765  0.4359  0.0728
30906W        W45753   7.450   6.316  12.647 -0.0748 -0.2182 -0.1149
30907W        W45754  11.043  15.839   1.619  0.1424 -0.1638  0.3731
30908W        W45755  14.657  10.773  16.710  0.1605 -0.0314 -0.1822
30909W        W45756   9.315  16.378   1.674 -0.1412  0.0458 -0.1029
30910W        W45757   6.310  16.829  11.385 -0.1006 -0.2160 -0.1440
30911W        W45758  16.216   4.696   5.425  0.2211 -0.0830  0.0532
30912W        W45759   1.632  13.728  16.948 -0.2317 -0.0156 -0.0627
30913W        W45760  10.756  11.008   5.055  0.1825 -0.0663  0.0781
30914W        W45761  17.080   9.704  14.285 -0.0278  0.2253  0.0756
30915W        W45762   7.323   1.696   1.780 -0.2287  0.0566  0.0863
30916W        W45763   8.050  11.577   1.769  0.2172 -0.1002 -0.0324
30917W        W45764  15.737   1.187  13.842  0.0063  0.1771 -0.0421
30918W        W45765   2.486  13.610  12.097  0.0565 -0.2106  0.1830
30919W        W45766  11.007  13.445  15.766  0.2337  0.4549 -0.2215
30920W        W45767  16.868  10.012  12.725  0.0425 -0.0095 -0.1192
30921W        W45768   1.768  13.504   2.300 -0.1248  0.0036 -0.2508
30922W        W45769  12.545   8.108  14.456  0.1114  0.3290 -0.0527
30923W        W45770  11.633  11.320   4.556 -0.1063  0.3206 -0.2190
30924W        W45771   0.270   8.087  11.600 -0.0850  0.1013  0.2497
30925W        W45772   0.532  12.456   4.622 -0.2383 -0.0094 -0.3951
30926W        W45773  11.178   3.861  16.866  0.3224  0.2365  0.1601
30927W        W45774  12.439   1.481   0.512 -0.0248 -0.2270 -0.2529
30928W        W45775  10.678  14.124  13.697 -0.0172 -0.0269  0.0297
30929W        W45776  16.212  11.123  16.579  0.1277  0.0915 -0.0684
30930W        W45777   1.775  16.489   2.000  0.0669 -0.0095 -0.0714
30931W        W45778  16.758   6.287  16.560 -0.0156 -0.2569 -0.3218
30932W        W45779   3.445  14.874  12.059 -0.1022 -0.0561 -0.0501
30933W        W45780   6.104  13.105  17.094 -0.2281  0.0534  0.1454
30934W        W45781  14.248   2.843   2.620 -0.3552  0.1148  0.1812
30935W        W45782   1.201  11.186   1.352  0.0209 -0.1247 -0.1778
30936W        W45783   2.267   2.985  14.728  0.0594  0.0646 -0.2147
30937W        W45784   7.765   1.745   5.566  0.0803 -0.3189 -0.0135
30938W        W45785  13.674  15.952   1.054  0.2139 -0.0849 -0.1991
30939W        W45786  17.670   8.519   1.043 -0.2385  0.1923 -0.1319
30940W        W45787   8.348   5.412  12.331  0.2156  0.1146 -0.0615
30941W        W45788  10.800   5.163   1.410  0.2189 -0.0255 -0.2306
30942W        W45789  17.208  11.434   1.808  0.0054  0.0822  0.2254
30943W        W45790  17.594   8.027   1.278 -0.0437  0.0138  0.1589
30944W        W45791  11.172  10.802  15.001 -0.1386  0.2293 -0.4164
30945W        W45792  10.552   5.184   4.190 -0.1578  0.1868 -0.0240
30946W        W45793  15.100  12.956   6.359  0.3066  0.0893  0.0061
30947W        W45794   4.297   8.687   4.728  0.3786 -0.0964  0.0270
30948W        W45795  12.449  14.777   3.171 -0.2176  0.2810  0.0816
30949W        W45796   6.160   0.469  15.118  0.0227 -0.1630 -0.1642
30950W        W45797  13.191  12.081   6.053 -0.3474  0.1087  0.0706
30951W        W45798   8.270  15.605  14.166  0.1058 -0.3203  0.0407
30952W        W45799  12.956  13.630   0.223 -0.1169  0.3217  0.0743
30953W        W45800  13.643  16.414  17.363  0.1725  0.0648 -0.0616
30954W        W45801  17.609  11.915   3.429  0.3042  0.0369  0.0269
30955W        W45802   6.489   4.394  11.725  0.0085 -0.2165 -0.1932
30956W        W45803   3.134   9.889   0.691 -0.2357 -0.2787 -0.0447
30957W        W45804   9.573  15.226   6.675  0.1322 -0.2631 -0.4875
30958W        W45805  10.492   7.400   3.219  0.2210  0.4747 -0.0237
30959W        W45806   4.441   8.554  14.772  0.1491  0.1240  0.1808
30960W        W45807  10.313   0.222  12.665  0.1888 -0.2321  0.1602
30961W        W45808  10.973   1.457   5.655  0.0743  0.3482 -0.3059
30962W        W45809   9.707   8.661   4.681  0.0728  0.0082  0.2679
30963W        W45810  11.076   7.146   4.000 -0.1422 -0.3082  0.0690
30964W        W45811   7.646  10.256   3.353  0.1016 -0.1817 -0.1731
30965W        W45812  10.979  11.080   2.125  0.3146  0.2930  0.3617
30966W        W45813  12.171   5.333   6.784 -0.0465 -0.0236  0.1707
30967W        W45814  13.352  11.014   5.945  0.0054 -0.0921 -0.2962
30968W        W45815  12.808   7.618  16.530  0.0857 -0.2959 -0.0997
30969W        W45816  17.678  16.368  11.778 -0.5112 -0.2419  0.1534
30970W        W45817   7.942   1.341   0.783  0.1927  0.0394  0.3219
30971W        W45818  15.488  12.240   0.841 -0.2304 -0.1600  0.1334
30972W        W45819  13.453   1.131   1.833 -0.1623 -0.0268 -0.1339
30973W        W45820  16.844  11.110   4.887  0.2704  0.0995  0.0040
30974W        W45821  16.186   2.730  12.163  0.3332  0.3576  0.1825
30975W        W45822  16.585   4.963  15.038 -0.0281  0.1621 -0.0634
30976W        W45823   2.724   4.607  16.648 -0.1505 -0.2938 -0.0759
30977W        W45824   9.124  16.849   5.585 -0.0009  0.0303  0.0964
30978W        W45825   6.503  12.355  14.639  0.1180 -0.2161  0.0500
30979W        W45826   5.692   3.395   6.231  0.2566  0.0530  0.0401
30980W        W45827  12.175  13.974   4.605 -0.2391 -0.2065 -0.1987
30981W        W45828  12.123   7.614   4.664 -0.3102 -0.1439  0.2318
30982W        W45829   4.015   1.136   3.735 -0.1680  0.0926 -0.0479
30983W        W45830  11.815  14.595   7.127 -0.0273  0.0559  0.1036
30984W        W45831   2.771   1.913   2.013 -0.2605  0.0159  0.0456
30985W        W45832   3.185   7.875  13.148 -0.1423  0.0719  0.1538
30986W        W45833   9.248  13.826  13.075 -0.1801  0.1778 -0.1835
30987W        W45834   9.045   0.568   2.480  0.1836  0.2562  0.2965
30988W        W45835  16.166   9.882  17.153 -0.1721  0.3026  0.5021
30989W        W45836   7.473  15.748  16.329  0.1825  0.1465  0.0387
30990W        W45837   8.770   5.864  14.052  0.0221  0.0636  0.2014
30991W        W45838  17.529   9.470  12.084 -0.1428 -0.2274  0.2374
30992W        W45839   4.929  12.900   6.282 -0.1016  0.1219  0.0715
30993W        W45840   8.663  16.404  11.960 -0.1291  0.1341 -0.1219
30994W        W45841   6.928   5.173  14.018 -0.1810 -0.1869 -0.1497
30995W        W45842  11.751   7.398   4.376 -0.0068  0.1825 -0.0091
30996W        W45843  10.310  11.530   0.061  0.1800  0.2218 -0.2114
30997W        W45844   7.034  13.464   3.381 -0.3162  0.2376  0.1733
30998W        W45845  16.347   8.633   5.760  0.0867 -0.1865  0.0557
30999W        W45846  10.378   5.205  15.438 -0.0933  0.1780  0.1049
31000W        W45847   7.573   9.254  13.406  0.0699 -0.0768 -0.2972
31001W        W45848   4.957   8.565   4.744  0.4310 -0.0739  0.1437
31002W        W45849  13.623   6.553  16.320  0.0504 -0.1069  0.0761
31003W        W45850  14.758  12.238   0.168  0.0342  0.1432 -0.2860
31004W        W45851   5.857  14.761  14.761 -0.1691  0.0134  0.3021
31005W        W45852   8.231   8.496  12.464 -0.3537  0.2415 -0.1804
31006W        W45853  16.358  14.898  17.612 -0.0048 -0.2119 -0.2728
31007W        W45854  16.825  14.156   2.116 -0.0143  0.0019 -0.1257
31008W        W45855   3.931  15.742   5.953  0.2235  0.1742  0.0382
31009W        W45856   7.532   1.427  13.307  0.0564  0.0415  0.3949
31010W        W45857  15.872   7.444   4.726  0.3557  0.1405 -0.0434
31011W        W45858   2.303  16.662  12.109 -0.0065 -0.0153  0.0151
31012W        W45859   4.569   1.958  12.248 -0.1287  0.3063  0.1805
31013W        W45860  13.134   1.047  16.965  0.0621 -0.1728  0.1223
31014W        W45861   5.050  10.000  13.748  0.0958  0.0247 -0.0084
31015W        W45862  14.407  14.638  16.468  0.2784  0.1710 -0.2820
31016W        W45863   8.254  16.891  16.555  0.0200  0.1793  0.1295
31017W        W45864   8.374  13.442   5.083 -0.0868  0.0670  0.0208
31018W        W45865  14.168   8.571   3.147  0.1296 -0.0632 -0.1320
31019W        W45866  12.132   7.292  14.497  0.0538 -0.2122  0.0155
31020W        W45867  13.848   3.670  17.031 -0.1390 -0.1471  0.0896
31021W        W45868   9.704  12.982   0.942 -0.1264 -0.1085 -0.0980
31022W        W45869   2.029   0.420  17.399  0.0077 -0.0332  0.2096
31023W        W45870   7.490   3.164   2.295  0.1644 -0.0183  0.1109
31024W        W45871  12.463   6.948  14.029 -0.1247  0.0688  0.2648
31025W        W45872  10.808  16.797   4.394  0.2880  0.3440 -0.3363
31026W        W45873  11.790  16.057   5.128 -0.2083  0.2063 -0.1737
31027W        W45874   6.806   8.400   6.906  0.4813 -0.0519 -0.0796
31028W        W45875  10.845   0.489   3.551  0.1396 -0.2947  0.0662
31029W        W45876   0.708  15.834   2.904 -0.5725  0.1044 -0.2109
31030W        W45877   2.435  10.274   0.040 -0.1607  0.1923 -0.0003
31031W        W45878  16.785   9.830   2.345  0.3900 -0.1830 -0.2192
31032W        W45879   1.847   1.904  15.865  0.0913 -0.2059 -0.1353
31033W        W45880   9.701   1.418  16.111 -0.0650  0.1025 -0.0303
31034W        W45881   4.089  10.119   2.015  0.0293 -0.2349  0.2294
31035W        W45882  10.896  16.187  15.620  0.1274 -0.1274 -0.2294
31036W        W45883   8.701   1.093  13.772 -0.4059 -0.2287  0.0629
31037W        W45884   2.107  10.917  12.530  0.0218  0.2212 -0.1314
31038W        W45885  11.235   7.329   2.937 -0.1105 -0.4417  0.1895
31039W        W45886   2.612   4.166   6.726 -0.0091  0.0171 -0.2078
31040W        W45887  11.101  14.540   0.363  0.2539  0.1627  0.0819
31041W        W45888  10.134  11.886   4.053 -0.2627 -0.0371 -0.0044
31042W        W45889   1.534  12.199   6.084 -0.3821  0.2362  0.0021
31043W        W45890  13.729  14.199  14.398  0.1351 -0.1391 -0.1058
31044W        W45891  10.074   0.357  14.835  0.1446 -0.2825 -0.2734
31045W        W45892   0.079  13.391   7.227  0.2578  0.0899 -0.1787
31046W        W45893   2.453  13.486   2.302  0.1769  0.1195  0.1722
31047W        W45894  12.355  15.527   3.534  0.1493  0.0389  0.3776
31048W        W45895  14.203   3.255   0.620 -0.1350 -0.1093 -0.3728
31049W        W45896   8.757   4.206   5.287 -0.0903  0.0550 -0.0602
31050W        W45897   9.011  15.080   4.404  0.0841  0.2616 -0.0991
31051W        W45898   6.184  13.845  14.927 -0.2615  0.0902 -0.2962
31052W        W45899   8.197   5.116   3.421  0.0035 -0.0268 -0.3761
31053W        W45900  10.169  13.580  13.132  0.1351 -0.0043 -0.0006
31054W        W45901   0.701   4.699   5.950  0.0104  0.1418 -0.0860
31055W        W45902   6.419  10.983  14.237 -0.0653 -0.2959 -0.0891
31056W        W45903   7.903  11.352  15.689  0.0788 -0.0473 -0.1709
31057W        W45904  14.360   2.769  17.293 -0.0265 -0.0993 -0.2751
31058W        W45905   5.136   5.072   2.712  0.1257  0.0121  0.4098
31059W        W45906  16.625   5.170   1.539  0.1463  0.2042  0.1835
31060W        W45907   7.302  15.042  16.983  0.1761 -0.0837  0.0677
31061W        W45908  17.005   6.950   2.994 -0.1791  0.1418 -0.2131
31062W        W45909  15.057  11.568  14.362  0.1851  0.0609 -0.1719
31063W        W45910  17.316   9.949   2.219 -0.1047 -0.2185 -0.4461
31064W        W45911   9.884  16.399   0.502 -0.2110  0.0450  0.0394
31065W        W45912   1.284  16.084  14.709 -0.1059 -0.1063 -0.1046
31066W        W45913   1.899   3.328  11.701  0.2139  0.0668  0.2155
31067W        W45914   7.202  13.218  13.343 -0.1379  0.2474 -0.1994
31068W        W45915   1.000   6.643  14.104  0.1511  0.0552  0.2162
31069W        W45916  13.803   3.611  14.794 -0.0014  0.1309 -0.2780
31070W        W45917   0.069   7.885  14.055 -0.0610  0.0498 -0.0843
31071W        W45918   7.563  15.924   5.426 -0.3810  0.0681  0.2466
31072W        W45919  13.193   0.679   1.418  0.2470 -0.3069  0.1656
31073W        W45920  16.566  10.283   1.611 -0.1309 -0.3099  0.1782
31074W        W45921   1.975   3.859  13.678 -0.1346 -0.3873 -0.0870
31075W        W45922   9.796  15.290   3.067  0.2214  0.0312  0.2403
31076W        W45923   9.273   7.597  12.864 -0.2238 -0.0955  0.1134
31077W        W45924  10.266   8.485   5.925 -0.0104  0.1048  0.0469
31078W        W45925   0.919   4.879  10.954 -0.0829 -0.2754  0.3808
31079W        W45926   0.070   8.449   7.066 -0.1899  0.1852  0.0978
31080W        W45927   2.657  12.467  17.099 -0.0905  0.1060  0.2217
31081W        W45928   6.212   3.457  12.616  0.1004 -0.2189  0.2001
31082W        W45929   4.887   9.659  17.121  0.0978 -0.2853  0.0770
31083W        W45930   6.105  10.484  16.100 -0.3776  0.0668 -0.0529
31084W        W45931   8.477   3.078  14.299 -0.0930  0.0366  0.0089
31085W        W45932  13.932   8.045  16.732 -0.3056  0.1782  0.2387
31086W        W45933   1.425   8.251   4.979  0.2141 -0.1346  0.1116
31087W        W45934   5.810  10.038  16.873  0.1939 -0.1057  0.3104
31088W        W45935  13.108   0.229  13.116 -0.2840 -0.0739  0.0051
31089W        W45936   0.672   0.396  11.886  0.2140  0.0800  0.1695
31090W        W45937   4.685  11.115   6.065  0.0168  0.0307  0.1392
31091W        W45938  10.674  13.742   0.923 -0.0035 -0.0206  0.0869
31092W        W45939   1.424  17.137  15.671  0.2277 -0.0219  0.3823
31093W        W45940  14.272   2.501   1.205  0.2162  0.1289 -0.3217
31094W        W45941   2.173   5.323  17.026 -0.2592 -0.1644 -0.2534
31095W        W45942  14.185   5.632  12.668 -0.0491 -0.2416 -0.1223
31096W        W45943   2.126  16.114   3.326 -0.0946 -0.1757  0.0752
31097W        W45944  14.794   1.503  11.898 -0.0843  0.2131 -0.2763
31098W        W45945   5.353   6.602  13.460 -0.0256  0.1145  0.1165
31099W        W45946  13.293   8.719  12.999  0.2024  0.1546  0.2046
31100W        W45947  14.664  10.679   2.894  0.1302  0.1148 -0.1438
31101W        W45948   7.109  11.463  15.101  0.1780  0.0376  0.1410
31102W        W45949   6.615   0.580   3.765 -0.0257 -0.2160  0.2453
31103W        W45950   7.715   9.279   3.180 -0.1340  0.0499 -0.0891
31104W        W45951   2.855  12.031  16.903  0.1469  0.2373 -0.1311
31105W        W45952  15.858   2.022   3.524 -0.4107 -0.1833  0.2306
31106W        W45953  10.817  14.672  14.826 -0.3583  0.2023  0.2767
31107W        W45954  10.086   4.141   0.180 -0.1398 -0.0816  0.2855
31108W        W45955   6.343  14.623   6.247  0.1311  0.2038 -0.0987
31109W        W45956  12.513  16.874   3.001 -0.1932  0.1134  0.0893
31110W        W45957  12.556   0.921   5.309  0.0138  0.0032 -0.0541
31111W        W45958  15.868   0.062  12.592  0.0980 -0.1533 -0.0245
31112W        W45959  10.320   5.070  12.946  0.1229  0.1975  0.0279
31113W        W45960   5.385  14.508   0.761 -0.3157 -0.1478  0.0163
31114W        W45961  12.544  16.062  13.332 -0.2785  0.1191 -0.1263
31115W        W45962   3.777   3.899  17.158  0.2399  0.3763  0.0688
31116W        W45963   6.335  17.219  13.140  0.1019 -0.2169  0.1583
31117W        W45964   5.521   1.352   3.279  0.2838 -0.0166  0.1908
31118W        W45965  11.211   6.729   4.159 -0.0520 -0.0384  0.3624
31119W        W45966   8.151  17.455  14.531 -0.0200  0.1561  0.2284
31120W        W45967   0.433   6.991  13.327  0.2836 -0.1396  0.0496
31121W        W45968   7.183  10.319   5.857  0.0094  0.1347  0.0902
31122W        W45969  10.779  11.534   2.538 -0.2592  0.1589  0.0755
31123W        W45970  12.786  17.175   2.720 -0.3695  0.1757  0.3289
31124W        W45971  13.709   6.241   4.558  0.2073  0.0167 -0.0811
31125W        W45972  17.146  16.636  11.033  0.0154  0.2488 -0.0464
31126W        W45973  16.046   6.591  13.229 -0.2263 -0.3397  0.2778
31127W        W45974   6.720  11.300  16.194  0.0289  0.1776  0.0308
31128W        W45975   0.700   7.805   4.725  0.2476  0.0049  0.2172
31129W        W45976   2.728  11.782   0.566 -0.1017 -0.0280 -0.1591
31130W        W45977   6.431  14.280   5.759 -0.1413 -0.1340  0.1885
31131W        W45978  16.177  11.285   5.089 -0.2186 -0.0405  0.0552
31132W        W45979   2.512  13.417  12.896  0.0763 -0.1612 -0.1495
31133W        W45980   9.440   0.437   2.713 -0.1237  0.0692  0.1474
31134W        W45981  17.623   6.009   3.665  0.1232  0.3144  0.0064
31135W        W45982   2.562   4.423   3.601  0.1809  0.1669  0.1399
31136W        W45983   0.718   4.786  16.803 -0.2350 -0.0707 -0.0660
31137W        W45984  12.832   6.205  16.494  0.4551 -0.4063 -0.2434
31138W        W45985  17.002  11.820  13.953  0.1247 -0.0661  0.3102
31139W        W45986   0.147   1.683  11.853  0.1059 -0.0677  0.1226
31140W        W45987   7.378   5.179   5.913 -0.0047  0.2582 -0.1189
31141W        W45988   7.617  16.183   1.913  0.0320  0.1337  0.0906
31142W        W45989  13.839   6.110  15.514  0.1045 -0.2006 -0.0546
31143W        W45990   8.749   5.005   2.723  0.1325 -0.1059 -0.0078
31144W        W45991  13.928  10.300  15.372 -0.0349 -0.0947  0.1415
31145W        W45992   3.789   2.082   6.860  0.0308  0.1936  0.1069
31146W        W45993  14.840  15.307   2.340  0.1230 -0.0919 -0.0128
31147W        W45994   3.503  15.279   2.789 -0.2024 -0.1239  0.3675
31148W        W45995   1.111   5.741   3.791  0.2702  0.3938  0.2706
31149W        W45996   7.339  10.181   1.744 -0.2137 -0.2622 -0.1254
31150W        W45997  10.984   4.623  17.311  0.0757 -0.0006 -0.0610
31151W        W45998   6.828   5.119  14.969 -0.0409 -0.6123  0.0517
31152W        W45999  13.295  15.302   2.714 -0.2515 -0.1387 -0.1752
31153W        W46000   2.666   6.405   4.496  0.2461  0.1645 -0.1458
31154W        W46001   2.376  10.059  15.159  0.0976  0.3514  0.3199
31155W        W46002  14.398  10.634   2.408 -0.2668 -0.2485  0.0104
31156W        W46003  13.170  12.485   1.327 -0.1234  0.2363  0.0642
31157W        W46004  15.192  15.270   0.377 -0.1820  0.0719  0.0370
31158W        W46005  10.928   1.123  12.071  0.1048 -0.0491 -0.0171
31159W        W46006   1.468   9.263   6.276  0.1338  0.4486 -0.0258
31160W        W46007   7.125  12.721  17.258  0.0319 -0.0185 -0.1276
31161W        W46008  15.303   2.977   5.215  0.0690  0.1052 -0.1088
31162W        W46009  15.582   0.715   4.990 -0.0110  0.2264 -0.1993
31163W        W46010   5.978   9.142   3.366  0.2059  0.0381  0.0656
31164W        W46011  14.575   8.743  12.544 -0.1324 -0.2443 -0.0170
31165W        W46012   0.869  14.220   0.958 -0.0225  0.0290 -0.4824
31166W        W46013   8.366   6.120   4.080  0.0488  0.2069  0.2709
31167W        W46014   6.351   8.608   2.005  0.2243  0.3046  0.4208
31168W        W46015  10.791  12.938   4.655  0.2585 -0.0397 -0.1983
31169W        W46016   8.516   9.110   0.321  0.1411  0.0196  0.1559
31170W        W46017   7.454  16.110  14.177 -0.0740  0.1184  0.1550
31171W        W46018   3.761   4.298  11.446  0.0987 -0.0024 -0.0016
31172W        W46019   9.570   9.753   6.654  0.0590 -0.1419 -0.0226
31173W        W46020  17.374   7.130  12.979 -0.2316 -0.4212 -0.0817
31174W        W46021  15.494  11.580   2.459  0.2206 -0.1417 -0.2840
31175W        W46022  13.298   8.944  16.729  0.0909  0.3674  0.1536
31176W        W46023   1.897  15.085  12.967 -0.1040 -0.3619 -0.3036
31177W        W46024  15.795   7.999  13.172 -0.0589 -0.0967  0.1027
31178W        W46025   1.196   9.621  14.643  0.0849  0.3650 -0.0367
31179W        W46026   0.027   2.191  13.901 -0.0748 -0.1865 -0.1368
31180W        W46027   0.702   2.115   1.899 -0.0112 -0.0098 -0.0944
31181W        W46028   8.568   1.817   2.158  0.1261 -0.2611  0.0779
31182W        W46029  14.253   5.232   2.283  0.0316 -0.1429 -0.3725
31183W        W46030   8.144   0.943  12.303  0.1526  0.3918  0.1559
31184W        W46031   3.343   8.261   5.847  0.1449 -0.0978 -0.0059
31185W        W46032  15.280   2.107   6.231 -0.1541  0.0408  0.0007
31186W        W46033  15.718  15.830   4.794 -0.0674 -0.0296  0.1570
31187W        W46034   6.353   4.281   3.412  0.0751 -0.0501 -0.1753
31188W        W46035  11.662   5.338   6.810  0.3569  0.0490 -0.3039
31189W        W46036  14.976   3.646   4.675 -0.1757 -0.0703 -0.1510
31190W        W46037   4.505   6.814   1.798 -0.1490  0.6401  0.1545
31191W        W46038   0.703  10.950   0.417 -0.0964  0.2378  0.0429
31192W        W46039   7.318   6.419   2.109  0.2772 -0.0934 -0.2029
31193W        W46040   8.588   3.506  13.633  0.4384  0.2013 -0.0485
31194W        W46041   6.823  11.463   5.390  0.0525 -0.0749 -0.3520
31195W        W46042  11.243   6.715  16.169  0.2203 -0.0141  0.1298
31196W        W46043  14.071   4.466  16.753 -0.0434 -0.3630  0.1864
31197W        W46044   2.366  11.625  14.251  0.3002  0.1115  0.2098
31198W        W46045  10.240   8.394  12.158  0.0216 -0.3721  0.3043
31199W        W46046  15.921  13.574  16.328 -0.0043 -0.1612  0.0655
31200W        W46047  12.079   8.412  13.238  0.1835  0.3377  0.1442
31201W        W46048   9.533   7.082   4.941  0.0260 -0.0225  0.0746
31202W        W46049   1.149  13.116   5.764 -0.4305 -0.0990  0.0056
31203W        W46050  12.224   9.691  13.145  0.0401  0.1721  0.1135
31204W        W46051   8.920  10.017  15.234  0.4910  0.0773  0.2203
31205W        W46052  16.553   4.688   1.581  0.2627  0.1418 -0.2868
31206W        W46053  16.077   9.969  13.714  0.1590 -0.2419 -0.0330
31207W        W46054  16.118   2.349  14.751 -0.2425  0.0061  0.1891
31208W        W46055  14.420   3.835   5.411 -0.2142  0.0160 -0.3478
31209W        W46056   6.388  13.850   3.448 -0.1181  0.1048  0.1248
31210W        W46057   1.318  16.077   1.331  0.0746  0.0736  0.1138
31211W        W46058   1.729   1.178   4.556 -0.0729 -0.4094 -0.0152
31212W        W46059   9.055   0.289   5.349 -0.2167 -0.1082 -0.0465
31213W        W46060   3.641   0.566   0.892  0.2694 -0.0730  0.0524
31214W        W46061   8.713   9.560   1.781  0.2291 -0.3177 -0.1538
31215W        W46062   6.836   8.096   5.064 -0.0659  0.0239  0.0625
31216W        W46063  12.041   1.303  13.538  0.0623  0.1926  0.0685
31217W        W46064   8.905   2.264  14.303 -0.1496  0.0119 -0.1929
31218W        W46065   2.997  14.184  15.022 -0.0923  0.2742 -0.0325
31219W        W46066   7.889  15.369   0.494  0.2083 -0.2165 -0.0470
31220W        W46067   3.348  13.801   0.927 -0.1774  0.0723  0.0949
31221W        W46068   4.014  10.698  10.743  0.0643 -0.0759 -0.1031
31222W        W46069  10.745   2.881  15.542  0.5856 -0.0460 -0.0215
31223W        W46070   0.528   2.020  13.582  0.0633 -0.4152  0.1773
31224W        W46071   4.503   8.620  13.866  0.3749  0.0371 -0.0405
31225W        W46072   7.487   8.742  16.008  0.2397  0.0440  0.2870
31226W        W46073  17.535   4.198  15.791  0.0161 -0.0846 -0.0443
31227W        W46074  17.341   3.177  15.324  0.1957 -0.1117 -0.1566
31228W        W46075   1.403  13.220  15.308  0.0967 -0.0954 -0.2780
31229W        W46076   5.401   8.074   3.930 -0.2546 -0.0089  0.2763
31230W        W46077   1.773   9.192  14.031 -0.5469  0.0821 -0.1795
31231W        W46078   1.372   2.753  17.506  0.4268  0.2023 -0.3015
31232W        W46079   9.797  15.396  15.335  0.0362  0.4629 -0.0851
31233W        W46080   7.581   1.526   3.063  0.1085 -0.6431  0.1730
31234W        W46081  12.408   1.151  16.167 -0.1776  0.3243  0.1144
31235W        W46082   6.325   7.932   5.075 -0.1211 -0.0993 -0.4026
31236W        W46083   1.076   7.609  17.088 -0.4155 -0.0089  0.0659
31237W        W46084   6.945   2.080   1.656  0.1391  0.2692  0.0627
31238W        W46085   0.183   3.402  15.265 -0.0210 -0.0048  0.2223
31239W        W46086   2.424   0.680   4.912 -0.2472  0.1000 -0.2486
31240W        W46087   3.960  15.116  13.713  0.1951  0.0566 -0.1473
31241W        W46088  11.997  10.413  12.748 -0.1093  0.0683 -0.0636
31242W        W46089   6.998   7.013   3.424  0.1915  0.1126 -0.1402
31243W        W46090   8.574  13.993   6.017 -0.2867 -0.2471  0.0703
31244W        W46091   5.813   7.274  11.064  0.0187  0.1280  0.0820
31245W        W46092   2.449   6.288   5.057  0.0714  0.4812  0.2217
31246W        W46093   7.641   3.475  11.132  0.0719 -0.1186  0.1225
31247W        W46094   1.164   9.926   4.271 -0.0598  0.0900 -0.3500
31248W        W46095  10.717  11.223   0.954 -0.0591 -0.3255  0.0927
31249W        W46096   8.016   3.492  12.044  0.1756  0.1101 -0.1974
31250W        W46097   6.233  16.132  12.812 -0.2128  0.2174 -0.0999
31251W        W46098   2.936  11.953  14.251  0.0925  0.0255 -0.4081
31252W        W46099   4.494  13.569   4.478  0.0124  0.0438 -0.1221
31253W        W46100   5.143  11.465   0.652 -0.2785 -0.3810 -0.1792
31254W        W46101   7.415   4.516   5.384  0.2050 -0.0661 -0.0709
31255W        W46102   1.166  10.407  17.020 -0.0081  0.3719  0.0406
31256W        W46103  14.568   1.402   4.574 -0.5425  0.2249 -0.0166
31257W        W46104   1.178  12.089   5.599 -0.1193  0.2195 -0.2285
31258W        W46105   8.137  17.241   3.732 -0.1639 -0.0887 -0.0504
31259W        W46106   5.517  11.580  11.790 -0.0137  0.2946  0.1134
31260W        W46107  17.418   4.243   4.966 -0.0831 -0.3943  0.0743
31261W        W46108   6.511  11.481   0.503 -0.1720 -0.1363 -0.0690
31262W        W46109  16.372   9.711  12.717 -0.0532 -0.1772 -0.0290
31263W        W46110   5.430   4.335   3.452  0.0524  0.0591  0.0323
31264W        W46111  14.774  14.025   0.729 -0.2328  0.1081  0.2951
31265W        W46112   2.612  15.283  17.154 -0.1151  0.0803  0.1228
31266W        W46113  14.741   7.620  16.405  0.1248 -0.2590 -0.3740
31267W        W46114  15.775   7.749   1.246 -0.1036 -0.1929  0.2188
31268W        W46115   6.234   7.775  16.473  0.2886 -0.1188  0.0285
31269W        W46116   3.227  10.441   4.222  0.0995  0.2770  0.1814
31270W        W46117  13.512  13.453   2.911 -0.3701 -0.1187  0.0593
31271W        W46118   6.968  15.103   0.176 -0.1240 -0.0662 -0.1347
31272W        W46119   6.186  10.648  11.041  0.0853 -0.4868 -0.1206
31273W        W46120   1.549   7.865   6.104 -0.1196 -0.0445 -0.0824
31274W        W46121  14.506   1.460  17.452  0.1382 -0.0245 -0.1738
31275W        W46122  14.127   9.138  15.805 -0.3180 -0.1008  0.0642
31276W        W46123  13.089   3.219  12.918  0.2176 -0.2542 -0.0618
31277W        W46124  10.867   0.337  15.905 -0.3521 -0.3211  0.0048
31278W        W46125   0.683   9.884  13.883 -0.0185 -0.0793  0.0846
31279W        W46126   0.174   9.216   1.908  0.1352 -0.1400 -0.1220
31280W        W46127   3.287  15.954   5.121  0.0802  0.0887  0.1856
31281W        W46128   8.060  13.866   5.216  0.3045 -0.0463 -0.0159
31282W        W46129  11.467  11.752   4.209 -0.0174  0.2560  0.2515
31283W        W46130  10.843   4.613   2.370 -0.1050  0.1095  0.0659
31284W        W46131   1.709   0.848   1.481  0.2597  0.1132 -0.1159
31285W        W46132   5.911   0.322   1.003  0.2685 -0.1044 -0.1033
31286W        W46133  17.324  15.721  12.893  0.2426 -0.2871  0.0139
31287W        W46134  11.819  17.444   4.799 -0.2172 -0.0126  0.1131
31288W        W46135   6.031  16.271   3.758  0.0875 -0.0429  0.1791
31289W        W46136  12.585   7.300  15.021 -0.0770  0.0563 -0.1697
31290W        W46137   9.176   3.587   1.220 -0.1977 -0.0045  0.1568
31291W        W46138  15.556  12.040   2.137  0.1696 -0.3952 -0.1237
31292W        W46139   9.858   6.061   2.211 -0.1818  0.2451  0.1194
31293W        W46140   8.208   9.181   3.561  0.0369  0.0934  0.2520
31294W        W46141  13.172   2.026   1.492 -0.0545  0.0494 -0.0683
31295W        W46142   7.128   8.249  14.747  0.2551 -0.0751  0.2082
31296W        W46143   9.411   5.832   0.676  0.0765  0.1045 -0.1945
31297W        W46144  10.307   8.024  16.608 -0.1024 -0.1883  0.0582
31298W        W46145  17.495   4.461   0.832  0.1987  0.1890 -0.0961
31299W        W46146   2.591  10.963   4.122 -0.1164 -0.1938  0.2387
31300W        W46147  17.157   2.785   4.696 -0.0346  0.3374 -0.1342
31301W        W46148  14.512   2.786  15.538  0.0066  0.0371  0.0078
31302W        W46149  10.914  15.248   4.502 -0.3625 -0.1043  0.1611
31303W        W46150   4.023   6.046  15.003  0.1064 -0.1609  0.0520
31304W        W46151   8.361  17.341  15.370  0.0250  0.2353  0.1645
31305W        W46152  12.949  16.819   3.564  0.1309 -0.0157 -0.2836
31306W        W46153  17.615  17.479   0.666  0.1404 -0.0512 -0.4357
31307W        W46154  11.715  11.618   3.500 -0.2704 -0.0862  0.3198
31308W        W46155  16.015  12.539  15.625 -0.0385 -0.0267  0.0878
31309W        W46156  12.539  17.367  14.237  0.0822 -0.1747 -0.0110
31310W        W46157   3.646   1.928   1.014 -0.2662 -0.1865 -0.1816
31311W        W46158   9.694  15.659   5.563 -0.0657 -0.0272 -0.0648
31312W        W46159   6.138   1.841   4.402 -0.2711  0.3651  0.0122
31313W        W46160  14.644   8.171  16.036 -0.3197  0.1890  0.0337
31314W        W46161   6.400  10.664  16.579  0.3455  0.1395  0.2604
31315W        W46162   8.343   9.130   1.409 -0.2449 -0.3691 -0.2410
31316W        W46163  11.061   6.994   5.354 -0.1140 -0.1117 -0.0468
31317W        W46164  15.420  17.416   5.230 -0.0932  0.1053 -0.0277
31318W        W46165  11.020   5.451  14.357  0.0997 -0.0421 -0.0190
31319W        W46166   2.504   7.694  15.020 -0.0425  0.0962 -0.1875
31320W        W46167  10.306  14.974  12.116 -0.0169 -0.2882  0.0148
31321W        W46168   3.551   4.980  12.500  0.1319  0.0761  0.0314
31322W        W46169  12.105  12.766  13.716 -0.0179  0.1980  0.1219
31323W        W46170  15.149  14.296  13.520  0.0781  0.3083 -0.1393
31324W        W46171   0.792  13.146   0.269  0.1932  0.2154 -0.0562
31325W        W46172   6.634   7.304  17.244 -0.0420  0.0737  0.1437
31326W        W46173  10.736  10.512  13.229 -0.2004 -0.0148  0.1421
31327W        W46174   0.414  12.849   6.447  0.2444  0.0167  0.2033
31328W        W46175  17.230  16.639   6.952 -0.2284 -0.0362 -0.0008
31329W        W46176  14.425  14.692   3.001 -0.0353  0.0537 -0.3099
31330W        W46177  11.175   2.473  11.929  0.1697  0.1405 -0.2742
31331W        W46178  10.047   0.065   1.074  0.0676  0.1600 -0.1651
31332W        W46179  14.864   5.966   0.962 -0.0436 -0.0574  0.2007
31333W        W46180  12.094   4.440  14.533 -0.1122  0.3418 -0.0623
31334W        W46181  16.588  14.601   3.666 -0.0072 -0.0842  0.2324
31335W        W46182  16.614  14.021   5.645 -0.0874 -0.2190  0.1865
31336W        W46183  12.557   8.983  12.512  0.0042 -0.5339  0.2184
31337W        W46184  10.835  16.100   4.806  0.1519 -0.1675  0.2713
31338W        W46185  12.594  11.049   0.280  0.1666  0.0153 -0.0968
31339W        W46186   7.221   1.808  11.290 -0.0843  0.1226  0.0781
31340W        W46187  10.777   8.942  12.443 -0.2642  0.0733  0.0193
31341W        W46188   5.485   3.008  12.111  0.0935  0.0066 -0.0686
31342W        W46189  10.930  10.499   1.268 -0.4547  0.3479 -0.1936
31343W        W46190   2.642   6.015  16.549  0.0762  0.0556 -0.1081
31344W        W46191   3.096  15.612   0.794 -0.1433  0.1023  0.2878
31345W        W46192  14.262  12.083   4.135  0.1176  0.1590 -0.0175
31346W        W46193   1.811   6.161  13.260  0.1996 -0.1911  0.2934
31347W        W46194  12.986   4.646  15.645 -0.1747 -0.3057  0.0896
31348W        W46195  17.364  12.678  14.140  0.1110 -0.0953 -0.1425
31349W        W46196   5.076   4.836  15.061 -0.0755  0.0879 -0.0268
31350W        W46197  14.952  13.042   4.873  0.0884 -0.2548  0.1436
31351W        W46198   0.751  17.176  14.776 -0.1714 -0.0136 -0.0201
31352W        W46199  17.317   3.977   0.707 -0.2167 -0.1952  0.0969
31353W        W46200   1.767   1.669  16.803 -0.1407 -0.2126 -0.1484
31354W        W46201  11.964   2.494   6.598  0.2814 -0.2902 -0.2069
31355W        W46202   3.190   2.992  15.556  0.1348  0.1269 -0.0326
31356W        W46203  16.454  15.142   3.643  0.0434  0.0746  0.3124
31357W        W46204   6.348  12.762  16.795  0.1341 -0.0585 -0.1509
31358W        W46205  15.265  10.505   0.340  0.0550 -0.1070  0.1268
31359W        W46206   2.264  12.850  17.242 -0.1051 -0.1324 -0.2831
31360W        W46207   0.426   2.010  10.979 -0.0987  0.3408 -0.0573
31361W        W46208   1.165  17.576   4.099  0.0529 -0.0921 -0.1258
31362W        W46209   0.480   1.437  14.960 -0.1330 -0.1394 -0.1157
31363W        W46210   1.767   3.672   3.420  0.2714 -0.1061 -0.0486
31364W        W46211  15.329  15.374   5.458  0.0173  0.0591 -0.1505
31365W        W46212   6.298   9.435  12.316 -0.2281 -0.0319 -0.1534
31366W        W46213  16.329  12.257   0.237 -0.0392 -0.2287 -0.0805
31367W        W46214  11.223   4.663  13.837  0.2610 -0.1041  0.1494
31368W        W46215   8.335  15.345  15.502  0.2184  0.0292  0.2232
31369W        W46216   5.342  17.151   5.651  0.0510  0.0859  0.0319
31370W        W46217   8.306  15.707   3.217  0.5770  0.3302  0.2445
31371W        W46218  12.018  12.229  13.470 -0.0849 -0.0383  0.1425
31372W        W46219   2.361   9.135   4.698 -0.3759 -0.0408  0.0527
31373W        W46220   7.293   4.116  13.971 -0.2024 -0.0474  0.2890
31374W        W46221   0.464  10.781  12.320  0.2791  0.0359 -0.3499
31375W        W46222   0.544  10.905   1.009  0.0121 -0.2115 -0.1595
31376W        W46223   5.320   3.164  13.295 -0.1167  0.2528 -0.0518
31377W        W46224   9.024   5.424   3.179  0.2610 -0.4338  0.2828
31378W        W46225   2.845  11.390   5.311 -0.2678 -0.1901  0.0453
31379W        W46226   4.668   3.087   3.151  0.0970  0.2409 -0.0578
31380W        W46227   7.438  16.794   1.823  0.1393 -0.0847 -0.1032
31381W        W46228   5.278   9.473   3.212 -0.1517  0.3510 -0.0374
31382W        W46229   2.234   0.901  14.883 -0.0120  0.1693  0.0376
31383W        W46230  11.477  16.623   4.605  0.0820  0.0074  0.1105
31384W        W46231   8.229   6.675  16.282 -0.3924  0.0100 -0.1519
31385W        W46232  15.818   3.089  15.617  0.1491 -0.0817 -0.2972
31386W        W46233   1.245   8.545  13.734  0.1932 -0.0317 -0.1142
31387W        W46234   9.124  13.957   2.391  0.0278  0.3885  0.2061
31388W        W46235   7.869   7.179  14.551 -0.1474 -0.0812  0.3090
31389W        W46236   3.835  11.785   1.897  0.2218  0.0182  0.2034
31390W        W46237   9.833   0.195   3.370 -0.0819 -0.1360 -0.2453
31391W        W46238   8.331  14.471  17.623 -0.1333  0.0212  0.0120
31392W        W46239   3.217  17.169   4.959 -0.0638 -0.3232 -0.1714
31393W        W46240  14.661   3.685  15.690 -0.3997  0.1108  0.2154
31394W        W46241  11.493   9.996   0.621 -0.0364 -0.0242 -0.0516
31395W        W46242  15.870   7.346   2.422 -0.0353  0.2375  0.1157
31396W        W46243   4.136  13.391   0.851  0.1925 -0.1329 -0.0660
31397W        W46244   6.219  12.343  13.569  0.0949 -0.1624  0.2535
31398W        W46245   4.579   1.141   0.636 -0.0245  0.0740 -0.1675
31399W        W46246   4.394   7.158   4.709  0.1702  0.3657  0.1395
31400W        W46247   5.507   9.137   5.254 -0.2444 -0.0533 -0.0366
31401W        W46248   6.000  16.061  13.500 -0.0002 -0.0028  0.0445
31402W        W46249  16.709  12.604  13.016  0.0835 -0.1428 -0.0664
31403W        W46250   3.229  10.653  17.378  0.1508  0.1954  0.1522
31404W        W46251   3.621   8.475   0.575 -0.1071 -0.0654 -0.2424
31405W        W46252  12.313   7.637  16.300 -0.1636 -0.0098  0.1909
31406W        W46253   9.619  12.180   6.345 -0.1926  0.0206 -0.0108
31407W        W46254   3.784   6.049   1.269 -0.1385 -0.2402 -0.0569
31408W        W46255  13.439   0.683  13.011 -0.1763 -0.1987  0.0121
31409W        W46256  10.487  14.511   1.969  0.3484 -0.1294 -0.2661
31410W        W46257  12.118  15.634   0.112  0.0628 -0.4665  0.2229
31411W        W46258  11.527  17.539  16.273 -0.3499  0.1415 -0.0992
31412W        W46259   9.526  11.182   1.492 -0.0265 -0.3047 -0.0907
31413W        W46260  10.512  12.906   6.451  0.0343 -0.0391 -0.0220
31414W        W46261  11.795   3.893   3.133  0.1758  0.1380 -0.1653
31415W        W46262   9.403  13.332  14.788  0.2856 -0.0073  0.0202
31416W        W46263   4.827   7.308  15.385 -0.0369 -0.0700  0.2438
31417W        W46264   1.768   8.358   6.127 -0.1048 -0.4997 -0.0717
31418W        W46265   9.755   1.036   2.892  0.1973 -0.0611 -0.1624
31419W        W46266   2.244  16.989  13.121  0.1591 -0.1802 -0.4350
31420W        W46267  11.656  15.310  15.291  0.0092 -0.0644 -0.0745
31421W        W46268   0.883   3.559  11.920  0.0145 -0.0718  0.3516
31422W        W46269  13.986   7.252   2.355 -0.3776  0.0241 -0.1678
31423W        W46270   8.646  12.355   0.076  0.1262  0.0973  0.2440
31424W        W46271   3.378  14.849   2.498 -0.3049 -0.2913  0.2107
31425W        W46272   3.653   6.584  12.004 -0.0921 -0.2377 -0.1090
31426W        W46273   8.726   4.945   2.217 -0.1166  0.1197 -0.1849
31427W        W46274   1.725   1.680  13.601 -0.0007  0.0795 -0.1761
31428W        W46275   0.810   4.615  14.904  0.1986 -0.0005 -0.0495
31429W        W46276  16.739  10.901  14.794 -0.0889 -0.0809  0.2560
31430W        W46277  11.168  16.592  13.933 -0.1963 -0.0203  0.1137
31431W        W46278  13.369  14.816  17.469 -0.1199  0.2567 -0.2295
31432W        W46279  11.963   9.970   2.614  0.1234 -0.2390  0.1765
31433W        W46280  10.508   7.679  15.722 -0.1759  0.3263  0.2350
31434W        W46281   8.041  14.815   3.902  0.2149  0.1752 -0.3766
31435W        W46282   2.262  15.101   4.250  0.0081 -0.2876 -0.1371
31436W        W46283   5.329  15.468  16.661  0.2101 -0.0690  0.1847
31437W        W46284  11.314  15.180  16.115 -0.1122  0.2151 -0.2313
31438W        W46285   1.730  17.209   6.507  0.0901  0.0479  0.0543
31439W        W46286   7.579   0.073   2.117  0.2631 -0.0928 -0.1611
31440W        W46287   1.396   6.846  12.721  0.0420  0.0940  0.0690
31441W        W46288  11.323  10.909   6.172 -0.0876 -0.0367  0.0944
31442W        W46289  12.015  10.844  13.752  0.0033 -0.0455  0.0732
31443W        W46290  13.864   9.380   1.707 -0.0334  0.1486  0.0424
31444W        W46291   0.295   9.330   2.360  0.1471  0.0739  0.0026
31445W        W46292   7.439  15.855  13.772 -0.5012 -0.1246  0.2266
31446W        W46293  15.771   2.044  16.026  0.2871  0.1292 -0.3848
31447W        W46294   4.822   6.219  15.987 -0.1990  0.1808  0.0353
31448W        W46295   3.767   4.457   4.017  0.1095 -0.0713 -0.1157
31449W        W46296   6.680  12.610   6.268  0.1398  0.0629 -0.2561
31450W        W46297  12.853   6.179   5.856 -0.1194  0.1523 -0.1773
31451W        W46298  16.083  13.904  15.373  0.0472 -0.0832 -0.1931
31452W        W46299   0.077  12.538   1.594 -0.4241 -0.1906 -0.0929
31453W        W46300  12.487   2.802   2.430 -0.1265 -0.3765 -0.3931
31454W        W46301  17.112   0.771   0.645 -0.0180 -0.0909 -0.0599
31455W        W46302  15.519   4.121  14.810  0.3488  0.0083 -0.2880
31456W        W46303  13.920  13.030  13.423 -0.1525 -0.1631 -0.0892
31457W        W46304  11.422  11.061  12.697 -0.1108 -0.2383 -0.1377
31458W        W46305  12.357   9.663  16.634 -0.0640 -0.1297 -0.0274
31459W        W46306   3.837   3.205  14.746 -0.0907 -0.0839 -0.0517
31460W        W46307   0.435   5.463   2.157 -0.0182  0.0482 -0.1990
31461W        W46308   4.284  17.136   4.047 -0.1710  0.0353  0.0747
31462W        W46309  15.360  11.328  14.687 -0.1222 -0.1886  0.2257
31463W        W46310  10.276  13.038  14.639 -0.3546 -0.0918 -0.3185
31464W        W46311   0.231  11.688   5.414 -0.0832 -0.2563  0.1332
31465W        W46312  13.912  16.950  14.503 -0.1797 -0.2578 -0.2009
31466W        W46313   7.039  10.926   1.087 -0.0093  0.2679 -0.1405
31467W        W46314  11.157  15.777   5.211 -0.0646 -0.0544  0.2374
31468W        W46315  10.976  10.269   4.219 -0.0060 -0.3007 -0.3183
31469W        W46316  11.938   1.435  15.014  0.1759  0.0423  0.1023
31470W        W46317  14.980  14.922  15.603  0.1429 -0.1183 -0.1990
31471W        W46318  11.266   6.059  14.367 -0.2027  0.2722 -0.0283
31472W        W46319  16.381   6.311  13.722  0.0370  0.0607 -0.1865
31473W        W46320   2.359  16.800   0.723 -0.0556 -0.0529 -0.0848
31474W        W46321   7.196   3.678  11.205  0.0399 -0.0060 -0.1959
31475W        W46322  16.009   6.208  12.368 -0.2765 -0.0279  0.2960
31476W        W46323   0.909   1.136   2.282 -0.0573  0.1423 -0.0523
31477W        W46324   6.861  16.686  17.618 -0.3300 -0.1630  0.2078
31478W        W46325  13.663   7.661   0.531  0.0217  0.0269 -0.0425
31479W        W46326   7.573  17.522   2.987 -0.0062 -0.0629  0.0879
31480W        W46327   7.917  15.140  15.234 -0.0058 -0.2177 -0.1194
31481W        W46328  11.581   3.353   4.033 -0.1555 -0.0132  0.0756
31482W        W46329   7.250  14.955   4.678 -0.0318  0.0076  0.2481
31483W        W46330  11.994   6.901   2.590  0.0547  0.0176 -0.0739
31484W        W46331   3.867  12.606  14.910  0.0697 -0.0568  0.2013
31485W        W46332  13.556   6.110  17.127  0.0648  0.0159  0.1260
31486W        W46333   7.445  16.326  16.814  0.2651  0.0674 -0.1131
31487W        W46334   4.485  13.317  13.557 -0.0222  0.0174  0.2457
31488W        W46335   1.882  12.613  13.163  0.0950  0.2597 -0.1692
31489W        W46336   3.282   9.620  14.055 -0.0268 -0.0109  0.0154
31490W        W46337   0.158  13.865  16.864  0.1893  0.2262  0.1286
31491W        W46338   5.792  10.079   1.717 -0.1548 -0.2105 -0.1765
31492W        W46339  11.994  14.835   2.834 -0.1068 -0.1737 -0.3781
31493W        W46340  12.801   2.910   4.087  0.3414  0.0117 -0.0210
31494W        W46341  14.635  11.777  14.623  0.2078 -0.0375 -0.4115
31495W        W46342  14.067   0.250   5.278  0.1005  0.0806  0.2255
31496W        W46343  13.206  13.248  13.657 -0.0974  0.0147 -0.3357
31497W        W46344   7.294   3.798  11.665  0.0851 -0.1191  0.1723
31498W        W46345   6.380   3.370   2.987 -0.0083  0.1729  0.2821
31499W        W46346  10.001  13.540  14.758  0.1827 -0.0668  0.0458
31500W        W46347   3.988   9.363   1.683  0.0649 -0.1787 -0.3305
31501W        W46348   3.573   5.229  13.830  0.1697 -0.3783 -0.2399
31502W        W46349   8.137   1.910   2.580  0.2981 -0.4103  0.0420
31503W        W46350   6.718  11.833   4.606 -0.0129  0.1218  0.0256
31504W        W46351  17.606  17.299   3.936  0.1130  0.2213 -0.2590
31505W        W46352   2.558   5.306  16.209 -0.2292  0.0194 -0.0415
31506W        W46353  15.868   3.121   0.006 -0.1302  0.0108 -0.1554
31507W        W46354   4.888  16.673   0.859 -0.0729 -0.0253  0.1641
31508W        W46355   1.914   3.786   6.148  0.0936  0.1929  0.2051
31509W        W46356  12.610   1.778  14.459  0.1627 -0.0711  0.3508
31510W        W46357   0.070  14.860  16.948  0.3710  0.0880  0.0883
31511W        W46358   8.157  17.313  12.561 -0.1049  0.0291  0.0948
31512W        W46359  16.581  13.933   4.103 -0.0769  0.1289 -0.3294
31513W        W46360  10.810   2.564  14.487 -0.3572  0.0522  0.0558
31514W        W46361   6.724  16.212  12.920 -0.1233 -0.1716  0.1340
31515W        W46362  15.980  16.989   2.017 -0.1095 -0.3322 -0.3568
31516W        W46363   0.262   0.395  12.520  0.1449 -0.2000 -0.0129
31517W        W46364   4.171   3.859  13.016  0.0375  0.0012  0.1443
31518W        W46365  12.451   4.805  14.347 -0.4802 -0.1241  0.0419
31519W        W46366   1.275  16.567  10.898  0.1852  0.2105 -0.2642
31520W        W46367   5.570   1.162   0.444  0.1366  0.0121  0.0739
31521W        W46368   2.421   4.243  14.752 -0.0923 -0.1215 -0.3593
31522W        W46369   2.347  14.948  17.415 -0.1041 -0.0891  0.1336
31523W        W46370   3.084   3.472   6.241 -0.0963  0.2210  0.1165
31524W        W46371  11.084   2.394  13.654 -0.2286 -0.0297  0.3320
31525W        W46372   2.265   8.197   6.090 -0.1378  0.1612 -0.1446
31526W        W46373   5.856  14.953   1.560  0.1550 -0.1890  0.0544
31527W        W46374  11.857   8.407   4.723  0.1791  0.1668  0.1809
31528W        W46375  17.035   0.401   0.926  0.0259 -0.2374 -0.1831
31529W        W46376  15.108   6.120   2.803  0.2538 -0.5454  0.1730
31530W        W46377   9.899   0.624  12.772  0.1519  0.0843  0.0674
31531W        W46378   2.935  12.623   7.109 -0.1831 -0.0716  0.0738
31532W        W46379  13.036  12.850  17.615  0.3036 -0.1102  0.0980
31533W        W46380  13.813  13.467  15.601 -0.0877  0.4090 -0.1234
31534W        W46381  14.691   3.591  14.454 -0.1541  0.1784  0.0851
31535W        W46382  16.111  13.513   4.548  0.0257 -0.1378  0.2390
31536W        W46383  11.702   0.684  12.027  0.0517 -0.2445 -0.1956
31537W        W46384  14.180   5.877  12.220  0.0993  0.0316  0.2284
31538W        W46385  16.029   1.440  12.186  0.3001 -0.0687  0.2007
31539W        W46386  13.603   2.294   3.593 -0.3168  0.0660 -0.1386
31540W        W46387   6.635   5.135  16.447 -0.0045  0.1229  0.3594
31541W        W46388   6.803   2.076  17.051 -0.1788  0.0860 -0.4219
31542W        W46389  17.066   4.829  17.057  0.1806 -0.1250  0.0038
31543W        W46390  12.185  10.635  13.192  0.1588  0.3875  0.0232
31544W        W46391  13.024   8.301  12.945  0.0467  0.2651 -0.1092
31545W        W46392   1.426  11.080  17.304  0.0267  0.0812  0.0915
31546W        W46393   3.643   6.472   3.751  0.0561 -0.3496  0.1770
31547W        W46394  12.312  13.618  15.992 -0.0484 -0.2396  0.1854
31548W        W46395  11.208  13.914   4.789 -0.2062 -0.2162 -0.3346
31549W        W46396  17.498  12.415  14.579 -0.0204  0.0570 -0.1261
31550W        W46397   3.638  17.658   1.586 -0.1519 -0.2481 -0.1451
31551W        W46398   7.724   5.212   4.731  0.0630 -0.0372 -0.0326
31552W        W46399   9.100  14.963   5.952  0.0658 -0.2625  0.1468
31553W        W46400   2.554  13.417   1.486  0.0418  0.1791  0.3511
31554W        W46401   8.033   6.099   3.415  0.1815  0.1192 -0.1770
31555W        W46402  12.552   6.810   0.439  0.2497 -0.0878  0.1398
31556W        W46403  15.841   5.661  13.053 -0.4263  0.1307 -0.1780
31557W        W46404   0.880   6.231  15.212  0.0419 -0.0422 -0.1765
31558W        W46405   8.970   5.916   3.528 -0.1943 -0.0642  0.0708
31559W        W46406  16.850   1.583  14.645  0.0545  0.2094  0.2617
31560W        W46407  13.761   4.853  16.598  0.0433 -0.1635  0.2747
31561W        W46408   9.291   5.916   3.082  0.1518  0.2126 -0.1500
31562W        W46409   7.038  13.253  16.733 -0.0383 -0.0450 -0.0216
31563W        W46410  11.263   0.269   1.724  0.0013  0.1233 -0.1849
31564W        W46411   7.735   0.231  16.669  0.0293  0.1979  0.2507
31565W        W46412   2.171   5.755   5.474  0.1668  0.0651 -0.0352
31566W        W46413   9.836   1.475   3.193 -0.0172  0.2352 -0.0547
31567W        W46414  14.472  14.657  15.971  0.0735  0.1261  0.2154
31568W        W46415  12.356   8.043   0.419 -0.0443  0.0613 -0.2828
31569W        W46416   9.755   8.384   6.147 -0.0926 -0.4080  0.0658
31570W        W46417   2.080   3.201  15.138 -0.0362  0.1193 -0.3947
31571W        W46418   4.617   6.577   0.891  0.0947 -0.0246 -0.0400
31572W        W46419  12.165   3.907   5.284  0.0583 -0.1248 -0.2914
31573W        W46420  13.008  11.303   2.342  0.3357  0.0956 -0.0607
31574W        W46421  14.325   2.118  14.616 -0.4921 -0.2753  0.0097
31575W        W46422   0.976   7.045   6.558  0.1458 -0.1367 -0.1027
31576W        W46423  16.839   7.253  12.146  0.1162  0.1662  0.3047
31577W        W46424  12.317  10.924   2.882  0.0346  0.2330  0.0878
31578W        W46425   2.799   5.576   6.631  0.2514  0.1810 -0.0805
31579W        W46426  15.896   0.378   2.850  0.0376 -0.0020 -0.2691
31580W        W46427   9.066   6.733   4.933  0.0619 -0.0331 -0.2241
31581W        W46428   1.833  17.152  16.222  0.1541 -0.3305 -0.1345
31582W        W46429  12.915  15.279  13.958 -0.0161  0.0741  0.1161
31583W        W46430  14.925   1.310  17.113 -0.0519 -0.2314 -0.1306
31584W        W46431   3.883   3.955  14.405  0.2301 -0.0634  0.2309
31585W        W46432   5.039  16.992  13.536 -0.0635  0.2171 -0.0767
31586W        W46433  16.840   9.635  15.911  0.2109  0.0608 -0.1792
31587W        W46434  13.237   5.589  12.901  0.3617 -0.0012  0.1465
31588W        W46435   6.476   1.504   3.719 -0.1978  0.1136  0.0929
31589W        W46436  13.710   8.300   3.327 -0.0657  0.0224 -0.1328
31590W        W46437  13.256   9.700   3.824  0.1022 -0.0228 -0.3570
31591W        W46438  10.097   0.468   5.113  0.1717  0.0625  0.0278
31592W        W46439   1.442  15.451   6.352  0.0574  0.2702  0.2452
31593W        W46440  13.193   7.885   6.660  0.5332 -0.1274 -0.0567
31594W        W46441   3.653   1.149   4.163  0.1791  0.4635  0.0990
31595W        W46442   9.780   4.225   2.129  0.0147 -0.2773 -0.1429
31596W        W46443  10.268   9.442   0.273 -0.0073  0.1025  0.2531
31597W        W46444  13.037  13.333  15.845  0.0729 -0.0776  0.0760
31598W        W46445  10.635   8.004   2.852  0.0078  0.1154 -0.0153
31599W        W46446   2.587   3.210   4.276  0.1941 -0.0742 -0.0178
31600W        W46447  16.815  11.488  17.329 -0.1489 -0.2747  0.0771
31601W        W46448   8.351   0.706   5.404  0.0705 -0.1642 -0.0255
31602W        W46449   0.120   1.920  17.497 -0.3577  0.4153  0.0575
31603W        W46450   1.594  17.432   4.216 -0.2668  0.1234 -0.1231
31604W        W46451   5.960   4.631  16.844 -0.0175 -0.3203  0.0555
31605W        W46452   4.460   2.107  15.687 -0.0345  0.2147 -0.0665
31606W        W46453   1.157   6.341  12.907 -0.0368  0.2318 -0.1484
31607W        W46454  13.534   6.137   2.548  0.1389 -0.0653 -0.0269
31608W        W46455  14.259   6.282   1.715 -0.2455  0.0964 -0.0312
31609W        W46456  12.316   6.383   6.560  0.3377 -0.2033 -0.2366
31610W        W46457   7.172   9.694   1.550 -0.1286  0.3711  0.0162
31611W        W46458  14.875   5.906  12.898  0.1608  0.1125 -0.1166
31612W        W46459   2.056   8.935  15.107 -0.3731  0.2684  0.0875
31613W        W46460  17.238  11.824  13.465 -0.0832 -0.3195  0.1794
31614W        W46461   5.396  17.472  12.316  0.2041 -0.2041 -0.0635
31615W        W46462  15.047   6.496   4.797 -0.0266 -0.0785 -0.1233
31616W        W46463   5.680   6.152  16.503  0.1745 -0.0858 -0.1732
31617W        W46464   1.034   1.648  14.918  0.0295  0.1298  0.0243
31618W        W46465   9.271   1.348  12.989 -0.1097 -0.1160 -0.2254
31619W        W46466  16.581  12.198   4.446  0.0517 -0.0604  0.0111
31620W        W46467   6.431  11.191  12.367 -0.3093  0.0554 -0.1924
31621W        W46468   5.736  14.127   2.551  0.0360  0.1090 -0.2119
31622W        W46469   9.116  16.112   3.601  0.0775 -0.0618  0.1547
31623W        W46470   5.845   6.858   0.301  0.1283  0.1201 -0.1579
31624W        W46471   3.496   0.030  12.659 -0.1010  0.2649 -0.0422
31625W        W46472  10.756   9.532   3.868 -0.1364 -0.5337  0.0116
31626W        W46473  12.408  11.371  13.961 -0.1110 -0.1777 -0.2541
31627W        W46474   8.732   6.817  15.721 -0.2440  0.0715  0.3222
31628W        W46475   5.470   3.354   3.531  0.2970  0.2507 -0.0872
31629W        W46476   3.159  14.040  13.310 -0.1452  0.1511 -0.1468
31630W        W46477  10.055   4.589   5.500  0.0274 -0.1216  0.1515
31631W        W46478  13.105   7.632   2.217  0.0448 -0.0432 -0.1305
31632W        W46479   3.803  11.183  11.811  0.0210 -0.2177  0.2675
31633W        W46480  14.507   6.420  15.817 -0.3722  0.1459 -0.3763
31634W        W46481  10.208   7.750   5.018 -0.0768  0.1453 -0.0191
31635W        W46482   2.579   5.600  15.707  0.3098  0.3866 -0.0122
31636W        W46483  14.350  10.255  14.083  0.2626 -0.2300  0.1926
31637W        W46484   3.793   6.240  14.011 -0.1737 -0.1906  0.0271
31638W        W46485   1.679   2.963   1.757  0.4183 -0.2374  0.4794
31639W        W46486   3.483   5.589  11.899 -0.0070  0.3353  0.5293
31640W        W46487   3.523  11.951  11.280 -0.1424 -0.3208  0.0773
31641W        W46488   3.784   2.322  14.152 -0.3727 -0.0236  0.0346
31642W        W46489   4.323   8.923   2.492  0.1828  0.0558  0.0888
31643W        W46490   5.305   6.738   4.832  0.1485  0.4479 -0.0283
31644W        W46491  10.316   5.276   5.532  0.0518  0.0722  0.0992
31645W        W46492   3.204   5.647  11.176  0.0398  0.0828 -0.0971
31646W        W46493   7.257   2.957   5.724  0.2399  0.3627  0.1725
31647W        W46494   3.200  11.963   0.551  0.1818 -0.1913 -0.0862
31648W        W46495  14.277  15.645   4.538 -0.1915 -0.3215  0.2627
31649W        W46496   8.488   7.417   5.435 -0.0200 -0.1634  0.0436
31650W        W46497   8.086  10.197  16.318 -0.0115 -0.2770 -0.1460
31651W        W46498   0.846  17.061  11.716  0.1269  0.0177 -0.0152
31652W        W46499  10.918   4.764   5.011  0.2398  0.1188  0.2545
31653W        W46500   8.239   8.138  13.917 -0.3792 -0.1384  0.4016
31654W        W46501   2.059   2.192  16.763  0.1339 -0.0194 -0.0494
31655W        W46502  12.193  13.111  17.497  0.2780 -0.1473  0.0335
31656W        W46503   3.996   6.361  17.038  0.0465  0.3286 -0.1824
31657W        W46504  15.170   6.833   2.306  0.0583  0.2752 -0.1938
31658W        W46505  15.551   9.219   3.337 -0.1556  0.1965  0.3169
31659W        W46506   3.622  15.875  13.242  0.1727 -0.1382  0.3181
31660W        W46507  16.377   1.353   3.806 -0.0933  0.2016  0.2387
31661W        W46508   3.277   1.955   6.799  0.1427 -0.0735  0.1189
31662W        W46509  15.806   5.326  14.372 -0.0855 -0.2769  0.2544
31663W        W46510  12.713   8.591  12.217 -0.0296  0.0622 -0.1541
31664W        W46511  16.739  16.305  13.405 -0.1235  0.3200 -0.3479
31665W        W46512  14.832  12.928  16.529 -0.2137 -0.3439  0.0567
31666W        W46513   8.042   3.788   6.194  0.1342  0.0833  0.0529
31667W        W46514   7.305   7.099  16.906  0.1822 -0.2159 -0.1286
31668W        W46515   1.490  10.253  12.222 -0.0106 -0.0203  0.0563
31669W        W46516  15.868   7.952   4.450 -0.1503  0.0176  0.2551
31670W        W46517   7.889   1.011   1.537 -0.0336  0.1038  0.1176
31671W        W46518   2.438  12.480   3.885  0.0446  0.0076  0.3920
31672W        W46519   7.320  12.157  12.152  0.1324 -0.0292 -0.0020
31673W        W46520   2.118   5.531  13.742 -0.2158  0.2095 -0.0894
31674W        W46521  13.300  11.803   1.191 -0.0053  0.2242  0.0947
31675W        W46522   5.432   9.288   0.473 -0.0756  0.1387 -0.2979
31676W        W46523   7.414  14.336  15.007  0.2674  0.0158  0.1808
31677W        W46524   7.059  15.263  17.412 -0.1450  0.1076 -0.0386
31678W        W46525   1.148   5.718  17.671 -0.0915  0.1727 -0.0729
31679W        W46526  14.210  16.156   0.806  0.0446 -0.3003  0.0682
31680W        W46527   6.275  13.089  15.265 -0.0724  0.0215  0.4280
31681W        W46528  17.205   6.714   4.928  0.3470 -0.0444  0.0860
31682W        W46529  17.004   9.959  15.195 -0.1530  0.0678  0.1212
31683W        W46530   6.251   4.003   0.075  0.0542 -0.2758  0.2168
31684W        W46531   8.739  15.604   1.709 -0.1262 -0.1817 -0.2752
31685W        W46532   5.044   9.120  16.405 -0.2348 -0.0263 -0.0226
31686W        W46533  10.920   3.135   6.385  0.0592 -0.2548 -0.2465
31687W        W46534   7.284   2.022  15.796 -0.3122 -0.2842  0.1129
31688W        W46535   3.890  15.549  17.042  0.2113 -0.1815  0.0842
31689W        W46536   5.176   0.832   3.770  0.4770 -0.1254  0.4671
31690W        W46537  13.048   7.858   1.795  0.2137  0.0816 -0.0012
31691W        W46538  12.576   7.195   3.801 -0.0344  0.1030  0.1644
31692W        W46539   0.904  17.624  14.660 -0.1502  0.0938  0.1148
31693W        W46540   5.316   0.465  12.839  0.3059  0.0996  0.1960
31694W        W46541  15.681  14.753  14.640  0.0516 -0.0615  0.1181
31695W        W46542   8.871   7.343  15.622 -0.4032  0.0964 -0.0086
31696W        W46543  15.925   1.938  16.649  0.0153 -0.4880 -0.1508
31697W        W46544   2.908   8.381   1.262  0.4396  0.0225 -0.0251
31698W        W46545  15.916   3.750   2.879  0.1748  0.0199 -0.3736
31699W        W46546  17.616   4.461   5.366 -0.2245  0.1193 -0.0560
31700W        W46547  10.245   6.523   0.558 -0.1433  0.0167  0.2058
31701W        W46548  11.407   6.864  13.551  0.1729  0.3887 -0.0903
31702W        W46549   6.349   7.601  13.855  0.0374  0.1380  0.0417
31703W        W46550   8.990   2.534   4.475 -0.0066  0.0860 -0.4844
31704W        W46551   3.913   1.994   1.983  0.0588 -0.1064 -0.2279
31705W        W46552   8.063  15.161  15.843  0.1278  0.0823  0.2153
31706W        W46553   7.130   0.777  12.759 -0.0150  0.0472 -0.2592
31707W        W46554  10.896  10.533   2.963 -0.0473 -0.0824  0.2529
31708W        W46555  16.710   9.374   0.101  0.1132  0.1927 -0.0418
31709W        W46556  11.660  17.224   5.452  0.0005 -0.1173  0.0382
31710W        W46557   9.972   5.080   0.813 -0.3588 -0.1586 -0.0171
31711W        W46558   9.175  15.587   0.867 -0.0142  0.2267  0.3203
31712W        W46559   1.707   2.245  15.484 -0.0405  0.1826 -0.0596
31713W        W46560   8.522   1.550  15.617  0.0133  0.1747 -0.0740
31714W        W46561  11.285   7.986  17.373 -0.2817  0.1665  0.2331
31715W        W46562   3.922   6.309  11.730 -0.2094 -0.1968  0.0880
31716W        W46563   0.745   3.262  16.400 -0.0543  0.2484  0.2151
31717W        W46564  10.127  12.511   0.015  0.0364  0.2699 -0.0463
31718W        W46565   2.561   1.990  16.825  0.3274  0.1458 -0.2161
31719W        W46566  12.598   4.945  12.043  0.0595 -0.0140 -0.0625
31720W        W46567   7.571  13.657   3.412 -0.0078 -0.1746 -0.1956
31721W        W46568  13.226   9.750  14.208  0.4385  0.4274  0.3298
31722W        W46569   7.192  11.374  14.523 -0.1573  0.2586  0.0823
31723W        W46570   7.692   4.249   6.294  0.2170 -0.2393  0.0435
31724W        W46571   2.426   2.382   3.967  0.1473 -0.0142  0.1832
31725W        W46572   4.985  15.030   2.563 -0.1799 -0.1593 -0.3831
31726W        W46573  16.273   3.449  14.030 -0.0490 -0.4392 -0.1544
31727W        W46574  15.381  14.755  17.194  0.1929 -0.0445  0.0047
31728W        W46575   0.913  12.894   1.404 -0.0571  0.0967 -0.0549
31729W        W46576   0.563   1.015   5.471  0.1012  0.2682 -0.0742
31730W        W46577  11.777   3.159   4.433 -0.0258 -0.2330  0.2331
31731W        W46578  14.338   2.511  15.070  0.2344  0.2101 -0.1666
31732W        W46579  15.230  16.840   3.114 -0.1007 -0.0428 -0.1666
31733W        W46580   0.144  12.866   4.545  0.0742  0.3019  0.1283
31734W        W46581   5.016  13.291  15.765 -0.0059 -0.3115 -0.2297
31735W        W46582   7.963  14.717  14.167 -0.0282  0.1022 -0.1991
31736W        W46583  10.737   4.718  14.703 -0.1204 -0.2955 -0.1615
31737W        W46584  16.787  12.045  17.522 -0.0512 -0.0847  0.2056
31738W        W46585   5.861   7.721   0.868  0.4010  0.0952  0.0181
31739W        W46586  10.356  11.605   6.379 -0.1333  0.1105  0.0029
31740W        W46587  16.847   0.679  13.445 -0.0427  0.0521 -0.2706
31741W        W46588   5.862   5.939  13.094  0.1951  0.5764  0.1472
31742W        W46589   0.441  13.799   2.423 -0.0825 -0.0329 -0.1673
31743W        W46590   8.337   4.820   5.414 -0.0119  0.0653 -0.0909
31744W        W46591   6.460   9.324   2.662  0.0430  0.0329  0.1172
31745W        W46592  16.429  11.664   1.450  0.1518  0.1483  0.0630
31746W        W46593  16.012   0.471   5.423  0.3247  0.1506  0.0872
31747W        W46594   7.406   3.169   4.839 -0.0218 -0.3027  0.2013
31748W        W46595   1.008  14.647   4.696  0.4016  0.0370  0.1633
31749W        W46596   0.365   0.105  11.508  0.0246  0.0297  0.3133
31750W        W46597   6.171   8.672   2.534 -0.0418 -0.0234  0.4224
31751W        W46598   9.807   4.058   5.419 -0.1079  0.1516 -0.2781
31752W        W46599  10.147   0.029   0.488 -0.2907  0.0181 -0.0079
31753W        W46600   7.442  12.423  15.741 -0.0030 -0.0496 -0.0088
31754W        W46601   4.520   7.922   1.173 -0.1568  0.4032  0.1768
31755W        W46602  16.270  13.918  13.087  0.0799  0.0680  0.0770
31756W        W46603  15.351   5.014  12.745 -0.0631  0.1133 -0.0530
31757W        W46604  12.493   8.186   5.864  0.2233 -0.0629 -0.0598
31758W        W46605   0.794   9.070  16.525  0.0087 -0.0716  0.5067
31759W        W46606  10.169  15.477   1.413 -0.0031  0.0767 -0.2422
31760W        W46607   9.000  13.228   0.080 -0.0190 -0.2285  0.0463
31761W        W46608  11.546   6.896   0.593 -0.0986  0.0393 -0.2152
31762W        W46609  15.449   6.217   1.593  0.2306  0.2590 -0.0837
31763W        W46610   3.275   1.619  17.325 -0.6700 -0.3385 -0.6177
31764W        W46611   8.936   4.731  15.006 -0.0900 -0.1466  0.1007
31765W        W46612   3.800  15.048  17.296 -0.0178  0.3722  0.0406
31766W        W46613   4.614   2.250   6.368  0.1716 -0.1101 -0.0423
31767W        W46614   2.253   4.743  14.268  0.1252  0.3007 -0.1363
31768W        W46615   1.007   0.442  13.421 -0.0814 -0.3279 -0.2499
31769W        W46616  15.366   3.782  15.142 -0.1586 -0.1628  0.1923
31770W        W46617  17.609   3.404  14.267  0.0013  0.1263  0.1860
31771W        W46618  10.550   7.089  12.823 -0.1422  0.0363  0.0511
31772W        W46619   5.062   1.169   0.098  0.1540 -0.0674  0.0541
31773W        W46620   7.587  12.844   6.747  0.1027  0.0666  0.2428
31774W        W46621  15.933   4.597  15.531  0.1257  0.0363  0.0530
31775W        W46622   3.320   4.556   4.185  0.0974 -0.0049 -0.4998
31776W        W46623  14.523  10.656  12.406  0.2586  0.3847 -0.2557
31777W        W46624  16.443   1.515   3.107  0.0347  0.1727  0.0316
31778W        W46625   6.273   5.641  12.303 -0.0927 -0.0319 -0.1688
31779W        W46626  12.856   1.556  12.289  0.1048 -0.0736 -0.0884
31780W        W46627   7.658   6.756  15.474  0.0795  0.1186 -0.3367
31781W        W46628  10.470  15.383  14.402  0.3066 -0.3427  0.0173
31782W        W46629   9.092  13.619   3.839  0.2698 -0.2017 -0.1429
31783W        W46630   0.187  17.616  16.827  0.0914 -0.0487 -0.1163
31784W        W46631   7.159   1.354  17.584  0.0730  0.1439 -0.0875
31785W        W46632  16.735   3.838  12.777  0.0919 -0.1319  0.0919
31786W        W46633   5.559   2.057  13.930  0.1672  0.1862  0.1717
31787W        W46634  15.908   4.509  12.299 -0.3034  0.0565  0.1881
31788W        W46635  11.942   8.504   5.737 -0.0797 -0.4571 -0.0319
31789W        W46636   1.126   2.711   6.040  0.1501  0.1902  0.0821
31790W        W46637   4.599  10.108  12.001 -0.0797  0.2597 -0.3048
31791W        W46638   4.525  11.703   6.529 -0.0583 -0.1197  0.0770
31792W        W46639   8.680  11.251   5.396  0.0798 -0.2367 -0.2866
31793W        W46640   3.472   3.009  16.870 -0.2130  0.2485 -0.0233
31794W        W46641   5.468   5.055   4.101 -0.0069 -0.0482  0.1349
31795W        W46642   2.535  13.098   3.251  0.2270 -0.0790 -0.0362
31796W        W46643  11.685   1.406  17.229 -0.2345  0.2932  0.1887
31797W        W46644  12.962   5.825   4.572  0.0847  0.0585 -0.4467
31798W        W46645  11.201   9.968   3.279  0.0294 -0.2274  0.1112
31799W        W46646  14.439  13.867   5.011  0.0450 -0.3136  0.0897
31800W        W46647  16.577  13.733  15.489 -0.0139 -0.2348 -0.0242
31801W        W46648  10.622   9.625  13.580 -0.5124  0.1610 -0.0031
31802W        W46649   9.243   9.804  13.714 -0.0875  0.1286 -0.1290
31803W        W46650   5.164  11.457  14.311 -0.0735  0.2485  0.1870
31804W        W46651  10.639   8.417   2.100 -0.0826  0.1481  0.0710
31805W        W46652  15.038   9.045   5.826  0.2917 -0.0850 -0.1293
31806W        W46653   5.924   1.479   4.984 -0.0232  0.0434 -0.0771
31807W        W46654  11.075  15.027   1.085 -0.0159 -0.2356  0.1212
31808W        W46655  10.981   5.810   5.915  0.1017 -0.1966 -0.0883
31809W        W46656   8.261   3.865  16.916 -0.0789  0.0255  0.1518
31810W        W46657  14.594   8.297   5.316  0.0609  0.0225 -0.3402
31811W        W46658  14.186  10.029   0.208  0.1233 -0.3816 -0.3903
31812W        W46659  16.153  10.956  17.216 -0.3665  0.3453 -0.0339
31813W        W46660  14.616   1.191   2.438  0.0096 -0.0878 -0.0484
31814W        W46661   9.226  14.080   1.893 -0.0427 -0.0900 -0.1119
31815W        W46662   2.529   6.926  13.527  0.1393  0.0253  0.2241
31816W        W46663  15.463  10.744   6.144 -0.0922 -0.3383  0.2305
31817W        W46664   4.152  17.651   2.148  0.1855 -0.2448 -0.2517
31818W        W46665  15.327  17.064   4.833  0.0640  0.0531 -0.1314
31819W        W46666  13.969   9.393   5.752 -0.1782 -0.1752 -0.2189
31820W        W46667   8.050   1.317   0.131 -0.0025  0.2171  0.1818
31821W        W46668   0.153   8.520  11.860 -0.0128 -0.1946  0.2880
31822W        W46669   6.710  15.440   0.495  0.2023 -0.1238 -0.1483
31823W        W46670   8.831   1.058   2.468 -0.0170  0.0765 -0.0804
31824W        W46671  14.170   5.969  15.127  0.5228  0.0179  0.5377
31825W        W46672   9.818  16.600  17.375 -0.2691  0.0072 -0.1881
31826W        W46673   8.537  10.853   0.782  0.1322  0.0189  0.0691
31827W        W46674   6.182   5.241   1.659 -0.1301  0.1824  0.1257
31828W        W46675   3.102   9.855  13.520  0.0509  0.1516 -0.2247
31829W        W46676  15.979  13.726  12.718 -0.0725 -0.1423  0.0997
31830W        W46677   7.463  17.014   5.501 -0.1368 -0.1406  0.1118
31831W        W46678  10.655  12.742  14.414 -0.1429  0.1255  0.3218
31832W        W46679   4.627   8.474   2.386  0.0733  0.1511 -0.0245
31833W        W46680   1.420   2.032  16.875 -0.0839 -0.0593  0.1949
31834W        W46681   6.539  15.482  12.804 -0.2516  0.2501  0.0625
31835W        W46682  16.291  16.318   1.925 -0.3027 -0.3038  0.0912
31836W        W46683  14.393   2.026   0.947 -0.0688  0.2537 -0.0168
31837W        W46684   2.931   2.280  12.616  0.2841 -0.1790  0.5911
31838W        W46685  11.144  16.118  13.498  0.1140 -0.0345 -0.1242
31839W        W46686   7.808  17.243   4.806 -0.2913 -0.2094  0.0728
31840W        W46687   5.198   6.240  13.798  0.3134  0.1113 -0.0024
31841W        W46688   6.898   8.515   3.083 -0.1781  0.2401  0.0371
31842W        W46689   4.506   4.340   1.098 -0.0712 -0.0089 -0.3912
31843W        W46690  15.553  15.372  12.650 -0.0900 -0.0148  0.0978
31844W        W46691   6.845   9.357  13.016 -0.0529  0.3060 -0.3539
31845W        W46692   7.842  10.463  13.235  0.0303  0.4391  0.1182
31846W        W46693   9.018  12.531   2.814  0.2122 -0.1272  0.1229
31847W        W46694   9.964   6.433   4.583  0.2362 -0.0304 -0.0326
31848W        W46695   7.317  12.553  13.932 -0.1704  0.0980  0.3131
31849W        W46696  17.536   3.792   6.233  0.3185 -0.0831 -0.1024
31850W        W46697  10.544   6.615  17.329  0.1476  0.1325  0.1099
31851W        W46698  13.691  14.170   0.505  0.2973  0.1496  0.3054
31852W        W46699   0.869   5.187  17.101 -0.1068 -0.4422 -0.0933
31853W        W46700  14.457  17.033  16.806 -0.2714  0.3120  0.0764
31854W        W46701  15.886   2.594  14.157 -0.0453  0.2124 -0.0773
31855W        W46702  14.525   8.283   1.689 -0.0032  0.1256 -0.0798
31856W        W46703   0.007   6.804  14.920 -0.0013  0.0534 -0.0522
31857W        W46704  10.766   1.752   3.476  0.1118 -0.1326 -0.0163
31858W        W46705  14.363   1.422  12.358 -0.1733 -0.1853  0.0230
31859W        W46706  11.224  17.464  17.519 -0.0185 -0.0528 -0.1505
31860W        W46707   0.877   3.672   1.733  0.1271  0.4012 -0.1593
31861W        W46708  11.942   8.860  16.971  0.1506  0.2406  0.2601
31862W        W46709   2.669  11.192  13.423  0.2000  0.0375 -0.0745
31863W        W46710  10.643   6.593  16.620 -0.5814 -0.2952  0.0405
31864W        W46711   6.035   5.467  14.386 -0.0683 -0.1852 -0.0821
31865W        W46712  11.571   3.105  14.071 -0.3461 -0.3639  0.0447
31866W        W46713   1.831   8.711   4.123 -0.5141  0.0755 -0.0142
31867W        W46714   5.697   8.502   4.571  0.2135  0.0580  0.1031
31868W        W46715   1.800   4.948  14.499  0.1328 -0.0489  0.1084
31869W        W46716  14.213   3.405  13.018 -0.3338 -0.0325 -0.1016
31870W        W46717  10.300   3.110   6.561  0.1092 -0.1965  0.0657
31871W        W46718   6.525   3.313   0.442 -0.0740 -0.0102 -0.0458
31872W        W46719   6.818   7.508   3.194  0.0867  0.1982 -0.0733
31873W        W46720   2.331   6.743   3.218  0.1190  0.0025  0.5351
31874W        W46721  16.830   4.791   1.166 -0.1886 -0.2217  0.0670
31875W        W46722  13.330  11.597  17.015 -0.1352  0.0230  0.1688
31876W        W46723   2.261   2.349  11.787 -0.0842 -0.2074 -0.1380
31877W        W46724   8.565  12.162  16.588 -0.1646  0.2200  0.2276
31878W        W46725  17.268  13.677   0.557 -0.4022  0.0492  0.0600
31879W        W46726   9.947   0.024   1.617  0.0219 -0.0412  0.1412
31880W        W46727  14.178  14.283  14.017  0.1063  0.3623 -0.2689
31881W        W46728   8.390  16.166   5.665 -0.2644 -0.1491  0.2273
31882W        W46729  11.272   3.102   1.421  0.1334  0.1852 -0.0458
31883W        W46730   1.661   6.714   2.641  0.6227  0.0810  0.1231
31884W        W46731  15.681  15.502  15.181 -0.0469  0.0303  0.0724
31885W        W46732   2.244  14.849   0.279  0.2405  0.0349 -0.0214
31886W        W46733  10.813   7.785   4.255  0.2253  0.2286  0.0968
31887W        W46734   0.919   6.635   5.659 -0.0536  0.2052  0.0446
31888W        W46735  15.549  15.633  11.704 -0.0636  0.0208  0.3316
31889W        W46736  13.471   7.896   1.447  0.2197  0.1767 -0.2269
31890W        W46737   8.292  13.151   5.547  0.1720 -0.2893 -0.0818
31891W        W46738  15.963   7.713   6.059  0.3253 -0.0414  0.0088
31892W        W46739  13.601   6.974  14.498 -0.0473  0.2773 -0.1306
31893W        W46740   1.525   4.579  17.337  0.0519 -0.0712 -0.1012
31894W        W46741   2.043  11.292   1.906 -0.2773 -0.1524 -0.0935
31895W        W46742  17.382   9.180  15.504  0.0952 -0.0849 -0.1573
31896W        W46743  16.045   0.826   2.580  0.0213 -0.0374 -0.0077
31897W        W46744   5.421   2.296  12.446 -0.1015 -0.0084  0.2114
31898W        W46745  13.518  12.355  17.641  0.0067 -0.0192 -0.0436
31899W        W46746  15.788   4.069   5.122 -0.0674 -0.1710 -0.1267
31900W        W46747   6.227  16.601   6.423 -0.0582  0.3187  0.1459
31901W        W46748   7.839  13.388   3.989 -0.1096 -0.1786 -0.1024
31902W        W46749   3.015   5.603  13.993  0.1267  0.3060 -0.1435
31903W        W46750   8.628   5.489   0.453 -0.2560  0.1744 -0.2886
31904W        W46751   9.696   5.778  15.532  0.0146  0.3544  0.3355
31905W        W46752   2.581  14.989   4.629  0.0269 -0.0815 -0.0639
31906W        W46753   3.947  10.147  15.711  0.1291 -0.1983 -0.1259
31907W        W46754   0.604   0.298   2.198  0.2052 -0.2318  0.1270
31908W        W46755  15.452  13.844   4.036 -0.2821 -0.2479  0.1288
31909W        W46756  13.533   3.090  14.617 -0.1746 -0.5189  0.2689
31910W        W46757   2.481  15.277   0.641 -0.0442  0.0998 -0.0512
31911W        W46758   4.949   7.668  14.987 -0.2084  0.0404  0.3586
31912W        W46759   1.926  13.315   2.764 -0.0905 -0.1047  0.0587
31913W        W46760   4.827   4.067  14.460  0.0140  0.0051  0.1078
31914W        W46761   5.755   8.262  10.720 -0.0287  0.2633  0.2722
31915W        W46762   6.924   3.129  15.409  0.0010  0.0904 -0.2468
31916W        W46763   8.520   4.142   4.864  0.1745 -0.0623 -0.3448
31917W        W46764   3.890   3.886  13.559 -0.2493  0.0498  0.0065
31918W        W46765  14.536  10.635   5.963 -0.1558  0.0660  0.2358
31919W        W46766  10.353  10.375  13.782  0.2474 -0.0767  0.1218
31920W        W46767  13.746  16.469   5.942  0.0060 -0.2422 -0.1007
31921W        W46768  11.632   2.672  14.418 -0.1687  0.1690  0.0016
31922W        W46769  13.433  16.715   2.692 -0.1479  0.6531 -0.0760
31923W        W46770   4.517  11.236   3.021  0.2502 -0.1039  0.1585
31924W        W46771  12.368   9.976  13.782 -0.0463  0.1400 -0.1487
31925W        W46772   1.951   3.075  13.366 -0.0745 -0.0688 -0.0453
31926W        W46773  16.729  16.750   3.110 -0.1596  0.1594 -0.1890
31927W        W46774   3.292   9.272   5.049 -0.1348 -0.0539  0.2686
31928W        W46775  10.404   6.556   3.026 -0.0925  0.0088  0.2823
31929W        W46776  14.450   8.783   2.399  0.2966 -0.2886 -0.2527
31930W        W46777  11.949   1.349   6.084 -0.2246  0.1844  0.2002
31931W        W46778  16.561  15.146  13.002  0.1373 -0.1143  0.1833
31932W        W46779  12.856  16.162   2.379  0.0765 -0.3281  0.1417
31933W        W46780   4.948  11.405   4.476  0.0898  0.1490  0.4077
31934W        W46781   3.100  15.635   2.918 -0.0131 -0.3749 -0.0024
31935W        W46782   8.598   3.858   4.457  0.1125  0.3664 -0.1050
31936W        W46783  12.090   9.184  12.387  0.0635  0.0347 -0.1929
31937W        W46784  15.484   8.106   1.488 -0.2201  0.0550 -0.2972
31938W        W46785   7.492  14.076   5.155 -0.0710  0.2974  0.1051
31939W        W46786   2.691  14.599  15.179 -0.1309  0.1428  0.0606
31940W        W46787   6.401   3.701   0.728  0.2444 -0.1111  0.3770
31941W        W46788   6.689   0.758   5.075 -0.0649  0.2697  0.0900
31942W        W46789   7.139   4.826   3.360 -0.0569  0.2315  0.1121
31943W        W46790   1.151  13.959   1.319  0.4272  0.1259 -0.1074
31944W        W46791  12.080   1.314  17.544 -0.0844 -0.1090  0.2418
31945W        W46792   6.909  10.998  15.874 -0.1340  0.0995 -0.3372
31946W        W46793   3.220  10.005  16.337  0.1593  0.0660  0.1927
31947W        W46794   7.742   8.937   6.137  0.1747 -0.1946 -0.0527
31948W        W46795   1.520  11.972   1.181  0.0029  0.2470  0.2740
31949W        W46796   8.293  16.218   3.212 -0.0210  0.1728  0.4606
31950W        W46797  14.047   2.029   5.091  0.0105  0.0888  0.1207
31951W        W46798   2.685   7.018  12.022 -0.1975  0.0632 -0.0757
31952W        W46799   8.134   3.876  13.486  0.0401  0.0521 -0.0301
31953W        W46800  17.358   9.365   4.079 -0.0217  0.0423 -0.0430
31954W        W46801   0.195  11.832  15.239  0.0266  0.1201  0.2044
31955W        W46802   3.205   6.385  16.906  0.2492  0.0661 -0.0664
31956W        W46803  12.799  12.148   2.013  0.0738  0.0607 -0.1950
31957W        W46804  15.508  15.850   3.257 -0.3671  0.0078  0.1739
31958W        W46805  11.122   5.433   2.880 -0.0290 -0.0054 -0.2885
31959W        W46806   8.477  10.813   2.566 -0.0035 -0.0394 -0.0167
31960W        W46807  13.790   1.997   0.138 -0.0935 -0.1262 -0.2595
31961W        W46808   0.784  12.065   3.734  0.2362  0.0564  0.0225
31962W        W46809   6.541   9.556   5.762 -0.2290 -0.1208 -0.0771
31963W        W46810   4.238  11.422   4.687 -0.0454 -0.2656 -0.2838
31964W        W46811   8.835  15.684   0.098 -0.0150  0.0986  0.0252
31965W        W46812   3.679  16.267   5.183  0.1284  0.0556  0.1129
31966W        W46813   6.002  12.175  12.160  0.0905 -0.0278  0.0289
31967W        W46814  15.694   2.404   1.903  0.1196  0.3079 -0.1068
31968W        W46815   7.725   7.962  16.030 -0.0223 -0.4007  0.0898
31969W        W46816  11.641   5.109   4.391  0.1026 -0.1266  0.2818
31970W        W46817   9.367  13.201   2.219  0.2110 -0.0728  0.1572
31971W        W46818  13.026   4.234   1.080 -0.1524 -0.2427 -0.1501
31972W        W46819   3.582  12.680  15.770 -0.0457 -0.1662 -0.1247
31973W        W46820  11.090   0.452   5.497 -0.1302  0.0034  0.0837
31974W        W46821   4.037  12.296   1.737 -0.4411  0.1289  0.0625
31975W        W46822   8.033  14.521   1.496 -0.1500 -0.1492  0.0309
31976W        W46823   0.629  10.563  16.204  0.0028  0.2040  0.2887
31977W        W46824   7.855  12.849   3.849 -0.0849  0.1989  0.0627
31978W        W46825   8.098   1.279   5.423  0.2031 -0.1652 -0.1230
31979W        W46826   8.607  13.856   2.471 -0.1004 -0.3107  0.0494
31980W        W46827  14.010   5.060   6.617 -0.2802 -0.1383 -0.0549
31981W        W46828  11.042  10.389   5.494 -0.0712  0.1600 -0.1088
31982W        W46829   9.083  12.470  14.500  0.0969  0.0337  0.2187
31983W        W46830   0.723   3.772   3.631 -0.1541 -0.0817 -0.0336
31984W        W46831   3.560  16.262  15.014  0.5422  0.2535 -0.1085
31985W        W46832   6.721   9.290   0.859  0.0992 -0.1742  0.0500
31986W        W46833  17.248   1.848  14.804 -0.1124  0.2994 -0.0084
31987W        W46834  14.656   5.507   2.137 -0.1724 -0.1552 -0.1186
31988W        W46835  11.252   6.572  15.196 -0.0883 -0.0087 -0.0931
31989W        W46836   7.304  14.230   5.844  0.0901 -0.0774  0.1054
31990W        W46837  11.484   8.870   3.475  0.0131  0.1330  0.2428
31991W        W46838   6.007   7.959  16.941  0.3155  0.0786 -0.2124
31992W        W46839   2.021   6.379   3.556 -0.0621  0.1742  0.0614
31993W        W46840   7.002   5.365   5.476 -0.0315 -0.3130  0.2130
31994W        W46841  17.468   8.337   4.926 -0.0199 -0.1331 -0.3900
31995W        W46842  12.623   4.077  16.674 -0.0669  0.3315  0.1565
31996W        W46843  17.474  13.921   1.883 -0.0011 -0.0835  0.1147
31997W        W46844   2.746  14.370  11.865 -0.0174 -0.0813 -0.0837
31998W        W46845   0.614  17.571  17.460  0.0626  0.0339  0.1583
31999W        W46846   7.635  14.881  12.167 -0.0122 -0.3231 -0.0095
32000W        W46847  11.355   4.958   0.920 -0.0604  0.0704 -0.0023
32001W        W46848   0.786   1.373  17.196  0.1078  0.0201 -0.0907
32002W        W46849   8.323  10.350   6.193  0.1820 -0.1719 -0.0399
32003W        W46850   2.985  12.773   0.208 -0.1987 -0.0835 -0.2058
32004W        W46851  15.549   0.256   3.682 -0.1930 -0.0499  0.1965
32005W        W46852   0.874  16.007   3.326  0.1527  0.0679  0.3044
32006W        W46853   9.844  10.445  14.603  0.0514  0.0253  0.2979
32007W        W46854  14.471   9.161   5.813 -0.3051 -0.0377  0.0663
32008W        W46855  10.250   8.799   0.117  0.3504 -0.2973  0.2997
32009W        W46856  11.050  13.019   1.542 -0.1679 -0.0395 -0.2435
32010W        W46857  13.710  12.146  16.212  0.2521  0.2048 -0.0192
32011W        W46858   3.902  17.483   5.096 -0.1951 -0.2696 -0.0620
32012W        W46859   4.048  16.800  12.039  0.0863  0.0486 -0.0726
32013W        W46860   4.745  13.493  13.125 -0.3377 -0.0266 -0.1371
32014W        W46861   6.763   4.091  17.508  0.0522  0.1402 -0.0188
32015W        W46862   7.269   5.011  15.230  0.0187  0.1905  0.1464
32016W        W46863   7.050   8.500   5.265  0.0696 -0.4639  0.3040
32017W        W46864   0.181  14.628  11.418 -0.0516 -0.1883  0.2599
32018W        W46865  15.865  17.371   4.238 -0.0758  0.1007 -0.0682
32019W        W46866   5.228   2.507   5.213 -0.1511  0.3642 -0.1340
32020W        W46867   5.607   3.998  16.246  0.0008  0.1592 -0.2484
32021W        W46868   9.664  13.070   2.617 -0.1340 -0.2725  0.1282
32022W        W46869  11.432   9.477  16.139  0.3168  0.0757 -0.0753
32023W        W46870   2.358   2.226  13.416 -0.1444  0.0049  0.1646
32024W        W46871  16.779   6.653   3.678  0.0335  0.2118  0.1215
32025W        W46872   8.303   7.433  16.903  0.1634  0.1389  0.1588
32026W        W46873   4.278   2.973  11.462  0.3016 -0.1559 -0.0241
32027W        W46874   8.206   6.292   0.443  0.1425  0.2995 -0.1467
32028W        W46875   5.468   2.847   3.228 -0.2872  0.3357 -0.0442
32029W        W46876   3.821  13.626  13.549 -0.0405 -0.1745 -0.0453
32030W        W46877  14.223   4.173   2.356 -0.2918 -0.0567  0.2233
32031W        W46878  15.056   4.489  12.496  0.1008 -0.1891  0.2336
32032W        W46879  14.592  17.303  13.459  0.0825 -0.0956 -0.3153
32033W        W46880  11.075   6.056   2.622 -0.0189  0.3277  0.0407
32034W        W46881   7.625  13.574   2.525  0.0747  0.2226  0.0449
32035W        W46882   0.169   8.222   3.490  0.1289 -0.3508 -0.0966
32036W        W46883  15.665  17.666  14.626 -0.1746 -0.0529 -0.0393
32037W        W46884   6.849   1.734  17.440  0.2236  0.1935  0.1002
32038W        W46885   2.871  16.165  16.594  0.0453 -0.1521 -0.2226
32039W        W46886   2.263   3.110  12.401 -0.1979 -0.1388 -0.1618
32040W        W46887  11.655  10.844   5.308  0.2900 -0.3193  0.3488
32041W        W46888  11.523   8.634  12.765  0.0520  0.0382  0.0677
32042W        W46889   7.234   9.132  13.828 -0.0392  0.0150 -0.0843
32043W        W46890  13.701  13.380  13.753 -0.0480 -0.2243 -0.1500
32044W        W46891   0.497   3.500   2.552  0.0523 -0.0470  0.0631
32045W        W46892  11.634   5.346   2.687 -0.1390  0.0118  0.1154
32046W        W46893   0.685   3.093  13.811  0.0690 -0.0639  0.2587
32047W        W46894   2.232   2.148   2.072  0.2895  0.1060  0.0403
32048W        W46895  15.043   0.968  16.556  0.2198 -0.0123 -0.2586
32049W        W46896   6.699  14.621   4.361 -0.0291  0.1088  0.1227
32050W        W46897  14.211   5.532  16.100 -0.0334 -0.0913  0.1593
32051W        W46898  12.570   6.505  12.122 -0.2375  0.0950  0.2579
32052W        W46899  11.663   9.619   3.116 -0.0869 -0.1387 -0.1836
32053W        W46900   8.462  13.347  17.676 -0.0650  0.3151  0.1771
32054W        W46901   9.514  15.176   1.110 -0.1329  0.0868  0.1466
32055W        W46902   6.807  11.800   0.230 -0.0541 -0.1138 -0.0356
32056W        W46903   5.590   9.795  12.037  0.0941 -0.1448  0.0586
32057W        W46904  16.314   6.789  13.628 -0.0511 -0.0362  0.1847
32058W        W46905   0.476   1.186  12.886  0.2137 -0.0075 -0.0564
32059W        W46906   8.167  17.637  13.124  0.2583 -0.0061  0.1114
32060W        W46907   6.138   1.606   1.218 -0.3978  0.1063 -0.1036
32061W        W46908   6.169  12.681   6.283 -0.0698 -0.0784  0.0796
32062W        W46909   9.273   3.140  15.935 -0.0318 -0.1239  0.0581
32063W        W46910  14.231   4.081   4.186  0.0270  0.2371 -0.0043
32064W        W46911   8.233  12.993   4.183 -0.2255 -0.0304 -0.4376
32065W        W46912   5.801  16.510  13.376  0.1062  0.0333 -0.0135
32066W        W46913   3.637  12.023   0.318  0.0572  0.1565 -0.0705
32067W        W46914   6.887   3.841   5.839 -0.0312 -0.3231 -0.0350
32068W        W46915  14.157   3.017   3.573  0.0618 -0.1131  0.0834
32069W        W46916  10.147   3.661   2.597 -0.3560  0.0824 -0.1956
32070W        W46917   2.603   3.673  16.125  0.1506  0.1221 -0.0893
32071W        W46918   0.654  11.497   1.045  0.4019  0.1795  0.2494
32072W        W46919   5.811  13.632  10.916  0.2100  0.0289 -0.2728
32073W        W46920   6.350   0.292   5.748 -0.1850  0.1411 -0.0468
32074W        W46921   5.365  12.056  14.355 -0.1029 -0.1469  0.0903
32075W        W46922  16.109   2.666   5.865  0.0618  0.0938 -0.1287
32076W        W46923  13.671   7.263   1.436 -0.1204  0.1541 -0.1354
32077W        W46924   1.271   1.565  13.868  0.1407  0.0997 -0.0097
32078W        W46925   4.804  10.619  13.368 -0.1876  0.2221  0.2495
32079W        W46926  10.576   1.869   6.280 -0.2204 -0.1165  0.0012
32080W        W46927  15.563   6.765   2.517  0.2293  0.1506 -0.1796
32081W        W46928   0.909  11.211  14.926 -0.1297  0.5469 -0.2333
32082W        W46929   8.275   8.339  11.906  0.1319 -0.1111  0.2320
32083W        W46930   2.219   7.404   0.387  0.1584 -0.0543  0.1072
32084W        W46931  14.100  13.755  12.371 -0.0397 -0.1602 -0.0990
32085W        W46932   2.076   6.805  17.494 -0.0745 -0.2407 -0.2897
32086W        W46933  11.949   5.329  16.965  0.0482  0.1347 -0.0501
32087W        W46934  16.882  13.709  16.976  0.0314 -0.2005 -0.2705
32088W        W46935  10.735  14.634  13.311 -0.1955  0.0538  0.0691
32089W        W46936   8.501   1.522   3.532 -0.0739  0.0066  0.0236
32090W        W46937   5.125   6.897  15.466  0.4467 -0.1016  0.0953
32091W        W46938   9.123   4.677  16.238  0.1744 -0.2939 -0.2214
32092W        W46939  12.366   3.729  12.533 -0.0837 -0.1502  0.2275
32093W        W46940  11.929   9.255  15.484 -0.1181  0.1345  0.0044
32094W        W46941   5.242  12.862  17.443 -0.2341  0.0300  0.0243
32095W        W46942  14.472   7.251  17.680  0.2099  0.2284  0.1620
32096W        W46943  17.569   0.183   2.257  0.2902 -0.1528 -0.0243
32097W        W46944   1.585  10.509  15.258 -0.4583 -0.0482  0.1291
32098W        W46945   0.515  10.808   4.520 -0.3135  0.1813 -0.1930
32099W        W46946  17.527  13.547  15.471  0.1798  0.0106 -0.0400
32100W        W46947   7.037   5.718  13.951  0.0756  0.1359 -0.2091
32101W        W46948   5.871  16.077   0.120 -0.0797 -0.0524  0.2129
32102W        W46949   7.423  13.869   1.517 -0.1222  0.1246 -0.1888
32103W        W46950   1.173  15.042  16.420 -0.1048  0.0418 -0.2402
32104W        W46951  15.278  10.216  17.273  0.1205 -0.1678  0.1852
32105W        W46952  17.342   2.380  16.779 -0.1294  0.1969  0.1286
32106W        W46953  14.362   9.884  15.082 -0.1039 -0.0024 -0.0962
32107W        W46954   7.105  17.504  14.078 -0.0541  0.0559  0.0362
32108W        W46955  11.880   1.195   3.870 -0.0276  0.1127  0.3022
32109W        W46956   5.258  16.265   1.817 -0.0382 -0.2113 -0.1200
32110W        W46957   5.473   9.781  16.279  0.3641 -0.1404 -0.0210
32111W        W46958  11.226   3.282  12.236 -0.0502 -0.2036 -0.0266
32112W        W46959  17.294   7.067  14.423  0.0444  0.0024 -0.0072
32113W        W46960  10.348   8.042   1.932  0.2984 -0.1086 -0.0374
32114W        W46961  11.385   3.406  13.667  0.0209 -0.0171  0.0897
32115W        W46962  10.000   2.756   3.738  0.1091  0.1978  0.1982
32116W        W46963  12.965  16.180   6.507  0.0232  0.0302 -0.1712
32117W        W46964   2.477   7.742  13.918  0.2250  0.0445  0.2967
32118W        W46965  11.181   0.143  14.105  0.2698  0.1604 -0.0664
32119W        W46966   7.686  13.883  14.985  0.1278 -0.0701  0.0569
32120W        W46967  15.642  15.805  17.010 -0.2002 -0.2798 -0.3797
32121W        W46968  13.948  13.299  12.208  0.1404  0.0437 -0.0988
32122W        W46969  16.428   7.021  15.744 -0.2017  0.1500 -0.1421
32123W        W46970  12.966   1.180  12.578 -0.2257 -0.3887 -0.1052
32124W        W46971   8.699  16.884   5.325  0.3661  0.0026 -0.0740
32125W        W46972   9.246   1.268   3.656 -0.0377 -0.0124 -0.0808
32126W        W46973  11.982   8.770  12.637  0.0805  0.0273  0.0888
32127W        W46974   4.969   6.392   4.943  0.0419  0.0172  0.1664
32128W        W46975   1.127  13.181   3.166  0.2435 -0.4885  0.0536
32129W        W46976   5.660  11.964   2.878  0.1070  0.2921 -0.2739
32130W        W46977   5.881   3.006  14.625  0.2662 -0.0494 -0.0517
32131W        W46978  13.394   8.895   1.344 -0.0460 -0.0674 -0.1029
32132W        W46979  17.203   6.571  15.624 -0.1459 -0.0918  0.1768
32133W        W46980  10.761   0.077   7.215 -0.3259 -0.0080 -0.0447
32134W        W46981   6.090  14.428  11.867  0.0314 -0.0408  0.1584
32135W        W46982   8.215  12.098  15.203  0.2621 -0.1215 -0.4848
32136W        W46983  11.200   6.673   0.930  0.0440 -0.0262  0.0976
32137W        W46984  17.492  17.235  14.182 -0.2505 -0.0414 -0.0626
32138W        W46985  10.636  16.652   1.961  0.4727 -0.2878  0.0752
32139W        W46986   2.416   3.637   0.880 -0.0320 -0.1853 -0.2226
32140W        W46987  10.988   0.034   3.466 -0.3504 -0.1566  0.0268
32141W        W46988   8.710  14.329   4.206 -0.0745  0.2772 -0.1812
32142W        W46989   9.803  11.156  14.993 -0.2556 -0.0714 -0.0127
32143W        W46990   9.763  14.544  15.888  0.3808 -0.2308 -0.1739
32144W        W46991  17.438   8.727   5.270 -0.1381  0.1327 -0.1511
32145W        W46992   2.555   1.510  16.649 -0.0328  0.1113  0.1712
32146W        W46993   6.690   9.446  16.257  0.1856 -0.1873 -0.1360
32147W        W46994   4.989   5.446  16.634  0.2145 -0.4271 -0.2300
32148W        W46995  13.431  12.931  13.307 -0.1461  0.4264 -0.1477
32149W        W46996   5.783   6.921  13.507 -0.1053  0.1107 -0.1889
32150W        W46997   2.393  14.634  13.590 -0.0020 -0.0373  0.1276
32151W        W46998  14.522  14.640   5.960 -0.2822 -0.1166 -0.0558
32152W        W46999   9.093   7.492   4.857 -0.3336  0.2241  0.0547
32153W        W47000   3.319   4.492  15.081 -0.1268 -0.0146 -0.3109
32154W        W47001   7.852   8.921   1.763 -0.3150  0.2320  0.2138
32155W        W47002   7.043   0.025   2.120  0.1623 -0.0780  0.0243
32156W        W47003  16.088  13.347   5.026 -0.1413 -0.3130  0.1653
32157W        W47004   4.086   4.008   2.241 -0.0453 -0.1048 -0.0873
32158W        W47005   9.519   4.715  12.438  0.2160 -0.3045  0.1206
32159W        W47006  14.485   9.844  17.451 -0.2261 -0.0706 -0.0454
32160W        W47007   9.710   0.638   3.175  0.0272  0.2296  0.0718
32161W        W47008   3.615   1.428  15.491 -0.3727 -0.1084 -0.1821
32162W        W47009   9.047   8.366   3.929  0.4342  0.0276  0.1016
32163W        W47010   0.189  13.793  17.383 -0.1544  0.2484  0.2135
32164W        W47011   9.821  13.594   3.238 -0.0524 -0.1380 -0.1672
32165W        W47012   9.439   9.431   0.403 -0.0741  0.1795  0.0255
32166W        W47013   4.627  14.532   1.958 -0.2305  0.1202  0.1789
32167W        W47014  14.624   5.425  12.911  0.0250 -0.2709  0.2386
32168W        W47015   7.749   7.390   3.860  0.1652 -0.1063  0.1626
32169W        W47016   3.576   2.737   1.881  0.2660  0.0732 -0.1378
32170W        W47017   4.210  13.731   0.413  0.0784 -0.2800  0.0429
32171W        W47018  10.597   8.114   6.061 -0.0974 -0.2758  0.2079
32172W        W47019  17.441  16.751   0.229  0.0871  0.1283  0.0417
32173W        W47020  12.605  11.884  14.941 -0.2109  0.0072 -0.1024
32174W        W47021  11.748  12.103   2.232  0.0527  0.1193  0.0709
32175W        W47022   9.849   0.171  16.274  0.0119 -0.0508 -0.0804
32176W        W47023  10.460  10.981   4.674 -0.3699 -0.1859  0.3339
32177W        W47024   2.673   5.775  11.278 -0.2895 -0.0622 -0.0768
32178W        W47025   5.593   7.129   6.007 -0.1335 -0.1888 -0.0159
32179W        W47026  11.533   1.693  11.703 -0.1573 -0.2609  0.1092
32180W        W47027   4.746  14.035   1.166  0.0357  0.3180 -0.1818
32181W        W47028   5.624   9.378   4.223  0.2419  0.1355  0.2210
32182W        W47029   8.721   2.965   4.455 -0.0831  0.3271  0.0153
32183W        W47030  14.379   4.180  13.521  0.3359  0.2469 -0.0044
32184W        W47031  14.408   5.709   3.766 -0.0362 -0.2035 -0.2267
32185W        W47032   8.044   3.668   5.511 -0.1898 -0.1435  0.3482
32186W        W47033  14.557   4.983  15.967  0.1713 -0.0216 -0.2382
32187W        W47034  16.588  13.664   2.873 -0.1087 -0.0384  0.0314
32188W        W47035  10.866  12.241  14.689 -0.0002 -0.0092 -0.1110
32189W        W47036   3.107   3.493   5.680 -0.1444 -0.1005 -0.0565
32190W        W47037   2.303   2.370   0.774  0.3791  0.1281 -0.0779
32191W        W47038   2.065  16.815   1.676 -0.1235  0.0118 -0.1119
32192W        W47039   8.150   2.258  14.110  0.0932 -0.1141  0.3455
32193W        W47040   7.132   6.171   5.576 -0.0137  0.1151  0.3141
32194W        W47041   4.562   3.330  17.312 -0.0058  0.1771  0.0996
32195W        W47042   1.669   4.103   4.744  0.0431  0.1831 -0.0580
32196W        W47043  15.988  11.924   3.697 -0.0768 -0.0826  0.2387
32197W        W47044  16.930  15.590  14.490  0.0067 -0.1505  0.1475
32198W        W47045   8.166   1.165  17.328  0.1019 -0.1539  0.0657
32199W        W47046  14.778   0.248   0.181 -0.1312  0.1334 -0.3577
32200W        W47047   4.605   8.324   0.897 -0.3432 -0.0099  0.1388
32201W        W47048  13.882  15.852   5.123  0.1536 -0.0035 -0.0603
32202W        W47049   3.891   7.263  14.831  0.1383  0.1630 -0.2387
32203W        W47050   0.791  15.363   3.174 -0.0387  0.3176  0.0266
32204W        W47051  10.892   2.776   4.642 -0.1311  0.1212 -0.0735
32205W        W47052   3.083  16.733   2.369 -0.0914 -0.0751  0.1611
32206W        W47053  14.724  12.027  13.249 -0.1704  0.0500  0.2525
32207W        W47054   7.588  14.971   0.052 -0.1943 -0.0064 -0.1641
32208W        W47055  15.986   3.260   5.899  0.2344  0.1773  0.0413
32209W        W47056  12.704   0.366  15.076  0.1775 -0.0513 -0.2051
32210W        W47057  14.437   8.306   2.631 -0.0712  0.0033 -0.3059
32211W        W47058   0.005  14.786  11.943 -0.1714 -0.0173 -0.1414
32212W        W47059  14.311   6.272  17.417  0.1153 -0.1727 -0.1814
32213W        W47060  15.053  13.988   6.317 -0.0957 -0.0431  0.0669
32214W        W47061   9.972   4.802  12.692 -0.1584 -0.3975  0.0203
32215W        W47062   7.322   9.869   6.688  0.2580  0.0911  0.2184
32216W        W47063  10.119   8.402   0.613 -0.3800 -0.3613  0.0842
32217W        W47064   3.330   7.944  14.464 -0.1879 -0.3558  0.1268
32218W        W47065   7.708  13.563  12.780 -0.2900 -0.0217  0.1374
32219W        W47066   7.469   8.377   5.521  0.0139  0.0896 -0.0590
32220W        W47067   2.183   6.535  15.574 -0.2884  0.0663  0.3440
32221W        W47068  10.364   3.650  13.126  0.0763  0.2664 -0.0838
32222W        W47069   3.364  13.530  15.915 -0.0913  0.1643 -0.2408
32223W        W47070  10.871   4.009   0.361 -0.1596 -0.0132  0.0728
32224W        W47071   3.536  15.461   6.265  0.2257  0.2677 -0.2069
32225W        W47072  11.907  10.520   1.370  0.2657  0.1719  0.2562
32226W        W47073  11.990   9.706  14.780 -0.1775  0.1620 -0.1724
32227W        W47074   0.084  16.985   4.761 -0.2463 -0.3105  0.0686
32228W        W47075   6.693   9.746   1.679 -0.0894 -0.0563  0.0830
32229W        W47076  15.647  10.712   3.009 -0.1265 -0.0949 -0.3243
32230W        W47077   7.055  14.016   0.704  0.0836  0.1982  0.2111
32231W        W47078  15.937   5.435  13.910 -0.1263  0.2590 -0.0614
32232W        W47079   1.520  10.492  16.699 -0.5103  0.1640  0.0587
32233W        W47080  12.527   9.707   3.951 -0.1471  0.3935  0.0387
32234W        W47081  17.397   8.549  13.274 -0.0008 -0.0609  0.0734
32235W        W47082   3.530  16.064  14.518 -0.2383 -0.3307 -0.2341
32236W        W47083   9.472  10.586   3.395 -0.3123  0.1182 -0.3815
32237W        W47084  14.922   6.802   5.129  0.5842  0.0104 -0.1971
32238W        W47085  17.399  13.844   4.423  0.1048  0.0768  0.0022
32239W        W47086  14.665   7.753   5.339  0.0958  0.0753  0.0767
32240W        W47087  11.905   0.394   0.987  0.1143  0.0112  0.0958
32241W        W47088  15.757  16.610   2.487 -0.2622 -0.3091  0.0614
32242W        W47089   2.771  12.016   4.384  0.1683  0.1365  0.1644
32243W        W47090   4.243   1.645   6.221 -0.0165  0.3502 -0.1888
32244W        W47091  16.928   9.731   5.089  0.0022 -0.3138  0.1114
32245W        W47092  15.786   4.841   4.293 -0.0738  0.0742  0.0382
32246W        W47093   7.733   7.787  12.717  0.0611  0.0312 -0.1845
32247W        W47094   6.800   9.046  16.567  0.0993  0.1039 -0.3136
32248W        W47095   2.503  13.525   0.685  0.2879  0.0904  0.1623
32249W        W47096  10.243   8.527  16.614 -0.2239  0.0191  0.1227
32250W        W47097  11.773  12.971  16.714  0.0448 -0.0718  0.1836
32251W        W47098  15.912  16.337  12.933 -0.1251  0.0050  0.1111
32252W        W47099  15.271   9.116   1.953 -0.1549  0.1014 -0.2151
32253W        W47100  10.166   5.503   4.486 -0.0242 -0.1851  0.0327
32254W        W47101  16.495  11.710   3.695 -0.1867  0.0760 -0.0874
32255W        W47102  13.796   5.570  12.238  0.2924 -0.0256  0.1436
32256W        W47103   9.119   6.114   5.719  0.0326  0.1783 -0.0370
32257W        W47104   6.838   2.046   5.198  0.0841  0.1225  0.0410
32258W        W47105  17.525   0.033  11.460 -0.3398  0.0270  0.1096
32259W        W47106   9.706  13.620   4.808 -0.0114  0.0477  0.2261
32260W        W47107   9.892  15.382  12.384 -0.0371  0.2081  0.1899
32261W        W47108   9.717  13.834  12.447  0.5434 -0.1331 -0.0099
32262W        W47109   1.147   1.593  17.583  0.0122  0.2186 -0.3059
32263W        W47110  15.898   6.168   1.282 -0.2667 -0.0809 -0.1700
32264W        W47111   3.113  16.019   2.044 -0.2679 -0.0086 -0.0417
32265W        W47112  11.651   4.782   2.933 -0.4963 -0.0713 -0.3427
32266W        W47113   9.139  15.790  13.041  0.0646  0.1457 -0.1861
32267W        W47114  10.633   2.758   1.366  0.1721 -0.0776 -0.2292
32268W        W47115   6.598   2.777  15.148 -0.1302 -0.2004 -0.0930
32269W        W47116   7.383   5.149  11.908 -0.5189  0.0854 -0.1223
32270W        W47117   6.774   7.468   2.675 -0.0584 -0.0078 -0.0441
32271W        W47118   1.220   0.455  14.186  0.0733 -0.3085  0.1129
32272W        W47119   7.223   1.667  12.252  0.2207 -0.1373  0.0591
32273W        W47120   4.686   4.891  15.419 -0.0076 -0.0200 -0.0677
32274W        W47121  13.443   2.523  14.570 -0.0920  0.1273 -0.0477
32275W        W47122   5.353  14.830   5.428  0.0077 -0.1581 -0.0588
32276W        W47123  14.460  12.698  15.703 -0.2386  0.1484  0.0221
32277W        W47124   5.552   2.596   0.897 -0.1785 -0.1570 -0.1456
32278W        W47125  15.277  11.476   1.510 -0.0878 -0.2986 -0.3310
32279W        W47126   8.220   7.829   0.710  0.0665 -0.0062 -0.2860
32280W        W47127  11.226   1.073   2.950 -0.0258 -0.1366 -0.1048
32281W        W47128  14.983  11.622  14.916 -0.1308 -0.5310  0.1805
32282W        W47129  14.624  16.851  13.975  0.2153  0.0413  0.0193
32283W        W47130  13.477  15.414   6.415 -0.3116  0.0318 -0.3610
32284W        W47131  15.396  15.685   5.783  0.0047  0.0417 -0.0048
32285W        W47132  11.235   4.345  16.426 -0.1223 -0.3913  0.1547
32286W        W47133  11.904  13.205  13.287 -0.1417 -0.1959  0.2418
32287W        W47134  16.718   5.021   6.634  0.2061  0.1282 -0.2389
32288W        W47135  16.738  13.534  17.483  0.0527 -0.1083 -0.1170
32289W        W47136  14.662   4.155   3.974 -0.0072  0.0381  0.1819
32290W        W47137  14.810  11.249   0.234  0.0046 -0.0985 -0.0128
32291W        W47138   5.400  16.980   1.066 -0.3803  0.2049  0.1861
32292W        W47139   7.223  10.600   4.000 -0.3065  0.6427 -0.2070
32293W        W47140  17.611   5.491   2.354  0.1512  0.0725 -0.0290
32294W        W47141   3.565   9.336  16.285  0.0035  0.0914  0.2889
32295W        W47142   7.415   0.809   6.561  0.0792 -0.1513  0.2024
32296W        W47143   9.458  16.954  17.357  0.2090  0.1431 -0.0482
32297W        W47144  16.562   0.003   0.225 -0.2715 -0.1006  0.2576
32298W        W47145   4.974   6.872   3.259  0.1155  0.1639 -0.0157
32299W        W47146  11.627  12.823  14.599  0.1064  0.0106  0.2175
32300W        W47147  13.270   0.611   4.677  0.0571  0.1427 -0.1281
32301W        W47148   7.550  12.283   1.965  0.1035 -0.1343  0.0480
32302W        W47149  12.128   8.246  17.660 -0.0919 -0.0683  0.2387
32303W        W47150   4.464   3.989   1.434  0.0729 -0.1298  0.1619
32304W        W47151  13.823   4.896   1.071  0.0244  0.0260  0.3013
32305W        W47152  17.237   2.378  16.139 -0.0847  0.0098  0.0884
32306W        W47153   4.406  17.553   4.292 -0.0041  0.0772 -0.1203
32307W        W47154  10.446   6.293   5.643  0.1303 -0.2112  0.2659
32308W        W47155   2.172   1.465   0.687 -0.1753 -0.3562  0.0284
32309W        W47156  17.005  14.451   0.115 -0.1857 -0.2142 -0.1303
32310W        W47157   6.883  14.329  16.874  0.0148 -0.1240 -0.0872
32311W        W47158  12.570  14.301  11.930  0.2505 -0.2921 -0.3006
32312W        W47159  10.377   9.828   6.274  0.0867  0.1049  0.4696
32313W        W47160   9.831  17.352   0.330  0.2265  0.3567 -0.1193
32314W        W47161   6.939  10.678  12.805 -0.0544 -0.3007  0.0453
32315W        W47162  17.027  16.278   4.687  0.0531  0.0125 -0.1780
32316W        W47163   5.627   4.748   5.533  0.1242 -0.0166  0.1742
32317W        W47164  14.701   2.708  14.127 -0.1201  0.0075  0.1176
32318W        W47165   9.287  10.473   4.368 -0.0210  0.2174  0.0664
32319W        W47166   9.289   9.943   1.167  0.0666  0.1033 -0.2671
32320W        W47167  15.301   3.894   4.957  0.0218  0.0020 -0.1439
32321W        W47168  15.238   5.565  16.987 -0.1826  0.0874  0.0056
32322W        W47169  13.584  17.446   6.125 -0.2839  0.0983  0.3024
32323W        W47170   0.802   3.680   5.767 -0.1153 -0.2519  0.2441
32324W        W47171   8.235   9.423   0.632  0.2033 -0.1328 -0.0587
32325W        W47172   8.680  10.384   0.851  0.0922  0.0537  0.1017
32326W        W47173  14.024   4.193   5.752 -0.0686  0.0933  0.3490
32327W        W47174   7.368   3.012  12.015 -0.0116  0.0020  0.0380
32328W        W47175   0.882   2.700  12.276  0.2765  0.0910 -0.3148
32329W        W47176  13.649   2.033  12.706 -0.2408  0.1948  0.1400
32330W        W47177   3.153   6.744   0.969  0.2042 -0.2243 -0.1747
32331W        W47178  15.145   3.454   5.265  0.2040 -0.0426 -0.0873
32332W        W47179   5.317   5.687  13.640 -0.2592 -0.0323  0.0660
32333W        W47180   9.007   7.233   0.710 -0.1309 -0.0744  0.1490
32334W        W47181   0.889   5.997   5.092 -0.3416 -0.2750 -0.2635
32335W        W47182   6.061   5.538   0.322 -0.0443  0.0566 -0.3854
32336W        W47183   3.915  10.698  12.189 -0.2812  0.1170 -0.0414
32337W        W47184   1.904   8.888  14.549  0.1669 -0.0418  0.1398
32338W        W47185   8.988   0.853   1.442  0.1357  0.1787  0.1134
32339W        W47186   8.879   0.377  14.373 -0.0273  0.0663 -0.0950
32340W        W47187  15.623   3.934  16.663 -0.4758  0.0420 -0.1606
32341W        W47188  12.441   0.403  13.277  0.1326  0.0543 -0.0981
32342W        W47189  11.417  12.896   4.511 -0.1376  0.1320 -0.0704
32343W        W47190  11.944   1.391  12.717 -0.1851 -0.2268 -0.3972
32344W        W47191   8.983  12.131  17.443  0.0378 -0.1575 -0.2511
32345W        W47192   9.928  13.217   1.355 -0.1236  0.0519  0.1940
32346W        W47193  11.183  10.695  17.499  0.2143 -0.0362  0.0549
32347W        W47194   5.792  12.019   4.093  0.1746 -0.1204 -0.3149
32348W        W47195  13.671   5.009  16.040  0.0857  0.3159 -0.2466
32349W        W47196   9.185   1.275  14.190  0.0685 -0.2453  0.1779
32350W        W47197  11.531   7.584   4.833 -0.2602 -0.0795  0.2245
32351W        W47198   8.226  15.734  15.957 -0.1923  0.2865  0.0299
32352W        W47199  14.378  15.190   4.710  0.2066 -0.0833 -0.1089
32353W        W47200   0.208  17.527   4.587  0.1741  0.2706 -0.1303
32354W        W47201   1.070  12.262  14.027 -0.0023  0.0606  0.1043
32355W        W47202   8.113   1.909  12.832 -0.4977  0.2975  0.2170
32356W        W47203  12.163  14.365   6.140 -0.0689  0.3182 -0.3091
32357W        W47204  13.571   7.745   2.947  0.1915  0.3152  0.1862
32358W        W47205   9.179   2.496  15.883  0.2003 -0.0205 -0.1355
32359W        W47206  11.065   5.813  14.738  0.4178  0.4206 -0.0607
32360W        W47207  12.288   7.002   5.956 -0.4620  0.1591  0.1064
32361W        W47208   1.577   4.451  16.833  0.0986  0.3798 -0.0410
32362W        W47209  14.610  11.722   5.237 -0.1034 -0.3959  0.0936
32363W        W47210   2.484  16.420  17.525  0.0880 -0.1600  0.0180
32364W        W47211   2.737   9.222  17.642 -0.2608 -0.1137  0.0877
32365W        W47212   8.118   1.819   3.668 -0.0017 -0.0351 -0.1703
32366W        W47213  16.746  13.412  12.446 -0.1473 -0.0736 -0.0096
32367W        W47214   3.781   0.286   2.664 -0.2543  0.0493  0.0100
32368W        W47215  16.543  10.143  16.332  0.0555 -0.0090 -0.0532
32369W        W47216   0.925  12.662   0.295 -0.1134  0.0721  0.1057
32370W        W47217   4.914   5.916   2.245  0.3926 -0.0525  0.1796
32371W        W47218  14.463   7.367   6.727 -0.0919 -0.1640  0.0801
32372W        W47219  15.198   8.871   4.215  0.0989 -0.3633  0.2167
32373W        W47220   8.588  15.220  16.961  0.4161 -0.0690  0.0473
32374W        W47221  11.238   1.171   1.699 -0.3254 -0.1662  0.0974
32375W        W47222   9.237   5.615  17.055  0.1188  0.4352  0.3349
32376W        W47223  17.157   3.468   0.617 -0.1610 -0.1640  0.0919
32377W        W47224  10.842  15.054  13.995 -0.1854 -0.0190 -0.2078
32378W        W47225   5.977   0.969   2.620 -0.2305  0.1248  0.1163
32379W        W47226  17.127   6.932   3.478  0.3581 -0.1680  0.1239
32380W        W47227   6.799  13.866  16.111 -0.3383 -0.1213  0.1649
32381W        W47228  16.318  13.989  15.870  0.1023  0.1661  0.0270
32382W        W47229  15.275   9.524  13.466  0.4317 -0.2062 -0.1146
32383W        W47230   1.048  13.512   1.493 -0.2740 -0.0083 -0.2240
32384W        W47231   5.063   1.771   1.911 -0.0662 -0.3536  0.1746
32385W        W47232   3.148   7.184  16.248 -0.2067  0.1225 -0.2365
32386W        W47233   3.316  15.324  15.216 -0.0096  0.1040  0.0194
32387W        W47234  14.264   1.728  15.060  0.1048 -0.0463 -0.2584
32388W        W47235   1.470   2.642   4.215  0.0191 -0.0202 -0.2873
32389W        W47236   6.415   3.196   3.805 -0.1857 -0.5772  0.2256
32390W        W47237  14.080  12.997  15.772  0.0041  0.1955  0.0329
32391W        W47238   3.712   5.673   3.322  0.2837 -0.3432 -0.0999
32392W        W47239   4.840  12.315   1.952 -0.1862 -0.0077  0.0021
32393W        W47240   8.217   7.667   1.970 -0.0563  0.1435 -0.2039
32394W        W47241  13.246  17.068   4.849 -0.6185 -0.0311 -0.0244
32395W        W47242   1.608  10.808  11.827  0.1002 -0.2320 -0.2300
32396W        W47243   2.794  14.790  15.627 -0.2156 -0.0903  0.1165
32397W        W47244   9.327   8.658   5.602  0.0594  0.0553 -0.0248
32398W        W47245   6.322  10.909   0.826 -0.0209  0.3283 -0.1267
32399W        W47246   6.537   8.048   1.534 -0.1497 -0.0386  0.0093
32400W        W47247   9.282  16.824   3.029 -0.1516  0.0249  0.1597
32401W        W47248   2.902   9.000  13.388  0.1551 -0.1785  0.0996
32402W        W47249  13.600   2.896   1.884  0.0717 -0.1927  0.0755
32403W        W47250   7.782  11.157   6.204  0.0534 -0.0890 -0.1934
32404W        W47251   9.377   0.851   4.530  0.2403  0.2570  0.0307
32405W        W47252   3.393   9.142   2.250 -0.6028  0.0853 -0.0247
32406W        W47253  15.304  10.086  15.012 -0.1634  0.2250 -0.4712
32407W        W47254  11.615  15.800   0.824 -0.3132 -0.1165  0.1554
32408W        W47255   5.689   8.555  15.490  0.0748  0.0360 -0.1060
32409W        W47256   1.303   2.146   5.827 -0.1926  0.0803  0.0342
32410W        W47257  14.822   3.418   2.847 -0.0983 -0.0742  0.1163
32411W        W47258  14.426  10.922   0.970 -0.0881 -0.3748 -0.1548
32412W        W47259  13.282   5.638  12.330  0.0521 -0.2087 -0.0807
32413W        W47260   1.001   0.811  11.814  0.0116 -0.0477 -0.1779
32414W        W47261   2.999   8.930  14.683 -0.0161  0.1754  0.0768
32415W        W47262   7.329   8.455   1.181 -0.0864  0.0706  0.1380
32416W        W47263  17.577   1.398   2.266 -0.0867 -0.0225  0.2790
32417W        W47264  16.947   6.977  15.889 -0.0111 -0.1002 -0.2555
32418W        W47265   8.053  15.363  14.567  0.1585  0.2776  0.0171
32419W        W47266  17.331   4.075   1.826 -0.2090  0.2417  0.2689
32420W        W47267   4.011   7.234  13.696  0.0681 -0.0013  0.0535
32421W        W47268  15.957  14.065  14.126 -0.0904  0.1098 -0.0475
32422W        W47269   7.927  12.758   0.154 -0.2252 -0.0024  0.0057
32423W        W47270   8.518   9.295   6.214  0.2821 -0.1367 -0.1934
32424W        W47271  15.881  15.503   2.354  0.2297 -0.0243  0.1720
32425W        W47272  14.300  12.716   4.898  0.1520  0.1165 -0.0771
32426W        W47273   0.183   5.098  16.848  0.1876  0.1984  0.0972
32427W        W47274   9.739   3.912  16.730  0.3402  0.1220 -0.1551
32428W        W47275   5.769  12.057  10.622 -0.1847  0.2217  0.2198
32429W        W47276   6.139   8.755  16.475 -0.1776  0.1637 -0.0292
32430W        W47277   4.170  16.268  14.148  0.0417  0.0700 -0.1237
32431W        W47278  10.330  16.392  13.761  0.0302 -0.0870 -0.2602
32432W        W47279   1.457   8.760   0.796  0.0899 -0.0650 -0.1531
32433W        W47280  11.413  17.449   3.421 -0.1298  0.0725  0.0514
32434W        W47281  13.425  16.990  12.202 -0.0221  0.1270 -0.1956
32435W        W47282  13.229   5.089  15.317 -0.2588 -0.2574  0.3229
32436W        W47283  11.001   4.880   2.850  0.5530 -0.0830 -0.3630
32437W        W47284   6.401   9.641   3.793  0.1554 -0.1749  0.0529
32438W        W47285  15.331   3.233   1.255 -0.4207 -0.2221 -0.0908
32439W        W47286  15.504  14.743  15.530 -0.0474  0.0536  0.0888
32440W        W47287  14.957   6.143  12.436  0.0365 -0.1729  0.0613
32441W        W47288   7.988   8.696  17.267  0.2683 -0.1102  0.3323
32442W        W47289   4.372   1.241  16.087  0.0093  0.0664 -0.1570
32443W        W47290   7.757   2.866   5.892  0.0975 -0.0627  0.4119
32444W        W47291   2.561  14.997  12.291  0.0729  0.3432  0.0405
32445W        W47292  16.699  10.781   4.158  0.0465  0.3393 -0.1633
32446W        W47293   5.126  15.502  11.787  0.2781 -0.0663 -0.1673
32447W        W47294   6.054   2.419   0.843 -0.1350 -0.1912  0.1118
32448W        W47295   5.663   5.545   1.856 -0.0176  0.3000 -0.1158
32449W        W47296   7.089   1.267  13.028 -0.0481  0.3203 -0.0242
32450W        W47297  17.376   6.526  17.376  0.2658 -0.1869  0.0179
32451W        W47298   0.613   3.028   2.362 -0.0025 -0.2858  0.1099
32452W        W47299   7.342   0.900   2.196  0.0622 -0.1357 -0.2495
32453W        W47300  14.571   2.685   2.264 -0.1834 -0.0650 -0.1912
32454W        W47301   0.211   6.531  16.709  0.0602  0.1270 -0.1872
32455W        W47302   2.258   5.862  12.329  0.2472  0.2299  0.2215
32456W        W47303  11.330  17.080  16.134 -0.1948 -0.1650 -0.2196
32457W        W47304  10.096   5.104   3.966 -0.1600 -0.0277 -0.0262
32458W        W47305   1.583  15.141  12.046  0.0183  0.0289  0.1499
32459W        W47306   6.985  12.018   5.483 -0.1550 -0.0163  0.0114
32460W        W47307   4.915  13.193   1.128 -0.0515  0.1592  0.2127
32461W        W47308   8.826   5.825  12.461 -0.3231 -0.2576 -0.0867
32462W        W47309  14.608   7.105   5.486  0.0569  0.1351  0.1047
32463W        W47310   2.981   6.137   3.681 -0.1843 -0.2715 -0.0547
32464W        W47311  11.888  13.870  16.839 -0.1363 -0.2372 -0.1724
32465W        W47312   5.470   1.119  13.601 -0.0766 -0.1421 -0.0091
32466W        W47313  11.605   6.655   4.732 -0.3673  0.0311  0.0771
32467W        W47314   8.135   9.160  16.349 -0.4991  0.0059 -0.1051
32468W        W47315   0.348   5.529  12.987 -0.0498  0.1737 -0.1606
32469W        W47316   5.618   7.707  17.188 -0.0404 -0.1184 -0.1822
32470W        W47317  11.998  12.363  12.926 -0.1278  0.2771 -0.0404
32471W        W47318   8.202   6.358  14.437  0.1130 -0.1210 -0.1079
32472W        W47319   8.618  10.007  13.068 -0.1532 -0.2987  0.1489
32473W        W47320   2.145  11.400  16.224 -0.0469  0.1236  0.0874
32474W        W47321   4.067   8.587  12.356  0.2220 -0.1649 -0.3601
32475W        W47322   0.852   6.552  16.314  0.1904  0.3064 -0.0624
32476W        W47323  11.813  16.601   6.460 -0.0353  0.1106  0.2541
32477W        W47324  16.734   4.109   0.699  0.1388 -0.0575  0.1873
32478W        W47325   1.873   6.736   1.392 -0.0744 -0.1591 -0.1182
32479W        W47326   9.333   5.444  15.474  0.3190 -0.1232 -0.1023
32480W        W47327   3.290   4.829  16.044  0.1069  0.1061  0.1710
32481W        W47328   6.701   1.278   4.958 -0.1027  0.0265  0.1836
32482W        W47329   0.606  16.150   4.835 -0.1780 -0.3299  0.1246
32483W        W47330  11.539   3.790   2.748  0.1405  0.0838 -0.0140
32484W        W47331   4.287  17.371   3.270  0.3549  0.0175 -0.2745
32485W        W47332   9.076   9.995   6.810  0.0142 -0.1224 -0.1000
32486W        W47333   9.264   6.684  12.976 -0.3268  0.1387 -0.4671
32487W        W47334  12.312  12.122  17.637  0.2849  0.2359  0.3703
32488W        W47335   3.764   8.450  10.636  0.0994  0.2464  0.4235
32489W        W47336   9.343   3.979  14.717  0.2631  0.0430  0.0478
32490W        W47337  10.691   6.720  15.268  0.3618  0.2070 -0.0979
32491W        W47338   0.052  14.317   3.650  0.1734  0.0102  0.2928
32492W        W47339   5.204   5.835  14.766  0.0114  0.0171  0.1695
32493W        W47340  14.906   2.513  15.796 -0.0942  0.0289 -0.2105
32494W        W47341  16.951   5.420  13.939  0.0482  0.0017 -0.1707
32495W        W47342  17.180   3.481  15.003 -0.1500 -0.0970 -0.1595
32496W        W47343  17.287   9.789  12.880 -0.0621 -0.0677 -0.1812
32497W        W47344   2.131   7.744   4.689 -0.0775 -0.2112  0.2652
32498W        W47345  16.070  13.202   1.329 -0.4144  0.4801 -0.0056
32499W        W47346  15.454  11.388   5.006 -0.2224  0.2664 -0.1514
32500W        W47347   3.671   4.273   2.078 -0.3182  0.0585  0.3729
32501W        W47348  16.356   9.238  17.226  0.1777 -0.1895 -0.0214
32502W        W47349   7.151   6.158   2.507  0.2390 -0.1402  0.0711
32503W        W47350   7.128  14.537   0.513 -0.1017  0.2559  0.0678
32504W        W47351  16.566  12.993  14.481  0.0885  0.2239  0.0567
32505W        W47352  16.647   5.351   3.088 -0.1969  0.2810  0.0574
32506W        W47353  16.262   3.003  13.253  0.1605  0.2804  0.0272
32507W        W47354   8.511   2.863   1.653  0.0577  0.0124 -0.1197
32508W        W47355  15.679  10.065   1.161  0.0599 -0.2293  0.2477
32509W        W47356  12.276   4.217  16.265 -0.1144  0.2802  0.0076
32510W        W47357  16.559   8.641   2.814  0.0475 -0.0807  0.0134
32511W        W47358  12.362   3.908  13.054 -0.1865  0.0963 -0.3300
32512W        W47359   0.447   3.111   6.367  0.1984  0.2365  0.0254
32513W        W47360   1.713   9.818  14.165  0.2060  0.0684  0.2775
32514W        W47361  13.925   1.962   2.039  0.1820  0.2683  0.0569
32515W        W47362   0.511   1.707   2.185 -0.2742 -0.0540  0.4389
32516W        W47363  15.980   0.857   0.429  0.0993 -0.2274  0.0159
32517W        W47364   9.344   9.944  12.656  0.0560  0.1888 -0.1922
32518W        W47365  13.671   2.772   2.425 -0.1162  0.0510  0.4054
32519W        W47366  13.929   1.102   5.835 -0.0108  0.4223  0.0019
32520W        W47367   5.082  12.244  12.325 -0.1552  0.1362 -0.1146
32521W        W47368  14.641   6.009   2.455  0.3243  0.2514 -0.0341
32522W        W47369  16.855  13.608   3.823 -0.1561  0.1299  0.1454
32523W        W47370   5.445  12.403   0.024 -0.0247  0.1616  0.1840
32524W        W47371   7.074   4.061   0.415 -0.1933 -0.3620 -0.2340
32525W        W47372   5.827  13.822   3.016  0.1032 -0.6451 -0.1805
32526W        W47373  16.995  10.922   5.759 -0.3296  0.0849  0.3540
32527W        W47374   1.946   4.605   3.411 -0.3295 -0.2738 -0.0790
32528W        W47375   6.419  15.716   0.833 -0.1605  0.0535  0.1127
32529W        W47376  11.352   6.995  11.782 -0.2125 -0.0243  0.1072
32530W        W47377   3.331   2.950   6.508  0.0625 -0.1802 -0.2289
32531W        W47378   9.249  11.013   4.171  0.0716  0.3674  0.2213
32532W        W47379  15.149  14.994   4.613 -0.1298 -0.2663 -0.1186
32533W        W47380  13.996  17.619  13.985  0.4725 -0.0847 -0.2831
32534W        W47381  17.043  10.454  14.891  0.1707  0.2027  0.0487
32535W        W47382  10.019   2.317  17.104  0.1886  0.2293 -0.0056
32536W        W47383  17.232   7.391   5.325  0.0451 -0.0219  0.1266
32537W        W47384   6.828  15.393  13.210  0.0630  0.0003 -0.0221
32538W        W47385   5.747   7.244  17.144  0.0150  0.0077 -0.3164
32539W        W47386   8.182  10.343   0.690 -0.1468 -0.2234 -0.1179
32540W        W47387  17.641   9.168   5.481 -0.0888  0.2515 -0.0617
32541W        W47388  17.275  11.835   1.022  0.0037 -0.2320  0.2889
32542W        W47389   7.250   2.344   2.666 -0.2483  0.2222  0.0152
32543W        W47390   5.368   1.628  15.021 -0.1818 -0.4089 -0.3944
32544W        W47391  11.851   1.666  16.051 -0.2135 -0.0886 -0.2453
32545W        W47392   4.622  16.035   5.358 -0.0230  0.0873 -0.0930
32546W        W47393  16.489   2.385  16.705 -0.2602  0.1096 -0.1276
32547W        W47394  13.232   7.118   5.697 -0.0704  0.0138  0.0935
32548W        W47395   2.180   8.019  14.666  0.2637 -0.0564 -0.0585
32549W        W47396  15.419  11.059  16.361 -0.2859  0.0753  0.2065
32550W        W47397  12.612   5.025  16.506  0.0391  0.1252 -0.0923
32551W        W47398   6.695  13.748   6.239  0.1898 -0.2980  0.0411
32552W        W47399   3.229  12.637   3.532  0.2174  0.0207 -0.1392
32553W        W47400  13.044   5.103   5.346  0.2766  0.0982  0.1826
32554W        W47401  13.367  16.901  14.629 -0.2828  0.0666 -0.1632
32555W        W47402   4.830   4.184   2.562  0.1595 -0.4453 -0.0605
32556W        W47403  16.571  13.526   0.493 -0.0863  0.2598  0.1427
32557W        W47404  12.424   2.673   1.229 -0.1777 -0.2516  0.2236
32558W        W47405  11.615  12.446   6.431  0.1123  0.0404  0.3530
32559W        W47406  10.128  16.638   3.418  0.2905 -0.0489  0.0925
32560W        W47407  11.588  11.388  14.477  0.0639 -0.2207  0.1688
32561W        W47408   9.142   2.102  16.320  0.0954 -0.2258  0.1021
32562W        W47409   0.816  16.515  12.974 -0.3424 -0.1058  0.2002
32563W        W47410   6.489   4.528   0.062  0.0613  0.0639  0.2706
32564W        W47411  17.145  10.812  16.769 -0.4052 -0.1829  0.0087
32565W        W47412   5.985   1.581  14.256 -0.1646 -0.0514 -0.0400
32566W        W47413  17.623  16.947   5.284  0.3170  0.0934  0.1973
32567W        W47414   9.998  11.426   6.687 -0.3089  0.5404  0.2342
32568W        W47415   2.779  10.642  15.975 -0.2870 -0.4152  0.0356
32569W        W47416   6.159  12.593  15.170  0.1784  0.3600 -0.2162
32570W        W47417  14.130   6.067   6.179  0.0089  0.1096  0.0841
32571W        W47418   3.682  10.810   2.223 -0.2110  0.0934 -0.1136
32572W        W47419   3.481  13.550   2.358 -0.0896 -0.0112  0.0658
32573W        W47420  11.118   2.676  12.775  0.0146 -0.0357  0.0256
32574W        W47421   3.685   3.350  12.875 -0.1188  0.1116 -0.0534
32575W        W47422   9.461   7.109   4.132  0.1156  0.1592  0.1734
32576W        W47423   8.231   5.051   2.442 -0.0536 -0.0236  0.0761
32577W        W47424   8.810  14.767   2.448 -0.0864 -0.0414 -0.0701
32578W        W47425   0.222  14.217  11.632  0.1120  0.0905 -0.0426
32579W        W47426  16.336   4.531  14.859 -0.0561 -0.0119 -0.1110
32580W        W47427   5.278  12.015  10.778  0.0252 -0.0074 -0.0567
32581W        W47428  13.818   6.866  15.710  0.0366  0.0830  0.1548
32582W        W47429   8.516   1.097   5.130  0.0855  0.2968  0.0731
32583W        W47430  10.718  11.737  14.799 -0.2139  0.0325 -0.1032
32584W        W47431   8.280   2.940   4.188 -0.1348  0.0580 -0.0328
32585W        W47432   8.604  12.851  15.899 -0.1356  0.0386 -0.1031
32586W        W47433  12.180   9.937   3.017  0.1707  0.0934 -0.1602
32587W        W47434   6.632  12.240   3.966 -0.1070  0.1615  0.1070
32588W        W47435  15.810   6.217  12.826 -0.1902  0.1507  0.1223
32589W        W47436   8.217   6.214   5.528 -0.2255  0.0224 -0.2638
32590W        W47437   5.044   7.835   4.234 -0.0348  0.0306  0.1054
32591W        W47438  15.886   3.489   4.268 -0.0134  0.0209  0.2236
32592W        W47439   4.710  10.214   5.803 -0.2917 -0.3610  0.1261
32593W        W47440   1.147   3.994  12.520  0.2345 -0.3820 -0.0304
32594W        W47441   0.794   8.356  12.918  0.0130 -0.0227  0.1176
32595W        W47442   5.782   5.898  13.660  0.1748  0.4447 -0.2515
32596W        W47443  14.084   2.605   5.991 -0.0403  0.0328  0.0123
32597W        W47444   4.289   8.876  16.791 -0.0529  0.0944 -0.0327
32598W        W47445  12.834   0.899   1.113 -0.0192  0.1009  0.4452
32599W        W47446   1.183   8.853  11.012 -0.1120 -0.2917 -0.3627
32600W        W47447   0.935  15.050  11.278  0.1153 -0.1644 -0.1428
32601W        W47448   6.892  10.911  14.699  0.0444 -0.0251  0.1438
32602W        W47449  14.297  17.157   1.311  0.0735 -0.0297  0.0313
32603W        W47450  10.154  10.281   5.354  0.0497  0.4629 -0.2307
32604W        W47451   8.541  14.511   1.710 -0.1423 -0.2743 -0.1254
32605W        W47452   0.836  14.160   4.969 -0.2274 -0.2501  0.4243
32606W        W47453  13.256  16.114  15.990 -0.0286  0.1037 -0.3951
32607W        W47454   6.667  11.470  15.293 -0.3450  0.1071 -0.2766
32608W        W47455   3.864   4.772  11.647  0.2713  0.1931 -0.2311
32609W        W47456   3.951   0.225   1.167 -0.1668  0.0083  0.0693
32610W        W47457  10.367   9.759  15.202 -0.1374 -0.0784 -0.1724
32611W        W47458   2.631   0.636  12.487  0.3566 -0.0093  0.1685
32612W        W47459   0.992  10.855   2.754  0.2381 -0.0392 -0.3157
32613W        W47460   3.074   0.727  16.278 -0.3887 -0.5531  0.0537
32614W        W47461  17.244   8.626  15.038  0.0258  0.0090  0.3178
32615W        W47462  15.156  15.797  16.560  0.1241 -0.0468 -0.0140
32616W        W47463  13.090  13.444   1.544  0.2159  0.1499 -0.2864
32617W        W47464   6.635  16.011  17.421 -0.0831 -0.0511  0.1869
32618W        W47465  10.187   2.385   3.317  0.1805  0.0770  0.4642
32619W        W47466   7.951  12.091   4.654  0.1453  0.3726 -0.0201
32620W        W47467  13.680   1.387   1.016 -0.1679  0.1521  0.1736
32621W        W47468   6.084   3.499   2.040 -0.0993 -0.1174 -0.1575
32622W        W47469   6.798   2.078   7.121 -0.0557  0.1558 -0.0675
32623W        W47470   2.228  14.449   0.670  0.1896 -0.1709 -0.1044
32624W        W47471  16.916  16.645  16.919 -0.0536  0.1742  0.1619
32625W        W47472   4.089  17.508  12.728 -0.1752  0.1642  0.2702
32626W        W47473  10.224  13.781  14.398 -0.0071 -0.1237 -0.0535
32627W        W47474   5.016  13.222  13.527  0.1837 -0.1455 -0.0330
32628W        W47475  14.937  14.431   5.001  0.1801  0.0045 -0.0596
32629W        W47476   2.460  15.168  13.706 -0.1859  0.2408  0.2492
32630W        W47477   0.910  17.418  15.223  0.3389  0.0961  0.1595
32631W        W47478   4.449   4.409   2.395 -0.1562 -0.0794 -0.4813
32632W        W47479   4.047  12.858  14.329 -0.2368 -0.0252  0.2376
32633W        W47480  17.056   9.501   4.708 -0.1093  0.2822 -0.0574
32634W        W47481   9.626  13.140   4.131 -0.0360 -0.0878 -0.0646
32635W        W47482   4.906   7.295  13.881  0.1634  0.2177 -0.2001
32636W        W47483   4.125   9.121   4.521  0.2802 -0.0990 -0.0521
32637W        W47484  13.762  16.972   1.882  0.4070 -0.0353 -0.4219
32638W        W47485   8.554  15.371   3.449 -0.2598  0.0711 -0.1527
32639W        W47486  12.365   1.690   1.746  0.0472  0.1258 -0.1663
32640W        W47487   7.492   8.646  13.770  0.1031 -0.1263  0.0587
32641W        W47488  10.336   1.452   2.962  0.0258 -0.0952 -0.2561
32642W        W47489   5.347   5.511   5.844  0.0577  0.0946  0.0221
32643W        W47490   3.178   6.159  17.623 -0.1603  0.1042 -0.0896
32644W        W47491   5.058   6.975  11.594 -0.1957 -0.1308  0.0391
32645W        W47492   7.250  10.019  16.617 -0.1600 -0.1844  0.0339
32646W        W47493  15.819   0.221   4.889 -0.0485 -0.0127 -0.1847
32647W        W47494   7.961  13.878   3.749 -0.2532 -0.0290 -0.0544
32648W        W47495  13.651   8.123   4.508  0.1269  0.0156  0.1409
32649W        W47496   5.927   0.316   1.518 -0.0965 -0.2688  0.2071
32650W        W47497   6.261   2.758   1.595  0.1279  0.3241 -0.0625
32651W        W47498   0.274  10.071  12.503 -0.0483 -0.1891  0.2500
32652W        W47499   7.101   5.475  13.120  0.3166 -0.0037 -0.0774
32653W        W47500  17.239  14.352   1.981  0.2268  0.0385  0.1324
32654W        W47501  13.590   0.186  12.907 -0.0496 -0.2590 -0.2629
32655W        W47502  16.088  11.752  13.375 -0.0559  0.0087 -0.0893
32656W        W47503   3.579  16.613  15.420  0.0871 -0.0168 -0.1981
32657W        W47504  17.510   0.180  15.330  0.1177 -0.0971 -0.0301
32658W        W47505   8.502  17.532   2.511  0.2272  0.0550  0.0702
32659W        W47506   8.239   8.133   4.405  0.1399  0.2360  0.0086
32660W        W47507  16.710   7.374  14.617  0.1105  0.1663  0.3208
32661W        W47508   6.184  10.675  13.106  0.0726 -0.1861 -0.0158
32662W        W47509   4.697   6.070   5.274  0.2382 -0.1138  0.1627
32663W        W47510   1.492   2.521  14.856  0.3664 -0.4131 -0.5784
32664W        W47511  12.777   4.844  15.165  0.3241 -0.3832 -0.0473
32665W        W47512   4.681   8.899   1.555  0.3012  0.0907 -0.2797
32666W        W47513   2.605   8.439  11.795  0.2102 -0.2238  0.0845
32667W        W47514   0.461   9.934  17.166  0.3271  0.0470 -0.0833
32668W        W47515  15.742   4.745   2.972 -0.1209  0.4412 -0.0353
32669W        W47516  12.707   3.578  11.876 -0.0546  0.0260  0.3143
32670W        W47517   9.251  12.604  15.291  0.3017  0.2414 -0.0016
32671W        W47518  10.206  13.361   0.281 -0.2682  0.0457 -0.4141
32672W        W47519  14.390  14.611  14.997 -0.3839  0.3177 -0.0610
32673W        W47520   1.982   7.552  11.779 -0.1563 -0.2273 -0.2120
32674W        W47521   5.657  15.396   2.833  0.0466  0.1536  0.0856
32675W        W47522   5.038  11.814   1.856  0.2206  0.1301  0.1319
32676W        W47523   5.881   1.527   3.608 -0.0851 -0.2985  0.0555
32677W        W47524  13.907   9.039  17.281 -0.3815  0.0625  0.2844
32678W        W47525   1.922   7.542  13.321  0.3382 -0.0460  0.0288
32679W        W47526  16.933   9.784  16.955 -0.4103 -0.0993 -0.0984
32680W        W47527   2.843  16.546  14.719 -0.2940 -0.0775  0.1077
32681W        W47528  17.529  15.551   6.468  0.0254 -0.0367  0.0949
32682W        W47529  10.922  15.471  11.417  0.2482  0.0916 -0.1072
32683W        W47530  12.669  14.394   0.270  0.2521  0.0382  0.1413
32684W        W47531   8.678  17.637   5.722 -0.0395 -0.0333 -0.1402
32685W        W47532  14.368   4.189   1.044  0.1971 -0.0147  0.0098
32686W        W47533   4.143  17.578  13.188 -0.1391 -0.2088  0.0196
32687W        W47534  11.077   8.298  13.408 -0.1873  0.0223  0.1516
32688W        W47535   7.611   6.220   5.212 -0.1474  0.0401  0.3410
32689W        W47536   2.766   2.263  12.107  0.1275  0.1440  0.1029
32690W        W47537   6.148  10.216   5.985 -0.1019 -0.2676  0.0867
32691W        W47538   9.266  13.526  15.662  0.1013  0.0621 -0.2545
32692W        W47539   1.597   7.966  16.013  0.0002  0.2317  0.0369
32693W        W47540   9.102   1.558  16.385  0.0410  0.0143 -0.2309
32694W        W47541   6.522   6.061  12.475  0.0394 -0.0623  0.0558
32695W        W47542  14.454  13.266   0.942 -0.0900 -0.0408  0.0326
32696W        W47543   3.171  14.705  15.135  0.2168 -0.1317  0.2607
32697W        W47544   1.609   2.833  13.018  0.0637  0.3452  0.1917
32698W        W47545   3.266  10.961   3.616 -0.0634  0.1579  0.0450
32699W        W47546  16.224  12.600  12.817  0.2031  0.0438  0.2708
32700W        W47547  15.543   1.650  14.198  0.0919 -0.0547  0.0690
32701W        W47548   1.880  11.082   3.702 -0.0133 -0.0646 -0.0401
32702W        W47549   8.756  10.453  17.562  0.0447 -0.0264 -0.3164
32703W        W47550   7.599   8.966   4.170 -0.0479 -0.2054  0.1006
32704W        W47551   0.879  17.675   3.216  0.0852 -0.0118 -0.0110
32705W        W47552   1.287   7.721  15.180  0.0795  0.1654 -0.2264
32706W        W47553  16.432  10.626  13.669 -0.2594 -0.0856  0.1945
32707W        W47554  16.288  12.228  15.199 -0.0019 -0.1555  0.0303
32708W        W47555   2.190  12.710  12.283 -0.1425  0.1543 -0.0389
32709W        W47556   4.558   2.427   5.769 -0.0248  0.2852 -0.2403
32710W        W47557  12.182   6.360   5.272 -0.1688  0.0447 -0.0838
32711W        W47558   6.434  17.009   5.632 -0.1369 -0.3607  0.0340
32712W        W47559   4.326   3.129   6.092  0.0626  0.0668  0.0148
32713W        W47560   2.437  11.526  15.047 -0.0493 -0.0991  0.1339
32714W        W47561   5.074  15.305  14.473 -0.2737  0.1454 -0.1325
32715W        W47562  13.280   8.758   4.919  0.0357  0.3426  0.1145
32716W        W47563   9.384   0.014   0.053  0.2059  0.2573 -0.0218
32717W        W47564  13.059  11.865   5.090  0.0387 -0.2571 -0.0799
32718W        W47565   7.895   9.091   0.479 -0.2093  0.0132 -0.1631
32719W        W47566   2.397   5.449   2.613 -0.2676  0.0415  0.0121
32720W        W47567   0.584   1.137   1.886 -0.4615  0.2789 -0.0809
32721W        W47568   0.478   0.874  17.177 -0.2988 -0.1316 -0.1776
32722W        W47569  14.725   7.887  16.842 -0.3076  0.0028 -0.0888
32723W        W47570  13.410   1.074  15.322  0.0893 -0.2904  0.2254
32724W        W47571  12.512  11.916   3.946  0.1034 -0.2612  0.0337
32725W        W47572   2.855   0.577   2.051 -0.2304 -0.1180  0.0121
32726W        W47573   0.739  15.523  14.106  0.0246  0.0531  0.1489
32727W        W47574   6.880   7.068  11.340 -0.0710 -0.0380  0.1595
32728W        W47575  10.628  13.771  12.923  0.0296 -0.1462  0.0254
32729W        W47576   0.113   2.869  13.068 -0.2261 -0.1467  0.2749
32730W        W47577  10.260   7.650   6.186 -0.1824  0.0698 -0.1311
32731W        W47578   7.458   4.825  14.363 -0.2827 -0.0955 -0.0461
32732W        W47579   8.630   7.024   3.706 -0.3501 -0.0073 -0.0556
32733W        W47580   7.180  12.667   0.659 -0.2976  0.2083  0.0395
32734W        W47581  15.618   3.534   5.014 -0.1808  0.2009 -0.0156
32735W        W47582  10.252  16.271   5.180  0.2561 -0.1605  0.2834
32736W        W47583  12.073   3.266   5.819  0.1488 -0.2951  0.1647
32737W        W47584  17.177   3.263   6.259  0.1346  0.2008  0.4247
32738W        W47585  11.432   8.837   2.377 -0.0323  0.2357 -0.0914
32739W        W47586  11.681   9.655  13.079  0.2210 -0.4425 -0.0491
32740W        W47587  16.111   4.760   3.916 -0.1057  0.0641 -0.2124
32741W        W47588  17.206   5.210  15.666 -0.2832 -0.1020  0.1334
32742W        W47589   5.251  10.121  12.440 -0.0770  0.0625 -0.1147
32743W        W47590   5.083  12.772   2.657  0.0939 -0.0286  0.2917
32744W        W47591  10.540   5.470  12.341 -0.3047  0.0371 -0.3053
32745W        W47592  14.892   8.716   4.994  0.1526 -0.3589 -0.0676
32746W        W47593   8.798  17.163   5.784  0.1970  0.0668  0.2215
32747W        W47594  13.993  16.489  16.109  0.3159 -0.0806  0.3072
32748W        W47595   2.833   5.298   0.824  0.0137 -0.4340  0.0194
32749W        W47596   9.114   4.248   0.463 -0.2960 -0.1490 -0.2416
32750W        W47597   1.883  14.050  14.833  0.3423  0.0084 -0.0810
32751W        W47598  13.528  14.941  16.136 -0.0042 -0.0063  0.1216
32752W        W47599  16.967  15.233   0.597  0.1291 -0.0275 -0.2598
32753W        W47600  14.714  15.591  13.353 -0.0658  0.1259 -0.2752
32754W        W47601   6.739  13.498   1.507  0.1660  0.0443  0.0761
32755W        W47602   1.510   2.588   5.587  0.0356  0.3227  0.2278
32756W        W47603   4.043  17.290  11.824  0.0017 -0.4642  0.1890
32757W        W47604   2.446   5.306   4.831 -0.0914  0.0077 -0.3519
32758W        W47605   9.775  15.276  13.358 -0.1829 -0.2154 -0.2434
32759W        W47606   9.889   1.949  13.363 -0.0852 -0.0887  0.0086
32760W        W47607  17.301   8.501  17.413 -0.2044 -0.0412 -0.1017
32761W        W47608   7.480  12.427   3.832  0.2241  0.3087 -0.0738
32762W        W47609  15.983   5.739   1.015  0.1303 -0.3491  0.0706
32763W        W47610   7.972   0.121   1.747  0.3609  0.2371  0.1084
32764W        W47611  12.875  14.517   2.936  0.4167 -0.1580 -0.0663
32765W        W47612  15.148   6.199   0.141 -0.0515 -0.1690 -0.1346
32766W        W47613   1.583  17.026   0.095 -0.1896  0.0915 -0.1646
32767W        W47614  11.435  14.143   1.712  0.0190 -0.2152 -0.0765
32768W        W47615   9.920  14.584   4.062  0.0037 -0.1409  0.1630
32769W        W47616  15.041   2.762  13.748  0.3822 -0.1387  0.1119
32770W        W47617   9.259  11.106  13.745 -0.1098  0.0606  0.0022
32771W        W47618   0.774   8.512  13.438 -0.0824  0.3781  0.1485
32772W        W47619   8.653   7.322   4.146  0.2088 -0.1579 -0.1532
32773W        W47620  10.193  16.435   1.242 -0.0493  0.1023 -0.0625
32774W        W47621   6.680   7.173   5.560  0.0966  0.0107  0.1227
32775W        W47622   1.895  15.165  16.648 -0.2221 -0.0252  0.0554
32776W        W47623   8.843  15.483   5.276 -0.0440 -0.3047  0.1810
32777W        W47624   7.322   1.817   4.062  0.1569 -0.0997  0.0190
32778W        W47625  11.087   0.877   3.456  0.0486 -0.1194  0.1351
32779W        W47626   8.628   2.511  12.463 -0.5212 -0.2285 -0.4181
32780W        W47627  10.354  11.619   0.965 -0.2253 -0.1991  0.1000
32781W        W47628   8.012   8.768  16.009 -0.2012  0.0731  0.1219
32782W        W47629   2.716   5.369  11.516 -0.1439  0.0576 -0.2246
32783W        W47630   0.215   1.294  15.933 -0.0168 -0.1856  0.1566
32784W        W47631   5.964  15.167  13.369 -0.0701  0.0700 -0.0245
32785W        W47632   5.141   9.889  14.752 -0.1538 -0.0266  0.0889
32786W        W47633   8.703   1.604  15.115 -0.1675  0.0769  0.0591
32787W        W47634   1.208   9.515  16.989  0.2018  0.0814 -0.0771
32788W        W47635   4.906   4.291  17.402 -0.1349 -0.1280 -0.2276
32789W        W47636   9.210  12.938   4.969  0.0659 -0.0515 -0.3152
32790W        W47637   6.113   2.756  15.853 -0.1273  0.0045 -0.1285
32791W        W47638  17.223   8.565  12.748  0.3732 -0.3012 -0.2315
32792W        W47639  16.761  15.806   0.581 -0.0080 -0.5862  0.1666
32793W        W47640  10.167   2.531  16.631 -0.1610  0.0169 -0.1175
32794W        W47641   8.564   8.964  16.567  0.3189 -0.0616 -0.2710
32795W        W47642  13.017   4.725  12.959  0.2241  0.0856  0.0285
32796W        W47643  17.612  11.758   2.900 -0.0502  0.0076 -0.1424
32797W        W47644   3.309  16.687   5.858  0.0599 -0.0181 -0.0892
32798W        W47645  10.206   6.384   2.360  0.0915 -0.0096 -0.0671
32799W        W47646   8.155  16.035   6.706  0.2020 -0.1754  0.0806
32800W        W47647   3.666  14.268   3.566  0.0255  0.1772 -0.0282
32801W        W47648  12.536   0.110  14.022 -0.1590  0.1124 -0.2145
32802W        W47649   1.840  15.958   3.750  0.0844  0.0603  0.1555
32803W        W47650   1.033  14.552   5.670  0.1417 -0.0391  0.0314
32804W        W47651  15.913   2.622   4.551  0.0493 -0.1057 -0.0406
32805W        W47652   0.777  12.767   0.939  0.0481 -0.0826  0.2321
32806W        W47653  13.914  13.226   0.857 -0.0634 -0.0304  0.0169
32807W        W47654  14.843   4.035  16.068 -0.0957  0.1391  0.0544
32808W        W47655   9.225   1.961  17.293 -0.0769 -0.0450 -0.1507
32809W        W47656   7.866  14.055   1.344  0.0938 -0.4266 -0.2327
32810W        W47657  16.295  16.885  13.553 -0.1812  0.2062  0.1848
32811W        W47658  15.228  16.681  12.116  0.0930 -0.4424  0.3179
32812W        W47659   7.637  15.196   2.892 -0.0507  0.0594 -0.1526
32813W        W47660   7.949  12.366  17.439 -0.0746  0.0413  0.1046
32814W        W47661   4.028  13.805   6.165 -0.0916 -0.0978  0.1007
32815W        W47662  10.544   1.295   5.093 -0.0927  0.0433  0.2023
32816W        W47663   3.352   5.983  14.138 -0.0273  0.0333  0.0538
32817W        W47664  12.532  15.853  15.066  0.1805  0.0449 -0.2270
32818W        W47665  12.536   9.932   5.693  0.3052 -0.0725 -0.2271
32819W        W47666  13.478   4.650   4.684 -0.1696 -0.0476  0.1109
32820W        W47667  11.883   2.101  13.620 -0.0590 -0.2700  0.0733
32821W        W47668  14.331  17.286   4.755  0.2536  0.0799 -0.2585
32822W        W47669   0.848   6.501  14.545 -0.0776  0.1577  0.0998
32823W        W47670   9.519   2.860   3.535  0.0913  0.3618  0.0915
32824W        W47671   3.695   6.722  12.919 -0.0531  0.3202 -0.1462
32825W        W47672   6.712   8.005  13.806  0.1202 -0.0162  0.2274
32826W        W47673  17.521   8.964  14.697 -0.0638  0.2073 -0.1658
32827W        W47674   6.340   3.048  11.803  0.3545 -0.1040 -0.2520
32828W        W47675   1.785   9.201  16.752  0.0685  0.0181 -0.4425
32829W        W47676   3.717   9.746  11.532 -0.1834  0.0856  0.1162
32830W        W47677   4.508   4.361  17.063 -0.1057  0.2632 -0.1288
32831W        W47678   1.884   0.668   0.614  0.2300  0.0449 -0.0376
32832W        W47679  11.002  15.733  15.883  0.1309  0.2844 -0.0787
32833W        W47680  13.190   3.866  12.648  0.2215 -0.2321  0.1103
32834W        W47681   3.809   8.218  12.574 -0.2495  0.2487 -0.2035
32835W        W47682   2.121  12.943  12.907  0.3335  0.0787 -0.2579
32836W        W47683  11.161  14.722  14.432 -0.3246 -0.0507 -0.0534
32837W        W47684   8.071   4.834  15.318 -0.1329 -0.1091  0.0191
32838W        W47685  16.546   8.956   6.711  0.1218 -0.2807  0.0190
32839W        W47686   8.424  14.131   6.561 -0.0215  0.2359  0.1594
32840W        W47687   6.152   3.287  16.435 -0.2767  0.2774 -0.3154
32841W        W47688   1.691  15.003  15.642  0.1591  0.0616  0.2730
32842W        W47689  16.337   4.115   2.748  0.1077  0.0061  0.3155
32843W        W47690   7.321  10.610   2.536  0.3226  0.1673  0.1115
32844W        W47691   4.111   2.265   1.619 -0.0272  0.0729  0.0214
32845W        W47692   6.831  10.624   2.765 -0.3644  0.2710  0.0101
32846W        W47693   6.029   7.742  14.902 -0.2930 -0.2331 -0.1226
32847W        W47694   1.537   7.871  13.622  0.0690 -0.0630 -0.2824
32848W        W47695  13.167  12.949   1.532 -0.1973  0.0243  0.0467
32849W        W47696   0.149  10.141   6.659 -0.4269  0.0360 -0.0595
32850W        W47697   8.447   3.674   1.750  0.1018  0.2075  0.1372
32851W        W47698  16.464  14.749   7.186  0.2091 -0.0035  0.1242
32852W        W47699   9.997   9.470  16.831 -0.2844  0.3205 -0.0494
32853W        W47700  16.811   8.037   2.024 -0.0961  0.0347 -0.0975
32854W        W47701   9.423   3.152   2.693  0.1460 -0.1903 -0.0634
32855W        W47702  16.960  16.239   5.733 -0.0920 -0.2189 -0.2911
32856W        W47703   6.312   9.424  11.354  0.0583 -0.0630 -0.2212
32857W        W47704   7.286  14.042  14.547  0.1257 -0.0563  0.0417
32858W        W47705  15.771   9.828   0.296  0.3577 -0.0771  0.2584
32859W        W47706   8.090   6.192  14.901 -0.0978  0.0812 -0.1043
32860W        W47707   1.245  15.501  13.856  0.1210 -0.0960  0.1734
32861W        W47708   7.046  15.459   2.705  0.0075  0.2551  0.0869
32862W        W47709  10.407   3.435   2.180 -0.0345  0.0484  0.0315
32863W        W47710  12.758  12.817   1.297  0.2766  0.0484 -0.1084
32864W        W47711   1.122  10.730  17.342  0.1411  0.0253 -0.1139
32865W        W47712  12.819  13.179   4.253  0.0301 -0.5094  0.2425
32866W        W47713   6.740  12.359  13.732  0.4161 -0.0724 -0.1536
32867W        W47714   2.860  12.586   1.705  0.0631  0.1970  0.2430
32868W        W47715  11.537  13.714   6.022  0.0421  0.1837  0.0823
32869W        W47716   0.738   2.698   3.400  0.1780  0.0599  0.0215
32870W        W47717   5.929  16.313   0.970 -0.1584 -0.1488 -0.1602
32871W        W47718  16.632  16.331   2.892 -0.0486 -0.0170  0.2173
32872W        W47719   3.227   1.156   1.772  0.0622  0.1643 -0.0635
32873W        W47720   3.544   6.587   4.237  0.1451  0.1019  0.0133
32874W        W47721  12.112   4.729  16.348 -0.2245 -0.3301 -0.1576
32875W        W47722  16.532   5.414  16.885 -0.1333 -0.4114 -0.0630
32876W        W47723   4.412  13.135  14.109  0.0305 -0.4300  0.0427
32877W        W47724   6.169  10.470   1.051  0.0331  0.3138 -0.1052
32878W        W47725   3.780  11.654   5.266 -0.1655  0.1560 -0.1165
32879W        W47726  15.098   3.075   3.175 -0.0260 -0.0188  0.0655
32880W        W47727   6.059  10.991  16.777  0.2328 -0.0555 -0.0216
32881W        W47728  12.999   9.738  13.106  0.0140  0.0643 -0.1065
32882W        W47729  14.118   1.355   2.186  0.0995 -0.1269 -0.1649
32883W        W47730   2.497  15.833  16.752 -0.1123  0.0673 -0.0673
32884W        W47731   8.498  12.667   1.248  0.4085  0.0935  0.0491
32885W        W47732  11.328   2.334  12.447  0.0579 -0.1500  0.2024
32886W        W47733   9.168  14.422   2.584  0.0278  0.2371  0.0556
32887W        W47734   4.433   1.033  15.557 -0.1744 -0.1837  0.3190
32888W        W47735   9.857  17.424  17.034 -0.1828 -0.2665  0.0594
32889W        W47736   7.527  11.334   0.831  0.1248  0.3474 -0.1187
32890W        W47737  14.299   6.933  13.433  0.3150  0.0360 -0.0542
32891W        W47738  10.750  15.458   2.196 -0.0796 -0.0727  0.0170
32892W        W47739  14.318   5.510  14.767 -0.0488 -0.2473 -0.0534
32893W        W47740  15.054   4.743  15.878 -0.0557  0.1700 -0.0534
32894W        W47741  13.417  14.513  15.379 -0.1711  0.0439 -0.0547
32895W        W47742   4.040   7.071  15.700  0.2332 -0.4367 -0.3025
32896W        W47743   1.516   0.516   2.745  0.2868  0.0823 -0.0734
32897W        W47744   7.294  16.651  14.716  0.2631  0.0930 -0.0688
32898W        W47745  13.800   2.438   2.823  0.0131 -0.3382 -0.0355
32899W        W47746  11.249  13.823  15.929 -0.1216 -0.0788 -0.0838
32900W        W47747  11.561   9.105  12.340  0.0894 -0.3249 -0.2250
32901W        W47748  15.404  17.244  14.913 -0.0636 -0.3928  0.0781
32902W        W47749  14.218   0.504  12.409 -0.2459 -0.0096 -0.0357
32903W        W47750   2.455  15.284   0.142 -0.1438 -0.0803  0.1967
32904W        W47751   1.680  14.119  16.606  0.0515 -0.0567  0.4065
32905W        W47752   6.520   5.158  17.617  0.1511 -0.0676  0.3795
32906W        W47753  13.890  12.168   3.264 -0.0212 -0.3744 -0.1263
32907W        W47754   1.634   3.868  12.392  0.1565  0.1849 -0.1331
32908W        W47755   8.907   3.270   2.736 -0.1089  0.1496 -0.0239
32909W        W47756   3.960  12.263   1.062  0.0877 -0.0198  0.0301
32910W        W47757   1.226   9.696  17.526 -0.1493 -0.1646 -0.1193
32911W        W47758  12.217   2.125   0.003 -0.2640 -0.2163 -0.1294
32912W        W47759   5.241   1.438  10.824 -0.0720 -0.0751  0.3376
32913W        W47760  13.016   6.079  15.259 -0.2105  0.0232 -0.1423
32914W        W47761   2.708   6.477  16.840  0.1039 -0.0895 -0.0373
32915W        W47762   0.348   4.516  11.794 -0.1029  0.0557 -0.1005
32916W        W47763   0.614   6.334   1.719  0.1694 -0.2359 -0.3478
32917W        W47764   2.806  16.199   0.218  0.1719  0.0445  0.3865
32918W        W47765  17.468  10.864  17.609 -0.1767  0.0517 -0.2703
32919W        W47766  13.192  14.196  14.703  0.0625 -0.2149 -0.0819
32920W        W47767  11.608  12.551   3.419  0.2051 -0.3108 -0.0811
32921W        W47768  14.212  16.780   0.134  0.0550 -0.0181  0.1085
32922W        W47769  14.955  17.576   2.100  0.1867  0.2391 -0.0934
32923W        W47770   7.476  11.679   0.416 -0.2086 -0.3555  0.1990
32924W        W47771  16.871   1.046   0.219  0.1065  0.1872  0.0558
32925W        W47772   2.861  15.361  15.628 -0.0468  0.1423 -0.3089
32926W        W47773  16.695   0.761  16.342  0.1749 -0.0762 -0.0936
32927W        W47774   8.169   2.546   4.514 -0.5297  0.2299 -0.1640
32928W        W47775   5.876  12.527   0.946 -0.0783 -0.0565 -0.0011
32929W        W47776  13.036   0.068   1.257 -0.1814 -0.2290 -0.0496
32930W        W47777   9.174   2.076   3.652 -0.0597 -0.0117  0.0984
32931W        W47778  16.953   2.465   5.771 -0.0845  0.2266 -0.0450
32932W        W47779   3.950  13.646   5.453  0.1263 -0.1035 -0.1933
32933W        W47780  17.402   3.189   3.245  0.0478 -0.1726 -0.1040
32934W        W47781   2.938   3.779  12.537  0.1307 -0.3758  0.2100
32935W        W47782  17.606  12.710  12.698 -0.0088  0.1574  0.0897
32936W        W47783  10.378  17.388  15.169 -0.1963 -0.0371  0.1507
32937W        W47784  11.404   7.335  15.498 -0.3436  0.0769 -0.0992
32938W        W47785  14.067   3.189  15.763  0.4033  0.0749 -0.1630
32939W        W47786  12.711  12.157  16.094  0.0968  0.1537  0.0283
32940W        W47787   8.283   1.435   1.633 -0.0117 -0.1371 -0.3514
32941W        W47788   7.680   2.917  16.044  0.0224 -0.2784 -0.1267
32942W        W47789   7.446  12.116  13.810 -0.0475  0.2920  0.2387
32943W        W47790   5.668   4.193   1.609  0.0913  0.2544  0.5117
32944W        W47791  15.891   1.097   5.778  0.0964 -0.1654  0.2472
32945W        W47792  13.866   3.918  17.581 -0.1965  0.1849  0.1924
32946W        W47793  10.633   6.688   4.444  0.0350 -0.3321  0.1056
32947W        W47794   3.051   2.287   0.720 -0.1127 -0.1158  0.1306
32948W        W47795  12.416  15.558   0.814  0.1652  0.1712  0.0520
32949W        W47796   5.569  17.299   1.397 -0.0956  0.0971  0.0638
32950W        W47797   8.894  15.079   2.842  0.1909  0.0154  0.3329
32951W        W47798   5.298   3.881  15.096 -0.2810 -0.1751 -0.1487
32952W        W47799  16.614   3.462  13.173  0.0375 -0.1239 -0.3293
32953W        W47800   2.884  15.883  13.060  0.1501  0.4275  0.1971
32954W        W47801  14.250   8.763   5.105 -0.0991 -0.2719  0.1401
32955W        W47802   4.710  14.531  12.456 -0.0535 -0.0717 -0.1115
32956W        W47803  15.665  12.847  13.402 -0.2095 -0.0367 -0.0613
32957W        W47804   8.727   3.967  15.981 -0.1198  0.2038 -0.0769
32958W        W47805  17.423   2.644   5.828  0.0385  0.1781 -0.1432
32959W        W47806   0.767  11.083  12.009 -0.2844  0.0115  0.2054
32960W        W47807   5.910  10.556   3.571  0.0214  0.1002  0.1123
32961W        W47808   4.940   3.886  11.780  0.1070 -0.1825 -0.2564
32962W        W47809   2.425   0.233  11.911  0.1830 -0.2794 -0.1264
32963W        W47810  14.945   6.280  15.628 -0.3432  0.0646 -0.3162
32964W        W47811   7.156  12.174   0.089  0.1264  0.1262  0.1938
32965W        W47812   5.183  14.768  17.258 -0.0899  0.2538 -0.1977
32966W        W47813  11.360   3.936   1.863  0.1752 -0.1431  0.3460
32967W        W47814   7.982   7.215  14.052  0.0307  0.0998 -0.0134
32968W        W47815   8.458  16.378   1.428  0.2738 -0.1459 -0.1077
32969W        W47816  16.411  10.861  12.527 -0.2066 -0.0066 -0.1815
32970W        W47817   5.350  14.903   4.169  0.0106 -0.4062  0.1280
32971W        W47818  10.688   5.332   3.192  0.1874  0.2397 -0.0690
32972W        W47819   5.614  14.584  16.992 -0.0566 -0.0474 -0.2664
32973W        W47820  10.325   7.196  15.025  0.1005 -0.0252  0.0564
32974W        W47821  14.457  11.983   2.705 -0.0888 -0.2589 -0.0657
32975W        W47822   7.600  12.902   1.231 -0.0965 -0.2334 -0.0148
32976W        W47823   0.820  16.164  12.489 -0.1439  0.5016 -0.0843
32977W        W47824   0.932   3.042  16.790 -0.4124  0.0963  0.0223
32978W        W47825  12.530   6.962   5.352 -0.0858  0.0387  0.0834
32979W        W47826   6.534  15.867  15.938  0.2940  0.2545 -0.1316
32980W        W47827  10.789  16.039   0.161 -0.2205  0.3654  0.0670
32981W        W47828   5.330   3.130  12.779 -0.3595  0.1300 -0.0022
32982W        W47829   7.722   9.400  16.627 -0.1564 -0.0957  0.0410
32983W        W47830   2.102   1.033  16.278  0.3097 -0.0619  0.1809
32984W        W47831  10.286  17.211   2.591 -0.2641 -0.3228  0.1639
32985W        W47832  15.070  10.516   3.909  0.0058 -0.0976  0.0373
32986W        W47833   7.860   5.580   2.514 -0.0531  0.1064  0.2926
32987W        W47834   4.264   3.436   4.938  0.0004  0.0669 -0.1736
32988W        W47835   4.038   2.678  14.943 -0.2737  0.1005 -0.2362
32989W        W47836   2.381   9.898   3.234  0.0525  0.0058  0.2625
32990W        W47837  12.615   3.114   0.075 -0.0066  0.0513 -0.1435
32991W        W47838   1.598  16.733  16.298 -0.0423  0.0299  0.1197
32992W        W47839  10.458   9.677   1.754 -0.2218 -0.1521 -0.1462
32993W        W47840   6.920   6.969   2.483  0.1701  0.0985 -0.1353
32994W        W47841   4.802   1.379  16.276  0.2448 -0.0001  0.4179
32995W        W47842   9.655   5.747   5.991  0.3751 -0.2468 -0.1734
32996W        W47843  15.458   6.943   3.521  0.0068  0.1011 -0.1450
32997W        W47844   7.145   6.301  14.842 -0.1938 -0.1457 -0.0563
32998W        W47845  16.347   3.477   6.228  0.0164  0.0801  0.0525
32999W        W47846   6.606  16.342  14.538  0.0561  0.1529  0.1032
33000W        W47847  13.466  16.551  16.090 -0.4462  0.4171 -0.0402
33001W        W47848   0.361  13.311  13.230  0.3432 -0.0408 -0.0041
33002W        W47849  13.513  13.301  15.981 -0.0586 -0.0969  0.2659
33003W        W47850  10.601  13.156  16.076  0.1274  0.3508  0.1632
33004W        W47851   1.205   1.353   0.350 -0.1342  0.1273  0.0257
33005W        W47852  11.044   9.529   4.733 -0.0351  0.1883 -0.0532
33006W        W47853   2.178   6.318  16.559 -0.0796  0.1092  0.0577
33007W        W47854  13.375  10.365   5.168  0.0270  0.0971 -0.0625
33008W        W47855  15.914   9.840  12.722  0.0481 -0.1791 -0.0289
33009W        W47856   1.107  16.969   0.385  0.4598 -0.0242  0.2388
33010W        W47857  15.767   4.239  15.866  0.2346  0.1095 -0.2480
33011W        W47858  12.362   4.068   4.068 -0.1943  0.0511 -0.2885
33012W        W47859   1.851   1.685   2.259 -0.0770  0.2310  0.1903
33013W        W47860  13.900   7.775   4.230  0.0236 -0.1935  0.0869
33014W        W47861   7.995   4.196   2.441  0.1184  0.0291 -0.0176
33015W        W47862  13.377   3.135   2.310 -0.0006 -0.2724  0.2833
33016W        W47863   6.544   9.781  15.503 -0.0150  0.0461  0.0591
33017W        W47864  13.866  16.368   5.266 -0.0360 -0.1279 -0.2131
33018W        W47865  14.567   7.350  12.389 -0.3326  0.0282  0.0240
33019W        W47866   7.957  14.112   4.824 -0.1157 -0.0649  0.1115
33020W        W47867   7.957   7.098  12.758  0.1334 -0.0331 -0.3915
33021W        W47868  17.299  13.794   3.887 -0.2646  0.0090  0.0016
33022W        W47869   8.702   9.676  14.116  0.0518  0.1558  0.0281
33023W        W47870   4.142  11.456   6.795  0.1086 -0.1536 -0.1007
33024W        W47871   1.617   9.076  12.519 -0.0709  0.1375 -0.0346
33025W        W47872   1.207   1.396   5.265 -0.1124  0.1449 -0.1903
33026W        W47873   2.859  13.360  11.901 -0.0472 -0.1964 -0.0195
33027W        W47874   5.724  12.569  15.478  0.1613  0.1883 -0.0404
33028W        W47875  14.824   7.683   2.121  0.2977 -0.0153  0.0393
33029W        W47876   0.595  14.732   4.238 -0.0267  0.1743 -0.0650
33030W        W47877   2.076   8.668   4.560  0.0793  0.0294 -0.0488
33031W        W47878   6.957  10.429   3.581 -0.5835  0.0558  0.0099
33032W        W47879   2.959   2.588   2.650  0.1714 -0.0395  0.1505
33033W        W47880  11.007  17.612  16.964  0.1172 -0.0460 -0.0104
33034W        W47881   1.163  15.818  15.155 -0.0876  0.2374 -0.0738
33035W        W47882   5.527  11.372   5.972  0.0560  0.0189  0.2004
33036W        W47883  14.811   3.413  10.847 -0.0940 -0.1833  0.0735
33037W        W47884  17.101   6.796   4.012 -0.0951  0.3072  0.2199
33038W        W47885  13.002   6.744   1.709  0.3112  0.0241  0.0980
33039W        W47886  10.966   3.759  13.062  0.3051 -0.1344  0.1655
33040W        W47887   2.171  14.631  14.535  0.0971  0.0882 -0.2188
33041W        W47888   7.617  13.522   1.957  0.2132 -0.2560 -0.0479
33042W        W47889  11.734   4.338   0.232  0.0235  0.0254 -0.2129
33043W        W47890   7.029   9.428  13.478 -0.1458 -0.0587 -0.0639
33044W        W47891   2.787   7.360   2.298  0.0426  0.1353  0.0991
33045W        W47892  14.926  17.252  10.830  0.0124 -0.0087  0.1216
33046W        W47893   3.041   3.444   2.054  0.0432 -0.0862  0.0273
33047W        W47894  11.161  15.349   5.721  0.1913 -0.1655 -0.3031
33048W        W47895   8.627  12.647   4.804 -0.2092  0.2458 -0.2026
33049W        W47896   0.405   8.732   1.919 -0.2498 -0.0092  0.1137
33050W        W47897   4.744   7.544  12.656 -0.1274 -0.0539  0.1856
33051W        W47898   3.595  17.063  14.927  0.1028  0.0392  0.1031
33052W        W47899  13.689   0.940   1.382  0.1196 -0.0139 -0.0336
33053W        W47900  17.314   0.296  17.050 -0.0264  0.1925  0.0054
33054W        W47901  17.418   4.677  15.522  0.2032  0.0109 -0.1568
33055W        W47902  13.168  10.367   3.027 -0.3557  0.0079  0.0937
33056W        W47903   2.412  16.200  15.784  0.0668 -0.2159 -0.1061
33057W        W47904   5.010   8.276  13.076  0.3176  0.0203  0.1325
33058W        W47905  14.207  15.574   6.197 -0.2265 -0.1226 -0.3124
33059W        W47906  14.457  15.455  16.145  0.1877 -0.0736  0.2557
33060W        W47907  11.016  14.014  12.636 -0.3746 -0.0520  0.1941
33061W        W47908  16.984   0.614  12.376  0.0252  0.0545 -0.2050
33062W        W47909  16.586   4.455  15.853  0.1320  0.0745 -0.2097
33063W        W47910   5.971  14.238   3.294 -0.1033 -0.0944  0.0896
33064W        W47911  16.298   6.216  16.337 -0.3434  0.3806 -0.0458
33065W        W47912   4.519  16.392  12.764  0.1699 -0.0588 -0.1091
33066W        W47913   0.748   9.373  14.705 -0.0491  0.1830 -0.0677
33067W        W47914   9.340  15.886   5.209  0.1036 -0.1903  0.0636
33068W        W47915  10.521  16.505   4.812 -0.3412 -0.0176 -0.0218
33069W        W47916   4.101   7.374   5.738  0.1177 -0.0795 -0.0157
33070W        W47917   7.802  12.074  12.211 -0.0053 -0.0547  0.1952
33071W        W47918  12.036   2.014  15.169  0.2477  0.0779 -0.0027
33072W        W47919   5.546  13.136  14.576 -0.1807  0.1362  0.2983
33073W        W47920   1.184   0.050  16.138  0.0016 -0.1174  0.1171
33074W        W47921  17.520   5.635   1.856  0.1570 -0.0865 -0.2328
33075W        W47922   8.898  16.176   4.872  0.0960 -0.1548  0.0997
33076W        W47923  14.437  12.939  14.233  0.2122  0.0620 -0.0838
33077W        W47924  12.150   7.135   4.105  0.3378  0.0707 -0.2996
33078W        W47925   5.910   6.886  14.892  0.3469  0.1229  0.0822
33079W        W47926  16.894  16.446  12.954  0.1676 -0.0181 -0.1123
33080W        W47927   7.365   3.928   6.005 -0.1559  0.0739  0.1455
33081W        W47928   8.559   5.503  12.771  0.0714 -0.0384 -0.3105
33082W        W47929  16.601  14.175   1.167  0.2918  0.1544 -0.0557
33083W        W47930   9.668  14.589   3.349 -0.0640  0.2332 -0.2196
33084W        W47931   5.572   9.854  17.323  0.4035 -0.0915 -0.1539
33085W        W47932   5.313  17.053   6.143  0.0728  0.0743  0.0377
33086W        W47933  16.316  12.649  14.784 -0.2622 -0.0894  0.1541
33087W        W47934   4.347  11.898   4.201  0.1253 -0.2000  0.2621
33088W        W47935  11.626   2.088  14.374  0.0955  0.1102  0.0820
33089W        W47936   4.195   9.616   5.570  0.3967 -0.2299  0.0578
33090W        W47937   7.548  11.245   1.820 -0.1471 -0.1260  0.1686
33091W        W47938  14.574   9.941   6.319  0.4210 -0.1063  0.1291
33092W        W47939   3.658   4.474   5.106 -0.1300 -0.0469 -0.2113
33093W        W47940  14.759   7.347   2.945 -0.0880  0.2144  0.0572
33094W        W47941   6.553   2.738  15.633 -0.4074 -0.0989 -0.3605
33095W        W47942  11.219  14.135   3.545 -0.0417  0.2143  0.0197
33096W        W47943  13.581  15.455   0.872 -0.1292 -0.1897 -0.0161
33097W        W47944   0.055   0.882   5.202 -0.1100  0.0512  0.1757
33098W        W47945   5.887  17.316  12.796 -0.0604  0.1744 -0.1762
33099W        W47946   8.632   8.127  12.687 -0.2132  0.1016  0.3889
33100W        W47947  13.968  10.127   2.748 -0.0686 -0.1487 -0.0795
33101W        W47948   4.154  13.432  16.713 -0.2803 -0.0298 -0.2626
33102W        W47949  15.087   0.745  11.992  0.1616  0.2248 -0.1317
33103W        W47950  15.653   4.050   3.249  0.4119 -0.1541  0.0466
33104W        W47951   5.596   4.475   4.759 -0.0200 -0.1725 -0.0120
33105W        W47952  10.282  12.465   3.018 -0.1405  0.0095  0.2881
33106W        W47953  16.563  10.491   1.145 -0.0399  0.2182 -0.2676
33107W        W47954   4.454   3.241  12.232  0.1602 -0.1072 -0.0371
33108W        W47955   8.842   7.781  17.197 -0.0125  0.2974 -0.1806
33109W        W47956   7.413   7.749   0.191 -0.1843  0.0495 -0.0178
33110W        W47957  14.040   0.101   6.175 -0.1068  0.1246 -0.4370
33111W        W47958   4.588  15.890  16.354 -0.2441  0.0112  0.0231
33112W        W47959   3.849   1.376   5.660 -0.1300 -0.1657 -0.0311
33113W        W47960  13.521   9.840  13.237 -0.0911  0.0523  0.1915
33114W        W47961  12.177  16.269   3.513  0.2764  0.2429 -0.0285
33115W        W47962   6.415  12.223  17.005  0.1782 -0.0853 -0.1211
33116W        W47963   1.806  16.973  11.549  0.1241  0.1604 -0.1266
33117W        W47964  11.134  17.002  15.699 -0.0238 -0.1704  0.1602
33118W        W47965   6.823  15.459   2.232  0.1115  0.1792 -0.1590
33119W        W47966   0.612  14.641  17.193 -0.1750 -0.0704  0.1236
33120W        W47967  14.903  13.900   4.834 -0.1741 -0.0804  0.2186
33121W        W47968   6.939  12.530  15.985  0.2254  0.1396  0.2167
33122W        W47969   3.188   3.730   2.470 -0.0868 -0.0313  0.3831
33123W        W47970   7.252   1.095  14.230  0.0544 -0.0218  0.2891
33124W        W47971   2.726  10.218  17.162  0.2457 -0.1354 -0.1493
33125W        W47972  10.966   3.574  12.534 -0.0748  0.0237  0.1981
33126W        W47973  11.964  14.575  17.226 -0.0622 -0.0033  0.1427
33127W        W47974  16.777  10.666   5.273  0.1926  0.0055 -0.3434
33128W        W47975  13.971   9.984  15.759  0.2980  0.3919  0.0808
33129W        W47976  13.103  14.170   5.788  0.1248  0.1225  0.1578
33130W        W47977   2.755  10.344   0.946  0.2236 -0.1308 -0.1236
33131W        W47978  12.492  14.896   5.306 -0.1322  0.2341  0.1243
33132W        W47979   3.822  11.585  16.573  0.0676 -0.1284  0.0705
33133W        W47980  17.399   5.306   0.320  0.0742 -0.0059 -0.1630
33134W        W47981  10.683   0.928   0.805  0.0461 -0.0827 -0.0360
33135W        W47982  12.082  14.101  13.630 -0.0596 -0.2740 -0.4343
33136W        W47983  10.312  14.545   4.350 -0.2196  0.3685 -0.1456
33137W        W47984   4.515  15.856  14.024 -0.0531  0.2036 -0.0282
33138W        W47985  10.500   4.563   4.760 -0.2577  0.0907  0.2316
33139W        W47986  10.925   8.721   2.417  0.2571 -0.1729 -0.0069
33140W        W47987   8.990  10.750  17.134 -0.2100 -0.0441  0.2106
33141W        W47988   1.020  13.800  15.932  0.0237 -0.0183 -0.3100
33142W        W47989  17.659   2.859  17.474 -0.2648  0.1529 -0.1086
33143W        W47990  17.227   4.085   5.434 -0.0847 -0.2181 -0.0883
33144W        W47991  10.128  15.583  13.993  0.0150  0.0321 -0.0099
33145W        W47992  10.166  11.693  12.095  0.2569 -0.3158  0.0815
33146W        W47993   6.724  17.159  17.403 -0.1052 -0.0962 -0.3461
33147W        W47994   5.962   9.568  16.564  0.2785  0.1833 -0.0530
33148W        W47995   0.855   1.047  15.224  0.1064 -0.1191 -0.1312
33149W        W47996   6.558  14.267   1.343 -0.0975 -0.0689  0.1100
33150W        W47997  16.266  15.934   3.580  0.3848  0.4265  0.0657
33151W        W47998   6.299  14.088  13.681  0.1918 -0.1085 -0.1918
33152W        W47999  15.525   9.023   5.614  0.1125  0.1832  0.0013
33153W        W48000   0.434   4.263  11.408 -0.1326 -0.1760 -0.1067
33154W        W48001   4.214   9.934  12.339  0.0640 -0.1693 -0.2464
33155W        W48002  12.875   7.866   3.549 -0.2680  0.4909  0.1587
33156W        W48003   2.276  12.140   0.152  0.0035  0.1244 -0.1213
33157W        W48004  17.214  12.234   5.533  0.0923 -0.0073 -0.2811
33158W        W48005  16.519   0.906   1.346  0.0761 -0.0846 -0.0935
33159W        W48006   6.384   7.668   2.381  0.0955 -0.0015  0.3179
33160W        W48007   9.008   3.017   1.186 -0.1763  0.0364 -0.1995
33161W        W48008  13.168  17.136   0.641 -0.2478 -0.0228 -0.1591
33162W        W48009   2.112   5.090   4.302 -0.0763  0.2030 -0.0329
33163W        W48010  14.011   7.522  12.682  0.0659  0.1000  0.1932
33164W        W48011  15.049  11.720  13.448 -0.1908  0.1354 -0.2294
33165W        W48012  10.803   9.708   0.997  0.0821  0.2339 -0.0471
33166W        W48013   2.115  13.888   5.939  0.0165  0.0318  0.1319
33167W        W48014  16.365   5.712  13.026  0.0184  0.0820  0.1111
33168W        W48015  13.253  12.544   5.718 -0.3120  0.1976  0.0168
33169W        W48016  17.196  17.523  17.274 -0.2556  0.5349  0.2374
33170W        W48017  14.082  12.282   5.616 -0.0575 -0.0275  0.0617
33171W        W48018   8.082  13.231  13.024 -0.0228 -0.1533 -0.2013
33172W        W48019  12.008  13.662   6.896 -0.1692  0.1391  0.1444
33173W        W48020  17.169   5.051   5.879 -0.1724  0.0480  0.1333
33174W        W48021   3.262  12.820   2.023 -0.1711 -0.0773 -0.2283
33175W        W48022  13.872   9.747  15.186  0.1254 -0.1430 -0.4646
33176W        W48023   0.181   7.557  16.923  0.1608  0.0410  0.4422
33177W        W48024   8.932  10.999  14.852 -0.4037  0.1203 -0.1915
33178W        W48025  15.395   4.788   5.203  0.0741  0.3628 -0.0932
33179W        W48026   1.682  15.400  17.181 -0.1248  0.0366  0.2443
33180W        W48027  11.990   5.482   4.674  0.0621 -0.1910  0.1233
33181W        W48028  17.564  15.697  15.666 -0.2890 -0.0866 -0.0278
33182W        W48029   2.813  16.862  15.233  0.0838  0.0065  0.2429
33183W        W48030   3.307  14.769   4.948 -0.0278  0.0258 -0.0394
33184W        W48031   8.125  17.617   5.107 -0.1308  0.5770 -0.0222
33185W        W48032  17.382  17.544  16.801 -0.0966  0.0571  0.1692
33186W        W48033   0.990  12.666   4.150  0.1672 -0.0576  0.1338
33187W        W48034  11.393   5.042   1.516 -0.0754 -0.1478 -0.0323
33188W        W48035  10.181  13.808  12.645  0.3312  0.2758 -0.2578
33189W        W48036  14.860   0.019   6.039  0.3239  0.1935 -0.0607
33190W        W48037   6.649   8.887   1.748 -0.0899  0.0338  0.0097
33191W        W48038   1.613   1.600  12.144 -0.0169 -0.2595  0.0653
33192W        W48039   6.815   9.743   1.135 -0.0356 -0.1885 -0.1395
33193W        W48040   8.090  17.403   2.719 -0.1061 -0.1239  0.2570
33194W        W48041   4.871   8.074  16.781  0.5028  0.0017 -0.0680
33195W        W48042  17.399   1.748   1.976  0.0730 -0.1167  0.1066
33196W        W48043   2.141   6.109   2.001  0.0519 -0.0343  0.1591
33197W        W48044   6.327   7.038  12.554 -0.2243 -0.0838 -0.1109
33198W        W48045   6.135   5.772  16.428 -0.0806  0.0150  0.0803
33199W        W48046  16.766   7.629   1.586  0.0658  0.0896 -0.1312
33200W        W48047   7.426   1.873  14.600  0.3144  0.2087 -0.2183
33201W        W48048   0.661  12.889  15.316 -0.2415 -0.0453  0.0505
33202W        W48049   0.964   3.416   2.778 -0.0721  0.4130 -0.3472
33203W        W48050   3.162   6.594  11.884 -0.0730  0.1638  0.3177
33204W        W48051  11.816   0.912  17.197  0.1989  0.0287 -0.5146
33205W        W48052  15.091   7.216   4.292 -0.0982 -0.4645 -0.1060
33206W        W48053   2.939  10.304   0.387  0.1915  0.1883 -0.0637
33207W        W48054  13.247  14.265   6.756 -0.1465 -0.2509  0.0290
33208W        W48055  16.643   3.598  15.137  0.3098  0.0329  0.2145
33209W        W48056  12.399   7.921  16.704  0.1066  0.1353  0.1567
33210W        W48057   0.440  12.119   2.801 -0.2194 -0.2552  0.3411
33211W        W48058   7.109   3.591   4.913  0.1149  0.1929 -0.4201
33212W        W48059   2.078  16.376  14.364  0.1336  0.1560 -0.1026
33213W        W48060   0.047   8.688   0.549 -0.0101  0.1636 -0.3497
33214W        W48061   2.266   0.948   4.014  0.0014  0.0295 -0.2124
33215W        W48062   2.449  11.992   5.714  0.0556  0.3107  0.0541
33216W        W48063  12.590  14.253   1.155 -0.0378 -0.0567  0.3606
33217W        W48064   4.740  15.643  17.216 -0.0711  0.0601  0.0032
33218W        W48065   8.531   0.732  16.758 -0.5224  0.0867  0.0763
33219W        W48066   5.282  14.562  15.488 -0.0811 -0.0596  0.2036
33220W        W48067  14.734   3.562  15.061  0.1082  0.1236 -0.1082
33221W        W48068   3.477   5.706   0.341 -0.2729  0.1638 -0.2544
33222W        W48069  14.717   9.164  13.053 -0.2028 -0.0023 -0.0841
33223W        W48070  14.715  10.138   3.088 -0.0017 -0.0948 -0.1079
33224W        W48071  14.947   2.846   1.738 -0.0097 -0.1057 -0.1329
33225W        W48072  14.196  12.933  12.651 -0.0966 -0.1795 -0.1384
33226W        W48073   4.668   5.939   6.634 -0.0683 -0.2064  0.0881
33227W        W48074   1.955   5.397   3.876  0.1501 -0.3855  0.3046
33228W        W48075  16.363  17.283   5.091  0.2868  0.1290  0.2159
33229W        W48076  10.943   8.146  14.587  0.0892 -0.0828  0.0758
33230W        W48077  16.950   3.053   1.738 -0.2185  0.0017 -0.0974
33231W        W48078  11.413  10.760  15.480 -0.2240 -0.1823  0.1426
33232W        W48079  12.512  15.298   6.382 -0.3196 -0.0746  0.1898
33233W        W48080   6.171   6.298   6.742  0.3894  0.2946  0.5552
33234W        W48081  10.921   8.569  12.831  0.0408 -0.1992  0.1170
33235W        W48082   8.198   6.597   2.760  0.1375 -0.1056 -0.0080
33236W        W48083   1.611  17.581  17.666  0.2447 -0.2234 -0.1010
33237W        W48084   7.533  17.505   4.288 -0.3872 -0.1789  0.0787
33238W        W48085   4.288   4.307  12.355  0.1788  0.0340  0.3780
33239W        W48086   7.231  13.543  11.829  0.1193  0.1474 -0.1804
33240W        W48087   1.172   0.666  12.272 -0.0830  0.1062 -0.1202
33241W        W48088   1.953  15.955   5.488 -0.4363 -0.1137 -0.2729
33242W        W48089   3.502   1.973   5.470  0.0488  0.0180  0.1884
33243W        W48090   6.924  15.907   2.820 -0.0468  0.0439 -0.0584
33244W        W48091   9.395   4.396  14.965 -0.0304 -0.0600  0.0838
33245W        W48092   7.175   3.264   3.124 -0.0171  0.0760  0.3548
33246W        W48093   8.789   2.643   3.009 -0.1089 -0.0655  0.0312
33247W        W48094   5.575   7.523  17.665 -0.1608 -0.0751  0.0840
33248W        W48095   4.908   7.361   4.082 -0.0954  0.1556 -0.3076
33249W        W48096  15.458   9.360  16.903  0.1377  0.2269  0.0422
33250W        W48097  14.129   7.655  13.167  0.0638 -0.0186  0.0337
33251W        W48098   4.959   3.155  12.228 -0.2175 -0.2931  0.0547
33252W        W48099   5.465   9.719   4.666  0.0543 -0.1456 -0.2868
33253W        W48100  14.797  17.034   1.265  0.0502  0.2676 -0.0943
33254W        W48101   1.349  17.587   3.150 -0.1138 -0.2605 -0.3246
33255W        W48102   3.028   0.647   1.557 -0.1726 -0.1359 -0.0658
33256W        W48103   7.175   0.197  15.481 -0.1486 -0.2242 -0.1551
33257W        W48104  12.257   4.071   2.964  0.0552  0.1860 -0.0226
33258W        W48105   6.269   0.308   6.774 -0.0746 -0.4433  0.0057
33259W        W48106  16.532  13.958   5.098  0.2007  0.0364 -0.1006
33260W        W48107   4.778  10.611   4.788 -0.1059 -0.0444 -0.2011
33261W        W48108   0.978   6.522  17.500 -0.0942  0.0315  0.2717
33262W        W48109   4.743   3.586   2.014  0.0108 -0.0099  0.1309
33263W        W48110   5.032  16.473   4.764  0.0819 -0.0756  0.0228
33264W        W48111  15.719  13.401  13.543 -0.0289 -0.0692  0.2195
33265W        W48112   9.911   7.435  13.259 -0.1221 -0.0898 -0.1374
33266W        W48113   7.770  13.171   3.471 -0.3286  0.1018  0.1000
33267W        W48114   0.836   5.275  13.232 -0.0758 -0.2597 -0.1786
33268W        W48115  16.577   7.505  17.006 -0.2954  0.0029 -0.6581
33269W        W48116   4.225  10.550  17.336  0.0836  0.0123  0.1598
33270W        W48117   5.070   0.227   5.519  0.1224 -0.0931 -0.0252
33271W        W48118   4.034  14.052   3.370 -0.0204 -0.1759  0.0585
33272W        W48119  11.257   2.475   2.951 -0.1500  0.1227  0.0746
33273W        W48120   5.923  12.918   4.021 -0.1339 -0.1813 -0.0510
33274W        W48121   8.345   5.913   6.409 -0.0398  0.3147 -0.0019
33275W        W48122   6.722  16.515   6.557 -0.0615  0.3088  0.2814
33276W        W48123   3.803   1.858   4.165  0.1529  0.1735 -0.0687
33277W        W48124   1.673  14.684   6.380 -0.0209 -0.1477 -0.1103
33278W        W48125  11.854   4.376   3.236 -0.1134  0.0236  0.2942
33279W        W48126  10.718   0.314   3.084  0.2095  0.1820 -0.1248
33280W        W48127   0.058   3.172  13.805  0.0324  0.0707 -0.1368
33281W        W48128   8.792   0.470   5.691  0.1081  0.2503  0.1356
33282W        W48129   6.598  11.538  17.521  0.1983 -0.0977 -0.3659
33283W        W48130  17.425  10.266  11.634 -0.2730 -0.1689 -0.1800
33284W        W48131   4.947   1.842   0.637  0.1718  0.3177  0.1889
33285W        W48132   0.483   3.112   2.912 -0.0717  0.0074  0.3076
33286W        W48133  13.182  17.190   5.634  0.0978 -0.3083 -0.2587
33287W        W48134   8.978   1.677   3.346  0.0745  0.1605  0.0491
33288W        W48135   2.548  14.767   6.013  0.0655  0.0662 -0.3825
33289W        W48136  12.293   6.077  15.659  0.0745 -0.2168  0.0508
33290W        W48137  13.937   4.800  12.153  0.2786 -0.1228  0.4352
33291W        W48138  11.562  12.873   2.242  0.1237 -0.1627  0.1476
33292W        W48139  10.939  11.812   3.145 -0.2703  0.0325  0.0662
33293W        W48140  10.720   2.424  15.222  0.0692  0.0293  0.2924
33294W        W48141  11.437   7.743   2.724 -0.0016 -0.1205  0.2464
33295W        W48142  16.726   8.204   5.070  0.1647  0.1673 -0.0529
33296W        W48143  11.003  10.969  17.148 -0.0538  0.0192 -0.0878
33297W        W48144   2.308  10.060  16.547 -0.0066 -0.3908 -0.0860
33298W        W48145  17.582   6.165   6.909 -0.0603  0.1165  0.0907
33299W        W48146  11.898   3.591  14.195 -0.2158  0.1587  0.0703
33300W        W48147   1.665  12.213   3.765 -0.0353 -0.2329  0.2128
33301W        W48148   1.625   4.463  14.408 -0.2488  0.1477 -0.1089
33302W        W48149   6.601   7.708   1.130  0.1915  0.1265  0.2895
33303W        W48150  13.904  14.575  15.180  0.0690 -0.1021  0.3196
33304W        W48151  10.062   6.742   2.693 -0.2554 -0.0576 -0.2851
33305W        W48152   4.215   9.434   2.393 -0.2075  0.0496  0.1171
33306W        W48153   4.391   2.987  13.640 -0.2207  0.0605  0.1681
33307W        W48154  16.713   4.600  16.306  0.1925  0.2915  0.0873
33308W        W48155   3.353   7.412  12.541 -0.4216  0.1389 -0.3423
33309W        W48156  16.107   9.427  13.078 -0.3593  0.3449  0.2952
33310W        W48157  17.380   2.626   3.403 -0.0711  0.0832 -0.0771
33311W        W48158   5.376   1.447  17.067 -0.3377 -0.1636 -0.1598
33312W        W48159  14.269   5.977  13.059 -0.1394 -0.1984  0.3670
33313W        W48160   7.420  12.446  16.843 -0.0425  0.2248 -0.0635
33314W        W48161  11.377   2.513   1.137  0.1428  0.1578  0.0726
33315W        W48162  12.291   2.655  16.874 -0.0940 -0.1030  0.1597
33316W        W48163   5.307   4.293  14.320 -0.2854 -0.1229 -0.1855
33317W        W48164   1.838  13.017   5.143  0.0223  0.1427  0.0786
33318W        W48165  12.650  17.124  17.451 -0.1100 -0.2780  0.1728
33319W        W48166   3.479   0.952  13.161 -0.1523 -0.0573 -0.0761
33320W        W48167   2.272   8.011   5.138  0.0889 -0.0066  0.0151
33321W        W48168   8.115  10.900  14.473 -0.1117 -0.0263  0.1720
33322W        W48169   3.588   0.014   5.896 -0.0572  0.0692 -0.0533
33323W        W48170   3.591   4.721  15.477  0.0818  0.3117  0.0686
33324W        W48171  13.810   3.817  11.649  0.1534 -0.0012  0.0820
33325W        W48172  13.711   3.935   4.565 -0.0723 -0.1484 -0.1768
33326W        W48173  10.819   3.180  13.072  0.1085 -0.1732 -0.0982
33327W        W48174  10.532   6.145   1.425 -0.0841 -0.0132 -0.0472
33328W        W48175  15.486   1.033   4.239 -0.1378 -0.1946  0.1757
33329W        W48176   0.263   1.686  13.875  0.1026  0.3514 -0.0992
33330W        W48177  12.848  11.375  17.265  0.0516 -0.1847  0.0893
33331W        W48178  12.026   3.083   0.917 -0.4717  0.2562 -0.0719
33332W        W48179   3.190  12.072   4.764  0.0064  0.1889 -0.2187
33333W        W48180   5.091   2.591  10.689 -0.0491 -0.0378  0.0373
33334W        W48181  10.062  10.900   4.244 -0.0469 -0.0666  0.1136
33335W        W48182  15.375   4.322  16.830 -0.0246 -0.0503  0.2050
33336W        W48183   1.924  15.797  12.377  0.2623  0.0349 -0.0054
33337W        W48184   5.013  11.821  14.640 -0.2023 -0.0866  0.1858
33338W        W48185  15.689   0.958  12.792 -0.1044 -0.0325  0.0884
33339W        W48186   5.652  16.322  15.562 -0.0872 -0.3382  0.1070
33340W        W48187  17.439  10.767  15.505 -0.1162  0.1337 -0.1415
33341W        W48188  14.749   1.423  16.492 -0.0885  0.3185  0.0048
33342W        W48189  14.413   5.728  14.279  0.1671  0.1001 -0.3715
33343W        W48190   5.996   2.111   5.873 -0.2111 -0.2065 -0.4108
33344W        W48191  10.098   3.054   2.049  0.0709  0.2267  0.0624
33345W        W48192  16.592   0.768   1.835  0.0707 -0.1896  0.0729
33346W        W48193   1.667  15.259   5.379  0.2395  0.0654  0.1370
33347W        W48194  15.313   2.567  16.726 -0.2078 -0.0827  0.1137
33348W        W48195   8.397   5.924  14.416 -0.2730  0.1467 -0.0571
33349W        W48196   7.140  15.789   2.365  0.1255 -0.0274  0.2470
33350W        W48197  13.750  12.652   4.963 -0.1328 -0.0411  0.1437
33351W        W48198   9.236  10.040   3.589 -0.1604 -0.2965  0.3477
33352W        W48199   3.415   3.929  13.522  0.2474  0.4918  0.4489
33353W        W48200  14.964   7.936  13.376  0.2787  0.0338  0.2053
33354W        W48201  12.171  11.882   2.572 -0.1057 -0.1275 -0.1244
33355W        W48202   2.273  14.442  16.090 -0.0921 -0.0282 -0.0186
33356W        W48203   4.120   5.523  15.672  0.1185 -0.1100  0.0337
33357W        W48204   8.316   9.721  11.674  0.5547 -0.0604 -0.2277
33358W        W48205   7.081  15.603   5.804  0.2842 -0.3899  0.1009
33359W        W48206   8.692   4.937  13.739 -0.1003  0.0116 -0.0876
33360W        W48207  17.102   7.449   2.858  0.2679  0.0801  0.0706
33361W        W48208  12.932  17.634   3.276  0.0649 -0.3299  0.0074
33362W        W48209  10.777   9.518   3.297 -0.1364 -0.1266  0.1292
33363W        W48210  15.187   1.773   5.868 -0.0085  0.1386 -0.0337
33364W        W48211   3.581   4.649   3.550 -0.0975  0.1275  0.0139
33365W        W48212   3.379  14.413  16.869  0.1969  0.2563 -0.1067
33366W        W48213   0.259   1.816   3.610  0.2390  0.0288  0.1332
33367W        W48214   6.718   4.669   2.293  0.0113  0.0370  0.3471
33368W        W48215   1.405  14.975   5.017 -0.3346  0.0711  0.0919
33369W        W48216  12.701  12.715   1.779 -0.0090  0.1338 -0.2271
33370W        W48217   0.682   6.641   2.208 -0.1114 -0.1085 -0.0106
33371W        W48218  16.351  13.793  16.782  0.1593  0.1642 -0.1394
33372W        W48219   4.489  17.000  12.688  0.1514 -0.0094  0.1829
33373W        W48220   7.648  17.185   1.936  0.0791 -0.3120  0.2015
33374W        W48221   9.629   1.038  15.456  0.3024 -0.1907 -0.2300
33375W        W48222   1.345   5.793  14.424  0.0255 -0.0284  0.1753
33376W        W48223  14.722   7.210  15.951  0.2158  0.0349  0.2051
33377W        W48224   2.555   8.510  16.868 -0.1204 -0.2733 -0.0993
33378W        W48225   0.663   3.229   4.670  0.0755  0.3444 -0.3061
33379W        W48226  17.290  14.463   4.623  0.0347 -0.0875 -0.2839
33380W        W48227  12.360  16.924   6.012  0.0427 -0.2801 -0.2927
33381W        W48228   2.140   6.408  14.257  0.1843 -0.0184 -0.0998
33382W        W48229  16.284   0.926  16.707 -0.0041 -0.2054  0.0622
33383W        W48230  11.281   8.788   0.072  0.2424 -0.1622 -0.0726
33384W        W48231   7.677  16.723  16.486 -0.2319 -0.1739 -0.0753
33385W        W48232  10.497  16.659  17.284 -0.0799  0.1114 -0.4330
33386W        W48233  12.645   8.276  17.149 -0.1699  0.0080  0.0489
33387W        W48234   2.624   8.543   0.870  0.3611  0.1654  0.0075
33388W        W48235  14.111   2.350   5.565  0.4187  0.1230  0.2635
33389W        W48236  10.491  10.825  12.182 -0.1808  0.0658 -0.2502
33390W        W48237   5.350   5.150  13.470  0.4696 -0.2141  0.3416
33391W        W48238  15.798   3.471  15.286 -0.1347  0.1153  0.1907
33392W        W48239   1.468  12.558  14.033 -0.0523  0.0677 -0.0235
33393W        W48240   3.286   6.234  14.574  0.1193  0.1093  0.1143
33394W        W48241  15.637  11.760  15.425 -0.0179  0.1194 -0.1402
33395W        W48242   8.501   0.707   2.244  0.0857 -0.0877 -0.1240
33396W        W48243  12.957  15.529   4.637 -0.1806  0.1431  0.3857
33397W        W48244   1.416   8.920  14.891 -0.3807  0.1915 -0.1171
33398W        W48245   8.644  13.988   1.940 -0.0645 -0.1037 -0.1966
33399W        W48246   1.379  11.076   4.188 -0.1176 -0.1037 -0.0373
33400W        W48247   7.450   4.762   0.210 -0.1893 -0.0514 -0.1389
33401W        W48248   6.010   2.851   2.025 -0.1234  0.1826  0.2258
33402W        W48249   7.797   4.850   5.119 -0.3147  0.1290 -0.0651
33403W        W48250   9.990   0.005   6.434 -0.0266 -0.1311  0.3191
33404W        W48251  12.920  15.391  16.542 -0.0494 -0.0285 -0.1666
33405W        W48252   9.383   7.302  11.847  0.1985  0.2321  0.3074
33406W        W48253   0.497   2.704  14.926  0.1170 -0.0325  0.0777
33407W        W48254   3.513   7.643   1.181  0.2345  0.0583 -0.1892
33408W        W48255  14.997  17.372   1.581 -0.2270  0.1694  0.2785
33409W        W48256   9.230   3.752  12.280  0.3006 -0.0286 -0.0163
33410W        W48257  17.613  11.462   2.477 -0.0663 -0.4010  0.1971
33411W        W48258  12.067  16.826  12.920  0.0081  0.0633  0.1487
33412W        W48259  11.150  17.008  14.791  0.0805 -0.0317 -0.1823
33413W        W48260   7.769   6.531   2.449  0.0541 -0.1118  0.0362
33414W        W48261  11.150   4.141  17.268  0.0481 -0.1072  0.0852
33415W        W48262  14.220   6.669  16.964 -0.0336  0.5742  0.1467
33416W        W48263  10.896   9.912   1.869  0.0645 -0.1938  0.0542
33417W        W48264   6.270  17.159   1.415 -0.2398  0.3916 -0.1165
33418W        W48265  15.224  13.774  16.688  0.2235  0.0014 -0.1420
33419W        W48266   5.366  15.702  14.226 -0.2651 -0.1376  0.3387
33420W        W48267  15.410  17.449   4.014 -0.1168  0.3642  0.0818
33421W        W48268  16.532   1.701  16.125  0.2410 -0.1438 -0.1014
33422W        W48269   8.237   3.365   5.984 -0.0535  0.0067  0.1173
33423W        W48270   3.261  11.068  16.638 -0.0059  0.2187 -0.2026
33424W        W48271   0.514   2.805  17.011 -0.2030 -0.0549  0.2810
33425W        W48272   7.742   0.502   3.004  0.3041  0.2189 -0.4394
33426W        W48273  11.548   1.198   1.321  0.1648 -0.0322 -0.0862
33427W        W48274  12.288  15.241   1.371  0.1272 -0.0160 -0.0015
33428W        W48275   9.185  16.025  17.058  0.3675 -0.1350 -0.0396
33429W        W48276  16.975   4.481  13.557  0.0409  0.3352  0.0566
33430W        W48277  13.612   2.340  16.570 -0.1037 -0.2159 -0.0864
33431W        W48278  10.798   6.423   5.116 -0.1365  0.0257 -0.0423
33432W        W48279   1.034  16.788   1.559 -0.3122  0.0048 -0.0218
33433W        W48280   0.967  14.951   1.257 -0.3011  0.0054  0.3331
33434W        W48281  17.078   1.970   4.858 -0.1287  0.1479  0.1577
33435W        W48282   9.041  11.465   6.213 -0.2378 -0.1728 -0.1601
33436W        W48283  10.834  14.200   3.142  0.1576 -0.2011  0.1003
33437W        W48284   2.209  15.620   3.428  0.0515 -0.0592  0.2380
33438W        W48285  13.379  15.727   4.886 -0.5316 -0.0205 -0.5145
33439W        W48286   7.391  14.017   3.876 -0.0992  0.0584 -0.2583
33440W        W48287  12.348   6.990   2.970 -0.3311  0.0859  0.1762
33441W        W48288   6.973  13.065   5.464 -0.4533 -0.0901 -0.0625
33442W        W48289   3.799   6.333  14.592 -0.0900 -0.1349  0.2066
33443W        W48290   8.779  16.090   4.136  0.1104  0.0800 -0.1884
33444W        W48291  12.535  15.347   5.476  0.3606 -0.3868  0.3903
33445W        W48292   4.030   7.642  11.497  0.0021 -0.1720 -0.4333
33446W        W48293  15.914  12.264  16.476 -0.1314  0.0814  0.1398
33447W        W48294  13.500  16.328  13.555  0.0714 -0.1469  0.0010
33448W        W48295  16.386  12.327  17.389 -0.1859 -0.2757 -0.1232
33449W        W48296  11.139  17.252   5.512 -0.0512 -0.2704 -0.1102
33450W        W48297   4.935  10.042   3.924 -0.2308  0.1491  0.0673
33451W        W48298  16.082   3.798  16.847 -0.2360  0.2217 -0.1791
33452W        W48299   4.714   1.606  13.472  0.1917 -0.3419 -0.0063
33453W        W48300   0.225  12.357  16.996  0.1728 -0.0259  0.2279
33454W        W48301   5.953   6.229  15.585 -0.0275  0.0856  0.1067
33455W        W48302   9.162   6.631  13.560  0.0111 -0.0052 -0.0493
33456W        W48303  14.842   5.273  15.470  0.1860  0.0251 -0.2752
33457W        W48304   5.045  14.864   5.821 -0.4782  0.2760 -0.1674
33458W        W48305  12.420   1.313   5.821  0.0957  0.2287 -0.2177
33459W        W48306  11.371  10.006   4.719  0.1826  0.3210 -0.0518
33460W        W48307  16.245  10.454   4.720 -0.3606 -0.1663  0.0171
33461W        W48308  13.822  11.371   5.911 -0.1066 -0.0982  0.2132
33462W        W48309  10.136   4.877  15.203 -0.5213 -0.0738 -0.1881
33463W        W48310  11.940   1.818  16.926  0.0261  0.1821  0.2845
33464W        W48311   5.589  12.003  15.406 -0.0430  0.0823  0.0539
33465W        W48312  17.240   0.292   0.220 -0.4923 -0.0204 -0.0544
33466W        W48313  11.160   4.715   3.746 -0.1546  0.3354  0.1300
33467W        W48314  11.707   0.255  14.956  0.1066 -0.0787 -0.3087
33468W        W48315  12.936   3.904   4.156 -0.0742  0.2746  0.3448
33469W        W48316   3.980   2.921   0.456 -0.2386  0.2319  0.1349
33470W        W48317  12.326  13.206  13.687 -0.1325 -0.0426 -0.2391
33471W        W48318   4.168   7.980   3.550  0.0334  0.1389 -0.0108
33472W        W48319   8.329  14.143   4.495 -0.2164  0.1432 -0.1369
33473W        W48320   1.871   2.514  13.508 -0.0671 -0.0561  0.1507
33474W        W48321   8.824  10.205   1.369 -0.1156 -0.1080 -0.0265
33475W        W48322   2.470   3.992  12.674 -0.0826  0.2827 -0.0433
33476W        W48323   0.195   1.207   0.273  0.4034 -0.3812 -0.1390
33477W        W48324  13.685   6.492   0.943 -0.0391  0.2311 -0.0404
33478W        W48325  12.817   1.313   3.855 -0.0005  0.0262 -0.2293
33479W        W48326  14.011   1.304  17.090 -0.0955  0.2981 -0.3377
33480W        W48327  17.611   2.647   4.574 -0.0860  0.5597 -0.0092
33481W        W48328   2.805   6.792   3.058  0.1918  0.3507  0.1807
33482W        W48329   7.765  11.914  15.085 -0.1784 -0.2069 -0.3046
33483W        W48330   7.937  15.672  16.371  0.3698  0.0864  0.0517
33484W        W48331  14.888   5.583   5.286  0.0285  0.0625 -0.1420
33485W        W48332   0.848   5.179   5.049  0.3014 -0.0241 -0.1142
33486W        W48333  13.278  10.898  15.502  0.1516  0.0907 -0.0848
33487W        W48334   9.219   1.720   6.029  0.1930  0.2509 -0.0733
33488W        W48335   8.640   7.229  13.290 -0.0778 -0.0756 -0.0715
33489W        W48336  14.734  15.327   4.357  0.0986 -0.0985  0.3252
33490W        W48337  10.340   9.699   5.679 -0.2023  0.0774 -0.0328
33491W        W48338   5.425   2.644   0.389 -0.1853 -0.3521  0.0568
33492W        W48339   2.110   1.092   5.005  0.1379  0.1189  0.0834
33493W        W48340   6.239  17.524  15.947 -0.2273  0.1406 -0.0471
33494W        W48341  15.905   4.317   3.592 -0.0804 -0.2219 -0.5517
33495W        W48342   7.530   1.421   2.151 -0.4134  0.1881  0.0556
33496W        W48343  15.619  15.755   1.183  0.3795 -0.3229 -0.0379
33497W        W48344  12.912  10.687   4.439 -0.1032  0.4015 -0.1604
33498W        W48345   2.592   1.925   0.846  0.3812  0.2110 -0.1110
33499W        W48346  11.945  13.351   1.392 -0.2282 -0.2742  0.1165
33500W        W48347  14.747   0.760   0.998  0.2664  0.2026  0.0493
33501W        W48348   7.184   2.479  14.463 -0.0313  0.0505  0.0431
33502W        W48349  11.513   9.925  13.490  0.1212 -0.0055 -0.0098
33503W        W48350  11.465   5.247  17.396 -0.1378 -0.0870  0.2157
33504W        W48351  15.819   9.530  14.562  0.1774 -0.0295  0.1504
33505W        W48352   7.069   5.323   3.117 -0.0424 -0.0143  0.0575
33506W        W48353  11.492  16.028   5.560 -0.3644 -0.1081  0.0261
33507W        W48354  16.531  16.834   6.255 -0.1340 -0.0136  0.0723
33508W        W48355   0.634   8.800  12.623 -0.0303  0.3462 -0.2716
33509W        W48356   2.909   3.830   1.781 -0.3043 -0.0547  0.2925
33510W        W48357   9.249   3.714  16.779 -0.3707 -0.0528 -0.1192
33511W        W48358  11.496  11.059  14.005  0.1394 -0.0799  0.0428
33512W        W48359  12.200  10.348  11.256 -0.1929  0.2458 -0.1145
33513W        W48360   6.686   6.583   3.371  0.2381 -0.0785 -0.0829
33514W        W48361   3.586   1.140  14.605 -0.0785 -0.0769  0.1393
33515W        W48362   7.960  14.143  15.406  0.0688  0.1548  0.0833
33516W        W48363   6.690  14.169  12.132  0.2193  0.4733 -0.1574
33517W        W48364   5.571   2.678   2.747 -0.2892 -0.1021 -0.1401
33518W        W48365   6.983   8.672  15.207 -0.2098  0.0256  0.1082
33519W        W48366   1.058  12.133   0.286  0.1466 -0.1533 -0.0184
33520W        W48367  14.364  17.274  16.014  0.2050 -0.0449  0.0646
33521W        W48368  15.386   0.867   6.023  0.3291 -0.1601  0.3891
33522W        W48369  16.050   8.073   0.954  0.1933  0.1666 -0.0179
33523W        W48370  10.962  15.731   3.549 -0.0153  0.1995 -0.1122
33524W        W48371   4.321   3.137   2.712  0.3805  0.2272 -0.1024
33525W        W48372   7.694   9.775   2.464 -0.0113  0.2023 -0.3335
33526W        W48373   6.270   1.241  15.495  0.0406  0.2666 -0.1716
33527W        W48374   6.855   2.115  11.503  0.0444  0.0744  0.1902
33528W        W48375   5.756   6.254  11.167  0.2466  0.2882 -0.0238
33529W        W48376   2.194  12.558   1.459  0.0680  0.3049 -0.0369
33530W        W48377  13.642   7.661   0.022  0.1206 -0.0339 -0.0862
33531W        W48378   8.412  15.975   1.768  0.3605 -0.3082  0.1344
33532W        W48379   7.674  14.549   0.374  0.1990 -0.3950 -0.2168
33533W        W48380  15.058   9.542  16.038 -0.3517  0.2977 -0.0378
33534W        W48381  14.899   0.484  16.551 -0.0251 -0.1297 -0.2373
33535W        W48382   5.459   2.139   4.926  0.1127 -0.1668  0.0227
33536W        W48383   8.594   4.892  16.026  0.1523  0.2088  0.1710
33537W        W48384   4.821  12.253  17.352  0.0022 -0.1341  0.1958
33538W        W48385   8.156   6.709  12.449  0.2119 -0.0717 -0.0901
33539W        W48386   1.082  16.088   2.213 -0.2098  0.0687 -0.3418
33540W        W48387  12.367  17.514   5.436 -0.1556 -0.5300 -0.1815
33541W        W48388  15.438  14.490   3.407 -0.0751 -0.1888  0.0198
33542W        W48389  17.397  14.182  16.688 -0.0432  0.0487  0.1053
33543W        W48390   8.760   1.507  13.994  0.2412  0.0017 -0.1178
33544W        W48391  15.575  16.803  12.970 -0.1233 -0.1845  0.0069
33545W        W48392  10.080   9.161  17.437  0.3086  0.1441  0.0757
33546W        W48393   4.444   3.675  15.239  0.1700 -0.2473  0.0295
33547W        W48394  12.445  14.117  15.437 -0.0715 -0.1832  0.0317
33548W        W48395   6.179   3.884   2.469  0.3885  0.2101 -0.2823
33549W        W48396   2.737   3.219  12.520 -0.0915 -0.3797  0.0179
33550W        W48397   4.948  14.848   1.777 -0.1840 -0.1178  0.3424
33551W        W48398   0.101  11.219   4.689 -0.0103 -0.2653  0.1548
33552W        W48399   6.413  11.148  15.635 -0.0199  0.0840 -0.0039
33553W        W48400   2.456   3.526  16.590 -0.1327 -0.3525  0.0572
33554W        W48401  11.563   8.758  16.272 -0.0164 -0.1101 -0.2751
33555W        W48402   3.728   9.342  11.912  0.0399  0.0372 -0.1358
33556W        W48403  11.871  16.740  17.592 -0.2344 -0.4865  0.0363
33557W        W48404  13.940   4.701   4.500 -0.2723  0.0255  0.0658
33558W        W48405  17.510   8.380  13.836 -0.2331 -0.1708  0.0618
33559W        W48406   6.557  11.218  10.727  0.1791  0.0144  0.0135
33560W        W48407   9.879   9.085   2.905 -0.3576 -0.0171 -0.0108
33561W        W48408   7.460   0.541  17.605  0.1132 -0.0434 -0.2411
33562W        W48409   3.313   2.020  15.032  0.1954 -0.3425  0.0886
33563W        W48410   4.101  10.038   3.471 -0.1383 -0.0336 -0.0678
33564W        W48411   4.875  16.142   2.089 -0.1173  0.0042  0.1549
33565W        W48412   7.419   0.925   3.775 -0.4141  0.2367 -0.3818
33566W        W48413   8.311  16.843  12.641  0.0126  0.0078  0.2834
33567W        W48414  14.066  13.141   5.599 -0.1231 -0.3089 -0.0317
33568W        W48415   9.219  12.138  14.069  0.5056 -0.1990 -0.1071
33569W        W48416  17.126   9.121  14.460  0.2350 -0.1454 -0.2760
33570W        W48417  10.622  14.833  12.879 -0.1043 -0.3564  0.0392
33571W        W48418   8.529  17.300   4.073  0.3465 -0.2629 -0.4259
33572W        W48419   0.597   4.248   6.250 -0.0828 -0.1096  0.1131
33573W        W48420  10.461  12.365   6.230  0.0638 -0.1687  0.0154
33574W        W48421   6.942   9.308   2.469  0.2174  0.2198  0.0048
33575W        W48422   4.411  17.557   5.400 -0.0539  0.0596 -0.2198
33576W        W48423   9.727   9.595  13.936  0.2091  0.2169 -0.1597
33577W        W48424   6.929   4.811  11.715  0.3697  0.3994 -0.1452
33578W        W48425  14.859   5.064   1.303 -0.0414 -0.1085 -0.0332
33579W        W48426  15.619   2.779   1.451  0.4001 -0.1349 -0.2241
33580W        W48427  17.034  11.152  17.665  0.1082  0.3532 -0.4670
33581W        W48428  12.558   7.540  17.011 -0.1089 -0.2341  0.0942
33582W        W48429  11.721   9.984  16.230  0.0965  0.2282  0.1146
33583W        W48430  12.358   0.971   0.700 -0.0899 -0.3078 -0.0777
33584W        W48431   1.181   3.998  13.790  0.2925 -0.0252 -0.1284
33585W        W48432   7.628  16.659  17.187 -0.2676 -0.2079  0.1416
33586W        W48433  17.410  10.182  15.386  0.0203 -0.1605  0.2360
33587W        W48434  13.465  14.764  17.004 -0.3282 -0.0507  0.2683
33588W        W48435   4.134   9.163   3.966 -0.0864  0.0758  0.1176
33589W        W48436   1.481  15.718   4.600 -0.0679 -0.0713 -0.1084
33590W        W48437  14.500   8.147   6.325 -0.1655 -0.4397 -0.3208
33591W        W48438   7.510  12.865   4.708 -0.0640  0.1144  0.0703
33592W        W48439  15.773  15.821   0.267  0.3797 -0.0336  0.0428
33593W        W48440  11.806  16.358   2.769  0.2251 -0.1263  0.0987
33594W        W48441   8.895   8.559  16.317  0.2634  0.2771 -0.0291
33595W        W48442   3.224  12.984  15.530  0.2184  0.2032  0.2861
33596W        W48443  15.256  11.961   3.195  0.2920  0.1622 -0.1364
33597W        W48444   5.149   7.686  16.500  0.0220  0.0109 -0.0280
33598W        W48445  10.932   7.116   2.498  0.0350 -0.0922 -0.1218
33599W        W48446  14.016   8.124  11.997  0.1514 -0.0424  0.1009
33600W        W48447   6.596  11.946  13.396 -0.2988 -0.0485  0.2286
33601W        W48448   5.621  14.754  15.857 -0.4059  0.1531  0.2486
33602W        W48449   2.462   3.612   1.422 -0.1832  0.4280  0.0661
33603W        W48450   8.999   5.842   4.430  0.1397  0.0397  0.1378
33604W        W48451  11.259  15.976  15.276  0.1172  0.2454  0.1497
33605W        W48452   7.377  13.802   2.983 -0.1012  0.4385  0.1617
33606W        W48453   9.535   1.515  16.733 -0.3172 -0.3809 -0.1486
33607W        W48454   6.658   6.942  16.494 -0.0590 -0.1799  0.0899
33608W        W48455   9.504   2.564   2.566  0.0865 -0.0666  0.0651
33609W        W48456   0.108   6.062  14.187 -0.0206  0.0221  0.0277
33610W        W48457  16.793   0.736  15.620 -0.0539 -0.1667  0.1673
33611W        W48458  13.253  13.244   0.139 -0.0411 -0.0668 -0.0290
33612W        W48459   8.518  14.687   5.330  0.3084  0.0805 -0.0858
33613W        W48460  14.127   8.792  12.816 -0.1751 -0.0965 -0.0944
33614W        W48461  17.588  16.863  16.209 -0.1650  0.2348  0.3071
33615W        W48462   4.832  12.517   5.367 -0.0022 -0.4217  0.2258
33616W        W48463  11.558   2.823   2.823 -0.1466 -0.0480  0.4936
33617W        W48464  11.022   8.807  13.829  0.2757  0.3394 -0.1638
33618W        W48465   9.267  13.535   6.611 -0.2309  0.0909 -0.0117
33619W        W48466   9.893   8.782  13.438 -0.0428  0.2040 -0.1154
33620W        W48467  15.968  10.243  16.758  0.0430 -0.2210  0.0503
33621W        W48468   7.021   2.994  12.895 -0.1123 -0.3330  0.3382
33622W        W48469   8.860   9.286  13.513  0.2756 -0.1315 -0.0138
33623W        W48470   8.104  12.994   1.229 -0.1056  0.3427  0.1665
33624W        W48471  10.967  12.321  14.179  0.2012 -0.3524 -0.1294
33625W        W48472   5.393   4.217  17.484  0.0823 -0.1619 -0.0329
33626W        W48473  15.982   8.667  15.046  0.1639 -0.4684  0.2010
33627W        W48474  11.854   6.476   1.445 -0.1338 -0.0725  0.4186
33628W        W48475   7.824  12.201  16.039 -0.0406  0.1510 -0.4921
33629W        W48476  12.301   4.270   2.317 -0.2102 -0.0239  0.2278
33630W        W48477   1.669  13.277   1.707  0.0011  0.0227 -0.0593
33631W        W48478  14.373  14.662   0.210  0.1244  0.1972  0.1121
33632W        W48479  12.599  15.981   3.409 -0.1217 -0.1568 -0.1116
33633W        W48480  15.205  13.349   0.183 -0.0640 -0.2847 -0.0100
33634W        W48481   5.339   8.415  13.446 -0.1891  0.2185  0.0909
33635W        W48482   6.285   8.056  13.602  0.2467 -0.3776 -0.0178
33636W        W48483   2.099   3.387   5.884  0.3142  0.1233  0.0764
33637W        W48484  16.428   5.122   5.553  0.1217 -0.2102  0.4125
33638W        W48485  12.588  10.223   6.770  0.0658 -0.1073 -0.1963
33639W        W48486  16.787  14.395   1.643  0.0201  0.0869  0.3176
33640W        W48487  15.890   7.969  15.859 -0.1490 -0.0841  0.0984
33641W        W48488  17.318  12.334  12.780  0.1137  0.0571  0.0870
33642W        W48489   1.658   6.488   5.197 -0.1680 -0.1108  0.2320
33643W        W48490   2.373  12.014   2.940 -0.0288 -0.0650  0.1293
33644W        W48491  13.808  12.765  12.987 -0.1192  0.0851 -0.1472
33645W        W48492   8.592   8.638  12.846  0.0878 -0.0746 -0.1107
33646W        W48493   1.820  10.374  11.739  0.0959  0.0178  0.0689
33647W        W48494  15.829  16.177   3.536  0.0189 -0.0611  0.0229
33648W        W48495  17.262   7.418   3.752 -0.1064  0.0295  0.2318
33649W        W48496  16.971   1.498   4.808  0.0221  0.1137 -0.2666
33650W        W48497   2.048   5.573   5.946  0.1230 -0.1189  0.1911
33651W        W48498   4.134   0.975   5.545  0.4206 -0.2283 -0.2667
33652W        W48499   8.582   1.250  16.650 -0.4740  0.3743 -0.1198
33653W        W48500   6.958   8.068  13.327  0.1001  0.1107  0.0680
33654W        W48501  10.660   6.329   0.456 -0.0594  0.2577  0.1555
33655W        W48502   4.426   2.385   1.203  0.1342 -0.3500  0.1435
33656W        W48503  14.369   5.300  14.015  0.1537 -0.3442  0.0409
33657W        W48504  14.338  10.576   5.508  0.1199  0.3003 -0.0283
33658W        W48505  15.091   0.898  14.270 -0.2897  0.0496  0.0411
33659W        W48506   4.891  12.224   4.463 -0.0699  0.1720  0.0808
33660W        W48507  15.531   7.784   2.256  0.1765 -0.0094  0.1121
33661W        W48508   9.818   4.487  16.786 -0.0875 -0.0254 -0.0693
33662W        W48509   2.940   1.019   3.023  0.2833 -0.0936  0.2290
33663W        W48510   3.266  12.567  13.623 -0.0974 -0.0729  0.0974
33664W        W48511   6.196   6.862   4.578  0.2896  0.0502 -0.4059
33665W        W48512   0.327   1.798  12.619 -0.0971  0.2253  0.0829
33666W        W48513  17.279   8.294   0.215 -0.1118 -0.2218  0.0284
33667W        W48514   7.715  13.735  14.501 -0.1769 -0.0539 -0.1369
33668W        W48515   5.681  13.738   4.103 -0.1671  0.1247  0.3130
33669W        W48516   1.605   5.198  15.007  0.0094 -0.0452  0.2016
33670W        W48517  15.092  10.632   5.814 -0.2342  0.0940 -0.0691
33671W        W48518  13.729   4.611   1.649 -0.0120  0.0519  0.0154
33672W        W48519   8.394   0.897  16.303  0.1658 -0.0360  0.2218
33673W        W48520  17.617   9.828  11.663 -0.1985 -0.0959 -0.0289
33674W        W48521   4.332  13.930   2.986 -0.3519 -0.1822 -0.0714
33675W        W48522   3.760  13.133   5.441 -0.2028 -0.0153 -0.1090
33676W        W48523   8.377   5.541  16.438  0.2290  0.0522 -0.0330
33677W        W48524   1.971   6.099   5.184 -0.4149 -0.2771 -0.1457
33678W        W48525  15.013   3.875  14.763  0.1124  0.1795  0.0645
33679W        W48526   0.311   2.971   1.507  0.0792 -0.0172 -0.0014
33680W        W48527   7.885   9.974   1.076 -0.2178  0.0564 -0.0003
33681W        W48528  13.364  11.335   5.043  0.3032  0.1099  0.3206
33682W        W48529   5.400   3.015   3.996  0.3474  0.2621 -0.1948
33683W        W48530   9.629   5.881   2.619 -0.3088  0.0411  0.1297
33684W        W48531   7.820   4.406  12.079 -0.0148 -0.0130 -0.0768
33685W        W48532  12.931  11.341  12.849  0.0690 -0.0680 -0.2787
33686W        W48533  11.326  10.307   6.087  0.1880 -0.1849 -0.0571
33687W        W48534  16.874  15.781  16.569  0.0948  0.1575 -0.2442
33688W        W48535   7.772  15.527  15.941 -0.1270 -0.4501 -0.0363
33689W        W48536  17.518   1.480   5.507 -0.1639 -0.0421  0.0922
33690W        W48537  17.568  12.516   5.733 -0.1746 -0.0857  0.2623
33691W        W48538   9.993   8.944  16.997 -0.1090  0.0593  0.3984
33692W        W48539   9.843  14.096   3.171  0.0561 -0.0605  0.0975
33693W        W48540  16.163  15.222  16.469 -0.0345 -0.0842 -0.0439
33694W        W48541   5.081   0.533  17.475 -0.1041  0.1550 -0.0084
33695W        W48542  11.374  17.656   5.491 -0.1900  0.2217  0.0434
33696W        W48543   5.715   5.879   0.290  0.2761  0.1558  0.0522
33697W        W48544   8.984   5.605  14.499  0.0563 -0.1436 -0.0723
33698W        W48545   4.964  11.197  16.452 -0.0429 -0.1595  0.2707
33699W        W48546   9.380  17.140   0.135  0.0905  0.1637 -0.0342
33700W        W48547   8.513  13.617   1.545 -0.1661  0.1208 -0.2170
33701W        W48548   3.785   7.177  12.726  0.1914  0.0145  0.3379
33702W        W48549   4.560  12.418  12.258  0.0057  0.0297  0.0952
33703W        W48550  15.052   2.287  13.401 -0.2977  0.0342  0.0872
33704W        W48551   0.159   6.183   6.090  0.0519  0.2934  0.2530
33705W        W48552  17.605   1.235   5.971 -0.0384  0.1095 -0.2254
33706W        W48553   9.414   6.448   1.855  0.0911 -0.0119 -0.2507
33707W        W48554   3.427  14.892   5.522  0.1206  0.2799 -0.0105
33708W        W48555  16.957   8.767  12.264  0.0122  0.3072  0.3917
33709W        W48556  17.189   4.056   3.460  0.0705  0.0102 -0.0120
33710W        W48557   9.861   1.654   1.002  0.0870 -0.1276  0.0936
33711W        W48558   0.356   7.982  17.163  0.0255  0.2183  0.0129
33712W        W48559  11.388   6.099   1.496 -0.0461 -0.2771  0.0684
33713W        W48560   9.786  15.028  15.804 -0.0084 -0.0585  0.2845
33714W        W48561  16.497  13.824  12.610  0.1267  0.0380 -0.0553
33715W        W48562   3.404  16.371   2.307 -0.2813  0.2358 -0.1269
33716W        W48563   3.363  16.210   3.742  0.0103  0.3212  0.0379
33717W        W48564   0.914   7.600   3.484  0.1396 -0.5530  0.2302
33718W        W48565   8.127   3.519  15.220 -0.0164  0.0700  0.0483
33719W        W48566   6.742  10.455   6.841 -0.1408  0.2259 -0.3065
33720W        W48567   5.774   2.382  16.076  0.1458 -0.3174  0.0916
33721W        W48568  10.495   4.922   2.327  0.0904 -0.2468  0.1840
33722W        W48569  14.316   9.250  12.837 -0.0460  0.3090 -0.0208
33723W        W48570  11.244   3.962   3.149 -0.0030  0.0701  0.3399
33724W        W48571   1.592  13.650  15.083 -0.0453 -0.0056  0.1745
33725W        W48572  16.300  17.601  16.130 -0.2016  0.1019  0.0732
33726W        W48573   1.208   3.576   3.875  0.0618 -0.0291  0.0380
33727W        W48574   7.535  16.247  11.637  0.0989  0.0034 -0.0365
33728W        W48575   0.104   1.770  14.937  0.2905 -0.0993  0.1555
33729W        W48576  10.692   1.431  14.197 -0.0391 -0.0759 -0.2149
33730W        W48577  15.269  15.933   6.209 -0.0245 -0.0682  0.0060
33731W        W48578   8.932  15.939  14.462 -0.1856 -0.3811 -0.0019
33732W        W48579   1.076  14.090   4.320  0.2005 -0.3201 -0.0783
33733W        W48580  11.467   6.853   3.005 -0.1451 -0.0427 -0.4343
33734W        W48581  13.853  15.174  16.788  0.0007 -0.1137  0.0805
33735W        W48582   1.148  10.392   6.131  0.1584  0.0074  0.3526
33736W        W48583  15.264  12.924   3.410 -0.0165  0.2233  0.2827
33737W        W48584   0.818   0.522  13.906  0.0101 -0.2059  0.0375
33738W        W48585  16.528  13.903   6.106  0.4739 -0.2999 -0.0815
33739W        W48586  14.568   9.252   2.594 -0.1301  0.0713  0.1556
33740W        W48587   7.023   7.414   2.025 -0.1933  0.0864 -0.2233
33741W        W48588  11.135   8.506  16.551 -0.2148 -0.0161 -0.0739
33742W        W48589   7.773   9.111   6.629 -0.1945 -0.1182  0.0981
33743W        W48590  16.309   0.401  12.137  0.0870  0.3180  0.1235
33744W        W48591   9.847   8.144   3.939  0.4623  0.1723  0.2103
33745W        W48592   6.634  16.827   5.184  0.2913  0.2431  0.0760
33746W        W48593   7.811   3.984   1.977 -0.1861 -0.0896  0.2901
33747W        W48594   0.410   9.070  16.825  0.0599  0.1040  0.0844
33748W        W48595   4.375  14.883  13.644 -0.0949  0.1492  0.0037
33749W        W48596   0.750  16.404   2.950 -0.1248  0.1593  0.1711
33750W        W48597  12.856   8.596  17.475 -0.0712  0.0985  0.1006
33751W        W48598   8.703   9.707   1.238  0.0699  0.3600  0.0112
33752W        W48599   0.357  12.483  14.631 -0.2240 -0.0530  0.2707
33753W        W48600   4.232   0.544  11.549 -0.3320  0.1153  0.0961
33754W        W48601   9.308   8.330  16.490 -0.2301  0.1153  0.0034
33755W        W48602  15.214  16.103   4.726  0.3178 -0.1146  0.1981
33756W        W48603   6.129   0.533  17.411  0.3708  0.1997  0.1567
33757W        W48604  10.108   8.006   5.895 -0.1028 -0.0238 -0.0357
33758W        W48605  12.188   4.403  17.648 -0.0924  0.0482 -0.1042
33759W        W48606   6.561   4.867  15.975  0.2131  0.0138  0.3285
33760W        W48607   5.409   9.963   0.252  0.1965  0.1916  0.2166
33761W        W48608   8.751   6.696   6.055  0.3956  0.1916  0.0314
33762W        W48609   8.091  14.731  12.309 -0.0470 -0.0359  0.0908
33763W        W48610  14.717  17.614  11.603 -0.2240 -0.2032 -0.2268
33764W        W48611   4.125   2.280  17.099 -0.2082  0.0499  0.1976
33765W        W48612   2.381  12.292   4.644 -0.1917 -0.0670  0.2396
33766W        W48613   3.023  12.316  16.425 -0.1375 -0.2128 -0.0831
33767W        W48614  11.564  15.756   5.956  0.0776 -0.0877 -0.3029
33768W        W48615   6.951   1.615  16.258 -0.1556  0.2223 -0.0641
33769W        W48616  11.641  15.856   1.926 -0.2979  0.2405 -0.1933
33770W        W48617   9.029  12.414  11.427 -0.0505  0.0554 -0.1510
33771W        W48618   3.614  17.505   1.118  0.1539 -0.0217 -0.0435
33772W        W48619   9.805   6.393  15.285  0.0581  0.0270  0.0081
33773W        W48620  13.392  13.614  12.811 -0.4750 -0.1487  0.0423
33774W        W48621   6.886  14.436   0.994  0.2640  0.2961  0.3267
33775W        W48622   3.450  12.874   0.111  0.0235 -0.1003 -0.0216
33776W        W48623   6.753   0.900   0.530 -0.1160  0.1871 -0.1697
33777W        W48624   6.852  16.270  12.031  0.1032  0.1223 -0.0022
33778W        W48625  11.206   1.875  15.597  0.1450  0.0555  0.2520
33779W        W48626  14.966  11.106   4.776  0.1999 -0.2122 -0.2287
33780W        W48627   2.207  16.111   4.460 -0.1330  0.1958 -0.2470
33781W        W48628   6.231   4.190  15.474  0.2909  0.5048  0.0327
33782W        W48629   1.326   4.268  12.895 -0.1842  0.1732  0.0007
33783W        W48630  17.572   4.661  11.907 -0.1818  0.0080 -0.3301
33784W        W48631   4.110   8.184  16.095 -0.0987 -0.1420 -0.2049
33785W        W48632   1.402  13.089   3.950  0.1551  0.0021  0.2587
33786W        W48633   3.560  16.601  16.865  0.2421  0.5141  0.2286
33787W        W48634   5.129   3.432   1.786  0.0189  0.1061 -0.2317
33788W        W48635  11.193   8.747   6.163  0.0049  0.0502 -0.2247
33789W        W48636   6.904  11.279  11.521  0.1083 -0.0796  0.0859
33790W        W48637   2.347   7.332   3.093  0.1511  0.2373  0.2512
33791W        W48638  12.432  15.000  13.406  0.2754  0.2839 -0.0396
33792W        W48639   0.811   8.687  12.004 -0.2620 -0.5594  0.0268
33793W        W48640   9.851  14.754   6.606 -0.3577 -0.1519 -0.0328
33794W        W48641   3.475   0.295  17.638 -0.0645 -0.0268  0.4663
33795W        W48642  13.025   1.876  16.042 -0.3466  0.1921 -0.1061
33796W        W48643  12.367  14.375   1.634  0.0096 -0.0774 -0.1342
33797W        W48644  15.434   8.003  14.363  0.2165 -0.2276 -0.1573
33798W        W48645   6.762   1.424  12.125 -0.0403 -0.0061  0.2122
33799W        W48646  14.876  14.842   2.106  0.0848 -0.0726 -0.0899
33800W        W48647  11.668   9.357   3.540 -0.2331  0.0497 -0.1241
33801W        W48648   2.989  13.015  13.812  0.3613 -0.0108 -0.1107
33802W        W48649   5.646  12.928   5.032  0.0885  0.0724  0.0307
33803W        W48650   2.803  12.366   5.667 -0.2385 -0.0944 -0.2347
33804W        W48651   6.438  15.391   3.993  0.0683 -0.2482 -0.1316
33805W        W48652   7.376   7.787   5.771  0.0497  0.0908  0.2175
33806W        W48653   7.371  14.182   3.419  0.0818 -0.0638 -0.1101
33807W        W48654   9.619   0.479  15.120  0.1081 -0.3240  0.0178
33808W        W48655   1.075   4.553   2.918 -0.1984 -0.0923 -0.1025
33809W        W48656   4.275   7.459  14.471 -0.1023 -0.0358 -0.1026
33810W        W48657   6.670   4.489   4.685 -0.1305  0.0948 -0.2168
33811W        W48658  13.279  11.583   5.488 -0.1612 -0.1744 -0.3941
33812W        W48659  12.425  10.449   5.576  0.1214 -0.1397  0.1970
33813W        W48660  17.220  10.310  13.103  0.1523  0.3187  0.1360
33814W        W48661  16.801   5.644   1.184  0.2615 -0.0626 -0.1149
33815W        W48662   9.658   4.163  15.284  0.4378  0.0343 -0.3191
33816W        W48663  14.787   1.748   0.812 -0.0376  0.1768  0.3236
33817W        W48664   4.557   9.302   3.622 -0.1293 -0.2255 -0.2826
33818W        W48665  10.034  13.766   3.642  0.2590 -0.1173  0.1146
33819W        W48666   7.908   0.930   3.412 -0.0535  0.2411  0.0640
33820W        W48667  17.659   4.882   0.136 -0.1466 -0.2125 -0.0602
33821W        W48668  10.632  12.229  13.830  0.0178 -0.0159 -0.1599
33822W        W48669  11.790   8.443  17.311 -0.1778 -0.1079  0.3353
33823W        W48670  11.178   3.229  16.182  0.1540  0.1674 -0.0489
33824W        W48671   1.212   6.450  17.037 -0.3695  0.0293  0.0118
33825W        W48672   5.550   2.316   3.184 -0.1651  0.0511  0.2130
33826W        W48673  10.560   3.521  17.314  0.0748 -0.0270  0.0897
33827W        W48674  11.831  16.580  12.494 -0.4042  0.0914 -0.0593
33828W        W48675  10.324   5.460  11.543  0.1143  0.0932  0.4268
33829W        W48676   2.002   0.498   5.813 -0.0013 -0.0815 -0.1062
33830W        W48677  10.428  13.093   5.528  0.1595  0.4372  0.3323
33831W        W48678   3.629   4.398  16.136 -0.4923  0.1400 -0.0584
33832W        W48679  16.908  12.797   1.610 -0.1672 -0.0574  0.1723
33833W        W48680   9.046   5.913   5.274 -0.0128  0.1402  0.0420
33834W        W48681  12.997   0.203   0.283  0.3649  0.0396 -0.2924
33835W        W48682   9.953   2.804  13.490 -0.3019  0.2284  0.0607
33836W        W48683  16.508   0.432  12.683  0.0103 -0.0127  0.1528
33837W        W48684  16.120   1.675   0.708 -0.1157 -0.1051 -0.0059
33838W        W48685   4.559  11.453  12.198  0.0960 -0.0126  0.1320
33839W        W48686  14.627  13.828  15.882 -0.1250  0.2345 -0.0820
33840W        W48687  12.011  12.827   3.405 -0.4192  0.2398  0.0184
33841W        W48688  16.217   1.071  13.884  0.0582 -0.0719 -0.1863
33842W        W48689  10.273   1.598  11.577  0.2222 -0.0091 -0.2452
33843W        W48690  11.878  13.128   4.336  0.2760 -0.0837 -0.1092
33844W        W48691   4.324   0.755   5.115 -0.0675 -0.3259  0.0135
33845W        W48692   1.671  17.257  11.984  0.3067  0.0168  0.0392
33846W        W48693   5.792  13.544   0.167  0.0639 -0.4131  0.0489
33847W        W48694  15.269  11.938  14.582  0.1186  0.2885 -0.0207
33848W        W48695  10.973   8.382  15.611  0.3070  0.2265 -0.0128
33849W        W48696   2.304   4.943   1.107 -0.0480 -0.0327  0.0238
33850W        W48697   4.798  15.662   5.673 -0.3454  0.2004  0.0718
33851W        W48698   3.671   8.793   3.167  0.1656 -0.0494  0.2998
33852W        W48699   3.325  15.923   0.488 -0.0356 -0.1110  0.2340
33853W        W48700  12.432   9.353   0.120 -0.2111 -0.1761 -0.1529
33854W        W48701  16.413  15.108  17.164  0.0404  0.3760 -0.1432
33855W        W48702  12.927   1.242   1.547  0.2498  0.2315  0.0036
33856W        W48703   3.044   1.599  14.246  0.4053 -0.0785  0.2462
33857W        W48704  12.729  16.901   4.853 -0.2969 -0.1172  0.1192
33858W        W48705   8.010   7.955   2.742 -0.4363 -0.1336 -0.0009
33859W        W48706   5.503   5.595  13.069  0.3537  0.0957  0.1733
33860W        W48707  13.063  16.775   1.082 -0.0121 -0.0772  0.1808
33861W        W48708  12.149  16.406  13.342  0.1029  0.0666  0.0523
33862W        W48709  15.501  10.989   4.716  0.0133  0.1180  0.1044
33863W        W48710   5.788   2.132  15.036 -0.1770 -0.0035 -0.0208
33864W        W48711   5.857   6.499   6.243  0.0509  0.0858  0.1232
33865W        W48712   7.770  13.129   2.156 -0.0970  0.1062  0.0856
33866W        W48713  15.322   4.175   2.903 -0.2309 -0.0829  0.0278
33867W        W48714  11.655  15.221  16.733  0.1563  0.2607 -0.0458
33868W        W48715   0.108   8.549  14.831 -0.0251 -0.0649  0.1095
33869W        W48716  16.010   0.758   1.555  0.0586  0.0755  0.0518
33870W        W48717  14.948   2.773   3.929 -0.0279 -0.1675  0.1461
33871W        W48718   8.549   9.577  16.324  0.0746 -0.2857  0.2244
33872W        W48719   9.529  12.529  13.332 -0.0219 -0.1594  0.0637
33873W        W48720  13.587  16.800   0.897 -0.0387  0.0908  0.4548
33874W        W48721   4.000   6.806  11.752 -0.0189 -0.2469 -0.0266
33875W        W48722   8.396  14.141   1.412 -0.2588 -0.0512  0.0980
33876W        W48723   8.046  15.586   2.406 -0.2609  0.2247 -0.2164
33877W        W48724  10.501  13.338   4.601 -0.0010  0.0089 -0.4772
33878W        W48725   4.474  10.140   3.181  0.0959  0.1579 -0.0722
33879W        W48726  10.593  13.860   3.671 -0.2000 -0.1591  0.1006
33880W        W48727   3.739   1.863  15.844 -0.0875  0.0156  0.0836
33881W        W48728   4.813  12.977  13.874  0.2966 -0.1290 -0.2244
33882W        W48729   5.410   6.896   0.652 -0.0445  0.2558  0.0166
33883W        W48730   6.432   9.464  13.265  0.2391  0.1518  0.0711
33884W        W48731   1.820   6.063   0.149 -0.0436  0.0243  0.1873
33885W        W48732   8.887   4.638  14.141  0.1896  0.1112  0.0466
33886W        W48733   0.911   2.036   2.323 -0.1207 -0.0341 -0.0675
33887W        W48734  15.496   7.506  12.424  0.1073 -0.1015  0.1092
33888W        W48735  16.039   6.860   1.809  0.0476  0.3654 -0.0357
33889W        W48736   0.928   1.317  16.058 -0.2156  0.0811  0.2180
33890W        W48737   0.698  12.098  17.135  0.1778 -0.0269  0.3166
33891W        W48738  13.656  10.036   0.027 -0.0256 -0.0743 -0.1987
33892W        W48739   1.824   1.860   3.896 -0.1295  0.0110 -0.3507
33893W        W48740  12.868   7.007   3.462  0.2152 -0.0102  0.1343
33894W        W48741   1.474   7.029   3.013 -0.1916 -0.3823 -0.0222
33895W        W48742  15.530   6.866   4.029 -0.1957  0.0968 -0.0561
33896W        W48743   2.223   3.637  11.803 -0.0471 -0.0918  0.0274
33897W        W48744   6.181   1.624   5.924  0.3438 -0.1330  0.1294
33898W        W48745   7.942  17.431  12.029  0.0669 -0.0058  0.0534
33899W        W48746   8.429   4.601   0.236 -0.2499  0.1092  0.1569
33900W        W48747  13.741  15.494   3.138 -0.1459 -0.0756 -0.0636
33901W        W48748  15.141   2.169  17.136  0.1723 -0.2200 -0.1178
33902W        W48749   1.118   6.336  15.975 -0.0896  0.0606  0.1458
33903W        W48750   9.396   6.960   0.494  0.0321 -0.0052  0.0555
33904W        W48751   6.481   8.669   3.351  0.0584  0.0752 -0.1206
33905W        W48752  14.196   4.245  12.471 -0.2203 -0.3478  0.1142
33906W        W48753  10.814   3.093   0.626  0.0205 -0.3925 -0.0448
33907W        W48754   3.050   6.102  13.732 -0.1269  0.0474  0.2019
33908W        W48755   2.391   7.643  12.026  0.0285  0.1220 -0.0460
33909W        W48756   1.133   0.558   5.584 -0.7014 -0.0936  0.0313
33910W        W48757   7.491   3.521  12.129 -0.1286 -0.0069  0.0877
33911W        W48758  12.365  17.174  13.820  0.0285  0.0898 -0.2752
33912W        W48759  17.417   1.391   2.855  0.1911  0.1293  0.0888
33913W        W48760   4.448  11.949   1.816 -0.1370  0.2075 -0.2828
33914W        W48761  10.934  14.173  16.867 -0.4639 -0.0657 -0.3646
33915W        W48762   5.749   0.083  13.746  0.0189 -0.0060  0.2558
33916W        W48763  14.350   8.902  15.397  0.4444 -0.1219 -0.2450
33917W        W48764  15.541   6.967  17.122 -0.3519  0.1877 -0.0289
33918W        W48765   6.428   1.692   0.755 -0.2314  0.2568  0.2066
33919W        W48766   4.626   8.046   0.464  0.0069  0.1075 -0.1784
33920W        W48767   0.781  12.047  12.266 -0.4229 -0.2876 -0.0682
33921W        W48768   3.589   8.034   1.499 -0.1273 -0.0393  0.1102
33922W        W48769  10.836   3.889  14.850 -0.1743 -0.1754 -0.0983
33923W        W48770   7.855   3.502   0.674 -0.1589 -0.2643 -0.1748
33924W        W48771  16.467  14.601   6.606 -0.1563  0.2348  0.2006
33925W        W48772   3.708   7.588  13.808  0.0403  0.0860  0.0834
33926W        W48773   6.272   9.772  16.154  0.1698 -0.0626 -0.1944
33927W        W48774   2.221  16.110  14.793  0.2223  0.2950  0.0610
33928W        W48775   1.877  11.990   3.171  0.1056  0.2724 -0.3014
33929W        W48776   8.739   0.249   2.259 -0.2866 -0.1884  0.2575
33930W        W48777  12.403   3.377  14.181  0.1845 -0.2782  0.1902
33931W        W48778   6.823   4.475   4.206  0.1058  0.1304 -0.1760
33932W        W48779   9.394  10.197  16.558  0.0071  0.0104 -0.1975
33933W        W48780  16.729   6.820  14.979  0.0750 -0.0806  0.2089
33934W        W48781  15.384   2.597  11.343  0.2106 -0.0043  0.0989
33935W        W48782  15.417  11.800   4.613  0.0978 -0.2289 -0.2763
33936W        W48783   8.902   4.631   0.168 -0.0549 -0.1043 -0.0095
33937W        W48784   8.915  15.524  16.273  0.3538 -0.1395  0.0920
33938W        W48785  12.901  12.330  14.914  0.2768 -0.0986 -0.1443
33939W        W48786   6.804   3.957   0.889  0.0019 -0.0555 -0.2849
33940W        W48787  10.105  13.122   2.445 -0.0786 -0.1157 -0.0658
33941W        W48788  12.233   0.490  14.162 -0.0422 -0.2742  0.1983
33942W        W48789   5.141  15.808   3.900 -0.1545  0.2641  0.0767
33943W        W48790   7.251   1.702   5.368  0.0691  0.0305  0.1054
33944W        W48791   4.719   8.117  17.301  0.1633  0.2318  0.0101
33945W        W48792  11.454   7.833   0.166  0.2965 -0.0335  0.0873
33946W        W48793   9.835   0.494   0.923 -0.0266  0.0241 -0.0129
33947W        W48794   1.853  16.554   7.016 -0.1060  0.3137 -0.0923
33948W        W48795  12.145  14.278  16.683  0.0419 -0.2948  0.0813
33949W        W48796  16.517   5.474  12.244  0.0069  0.0749 -0.0757
33950W        W48797   3.185   5.203  13.271 -0.0523 -0.2353 -0.4159
33951W        W48798  13.625   5.466   6.809 -0.0553 -0.1087 -0.2022
33952W        W48799  13.800   8.378  17.089  0.1329  0.3028  0.0874
33953W        W48800   6.948   4.252   6.126 -0.0015  0.4780  0.1647
33954W        W48801   1.959   6.349  17.401 -0.4278  0.1364 -0.1410
33955W        W48802  12.960   3.516   1.868  0.0577 -0.3840  0.1175
33956W        W48803   0.341  10.830   5.933  0.0501  0.1524 -0.0798
33957W        W48804   3.741  12.435   4.309 -0.0026  0.0098  0.2529
33958W        W48805  11.818  16.552   5.477  0.2645  0.4098 -0.0797
33959W        W48806  13.943  12.649   3.106  0.3389  0.1155 -0.0046
33960W        W48807   4.175   6.428  12.149 -0.1326  0.0271 -0.0106
33961W        W48808  14.845  15.399   5.407  0.0732 -0.6019 -0.2906
33962W        W48809   7.169   3.629  17.670  0.1216 -0.0228  0.2135
33963W        W48810  11.788   7.937  17.393  0.3102 -0.0559  0.0196
33964W        W48811   6.791   4.498  11.272 -0.2802 -0.1236 -0.0124
33965W        W48812  15.108  10.089   0.544 -0.1752 -0.3129 -0.2700
33966W        W48813   1.644   8.251  16.895  0.0828 -0.1730 -0.0246
33967W        W48814  14.205   9.233  14.809  0.0596 -0.2153  0.0534
33968W        W48815   4.407  11.239   2.528  0.3249  0.0322  0.0491
33969W        W48816  17.404  16.708  15.810 -0.3626 -0.0733 -0.1071
33970W        W48817   9.147  13.380  16.186 -0.0506 -0.0717  0.0699
33971W        W48818  10.379  10.861   3.198 -0.1530  0.0806  0.1931
33972W        W48819  10.308   4.877  12.300  0.1275  0.0570  0.0681
33973W        W48820   6.004   5.550  15.041 -0.2388  0.3033  0.1461
33974W        W48821  11.135   4.290   5.160  0.0968  0.0614 -0.1704
33975W        W48822  10.844   0.966  15.176 -0.2025  0.1222 -0.0963
33976W        W48823   2.232   3.223  16.950 -0.3731 -0.0519 -0.3873
33977W        W48824  15.979  17.265   0.128  0.0302 -0.2662  0.2934
33978W        W48825   6.644   9.749  12.851 -0.2258 -0.1505 -0.2439
33979W        W48826  12.802   3.055   5.610 -0.0867 -0.0723  0.0820
33980W        W48827  12.409   3.297   2.621  0.2951  0.0894 -0.1251
33981W        W48828   8.645  14.969  16.489 -0.0023 -0.0445  0.3298
33982W        W48829   7.605  11.936  17.335  0.2953 -0.0373 -0.3948
33983W        W48830  10.170  11.009   1.753 -0.1656  0.1781 -0.0641
33984W        W48831  11.747   7.655  13.229  0.0740 -0.1823  0.2667
33985W        W48832  16.829   9.110   4.089 -0.2737  0.0995 -0.0764
33986W        W48833  10.091  16.774   2.619 -0.0525  0.2880 -0.4496
33987W        W48834   5.936  11.919  17.067 -0.4643  0.1798  0.1209
33988W        W48835  13.689  16.204  15.752 -0.2233 -0.1316 -0.0530
33989W        W48836   7.727   3.981   3.381 -0.0772 -0.0441 -0.1046
33990W        W48837   8.010  16.039  15.150  0.0198  0.0519  0.1191
33991W        W48838  11.160  14.510   6.302 -0.2510 -0.4399 -0.0385
33992W        W48839   1.911   8.999   4.943 -0.0278  0.0844 -0.1083
33993W        W48840   3.532   8.522   6.388 -0.1054  0.1396 -0.1839
33994W        W48841   7.705  15.846  16.776  0.1127  0.0189 -0.0514
33995W        W48842   5.312   2.865   6.927  0.0894 -0.0749  0.0780
33996W        W48843  10.826   2.088   1.806 -0.0638  0.0152  0.0067
33997W        W48844   8.631  13.730   1.085 -0.1662 -0.2704 -0.0198
33998W        W48845   0.988  12.615   4.769 -0.1157 -0.0633  0.2022
33999W        W48846   1.235   5.542  12.848  0.0351 -0.3107 -0.0915
34000W        W48847   0.381   2.240  14.558 -0.2657 -0.1145  0.0683
34001W        W48848   9.673   6.058   4.770  0.1818  0.2736 -0.0857
34002W        W48849  14.145   3.384   5.532  0.0394  0.0214  0.3200
34003W        W48850   4.003  12.762   1.386 -0.0529  0.1283  0.1431
34004W        W48851   2.094  14.525  13.142  0.0292  0.1993 -0.4415
34005W        W48852   9.417   6.468   0.416  0.2384 -0.0807 -0.0483
34006W        W48853  15.026  12.001   3.651 -0.1010 -0.0789  0.1088
34007W        W48854   5.860   4.268  13.556 -0.1041  0.1113  0.0423
34008W        W48855   4.059  15.315  14.256 -0.1338  0.0048 -0.1266
34009W        W48856  13.959  10.707   2.122  0.2064  0.1238  0.0479
34010W        W48857  13.680  16.120   1.999  0.0187  0.1200  0.3409
34011W        W48858   2.968   6.951   1.998 -0.2952  0.1041 -0.2190
34012W        W48859  15.361  17.512  17.132  0.0849  0.1856 -0.0319
34013W        W48860  13.909  11.379   2.619 -0.0612 -0.0536 -0.3349
34014W        W48861  12.518  15.704   4.836 -0.0872 -0.0897 -0.1577
34015W        W48862   3.620   5.136  11.964  0.2885 -0.4066 -0.2455
34016W        W48863  12.715   9.653  14.930  0.0539 -0.1924  0.0778
34017W        W48864   7.008   7.066  15.533  0.0772  0.0429  0.0335
34018W        W48865  11.736   4.163  15.443 -0.3084 -0.0613 -0.1072
34019W        W48866   8.371  15.365  17.383  0.2076  0.1280 -0.0576
34020W        W48867   8.854  10.053  16.102  0.0054 -0.2855  0.0128
34021W        W48868  12.914  15.283  15.220  0.0996  0.1366 -0.1386
34022W        W48869   8.556  13.299   5.993  0.0516 -0.0436  0.2016
34023W        W48870   4.919   2.470   0.275 -0.0938  0.1306  0.1212
34024W        W48871   0.503  17.614   0.843  0.0714  0.2625  0.1120
34025W        W48872  14.140  16.191   0.233 -0.3566 -0.0253  0.0136
34026W        W48873  11.830  13.109   1.781 -0.0862  0.0280  0.0921
34027W        W48874   0.721   4.228   2.070  0.0578  0.2868 -0.3866
34028W        W48875   3.391   4.200   4.665  0.1766 -0.2992  0.0215
34029W        W48876   6.681   2.500   5.858 -0.1047  0.1939  0.0244
34030W        W48877   3.055   0.011  15.259 -0.4159 -0.1380 -0.0649
34031W        W48878   0.039  12.081   1.804  0.0752 -0.0860  0.0547
34032W        W48879   6.252  14.665   1.430 -0.0534  0.3403 -0.1430
34033W        W48880  10.181  15.482   0.560 -0.2184  0.0519  0.1756
34034W        W48881  17.224  14.261   3.416  0.2140 -0.1664  0.0862
34035W        W48882   2.200  15.830   0.068 -0.0088 -0.2766  0.3340
34036W        W48883   6.445   8.918  17.316  0.5368  0.0372 -0.2338
34037W        W48884  11.505   4.330   1.568 -0.1671 -0.1243 -0.2114
34038W        W48885   6.205  11.250   1.267  0.2596 -0.1732 -0.0888
34039W        W48886   1.131   1.858  14.386  0.0830 -0.0389  0.0660
34040W        W48887  10.803   0.397  13.875 -0.0563 -0.0669  0.4577
34041W        W48888  10.758  14.719   4.636  0.2826  0.0429 -0.3303
34042W        W48889   9.901  14.674  14.095 -0.0445 -0.1187 -0.1985
34043W        W48890   2.256  14.304   6.847 -0.4096  0.0392  0.1728
34044W        W48891   2.234   0.394  14.132 -0.1784 -0.1981  0.2843
34045W        W48892   1.432   8.903  15.996 -0.0990 -0.1859  0.2226
34046W        W48893   5.083   0.856   0.597  0.1440 -0.2053 -0.1673
34047W        W48894  14.167  16.818  16.502  0.0213 -0.0794 -0.0410
34048W        W48895   3.284  17.171   4.458 -0.2067  0.0805  0.0148
34049W        W48896  16.172   1.655  17.521  0.2216  0.0602  0.0171
34050W        W48897  12.942  11.613   0.707  0.1599 -0.3116  0.1232
34051W        W48898   8.419   4.660  15.615  0.2632 -0.1312  0.2690
34052W        W48899   2.241  12.753   0.150  0.1177 -0.0446 -0.2071
34053W        W48900   6.444   1.850  13.508  0.1436 -0.0951 -0.1586
34054W        W48901   7.902  15.002   2.495  0.0516  0.1997  0.2675
34055W        W48902   7.565   7.511   0.685  0.0268 -0.0834 -0.0124
34056W        W48903   3.856   5.317  17.036  0.4027 -0.1635 -0.0981
34057W        W48904   7.151  12.626   1.192 -0.0365  0.3839 -0.2366
34058W        W48905  15.966   4.479  17.469 -0.2973  0.3244  0.0113
34059W        W48906   8.642  17.408  14.356 -0.0128  0.0555  0.0501
34060W        W48907   4.603   4.735  15.995 -0.0265  0.0720 -0.3077
34061W        W48908   8.884   1.841  10.975  0.1966 -0.0751 -0.0754
34062W        W48909  14.972  16.663   0.926 -0.1014  0.3026  0.0128
34063W        W48910  13.333  10.155  14.426 -0.2203 -0.1252  0.0193
34064W        W48911   7.199   1.291  12.560  0.0703  0.0553 -0.1091
34065W        W48912   1.610   2.139   0.847  0.2211 -0.2831 -0.1359
34066W        W48913   8.652   9.192   2.898 -0.0339  0.0812 -0.1102
34067W        W48914  11.627   2.887   7.184 -0.1401 -0.3260  0.0778
34068W        W48915  11.971   1.431   1.691 -0.0818  0.1189 -0.1411
34069W        W48916  14.832  16.023  13.603  0.0937  0.0473 -0.1717
34070W        W48917  11.216   1.532  16.034  0.1453  0.3392 -0.3400
34071W        W48918   7.223   5.422  16.310 -0.2491  0.0737  0.0300
34072W        W48919   0.797   4.991   3.020  0.0745  0.1242  0.3578
34073W        W48920   9.695   9.173   3.964  0.0327 -0.2121 -0.0670
34074W        W48921  16.982   0.815   1.567  0.0758  0.2188  0.2485
34075W        W48922   2.208   6.309  12.123  0.0453 -0.1175  0.1037
34076W        W48923   9.840  16.300   5.938  0.0688  0.2611 -0.1890
34077W        W48924   6.518   9.492  11.841  0.4881  0.1032 -0.1734
34078W        W48925  15.671  16.972  12.397  0.0058  0.1039  0.0413
34079W        W48926  13.486   9.511   2.671  0.3669 -0.0265  0.2537
34080W        W48927  10.599   7.039  16.966 -0.0814  0.1746  0.0767
34081W        W48928   5.879  14.664   0.867 -0.1510 -0.0819  0.0624
34082W        W48929   4.990  15.902  17.524 -0.0454 -0.0212  0.0213
34083W        W48930  16.943   9.963   1.433  0.0644  0.0183  0.1661
34084W        W48931  14.968  10.727  13.796 -0.0632 -0.0952  0.0079
34085W        W48932  16.144   9.126  15.175  0.1754 -0.3635  0.0520
34086W        W48933  16.131  14.694   4.543  0.0193 -0.0048 -0.0592
34087W        W48934   8.589  11.783   6.884  0.0347  0.2546  0.2047
34088W        W48935  13.832   5.449   1.941 -0.0147  0.0320 -0.1650
34089W        W48936  14.460   0.759  14.054  0.1567  0.0327  0.2387
34090W        W48937  15.900   3.623  11.018  0.3792 -0.2323  0.0879
34091W        W48938  17.486  15.745   2.569 -0.0493  0.1141 -0.0340
34092W        W48939  12.078   0.981   3.465  0.0300  0.0638 -0.1452
34093W        W48940  13.047   3.790  17.629  0.1458  0.1668 -0.0169
34094W        W48941  14.475   1.598  13.331 -0.0503  0.0701  0.0777
34095W        W48942   4.072   6.824   4.906 -0.2731 -0.1677  0.3130
34096W        W48943  10.873  11.089   6.570  0.0248 -0.0577 -0.2082
34097W        W48944   5.412   0.088   4.634  0.2040  0.0107 -0.0149
34098W        W48945  14.125  12.400   0.672 -0.1769  0.2209  0.2926
34099W        W48946   3.253  12.426   0.413 -0.4669  0.0272 -0.1393
34100W        W48947  10.162  17.058   3.141 -0.2186 -0.0749  0.0491
34101W        W48948   6.029   4.514  15.123 -0.2185  0.2208  0.1960
34102W        W48949   2.686   8.045  12.870 -0.4396  0.1667  0.1821
34103W        W48950  13.494  10.217  12.938 -0.3631 -0.1801 -0.0853
34104W        W48951   4.718   4.466  15.059  0.0910  0.0339  0.0460
34105W        W48952   5.965  10.621   6.155 -0.2765 -0.0403 -0.1169
34106W        W48953   1.291  14.549   4.281 -0.0921 -0.1326 -0.1202
34107W        W48954  14.195  16.408  12.284 -0.0109 -0.2003 -0.1734
34108W        W48955  10.583   1.402   0.509 -0.0821  0.1360 -0.0340
34109W        W48956   5.571  13.669   1.183 -0.0601 -0.2141 -0.0699
34110W        W48957  15.056  11.754   0.921  0.0237  0.0767 -0.1613
34111W        W48958  13.987  16.043   6.236  0.2500  0.2048 -0.1827
34112W        W48959   6.210  12.546   0.446 -0.2988  0.2228 -0.1900
34113W        W48960   2.684  13.804  17.038 -0.0423  0.0566  0.2323
34114W        W48961  12.740   8.794   3.483 -0.1368 -0.3264 -0.2055
34115W        W48962   0.066  16.902  12.589 -0.0663  0.0144 -0.0666
34116W        W48963  12.517  10.906  14.281 -0.4888  0.4525  0.3126
34117W        W48964  11.755  17.637  14.451  0.1408  0.0309 -0.1300
34118W        W48965   2.083   9.437  12.755 -0.1322 -0.1068  0.3762
34119W        W48966   6.103  13.509  15.509  0.1537  0.1008 -0.0580
34120W        W48967  14.014   9.032   6.106  0.1701  0.1196  0.1168
34121W        W48968   0.371  10.350   6.154 -0.0112 -0.2313  0.3371
34122W        W48969  11.771   8.308   4.072 -0.0370  0.3099 -0.1063
34123W        W48970  15.328  10.284  16.232 -0.3447 -0.0299 -0.1816
34124W        W48971  15.752  10.540   1.158  0.0757  0.1218 -0.0188
34125W        W48972   5.207   9.189   1.723 -0.0026  0.1872  0.0183
34126W        W48973  14.963   8.807   1.532 -0.0833  0.0654  0.1038
34127W        W48974  12.984  10.162   0.506  0.0267  0.0209  0.1054
34128W        W48975   1.575   8.748   4.736 -0.1776  0.1896 -0.1283
34129W        W48976   3.449  13.720   5.137 -0.4568 -0.0236  0.1875
34130W        W48977  10.549  11.960   4.312 -0.0917 -0.1383 -0.0471
34131W        W48978   2.240   2.680  15.292  0.1076 -0.4082 -0.1208
34132W        W48979   0.716  13.281   3.415 -0.2287  0.2481 -0.0922
34133W        W48980   0.468  17.303  16.547 -0.0956 -0.4308  0.2568
34134W        W48981   7.824  14.954  13.338  0.0692 -0.1642  0.2891
34135W        W48982  12.694  15.149   3.445 -0.2232 -0.2111  0.0877
34136W        W48983   1.093  14.123   6.716 -0.1221  0.2509 -0.0210
34137W        W48984   5.290   1.856  17.400  0.1154 -0.2099 -0.1725
34138W        W48985   0.477   2.704  16.007  0.1556 -0.1017 -0.0356
34139W        W48986  16.922   9.008  12.674  0.0988  0.0700 -0.2019
34140W        W48987   0.479   8.328  14.066  0.2054  0.1904 -0.2661
34141W        W48988  13.129   9.017   2.315  0.2648  0.2446 -0.2018
34142W        W48989   5.883   1.977   1.379 -0.2914  0.2723 -0.0695
34143W        W48990   4.908  14.532  17.628  0.0554 -0.0889 -0.0927
34144W        W48991   3.981   7.942   5.190 -0.0343 -0.3062  0.1256
34145W        W48992  11.792  11.589  15.037 -0.4589  0.1537  0.1387
34146W        W48993   9.003   5.661   2.272  0.1894  0.2524 -0.2061
34147W        W48994   0.855   1.235   3.824  0.0878  0.3140  0.0635
34148W        W48995  16.409   4.705   6.319  0.0884 -0.2063  0.2204
34149W        W48996   0.305   1.315   3.416 -0.0094  0.2112  0.0254
34150W        W48997  17.036   5.716   0.619  0.1089 -0.0618  0.1092
34151W        W48998  14.637   4.582   4.266 -0.1593  0.0433  0.0905
34152W        W48999   5.124   6.805   4.001  0.1393  0.1519  0.1791
34153W        W49000  17.143  10.250   5.911 -0.0148  0.2561  0.2935
34154W        W49001   2.177   8.932  14.105 -0.2581  0.0095 -0.1118
34155W        W49002   4.651  15.285   1.503 -0.2896 -0.1583  0.0247
34156W        W49003  15.788  17.666   1.132  0.2384 -0.2905 -0.0624
34157W        W49004  12.569   5.983   5.339 -0.2716  0.0196 -0.2404
34158W        W49005  10.077   1.131  15.777 -0.0417 -0.2294  0.1041
34159W        W49006   9.213   8.130  15.404  0.2780 -0.0546 -0.0298
34160W        W49007  17.628   0.765   3.619  0.0313  0.1104 -0.0693
34161W        W49008   3.264   4.268  12.321  0.3525 -0.1165 -0.0331
34162W        W49009   6.920   4.488   3.669  0.0851  0.4130  0.2768
34163W        W49010   2.782   3.890   6.278 -0.2660 -0.1625  0.0524
34164W        W49011   1.133  13.633   5.676  0.0702  0.2459  0.0073
34165W        W49012   3.265   9.845  11.804 -0.1361  0.0709 -0.2460
34166W        W49013   6.374   9.154   5.489 -0.1985  0.3973 -0.0632
34167W        W49014  12.863   1.728   5.844 -0.3639 -0.2451  0.1001
34168W        W49015  16.752   8.814   0.320  0.0469  0.0697  0.1304
34169W        W49016   6.776  13.317   0.021  0.1852 -0.0620  0.0799
34170W        W49017  13.641   3.462  17.680  0.0204 -0.3067 -0.2004
34171W        W49018  12.834   7.270   4.990  0.2873 -0.1049  0.1389
34172W        W49019   6.209   1.187   1.620  0.1706  0.5851 -0.0407
34173W        W49020   2.699   9.761   1.829 -0.0041  0.0047  0.1813
34174W        W49021   0.337   2.667   5.440  0.0389 -0.2525 -0.0114
34175W        W49022  12.797  11.342   1.704  0.1109 -0.0047 -0.1134
34176W        W49023   8.106  13.549   3.352  0.1779  0.1076  0.1547
34177W        W49024  15.894  10.793   0.741 -0.0944  0.1837  0.1826
34178W        W49025  16.872  15.505  12.770 -0.1085 -0.1041  0.0101
34179W        W49026   3.933   3.741  15.361  0.0973 -0.4079  0.1460
34180W        W49027   6.950   8.216   2.756  0.0228 -0.0954  0.0727
34181W        W49028  10.453   8.554   3.575  0.1874 -0.1591 -0.0337
34182W        W49029   5.866   9.999   5.575 -0.0916  0.0225  0.2596
34183W        W49030   0.493   7.538  13.190  0.1371 -0.1886 -0.1914
34184W        W49031  10.876   0.817   1.827  0.1492  0.2592 -0.1007
34185W        W49032   4.331  16.153  13.298  0.0449  0.1588 -0.1740
34186W        W49033   8.092   5.703  12.684 -0.0408 -0.1737 -0.0387
34187W        W49034   3.376  15.657  14.761 -0.0369  0.3873  0.2543
34188W        W49035  12.158   0.437   1.414  0.0238 -0.1933  0.0615
34189W        W49036   8.924  13.957   2.842 -0.0601  0.0639  0.0452
34190W        W49037  10.240  13.960   6.226 -0.1563 -0.1061  0.1273
34191W        W49038  16.382   6.599  16.687  0.0638  0.0457  0.1467
34192W        W49039  16.553   4.187   2.273  0.0305 -0.4241  0.0055
34193W        W49040   4.798   4.818   3.007 -0.2388 -0.1717  0.1844
34194W        W49041   9.312   3.605   2.600  0.0978  0.1201  0.2613
34195W        W49042   7.484  13.600   4.384  0.0226 -0.1494  0.0732
34196W        W49043  17.271   2.493  14.011  0.1648  0.0034  0.1666
34197W        W49044   2.581  17.306   6.807 -0.3705 -0.1265  0.3277
34198W        W49045   7.961   4.090   5.796 -0.0828  0.1295  0.1835
34199W        W49046   5.678  13.336  17.059 -0.4013  0.0899 -0.1300
34200W        W49047   4.391   8.149  15.031  0.1751  0.0834 -0.0643
34201W        W49048   6.962   8.304  12.329 -0.1156 -0.4423 -0.1214
34202W        W49049   7.576   5.436   3.156  0.2760 -0.1265 -0.1817
34203W        W49050  10.134  11.476  13.844 -0.1290  0.0266  0.3740
34204W        W49051  17.348   5.350  16.898  0.0322  0.1796 -0.3532
34205W        W49052   2.667  17.391  15.100 -0.2667 -0.0825 -0.0013
34206W        W49053   3.011   7.223   0.560  0.0446 -0.0366 -0.1830
34207W        W49054  11.519  16.270   4.153 -0.0289  0.0211 -0.5008
34208W        W49055   6.793  13.072  15.996 -0.1080 -0.0590  0.0115
34209W        W49056   3.719   4.106   4.330 -0.3527 -0.1678 -0.0462
34210W        W49057  16.113   3.231   2.106 -0.0668  0.1351  0.2496
34211W        W49058  12.588   3.156   3.619  0.1111  0.2475 -0.2327
34212W        W49059  15.046  10.199   3.462  0.0858 -0.0233  0.1982
34213W        W49060   6.094   8.959   1.324  0.2654  0.0845 -0.0024
34214W        W49061   8.303  16.281   0.183  0.2506 -0.2643  0.2065
34215W        W49062  14.435   2.471   4.594 -0.1935  0.1858  0.1571
34216W        W49063  15.287   6.173   3.280 -0.0370 -0.1747  0.1831
34217W        W49064   1.075  15.771   1.758 -0.2229  0.1821  0.0931
34218W        W49065  10.673   4.743   5.823 -0.2748 -0.2029  0.0195
34219W        W49066  10.471  13.664  16.198  0.1546  0.2544  0.0649
34220W        W49067   7.907  14.024   3.276  0.2171 -0.2207 -0.2678
34221W        W49068  10.141   0.895   4.014  0.0407 -0.1067 -0.0320
34222W        W49069  17.126  14.871   2.949 -0.3283 -0.0490 -0.1890
34223W        W49070   7.280  17.334   0.403  0.1549 -0.0222  0.1492
34224W        W49071   8.806  14.624  14.407 -0.0280  0.0191  0.1088
34225W        W49072   8.164   2.352  13.056  0.4649 -0.0945  0.1575
34226W        W49073   9.840   1.953  13.976  0.1915 -0.2343 -0.0398
34227W        W49074   5.005  15.136  16.445 -0.0839 -0.0147 -0.1193
34228W        W49075  14.473   4.198   5.000  0.1785 -0.0460 -0.2625
34229W        W49076   5.755   8.778   2.289  0.4066 -0.1300 -0.0544
34230W        W49077   5.608  13.174  12.851 -0.0553  0.0286  0.0464
34231W        W49078  16.997   5.983  16.312  0.2116  0.0543  0.2102
34232W        W49079  16.053  14.585  12.522  0.2107  0.0536 -0.1849
34233W        W49080  15.535   2.328   1.255  0.0251  0.1731  0.1803
34234W        W49081  13.113   3.597  16.010 -0.1837 -0.3268 -0.0737
34235W        W49082   1.778   3.545  17.276 -0.2385  0.1783 -0.0511
34236W        W49083   3.365   6.090   2.076 -0.1349 -0.1343  0.1826
34237W        W49084  17.127   4.725  16.514  0.1178  0.0585 -0.2672
34238W        W49085  15.276  13.524   1.126  0.0106 -0.1776  0.0470
34239W        W49086  15.728   8.305  13.554  0.0649  0.3190  0.0685
34240W        W49087   9.437  14.812   4.534  0.1497  0.3162  0.0690
34241W        W49088   4.607  13.235   6.053  0.2635  0.1888  0.2766
34242W        W49089  11.950   1.513   3.482 -0.1010 -0.2482 -0.0013
34243W        W49090   6.328  16.801   0.664 -0.0051 -0.4083  0.0251
34244W        W49091   6.505   1.698   1.633  0.0685 -0.1194 -0.2330
34245W        W49092   2.911  10.525  12.527 -0.0738 -0.2636  0.0315
34246W        W49093  17.096   1.075  16.456  0.1194 -0.2100  0.0769
34247W        W49094   6.635   3.630   3.910  0.2468 -0.1366 -0.2955
34248W        W49095  11.908  11.881   5.497 -0.0338  0.1029  0.0911
34249W        W49096   8.781  15.283   2.297 -0.1987  0.2174 -0.0538
34250W        W49097   8.612  10.473  12.767 -0.5022  0.1283 -0.0580
34251W        W49098   0.725   9.739  16.071 -0.4221  0.0166 -0.0844
34252W        W49099   9.017   9.410   6.052 -0.6287 -0.1944  0.1706
34253W        W49100  17.017  13.378  15.619  0.1211  0.0856  0.0183
34254W        W49101  16.520  16.195  12.088 -0.4048 -0.3071  0.1997
34255W        W49102  11.767   6.972   1.664  0.1029  0.0924  0.1220
34256W        W49103  14.306   0.416  13.184 -0.0096 -0.0318  0.0971
34257W        W49104   4.502   1.295   1.600 -0.1407 -0.0492 -0.1851
34258W        W49105   1.939   9.332   6.377  0.0798  0.1592 -0.1204
34259W        W49106  16.811  14.705   2.142 -0.1628  0.2234  0.0747
34260W        W49107   9.566   6.671  16.680  0.1763 -0.0695 -0.1880
34261W        W49108  16.457   6.056   1.287 -0.1379  0.0332 -0.1174
34262W        W49109  12.848   5.795   3.648  0.0610 -0.3190  0.0532
34263W        W49110   3.131   5.674   0.718 -0.0863 -0.2190  0.2627
34264W        W49111   1.981  15.431  14.579 -0.0131 -0.1674  0.1938
34265W        W49112  15.242  16.804  14.123  0.3504 -0.1670 -0.2389
34266W        W49113   8.832  15.801   1.191  0.1162 -0.1427 -0.1400
34267W        W49114  13.650  10.282  12.422  0.0966  0.1742 -0.1505
34268W        W49115  11.254  13.875  17.186 -0.1611 -0.1798  0.1278
34269W        W49116  12.737  16.217   0.002  0.0780 -0.2442  0.2655
34270W        W49117  17.571   7.209   0.846 -0.5936 -0.0979  0.1971
34271W        W49118  13.081   9.223   0.433  0.1095  0.1762 -0.0159
34272W        W49119   9.664   9.121  14.170  0.0477 -0.0558 -0.1479
34273W        W49120  12.016   5.087   5.837  0.1568 -0.0298  0.0780
34274W        W49121  16.428  15.411   1.742 -0.2179  0.0272  0.0554
34275W        W49122   5.301  14.719   1.224 -0.0099  0.0067 -0.1321
34276W        W49123   1.473   7.003   3.991  0.0852 -0.2525 -0.1593
34277W        W49124   2.858  14.659  13.771 -0.4178  0.0301  0.1991
34278W        W49125   3.351   5.712   4.797 -0.0020  0.2762 -0.2304
34279W        W49126   9.608   1.792  17.594 -0.0878  0.1768 -0.2955
34280W        W49127  10.742  11.474  13.164 -0.0321  0.1094 -0.3206
34281W        W49128   9.793  13.114  17.670  0.3789 -0.2412  0.2802
34282W        W49129  12.549   3.400   4.853 -0.1395  0.0777  0.0166
34283W        W49130  13.727   6.862   4.729 -0.0350  0.0973 -0.3503
34284W        W49131  16.136   7.112   4.551 -0.3239 -0.1249  0.1630
34285W        W49132   7.978   4.568   5.969  0.1466 -0.0945  0.0188
34286W        W49133  16.588   4.793  16.765  0.0327  0.0602 -0.2340
34287W        W49134   7.726   5.073   2.466 -0.2487 -0.3232  0.2530
34288W        W49135   4.029  12.100   5.405 -0.1155 -0.1987 -0.1971
34289W        W49136  10.665   3.773  16.783  0.1921 -0.0314 -0.0280
34290W        W49137   8.960   6.171  16.249 -0.3378  0.4454  0.2086
34291W        W49138   3.287  13.821  12.345  0.0316  0.0009 -0.1703
34292W        W49139   9.960   3.407  11.430  0.1499  0.3305  0.0715
34293W        W49140   0.517  15.388   5.890 -0.1685 -0.2009 -0.0640
34294W        W49141   2.147   1.357  16.910 -0.1363  0.0366  0.1305
34295W        W49142   6.585  17.243  16.405 -0.4724  0.0336 -0.3894
34296W        W49143   4.690  14.031  13.287  0.0823 -0.0050  0.1609
34297W        W49144  17.144   3.524  14.124 -0.1375 -0.0426  0.1620
34298W        W49145  14.017  12.617  14.872  0.0924  0.3195  0.2147
34299W        W49146   4.966   8.866  12.400 -0.0270  0.2064  0.0198
34300W        W49147  10.218   4.656  15.914  0.1203 -0.0569 -0.0636
34301W        W49148   7.931  16.171   5.170  0.1087  0.3545  0.0134
34302W        W49149   0.442  12.076  16.643  0.0583 -0.3063 -0.2714
34303W        W49150  10.220   7.784  13.170 -0.2826  0.0444 -0.1689
34304W        W49151   1.974  15.300  17.634 -0.2756 -0.1511 -0.0017
34305W        W49152  12.784  11.083  15.265 -0.1997 -0.2148  0.2208
34306W        W49153   8.643   2.109  12.817  0.2152  0.0065 -0.1110
34307W        W49154   4.671   1.977  13.067  0.3625 -0.0187 -0.0758
34308W        W49155   4.128  16.698  16.285  0.2497  0.0515  0.2138
34309W        W49156   3.631  10.435   1.048  0.1130 -0.1135  0.2730
34310W        W49157  14.613  15.783   4.116  0.1046  0.1821 -0.3864
34311W        W49158   6.453   4.082   4.362 -0.2070  0.0461  0.2109
34312W        W49159   9.994  13.881   2.155 -0.1884 -0.4545 -0.0433
34313W        W49160  15.475  13.785  12.797  0.1933 -0.0618 -0.3524
34314W        W49161   2.164   2.637   2.260  0.0578 -0.0662 -0.0233
34315W        W49162  10.069  11.049   0.059  0.1502 -0.2860 -0.2121
34316W        W49163  17.033  17.097   3.893 -0.2017 -0.0906 -0.0578
34317W        W49164   3.579  13.855   3.310  0.0906 -0.0625  0.1011
34318W        W49165   0.970   3.936   6.256 -0.0402 -0.0499 -0.4530
34319W        W49166   4.703  11.663  14.119 -0.2114  0.1998 -0.0474
34320W        W49167  10.036  12.702  14.924  0.1519 -0.0173 -0.2595
34321W        W49168  11.830   4.010  17.491  0.0587 -0.3286 -0.1547
34322W        W49169  14.843  12.416   1.510 -0.0529  0.2076  0.2655
34323W        W49170  14.881  17.293  13.904 -0.3177  0.1415  0.1038
34324W        W49171  10.007  15.989   2.323 -0.1348 -0.0024 -0.0223
34325W        W49172   2.811  11.608   3.709  0.0265 -0.1485 -0.0942
34326W        W49173  12.725   2.516  16.626  0.1137  0.3160 -0.4450
34327W        W49174   1.664   7.176  11.942  0.1072 -0.0388  0.1865
34328W        W49175  16.017   2.507  16.501 -0.1301 -0.2792  0.0928
34329W        W49176   5.649   0.692  11.473  0.4466  0.0693 -0.1014
34330W        W49177  12.881   7.733  14.320 -0.0521  0.1307 -0.0516
34331W        W49178   6.324  13.610  17.402 -0.2752 -0.0690 -0.1789
34332W        W49179  12.526   7.913   5.450  0.2427 -0.0180  0.0673
34333W        W49180   5.004  16.558   6.050  0.0262  0.1352 -0.0849
34334W        W49181  14.430  16.767  16.058  0.1605 -0.1025 -0.1168
34335W        W49182  13.926   9.700  13.532  0.1916  0.1360  0.3480
34336W        W49183  16.071   3.417   1.266 -0.2273  0.1221 -0.0866
34337W        W49184   4.952   6.026   4.426  0.0669  0.1659  0.0363
34338W        W49185   2.584  13.784   2.644  0.2785 -0.1130 -0.0494
34339W        W49186   3.474  11.973   4.401  0.2036 -0.0867 -0.1015
34340W        W49187   0.343   2.644   2.493  0.1928  0.0184  0.0533
34341W        W49188   4.888   6.836   6.268  0.0929  0.0357  0.1349
34342W        W49189  12.155  17.429   6.224  0.1024 -0.1388  0.0870
34343W        W49190  14.879  13.989  13.899 -0.3006 -0.1158 -0.2217
34344W        W49191  15.652   6.940   2.948 -0.0421 -0.0442  0.1338
34345W        W49192   7.796   7.260  13.595  0.1146  0.0477 -0.1046
34346W        W49193  17.453   4.362  13.704 -0.0338 -0.2017 -0.0839
34347W        W49194   6.367  15.082   6.116  0.0975 -0.4139  0.1625
34348W        W49195   4.485  17.263  13.318 -0.1369  0.0745 -0.0503
34349W        W49196  11.782  15.169  15.783  0.0988  0.1731 -0.0098
34350W        W49197  15.935   7.697  15.478 -0.0250  0.1956 -0.2898
34351W        W49198  15.813  10.101  15.274 -0.0385  0.2563 -0.1342
34352W        W49199   9.698   3.461   0.691 -0.0959  0.0275 -0.0373
34353W        W49200  13.619  12.326   5.978 -0.2100 -0.6488  0.3126
34354W        W49201   4.136  11.917   1.354 -0.1293 -0.1916 -0.0182
34355W        W49202   7.466   8.578   4.489 -0.0560  0.0420 -0.1550
34356W        W49203   6.396  17.238   4.120 -0.1802  0.1083 -0.2568
34357W        W49204   1.818  14.329   2.993 -0.3881  0.0940  0.5066
34358W        W49205  11.885   8.442   0.419 -0.0615  0.3268  0.2628
34359W        W49206  13.826  13.149   6.029 -0.1229 -0.0282  0.2656
34360W        W49207   5.077   5.503  12.267 -0.0176  0.2412 -0.1916
34361W        W49208  15.209   2.362  12.186  0.0549 -0.2421  0.2134
34362W        W49209   4.143   3.448   2.327 -0.3198 -0.2907  0.0519
34363W        W49210   3.459   2.244  13.731 -0.0720 -0.1060 -0.0193
34364W        W49211  10.424   9.331   5.285 -0.1050  0.2095  0.0223
34365W        W49212  14.757   7.746   6.035 -0.3218 -0.1391 -0.0554
34366W        W49213  14.472   2.875   4.010  0.1072 -0.2137  0.3699
34367W        W49214   1.066   3.122  17.670  0.2009 -0.2053  0.0787
34368W        W49215   4.038  13.289  15.279 -0.2212  0.1685 -0.4471
34369W        W49216  10.085   1.694  16.353  0.2267  0.0294 -0.3537
34370W        W49217  13.366  16.529   2.163 -0.1621  0.0606  0.2840
34371W        W49218  12.113   0.941  16.527  0.1062  0.4130 -0.0880
34372W        W49219   1.119  11.303   4.567  0.0569 -0.0344  0.1843
34373W        W49220  17.188  15.001   4.251 -0.1607  0.2795  0.0484
34374W        W49221  11.067   0.517  12.949  0.1026  0.1297 -0.1146
34375W        W49222   9.566  12.661  17.345 -0.0232  0.2345  0.0695
34376W        W49223  13.274   3.169   4.199 -0.0721 -0.1103  0.0134
34377W        W49224   9.073   9.545  15.345 -0.1371  0.2467  0.0995
34378W        W49225  16.807   2.465  12.747  0.0588 -0.4333 -0.0002
34379W        W49226   5.114  16.621   5.586 -0.0406  0.0172  0.1810
34380W        W49227  14.378   7.322  14.879 -0.0436  0.2025 -0.1907
34381W        W49228   3.029  12.773   3.963 -0.0936 -0.2161 -0.2067
34382W        W49229  15.324  10.678   4.299 -0.0581 -0.0520 -0.0434
34383W        W49230   2.000   1.963  11.986 -0.3455 -0.1515  0.0949
34384W        W49231  10.043   9.364  16.277 -0.1216  0.2694 -0.1736
34385W        W49232   0.809  13.250  13.479 -0.1423 -0.3193 -0.0205
34386W        W49233   0.072  16.514  13.856 -0.0581 -0.1715 -0.0540
34387W        W49234   1.080   2.332   1.674 -0.1999  0.0597  0.1567
34388W        W49235  11.392   2.209  17.314 -0.0477 -0.0535  0.0898
34389W        W49236   8.679   8.592   2.153  0.4490 -0.0318 -0.3464
34390W        W49237   0.072  13.676   4.052  0.0708 -0.0735 -0.0062
34391W        W49238  17.037  15.235  14.127 -0.1162  0.0922 -0.1497
34392W        W49239   4.529   0.236   4.638 -0.0776 -0.0061  0.0325
34393W        W49240   6.392   1.697   5.144  0.0428  0.1061 -0.2408
34394W        W49241   0.798   3.032  14.680 -0.0524 -0.0478 -0.0067
34395W        W49242   1.607   2.057   5.411 -0.2766 -0.2081 -0.5159
34396W        W49243   3.539  11.141  16.145 -0.0483 -0.2260  0.1510
34397W        W49244   5.106  10.241  13.270  0.3170 -0.2601  0.0243
34398W        W49245   0.607   8.329  14.591  0.1825  0.2872 -0.5530
34399W        W49246   6.097   7.921   5.960  0.0933 -0.2043  0.2836
34400W        W49247  15.098   0.800   4.479  0.3934 -0.4732 -0.1757
34401W        W49248  12.785  10.866  17.018  0.0634  0.0371  0.0308
34402W        W49249   8.611  16.325   6.156  0.1762  0.1542  0.1562
34403W        W49250   4.483   6.186  16.948 -0.0431 -0.0064 -0.0081
34404W        W49251   5.030  13.886   1.563 -0.3167  0.1105  0.3938
34405W        W49252  15.461   2.854   3.761  0.2798  0.0292 -0.0424
34406W        W49253  16.386   3.708   2.007  0.2743 -0.0149  0.0839
34407W        W49254  15.255   1.431   0.880 -0.0551 -0.3401  0.1880
34408W        W49255   5.765  15.775   6.273  0.5248  0.4699 -0.2377
34409W        W49256   0.212  16.158   5.925 -0.2028 -0.2563 -0.2188
34410W        W49257   5.450   0.944  12.752 -0.3258 -0.1391 -0.1762
34411W        W49258  12.349  12.609   5.564 -0.1810 -0.2356 -0.0060
34412W        W49259  10.778   0.832   5.266 -0.0744  0.0047  0.0035
34413W        W49260   5.366  12.473   7.183 -0.2542  0.0214 -0.0352
34414W        W49261   2.922   2.789  13.308 -0.0608 -0.0369  0.2172
34415W        W49262  14.827   4.071   0.717  0.3136  0.1589 -0.0234
34416W        W49263   6.702   9.742   2.503  0.2902 -0.2442  0.2367
34417W        W49264   6.412  16.847  14.442 -0.0547 -0.0767 -0.0520
34418W        W49265   2.657   6.846   4.921 -0.2399  0.2272 -0.0516
34419W        W49266  11.356   5.622  15.659 -0.0622  0.2504 -0.0376
34420W        W49267   8.230  13.027   3.482 -0.0972  0.1963  0.5395
34421W        W49268   0.674   5.269  13.963  0.0898  0.0612  0.2841
34422W        W49269   3.352  14.272   5.062 -0.0127  0.1068 -0.1111
34423W        W49270  16.336  12.999   5.574 -0.1172  0.1736  0.0054
34424W        W49271   4.576  17.355   1.466 -0.2862  0.3479  0.2741
34425W        W49272  15.538   1.318  11.521  0.1512  0.1169 -0.0556
34426W        W49273   0.694  14.893   5.527  0.1451  0.0480  0.2806
34427W        W49274   7.822   3.947  11.833 -0.0042  0.0490 -0.1099
34428W        W49275   6.408   7.404   5.882  0.2775  0.0087 -0.1515
34429W        W49276  15.852  10.387  11.980  0.0555 -0.0243 -0.0236
34430W        W49277  10.507  12.334  13.340 -0.3928  0.0074 -0.1162
34431W        W49278   7.302   0.749   4.292 -0.2079  0.0614 -0.0897
34432W        W49279  16.797  14.689  13.007 -0.2192  0.2491  0.0456
34433W        W49280   2.259   2.706  17.509 -0.0501  0.0242  0.0810
34434W        W49281   0.871  13.710   6.520  0.0750 -0.2009 -0.0791
34435W        W49282   2.100   6.674   1.924 -0.1112 -0.0470  0.0266
34436W        W49283  12.598   8.031  17.618 -0.0287 -0.0905 -0.0356
34437W        W49284  15.043  10.654  17.111 -0.0886  0.0893 -0.1199
34438W        W49285  10.604   1.422  11.267 -0.1669  0.3468  0.0526
34439W        W49286  14.998  11.692   4.936  0.1269  0.2915  0.1036
34440W        W49287   9.696  15.327  16.263  0.0368 -0.1165 -0.0643
34441W        W49288  15.869  10.472   3.470 -0.2272  0.1089 -0.0774
34442W        W49289  13.181   0.940  14.261 -0.1345  0.2348 -0.1130
34443W        W49290   3.338  11.946   7.057  0.0199 -0.1305  0.2822
34444W        W49291   7.820   5.347   1.940 -0.1633 -0.1786 -0.3208
34445W        W49292   3.262   0.676   2.788  0.3723 -0.0135  0.1967
34446W        W49293  17.503   5.084  14.252 -0.1334 -0.2509 -0.2770
34447W        W49294   0.360   8.013   1.014  0.2275 -0.0527  0.2089
34448W        W49295  17.051  10.096   4.692  0.0939 -0.1076  0.1587
34449W        W49296   0.872   2.128  16.763 -0.2002  0.1559  0.2831
34450W        W49297  12.687   7.781  13.742 -0.0841  0.1706  0.0743
34451W        W49298  17.586   0.238   4.658 -0.1296 -0.1000  0.1757
34452W        W49299   0.248  11.140  14.194  0.3158  0.0371  0.2335
34453W        W49300   3.428  17.499  17.511  0.0417  0.0205  0.2086
34454W        W49301   6.313   6.596  11.579 -0.0067 -0.1692 -0.0378
34455W        W49302  13.699   5.998  14.989 -0.2987 -0.4168  0.2199
34456W        W49303   4.430   5.088   4.205  0.3431 -0.1506 -0.2467
34457W        W49304   1.519  10.925   5.471 -0.1251 -0.1017  0.0462
34458W        W49305  16.911  15.901  15.547  0.1013 -0.0671  0.0039
34459W        W49306   9.750  11.774   0.952  0.2052  0.1104  0.0146
34460W        W49307  17.196   8.074   1.647  0.1423 -0.0497  0.0687
34461W        W49308  15.600  13.798   0.136 -0.1437  0.1402 -0.0973
34462W        W49309   7.922  13.207  17.648  0.0106  0.0797  0.1634
34463W        W49310   5.261  16.429  13.468  0.0791  0.0892 -0.1325
34464W        W49311   0.762   1.519   2.630  0.0064  0.2595 -0.4922
34465W        W49312  10.638   4.018  17.240  0.0694  0.1956  0.0345
34466W        W49313  13.345  16.346   1.194 -0.0262  0.0631  0.0960
34467W        W49314   5.260  12.360   4.739 -0.3485  0.1446 -0.0642
34468W        W49315  12.858  14.546   2.438  0.0293 -0.2553  0.0031
34469W        W49316  15.109   4.467  12.029  0.1080 -0.1581 -0.0645
34470W        W49317   4.322  13.977  14.769  0.1045 -0.2588  0.1781
34471W        W49318   5.910  14.051   1.419 -0.0031 -0.1430  0.2543
34472W        W49319   7.080  17.227  17.065 -0.1995 -0.0437  0.0611
34473W        W49320   8.960  17.247   2.715 -0.0354 -0.1249 -0.0354
34474W        W49321   9.178   1.744  14.946 -0.1224  0.1048 -0.2591
34475W        W49322   0.705   2.402  11.909  0.2001  0.0117 -0.1083
34476W        W49323   7.068   5.745  14.891  0.1167  0.1153  0.4203
34477W        W49324   0.794   3.680  12.733 -0.0665  0.0220  0.2116
34478W        W49325   3.554  15.481  13.653  0.0013  0.0514  0.0329
34479W        W49326   0.789   8.459   5.975  0.1212 -0.3930  0.4591
34480W        W49327  11.525  16.481  14.298 -0.1372 -0.2465 -0.0535
34481W        W49328  12.270   1.969   5.103 -0.1878  0.0357  0.0298
34482W        W49329  15.888   7.381   5.248 -0.2092 -0.1239  0.1377
34483W        W49330   6.402   8.550   1.454 -0.0269  0.1173 -0.3651
34484W        W49331  13.635  17.179   5.213  0.1512  0.4353  0.0498
34485W        W49332  10.867   1.456  17.370  0.1162  0.0516  0.0992
34486W        W49333  16.299  11.605   4.680  0.2770  0.3386  0.2347
34487W        W49334  14.476  17.677   1.292  0.2144 -0.0578 -0.1357
34488W        W49335   8.181  14.153   2.422 -0.0369 -0.0587  0.1532
34489W        W49336  11.183   1.654  16.973 -0.1139 -0.0244  0.0729
34490W        W49337   6.362  13.718  16.372  0.1613  0.1250 -0.1227
34491W        W49338  15.730   9.098  16.396 -0.0280  0.1686  0.1001
34492W        W49339  14.810   7.314  17.342 -0.2463  0.1997 -0.0619
34493W        W49340   4.634   6.944  17.366 -0.4102 -0.0022 -0.0785
34494W        W49341   0.307   7.753  11.219 -0.1650  0.0638 -0.2287
34495W        W49342   8.203   7.575  12.779  0.0821  0.0796 -0.0331
34496W        W49343   7.213   3.596   3.975  0.0465  0.1652 -0.4063
34497W        W49344   8.035  16.073   1.395 -0.3042 -0.2038  0.0656
34498W        W49345  11.941   9.952  16.659 -0.0004  0.2309 -0.3121
34499W        W49346   5.359  16.602   6.418  0.0914  0.0097  0.0822
34500W        W49347  10.629  15.758   0.567  0.0966 -0.1655 -0.1188
34501W        W49348   2.744   1.408   2.039  0.3250 -0.1326 -0.1327
34502W        W49349  16.469   1.050  15.355 -0.0298 -0.0483  0.1141
34503W        W49350   5.157  16.522   1.390 -0.1056  0.1469 -0.0318
34504W        W49351  15.816   5.327   1.372  0.0786  0.2756 -0.1188
34505W        W49352   0.904   7.248   1.626  0.0442 -0.1691 -0.1505
34506W        W49353  11.582  13.211   6.187 -0.0221 -0.0869 -0.1620
34507W        W49354  17.612   3.656   5.672  0.1373  0.2757 -0.0013
34508W        W49355  15.077  12.498   5.613 -0.0690  0.1968  0.2758
34509W        W49356   8.208   9.737   2.673  0.1412  0.0575 -0.0809
34510W        W49357   4.464   6.526   0.371  0.2647  0.2239 -0.0812
34511W        W49358  15.753  12.246   1.635  0.0440 -0.1306  0.0225
34512W        W49359  12.947   9.589   0.970 -0.2332 -0.0440 -0.2394
34513W        W49360   8.010  11.867   2.922 -0.0469  0.1314  0.1189
34514W        W49361   2.977  15.183   4.864  0.0173  0.0444  0.1792
34515W        W49362   8.576  16.907   4.491  0.0028  0.1035 -0.0580
34516W        W49363   1.765   2.023  16.371  0.3619  0.1552  0.2283
34517W        W49364   3.550   9.999   4.468  0.0508 -0.0992 -0.2427
34518W        W49365   4.159  17.108  14.818  0.1688  0.1773 -0.3752
34519W        W49366  15.991  13.690   0.550  0.2056 -0.0389 -0.0415
34520W        W49367  12.811  12.124   6.389 -0.4689  0.1441  0.1918
34521W        W49368   7.044  10.435  14.321 -0.0848  0.0243  0.1236
34522W        W49369   1.838   5.541  12.468  0.1633  0.1889  0.1006
34523W        W49370  11.140  14.590   0.865  0.0751  0.1136 -0.1238
34524W        W49371   8.604   8.303   3.752  0.0310 -0.4738 -0.3307
34525W        W49372  10.092  13.089   1.763  0.2003  0.1634 -0.1527
34526W        W49373   2.529   5.859  12.868  0.3847 -0.2164  0.0981
34527W        W49374  16.144  12.733  16.575 -0.0788  0.1139  0.1277
34528W        W49375   7.806   6.861   1.915  0.2154 -0.0146 -0.5257
34529W        W49376  11.394  16.556   2.539  0.0922  0.0279  0.0342
34530W        W49377  13.523  12.480  16.558  0.3711 -0.0208 -0.2686
34531W        W49378   1.950   4.874   6.554 -0.2430  0.1352  0.1707
34532W        W49379  16.737   0.205   4.130 -0.0500  0.1831  0.1365
34533W        W49380   9.754  11.451  14.191  0.1854 -0.1599 -0.0018
34534W        W49381  15.461   0.064  15.142  0.0735  0.3078 -0.1349
34535W        W49382   9.118  10.820  17.622 -0.0836  0.2811 -0.2728
34536W        W49383   8.047   0.945   5.025 -0.3575  0.0240 -0.1338
34537W        W49384  11.286  17.424   0.414  0.3158  0.1143  0.0108
34538W        W49385   2.001   3.478   0.174 -0.1384 -0.2574  0.0349
34539W        W49386  12.821  16.585  16.683 -0.0900 -0.0331  0.0673
34540W        W49387   4.470   2.753   6.358  0.2450  0.0342 -0.2787
34541W        W49388   1.302   6.086  17.387 -0.0315  0.0659  0.3242
34542W        W49389  11.431   8.326   2.611 -0.0485  0.2257  0.1392
34543W        W49390   3.141   7.944   0.256 -0.1039  0.1473 -0.2798
34544W        W49391   7.135   4.845  15.811  0.4535 -0.2366  0.2330
34545W        W49392  14.712   8.417   0.525 -0.0844  0.0515  0.0616
34546W        W49393   1.104   3.072  12.060 -0.0302  0.0050  0.3219
34547W        W49394   6.063  11.286   0.757 -0.0137 -0.0384 -0.0207
34548W        W49395   0.467   0.553  16.730  0.0463  0.0291 -0.3135
34549W        W49396  14.635  15.730  13.986 -0.0645 -0.3399 -0.1727
34550W        W49397   0.959   1.151  13.049  0.1260  0.0495 -0.0193
34551W        W49398   5.168  14.810   4.990 -0.0972 -0.0977 -0.1788
34552W        W49399  13.506   9.340  17.139 -0.0479 -0.2045  0.2230
34553W        W49400   3.931   8.618  17.053  0.0279  0.0392 -0.0677
34554W        W49401  15.906   7.269  15.789 -0.2458 -0.1735 -0.0886
34555W        W49402  14.186   8.597  17.213  0.1874 -0.2894  0.0158
34556W        W49403   0.520   2.610   2.926 -0.0522 -0.1592  0.0621
34557W        W49404  11.225  15.423   1.279  0.1766  0.0032  0.3814
34558W        W49405   5.423  13.505  15.525 -0.1442 -0.0209 -0.0031
34559W        W49406   0.166   7.806   3.887  0.0251 -0.1774  0.0579
34560W        W49407   3.241   1.227  12.642  0.1939  0.0668 -0.0937
34561W        W49408   3.276   0.256   1.877 -0.1332  0.1939 -0.0363
34562W        W49409  11.978  16.626  14.243  0.3576 -0.2829 -0.1985
34563W        W49410   3.184   6.358   6.710 -0.0398  0.1950  0.1680
34564W        W49411   8.103  10.853  12.020  0.0416  0.3569 -0.2551
34565W        W49412   5.518  16.623   5.951  0.0607  0.0405  0.1282
34566W        W49413  17.160   7.814  16.261 -0.0696  0.1171 -0.2344
34567W        W49414   0.315   9.241   0.313 -0.2067  0.1135 -0.1453
34568W        W49415   6.353  13.467   5.258 -0.2641 -0.0188  0.0369
34569W        W49416   9.733   5.643  12.298  0.1289 -0.0096 -0.3230
34570W        W49417  14.847  14.822   2.645  0.1069 -0.1711 -0.1116
34571W        W49418  14.546   2.327  16.185  0.1873  0.0007  0.1493
34572W        W49419   9.419   5.889  14.625 -0.4023 -0.0910  0.2747
34573W        W49420  16.985  10.180   5.270 -0.3194  0.2347  0.0320
34574W        W49421  13.598   3.409   3.878 -0.2098  0.0390  0.0757
34575W        W49422   4.982  13.639   2.596  0.0359  0.1322  0.2985
34576W        W49423   3.993   8.668   2.206  0.1612  0.0658 -0.0034
34577W        W49424   4.079  12.880  15.954  0.0060 -0.0025  0.1337
34578W        W49425  16.156   3.358  11.360 -0.1245  0.0305  0.0142
34579W        W49426  13.101   9.942   2.733  0.2544 -0.1171  0.1495
34580W        W49427  15.526   0.501  15.823 -0.0901 -0.2833  0.1525
34581W        W49428   9.159  12.373   0.285 -0.3447 -0.3859 -0.0554
34582W        W49429   3.865   3.550  17.530 -0.0127 -0.0493 -0.1325
34583W        W49430   6.197   6.783  16.433 -0.0237  0.3185 -0.0855
34584W        W49431   4.834  15.699   4.964 -0.0829  0.0242 -0.1013
34585W        W49432   2.669  10.026  13.232  0.1255  0.1098  0.0684
34586W        W49433  16.977   1.465  12.931  0.1123  0.0433 -0.0804
34587W        W49434  13.990  15.433  17.508 -0.0765  0.0052  0.0233
34588W        W49435   7.636   4.376   1.749 -0.1616  0.1033  0.1043
34589W        W49436   9.758  10.090  16.915 -0.1615  0.0774 -0.1833
34590W        W49437  15.292   0.104  13.258 -0.1441 -0.0459 -0.0605
34591W        W49438   0.471  13.436   3.796  0.0096  0.0072 -0.1855
34592W        W49439   4.181  11.765   5.009 -0.2075  0.0324 -0.3240
34593W        W49440   9.690  14.486   2.748  0.0362  0.3102 -0.0707
34594W        W49441  12.966  16.778  12.350  0.1508 -0.0561 -0.0234
34595W        W49442   1.522  11.621   2.513 -0.2351 -0.2659  0.1778
34596W        W49443  11.454  10.985   3.221 -0.1797  0.0911  0.1768
34597W        W49444  15.450   6.201  15.442 -0.0762  0.0736  0.2062
34598W        W49445  10.823  16.682  16.014  0.2968  0.0420  0.0421
34599W        W49446  16.066  15.076  14.505 -0.1021 -0.2169 -0.1738
34600W        W49447   7.226   2.640   5.030  0.4500 -0.1835 -0.1030
34601W        W49448  10.973   6.287   5.945  0.1738 -0.0021  0.0875
34602W        W49449   0.650   9.131  14.278 -0.2600  0.1458  0.1710
34603W        W49450  10.838   8.806  11.550  0.0326  0.1828 -0.1112
34604W        W49451   0.011   8.668   0.031  0.0102  0.3176  0.0462
34605W        W49452  15.946   5.331  15.855  0.2462  0.1231  0.0475
34606W        W49453   8.090  11.539  16.101 -0.1407 -0.4164  0.1782
34607W        W49454  14.620  11.245   7.007 -0.1583  0.6353  0.1482
34608W        W49455   1.981  12.111   5.534 -0.0376  0.0166  0.1379
34609W        W49456  11.553  11.404  17.619 -0.4339 -0.0026  0.1009
34610W        W49457   9.262  12.919  15.736 -0.1595  0.2337 -0.2313
34611W        W49458  11.639  13.847  12.096 -0.1932  0.1087 -0.1922
34612W        W49459   0.704   3.529   6.256  0.2163 -0.2262  0.0882
34613W        W49460   7.398  11.129  14.919 -0.0427 -0.1962  0.0724
34614W        W49461  13.171  10.380   4.059 -0.1931 -0.1014 -0.0148
34615W        W49462  15.356  10.133  13.266 -0.3063  0.3050  0.0427
34616W        W49463  16.354   8.121  17.612 -0.0208 -0.1795 -0.3262
34617W        W49464  11.923  14.897   1.513  0.0921  0.1158 -0.0547
34618W        W49465  11.110  16.573  14.601 -0.0172 -0.0011 -0.0349
34619W        W49466   4.292   7.274   2.594 -0.1032 -0.2220 -0.1027
34620W        W49467   7.873   2.166  15.414 -0.1672  0.3010  0.2042
34621W        W49468   2.670   1.322  15.644 -0.1157 -0.1835 -0.0651
34622W        W49469   1.170  11.786  13.623  0.0242  0.0730  0.2921
34623W        W49470  14.482   7.145  16.416  0.0772  0.1596  0.0354
34624W        W49471  16.544   1.849   1.344  0.0126 -0.0277  0.2066
34625W        W49472  15.929  14.365   4.829  0.1475  0.2597  0.2108
34626W        W49473   9.261   6.117   1.525 -0.3419 -0.1057  0.1119
34627W        W49474   3.528  16.802   0.042  0.2881 -0.0709  0.1916
34628W        W49475   4.521   2.129   5.264  0.3345 -0.1024  0.0258
34629W        W49476   1.184  12.591   5.729  0.4093  0.0205  0.2123
34630W        W49477  15.108   3.259   0.843  0.1069 -0.0426  0.1002
34631W        W49478  11.522   0.933  15.567  0.1588  0.2270  0.0435
34632W        W49479   2.815  10.028  16.105  0.0640  0.1004 -0.0662
34633W        W49480  14.699   6.451   0.085  0.1013  0.0280  0.0595
34634W        W49481   7.065  10.654   5.068 -0.0288 -0.3175 -0.3307
34635W        W49482   8.367  13.079   4.704 -0.1185  0.1849 -0.1041
34636W        W49483  10.604   1.995   2.251  0.0853  0.0935 -0.1304
34637W        W49484   6.109  15.161   2.936 -0.1463  0.1473 -0.2931
34638W        W49485  13.038   5.375   1.389  0.0547 -0.0619  0.0824
34639W        W49486  14.316   4.249   0.553 -0.1895  0.1427  0.0039
34640W        W49487   2.704   5.809   0.989  0.2697  0.1363 -0.0383
34641W        W49488  14.023  17.019   3.864  0.3018  0.1053 -0.3219
34642W        W49489   1.692  11.637  13.546 -0.1317  0.0024 -0.0226
34643W        W49490   2.711   0.125  16.798 -0.0740  0.3926 -0.1013
34644W        W49491  15.691  14.413   1.723  0.1179 -0.1108  0.0468
34645W        W49492   8.012   8.305   3.903 -0.0918  0.0460  0.1901
34646W        W49493  11.284  16.925   6.331  0.0854  0.1358  0.0714
34647W        W49494  11.515   5.021   5.891  0.0988 -0.0618  0.0792
34648W        W49495   6.151   5.609   0.863  0.0371  0.3584  0.0443
34649W        W49496  14.580  10.723   3.890  0.2972 -0.3076  0.1795
34650W        W49497   3.028   1.605  16.385  0.0726 -0.1363  0.1457
34651W        W49498  12.546   7.799   0.993 -0.0388 -0.0134 -0.4807
34652W        W49499   5.701   1.122  13.103 -0.1696  0.0925  0.0051
34653W        W49500   4.231   4.100  17.395 -0.3638  0.0578  0.1485
34654W        W49501   9.752   1.727  14.965  0.2766  0.0463  0.0923
34655W        W49502  12.424  12.408   2.787 -0.1685  0.0617  0.0295
34656W        W49503   0.440   3.582   4.397  0.2266 -0.3842  0.4090
34657W        W49504  16.998  11.136   4.345 -0.0720 -0.1128  0.0861
34658W        W49505  14.444  10.373   0.005  0.0007  0.1336 -0.3700
34659W        W49506   7.453   7.245  17.528  0.0472  0.0975  0.1009
34660W        W49507  15.239   0.632   3.552 -0.1902  0.1929 -0.0392
34661W        W49508   3.209   3.083   1.720  0.2738  0.1233 -0.3238
34662W        W49509   2.466  12.701  14.934 -0.2044 -0.1168 -0.0637
34663W        W49510   5.934   3.602  16.079 -0.2963 -0.1044 -0.1373
34664W        W49511  16.406   5.714   4.941 -0.1534 -0.2143 -0.2003
34665W        W49512   5.752  10.533  10.837 -0.1335  0.1157  0.1875
34666W        W49513   8.284   7.880  14.934 -0.2831  0.1698  0.0985
34667W        W49514  13.297  16.792  17.336 -0.1372  0.2254 -0.0889
34668W        W49515   9.780   5.452   2.879  0.0272 -0.0705  0.0997
34669W        W49516   3.640  16.798   3.568 -0.1144 -0.0667  0.2587
34670W        W49517   6.887   5.787   2.955 -0.3330  0.0324  0.0503
34671W        W49518  13.094  12.591   3.564 -0.0530  0.0924 -0.5379
34672W        W49519  12.337   4.189  11.704  0.2637 -0.1183  0.2678
34673W        W49520  13.498  13.105  12.813 -0.1765 -0.1089 -0.0322
34674W        W49521   7.200   0.240  16.790 -0.0609 -0.2588  0.1962
34675W        W49522  17.065   5.347   4.626  0.0668 -0.0244  0.0563
34676W        W49523   2.789   6.141  13.287  0.0165 -0.2549  0.1828
34677W        W49524   4.953   0.519  16.449 -0.0856  0.0888 -0.0552
34678W        W49525  17.282   8.769   0.364  0.0891 -0.1315 -0.0708
34679W        W49526   6.893  10.799  12.328  0.2507 -0.0513 -0.0612
34680W        W49527   7.382  12.270  15.065 -0.0005  0.4054 -0.1427
34681W        W49528   3.671  13.378   6.537 -0.1678 -0.1195  0.0388
34682W        W49529  17.176  15.464  17.462  0.0651  0.2932  0.1074
34683W        W49530   2.860   9.670  15.718 -0.0218 -0.2869  0.0974
34684W        W49531  12.028  13.014   0.956 -0.3023 -0.1468  0.1618
34685W        W49532  15.048   1.173   2.912  0.0419  0.0345  0.2296
34686W        W49533   4.644  10.959   2.161  0.0203  0.1471  0.1117
34687W        W49534  16.262   6.567   3.888 -0.0182  0.3288  0.2479
34688W        W49535   5.865   3.234   4.541  0.4845 -0.0186 -0.0506
34689W        W49536  10.179  14.534   2.477 -0.2977  0.3288 -0.0777
34690W        W49537   8.884  13.671   0.310  0.1015  0.1382  0.1407
34691W        W49538   8.241   6.683  15.307 -0.0436  0.0332  0.2096
34692W        W49539  17.549   9.792   3.013 -0.0478  0.0493 -0.3086
34693W        W49540   5.625   4.181  15.426  0.3498  0.4810 -0.0070
34694W        W49541  15.679   3.026   0.860 -0.0589 -0.1811 -0.0598
34695W        W49542   5.671   3.935  14.436 -0.1196 -0.1551 -0.3315
34696W        W49543   9.125  10.754   5.810  0.1099 -0.1557  0.0222
34697W        W49544   7.934   2.539  15.952 -0.1171  0.1075 -0.0573
34698W        W49545  16.997  10.882   6.919 -0.0224  0.0701  0.1794
34699W        W49546  10.681   8.682   1.329 -0.4730 -0.0761 -0.0934
34700W        W49547   8.531   8.853  13.317  0.0794 -0.0634  0.1588
34701W        W49548  16.398  14.353  15.566  0.4506  0.1674 -0.0898
34702W        W49549   4.415   7.769   4.338  0.1652 -0.1299 -0.1273
34703W        W49550   1.504   5.426   4.170  0.0563  0.2935 -0.0994
34704W        W49551  11.879  13.318   2.208 -0.1271  0.1160 -0.0079
34705W        W49552  17.072   1.494   2.218 -0.3400  0.3772  0.1243
34706W        W49553   2.282  11.760   3.420  0.0926 -0.0361 -0.0111
34707W        W49554   4.876  11.791   5.655 -0.0849 -0.4009  0.1196
34708W        W49555   8.741   1.046  15.134 -0.0482 -0.0736 -0.1095
34709W        W49556  15.740  13.634   7.198  0.0930  0.0415  0.1834
34710W        W49557   1.640  10.600   3.723  0.1723 -0.0677 -0.0612
34711W        W49558  11.839   7.042   0.090 -0.1757  0.0306 -0.1317
34712W        W49559   4.911  10.323   6.633  0.2394 -0.0797 -0.0479
34713W        W49560   9.639  17.673  14.996 -0.0538 -0.0313  0.1366
34714W        W49561   7.658  16.073   6.522  0.0183  0.0707 -0.0436
34715W        W49562  15.648   9.870  17.106 -0.1346 -0.0872  0.0540
34716W        W49563   6.737  16.327  13.578 -0.3076  0.2703 -0.0184
34717W        W49564   9.435  11.225   0.459 -0.0936 -0.0414  0.2238
34718W        W49565  12.730   7.214   6.762 -0.0578  0.1371 -0.1160
34719W        W49566   2.581  10.160   5.804 -0.0625 -0.1935  0.0069
34720W        W49567   1.587   2.467   1.654  0.1378  0.1177  0.0720
34721W        W49568  12.103   7.810  14.532 -0.0285 -0.1674 -0.2432
34722W        W49569   5.829  16.547  17.517  0.4304  0.0011 -0.0989
34723W        W49570   6.116  10.838  15.306 -0.3079  0.0496  0.0311
34724W        W49571   7.929  15.860  13.935 -0.1143 -0.1560 -0.2287
34725W        W49572   3.957   8.947  17.497 -0.1884  0.1256 -0.1843
34726W        W49573  17.399   9.621  16.278 -0.2198  0.2293  0.1120
34727W        W49574   0.920   0.389   4.343 -0.0735 -0.0753  0.2844
34728W        W49575   0.004   2.246  16.408 -0.3020  0.1856 -0.1134
34729W        W49576   5.491   9.764   0.780  0.0097 -0.0568 -0.4804
34730W        W49577   3.986   3.332   5.741 -0.0934  0.3757  0.2533
34731W        W49578   3.610   0.859  14.027 -0.0559 -0.0616  0.0452
34732W        W49579   6.655   8.800   2.713  0.1114 -0.1760  0.1609
34733W        W49580  10.920  14.491  14.002  0.0102 -0.2324 -0.0357
34734W        W49581   6.573   2.915   3.441  0.0053  0.1491 -0.2555
34735W        W49582  17.503  17.210  15.818  0.4477  0.1766  0.1342
34736W        W49583   9.242  12.746  14.048  0.1128  0.0542  0.2358
34737W        W49584   0.790   3.658  13.990 -0.0728  0.0885  0.1891
34738W        W49585   3.288   2.411  14.318 -0.0066  0.1762 -0.2168
34739W        W49586  13.948  15.183  15.967  0.0646 -0.1940 -0.0858
34740W        W49587  12.747  17.605  13.189 -0.0516 -0.1391 -0.0089
34741W        W49588  12.444  12.505   6.138  0.1978  0.1049 -0.2419
34742W        W49589   3.909   3.829  14.873 -0.4493 -0.2397 -0.1036
34743W        W49590   1.820  10.253   4.045  0.4012  0.0826 -0.3188
34744W        W49591   2.483  17.335  17.494  0.1008  0.3355 -0.1998
34745W        W49592   5.909   9.343   5.504  0.0501  0.1511 -0.0933
34746ION     NA49593   4.651  12.815  13.269 -0.0116 -0.2924 -0.2006
34747ION     NA49594  14.501  15.535  11.817 -0.0888 -0.1106  0.2200
34748ION     NA49595  12.707  16.181  14.762 -0.1234 -0.0921  0.1968
34749ION     NA49596  11.198   3.842  11.248  0.4023 -0.2457  0.1718
34750ION     NA49597   5.092   2.056   6.689 -0.0184 -0.1018 -0.0266
34751ION     NA49598  12.029  11.480   6.484  0.0451  0.0181 -0.1744
34752ION     NA49599   2.807   3.184   3.789 -0.1155  0.1783 -0.2431
34753ION     NA49600   4.322  14.739  11.075  0.0842 -0.2080  0.0697
34754ION     NA49601   3.335   3.113  11.281  0.3230 -0.0620  0.3714
34755ION     NA49602  10.523  10.779  11.534  0.1599 -0.3491  0.2833
34756ION     NA49603   6.651   0.360  15.247  0.0048 -0.3122  0.1710
34757ION     NA49604  10.671   6.971  11.288  0.0491  0.3800  0.4152
34758ION     NA49605  12.714  16.475   6.864  0.0537  0.0572 -0.2883
34759ION     NA49606  12.277   6.182  11.158 -0.1084  0.2030 -0.0098
34760ION     NA49607  14.867   7.389  11.445  0.1788  0.2214  0.1480
34761ION     NA49608  12.389   7.198  11.392  0.0800 -0.3108  0.4765
34762ION     NA49609   9.915   5.547  11.211 -0.2357 -0.2115 -0.0620
34763ION     NA49610   5.045   7.088  14.902 -0.0387  0.0064 -0.0434
34764ION     NA49611  10.897   2.973  11.978  0.0728  0.1575 -0.2410
34765ION     NA49612   5.371   4.978   6.854 -0.0251 -0.0583 -0.1412
34766ION     NA49613  17.558   8.965  11.404 -0.2610  0.0029 -0.1301
34767ION     NA49614  11.926   2.336  14.048  0.0976  0.0298  0.2145
34768ION     NA49615   9.663  17.294  13.515  0.2472 -0.2582 -0.0895
34769ION     NA49616   3.734   6.715  14.266 -0.0901  0.2994 -0.1318
34770ION     NA49617   7.400   6.823  14.602  0.1801  0.2005 -0.2409
34771ION     NA49618   1.539   8.580  11.140 -0.1766 -0.0108  0.2666
34772ION     NA49619  11.578   2.914  11.422 -0.1313 -0.2857  0.0911
34773ION     NA49620  10.984  14.320  11.812  0.1175 -0.2301 -0.1408
34774ION     NA49621  10.520  16.985  12.443  0.2562  0.2027 -0.0608
34775ION     NA49622  10.467  15.857  11.182  0.4364 -0.1250  0.1263
34776ION     NA49623   7.069  14.141   6.935 -0.0694 -0.5199 -0.0232
34777ION     NA49624   6.367   4.262  11.278  0.2479 -0.1250  0.1717
34778ION     NA49625   3.090  10.439   5.315  0.0238  0.1102  0.0815
34779ION     NA49626  11.227  17.463  11.050 -0.1235  0.0836 -0.1908
34780ION     NA49627   2.433   0.999  11.409 -0.4098 -0.1305 -0.0217
34781ION     NA49628  16.760  14.599  17.387 -0.4053 -0.1405  0.1687
34782ION     NA49629  13.320   5.070  11.582  0.1907 -0.2986  0.3279
34783ION     NA49630  14.752   4.223   6.505  0.0008 -0.0117  0.4263
34784ION     NA49631  12.294   3.865  12.035 -0.1497 -0.0826 -0.0615
34785ION     NA49632  14.831  14.340  15.721  0.2146 -0.0674  0.0949
34786ION     NA49633  17.678  16.843   6.706 -0.3962 -0.1918 -0.2161
34787ION     NA49634   8.073  12.888  11.281 -0.4234  0.1106 -0.0800
34788ION     NA49635  10.628   8.007  11.107 -0.2172  0.0869  0.0718
34789ION     NA49636   2.191   3.717  15.825 -0.0244 -0.0334  0.0730
34790ION     NA49637   0.070   5.335  11.154  0.2822 -0.1100  0.2593
34791ION     NA49638   4.219  16.160   0.498 -0.1574 -0.1393  0.1201
34792ION     NA49639  17.071   1.281  11.123 -0.1884  0.0809 -0.0429
34793ION     NA49640  14.398  15.218   3.551  0.0295  0.2410  0.3342
34794ION     NA49641   0.096   1.634  11.176  0.0106 -0.0676 -0.0918
34795ION     NA49642  14.213  10.092   6.644  0.0016 -0.1942 -0.0557
34796ION     NA49643  12.407  11.556   3.323  0.2403 -0.1401 -0.1939
34797ION     NA49644   6.902   6.777   0.885 -0.2214  0.0184  0.1967
34798ION     NA49645   6.825   4.996  14.492 -0.1032 -0.0568 -0.0683
34799ION     NA49646   4.694  14.867   1.203 -0.1516 -0.1028  0.1497
34800ION     NA49647  10.890  15.377   6.320 -0.2140 -0.3131 -0.4248
34801ION     NA49648   6.524  17.405  10.845 -0.2727  0.2621  0.0175
34802ION     NA49649  11.730  10.800  13.058  0.0622 -0.3019  0.1888
34803ION     NA49650   3.951  11.722  10.904  0.3755  0.1929 -0.1701
34804ION     NA49651   2.995   3.013  11.921 -0.1065 -0.0637 -0.0409
34805ION     NA49652  16.218   8.305   5.246 -0.0827  0.0004 -0.1782
34806ION     NA49653   9.591  10.993  17.687 -0.1876  0.0080  0.3056
34807ION     NA49654   9.045   7.055   6.220  0.0877 -0.2932  0.2905
34808ION     NA49655  10.192  13.171   4.169  0.1803  0.0091  0.1669
34809ION     NA49656   5.636  12.582   1.474  0.4677  0.1488 -0.0800
34810ION     NA49657  14.073   6.112  11.330 -0.1412 -0.2405  0.0493
34811ION     NA49658   1.858  14.880  11.101  0.0899 -0.0033  0.0687
34812ION     NA49659  16.928  17.040  13.090  0.0443 -0.2900  0.1023
34813ION     NA49660   3.331   6.940  10.620  0.0973  0.0027  0.1211
34814ION     NA49661   7.794  11.031  16.780  0.1772 -0.3115 -0.1122
34815ION     NA49662  12.217   0.952  14.719 -0.2359  0.3404  0.2276
34816ION     NA49663  15.810   7.794  11.394 -0.3425  0.0428  0.0592
34817ION     NA49664  15.533   6.013  11.373 -0.2081 -0.0790 -0.0646
34818ION     NA49665  10.538   1.000   4.343  0.2127 -0.2642 -0.1676
34819ION     NA49666   4.753  15.430  10.802 -0.2171  0.1088 -0.3029
34820ION     NA49667   0.839   0.009  10.897 -0.0664  0.1235 -0.1789
34821ION     NA49668   4.180  14.075   4.353  0.0614  0.3582  0.0341
34822ION     NA49669  14.908   8.967   6.691 -0.1093 -0.0990 -0.3713
34823ION     NA49670  12.367  12.638  11.709  0.2945 -0.2590 -0.3628
34824ION     NA49671  14.833  12.010   7.238  0.0681  0.1077  0.2536
34825ION     NA49672   5.745   3.089  16.135  0.2411 -0.0015 -0.1625
34826ION     NA49673   9.444  12.660  16.160  0.2423 -0.1001 -0.0822
34827ION     NA49674  14.555   8.755  15.885 -0.3911 -0.0903 -0.3072
34828ION     NA49675  13.937   4.049  11.185 -0.1132 -0.0070  0.1107
34829ION     NA49676   1.646   2.480  16.580  0.0880  0.1334 -0.1146
34830ION     NA49677   9.838  17.574  10.999 -0.1202 -0.1787 -0.0031
34831ION     NA49678   5.604   6.196   6.595  0.0382 -0.1028  0.1037
34832ION     NA49679   9.455  12.291  11.694  0.0546 -0.1269  0.0342
34833ION     NA49680  10.275  12.546  11.631 -0.3045 -0.1535 -0.0997
34834ION     NA49681   1.068  14.867  17.391 -0.0848 -0.1179 -0.1218
34835ION     NA49682   3.753   0.900   5.164 -0.0497 -0.1345  0.1120
34836ION     NA49683   7.832   9.186  10.985  0.0313 -0.0357 -0.1923
34837ION     NA49684  16.903   3.814  11.080  0.3418  0.0999  0.0022
34838ION     NA49685  10.241  16.655   0.782  0.1945 -0.2163 -0.1691
34839ION     NA49686   9.998  10.046   2.726 -0.2360 -0.0340 -0.0536
34840ION     NA49687   5.454  10.767  11.138 -0.1013  0.0191  0.1198
34841ION     NA49688  16.631   6.502  17.618  0.0584  0.0510 -0.2428
34842ION     NA49689  15.901  13.182   5.463  0.1577 -0.2208  0.0711
34843ION     NA49690  12.364   4.332   6.175 -0.1896  0.0459 -0.0214
34844ION     NA49691   1.411  17.136   4.993 -0.1023 -0.3082 -0.0167
34845ION     NA49692   2.785   2.326   1.142  0.0150  0.2250 -0.0799
34846ION     NA49693   0.684  15.945  11.141  0.3315  0.1171  0.2005
34847ION     NA49694   8.968   3.704  11.027 -0.1499 -0.1298  0.0306
34848ION     NA49695   6.526  11.054  11.204  0.4767  0.3891 -0.2169
34849ION     NA49696   0.332  15.048   4.551 -0.2505  0.2607 -0.0862
34850ION     NA49697   5.335  12.943  16.932  0.1215 -0.0307  0.1907
34851ION     NA49698   3.040  17.419  10.960  0.0644 -0.2980 -0.1648
34852ION     NA49699   2.069   4.122  10.995  0.1137  0.1907  0.0252
34853ION     NA49700  12.388   1.482  11.318  0.0682 -0.1614  0.3709
34854ION     NA49701   3.591   1.250  11.036  0.0510 -0.0784 -0.1539
34855ION     NA49702  11.451  15.622  11.502 -0.1306 -0.1156  0.3060
34856ION     NA49703   4.222   5.382  11.224  0.0949  0.0108  0.1388
34857ION     NA49704  15.544   0.991  10.980  0.1749 -0.2308 -0.0511
34858ION     NA49705   1.414   5.579   4.641 -0.0566 -0.0730 -0.0061
34859ION     NA49706  11.023   5.494  17.581  0.0390 -0.2062  0.0433
34860ION     NA49707   1.008   2.777  10.801 -0.1629 -0.0603 -0.1286
34861ION     NA49708  16.449  15.478   6.891 -0.0755 -0.1514 -0.0128
34862ION     NA49709   0.598   5.265  11.204 -0.1416 -0.0577 -0.0230
34863ION     NA49710  10.688   6.225  13.279 -0.0270  0.2389  0.0787
34864ION     NA49711   9.105  11.415  11.712 -0.1189  0.0561  0.0029
34865ION     NA49712   7.628  14.913   4.280 -0.3354  0.4207 -0.1040
34866ION     NA49713   5.955  14.180   5.713 -0.2440  0.1177  0.0979
34867ION     NA49714  13.421  13.777  11.713  0.0218 -0.0232  0.2629
34868ION     NA49715   7.450  10.832   6.644 -0.3617  0.3325 -0.0080
34869ION     NA49716   5.751   6.854   3.838  0.0026  0.0780 -0.1157
34870ION     NA49717   1.794  14.389  11.275 -0.1267  0.2884  0.0134
34871ION     NA49718  10.993   8.470  11.933 -0.0413 -0.0734  0.0064
34872ION     NA49719   2.238   8.214   0.846  0.1142  0.0906 -0.1240
34873ION     NA49720  17.208   9.149  15.013  0.0224 -0.0186  0.1158
34874ION     NA49721   9.032  13.243  11.630  0.1787  0.3103 -0.2069
34875ION     NA49722   8.634   7.621  10.860  0.1387  0.1568  0.2299
34876ION     NA49723  16.187  13.021  11.883 -0.0319  0.4523  0.3339
34877ION     NA49724   4.111   2.166   6.352 -0.2022  0.0899  0.6624
34878ION     NA49725   9.574   9.016   4.980 -0.1061  0.0886 -0.0925
34879ION     NA49726   0.039   1.080   6.438  0.2056  0.0941  0.0541
34880ION     NA49727   2.362   4.542  13.233  0.0135  0.1777 -0.3363
34881ION     NA49728   6.473   1.965  11.218 -0.3091 -0.2770  0.0250
34882ION     NA49729   3.045   6.872   2.571 -0.2365  0.0066  0.0908
34883ION     NA49730   1.869   9.473  10.648  0.3406  0.1352 -0.0644
34884ION     NA49731   7.180   6.338  10.746  0.0502 -0.0411  0.0500
34885ION     NA49732  15.195   4.906   6.432 -0.2648 -0.2522  0.0005
34886ION     NA49733   6.734   0.628  11.221  0.0752 -0.1473  0.1888
34887ION     NA49734  10.206   1.846  17.264  0.1017 -0.0189 -0.1185
34888ION     NA49735  10.308   0.138   4.780 -0.1432 -0.0590 -0.0442
34889ION     NA49736  13.778   7.714   4.759  0.2460  0.2018  0.0052
34890ION     NA49737  12.964   3.220   6.623 -0.2171  0.0982  0.2864
34891ION     NA49738   9.866   3.259   3.786  0.1165 -0.0500  0.2721
34892ION     NA49739  11.034   6.189  11.384 -0.0600  0.1326  0.0926
34893ION     NA49740   7.605  11.883   3.772  0.0463 -0.0027  0.1511
34894ION     NA49741   5.054  14.118   6.105 -0.5323  0.0142  0.0840
34895ION     NA49742  11.276  14.741  15.996  0.0495  0.2607  0.3078
34896ION     NA49743  14.408   2.589  10.965 -0.3205  0.0551 -0.0729
34897ION     NA49744   0.992   1.903  11.062  0.3439 -0.2263 -0.0144
34898ION     NA49745   0.725   4.271  16.681  0.0056  0.0465 -0.0682
34899ION     NA49746   3.745   1.036   6.919  0.1925  0.1291  0.2294
34900ION     NA49747  16.374  17.137  11.392  0.3108 -0.1279 -0.0278
34901ION     NA49748  11.854   4.790   0.003  0.1099 -0.0656  0.0115
34902ION     NA49749   4.219   1.866  11.336 -0.0570  0.0516 -0.4909
34903ION     NA49750  13.439  13.237  12.302  0.0119 -0.0423  0.0207
34904ION     NA49751   5.192  13.768  17.460 -0.0283 -0.1950  0.0900
34905ION     NA49752  16.886  11.069  12.633  0.1284  0.2862  0.1774
34906ION     NA49753  12.510   2.926   6.009  0.0419 -0.1405  0.2711
34907ION     NA49754   7.528   2.000  10.936 -0.0930  0.0448 -0.0033
34908ION     NA49755  10.236   5.559   2.951 -0.0382  0.3867 -0.1199
34909ION     NA49756   4.101   9.161   6.614 -0.1635  0.0536  0.0158
34910ION     NA49757   2.813   1.586   2.527 -0.1757  0.3130 -0.0391
34911ION     NA49758   1.382   8.125  11.027  0.2563 -0.0566  0.0727
34912ION     NA49759   7.666   4.863  10.943 -0.2345 -0.0890 -0.0990
34913ION     NA49760  17.101  12.741  11.596  0.2310 -0.0559 -0.1482
34914ION     NA49761   8.510   6.402  14.895  0.0049  0.0503  0.0350
34915ION     NA49762  12.426   9.502  11.283 -0.3811  0.1235  0.1583
34916ION     NA49763   4.325  15.263  15.514  0.2323 -0.0126  0.4526
34917ION     NA49764   5.510  12.818  10.991  0.1054 -0.3908  0.1230
34918ION     NA49765   0.278   6.149  11.134  0.0613 -0.1895  0.2021
34919ION     NA49766   1.664   4.809  16.487 -0.0985 -0.2393 -0.3904
34920ION     NA49767  15.838  11.770   4.993  0.0214 -0.2264 -0.2515
34921ION     NA49768  11.155   1.143   6.333 -0.1882 -0.0965  0.0078
34922ION     NA49769   6.783  16.507  14.013 -0.1960  0.0678  0.0141
34923ION     NA49770   3.642  12.649  10.951  0.0227 -0.2154 -0.2696
34924ION     NA49771  15.296   3.982  15.630  0.3225 -0.0361  0.2296
34925ION     NA49772   4.428   8.288  10.504 -0.1157  0.0221  0.0701
34926ION     NA49773   4.197   5.328   4.582  0.0386  0.0032  0.2089
34927ION     NA49774   3.236   3.638   1.412  0.1179  0.1693  0.2095
34928ION     NA49775  17.067  13.652  11.558  0.1697  0.5278 -0.0699
34929ION     NA49776   8.562  10.158   6.898 -0.3110 -0.4887  0.1880
34930ION     NA49777  13.409   8.086  14.563  0.0945 -0.4203 -0.1804
34931ION     NA49778   2.879   8.455  13.066 -0.0694  0.1819  0.0846
34932ION     NA49779   2.379   2.067  14.114 -0.2077  0.2425  0.0362
34933ION     NA49780   9.129  17.071  15.178  0.1102 -0.2361 -0.0542
34934ION     NA49781  11.354   1.888   2.863 -0.0294 -0.1842  0.0363
34935ION     NA49782   8.653   4.516  10.931  0.0908  0.1142  0.1875
34936ION     NA49783  11.968   3.396  14.657  0.0369 -0.0242  0.1023
34937ION     NA49784   6.070  16.510  10.983 -0.1072 -0.0954 -0.0057
34938ION     NA49785   2.559  11.683  16.069  0.1555 -0.0453 -0.1980
34939ION     NA49786   0.158  15.147   1.877 -0.0380  0.0079 -0.2226
34940ION     NA49787  16.595  15.860  11.366  0.0761 -0.0452 -0.1156
34941ION     NA49788   1.144  10.500  12.488 -0.3638 -0.1595 -0.0099
34942ION     NA49789  14.774  10.390  11.661  0.1496  0.1522 -0.3407
34943ION     NA49790  17.255  13.543  12.414  0.1953 -0.0935  0.0298
34944ION     NA49791   3.045   3.772  14.721 -0.3115 -0.0495 -0.1081
34945ION     NA49792   7.690   2.967  10.743 -0.2789 -0.2730 -0.1652
34946ION     NA49793  13.283   4.174   0.184 -0.0396  0.1023  0.0519
34947ION     NA49794   1.379   5.192  11.014  0.1558  0.1586  0.0666
34948ION     NA49795  12.665  14.070  12.347 -0.0263  0.3073 -0.3314
34949ION     NA49796   1.394  12.309  11.133 -0.0422 -0.2037  0.2589
34950ION     NA49797   2.705   9.471  10.683 -0.0794 -0.1191  0.1148
34951ION     NA49798  17.128   9.441   1.487  0.5073 -0.0080 -0.0911
34952ION     NA49799   2.236   5.199   2.149 -0.1074 -0.0435 -0.0270
34953ION     NA49800  11.734   8.547  11.402 -0.0660 -0.0004  0.1413
34954ION     NA49801   3.426  15.559   3.735  0.0099 -0.3170 -0.2584
34955ION     NA49802   9.414  14.150   7.120  0.0020 -0.1083 -0.1948
34956ION     NA49803  11.320  10.950   6.721 -0.3923 -0.0103  0.1544
34957ION     NA49804   6.468   2.900   6.351  0.0648  0.0649 -0.0395
34958ION     NA49805  14.439   0.787  12.737  0.0226 -0.1344  0.1783
34959ION     NA49806   2.999  16.256   3.208  0.1305  0.1144  0.1876
34960ION     NA49807  10.461   2.728   6.277  0.5657 -0.0798  0.0791
34961ION     NA49808  13.794   9.523  11.600 -0.1752 -0.0592 -0.3228
34962ION     NA49809  15.782   4.450  11.264 -0.0730 -0.0358 -0.1170
34963ION     NA49810  17.257   5.909  14.000  0.0077  0.2575 -0.1731
34964ION     NA49811   7.440  15.807  11.393 -0.1029 -0.0194  0.2603
34965ION     NA49812  15.518   2.835  10.898  0.1719  0.2279 -0.2068
34966ION     NA49813  12.888   2.101  16.881 -0.0752  0.3391 -0.1147
34967ION     NA49814   2.333   3.109   6.767 -0.0491  0.0318  0.5636
34968ION     NA49815   8.471  12.120  11.614 -0.2047 -0.1017 -0.2843
34969ION     NA49816  13.552   5.978   6.707 -0.1860  0.0349 -0.0585
34970ION     NA49817  10.373  12.626   6.866  0.0970  0.1065  0.0885
34971ION     NA49818   6.795   3.043  10.797  0.2531 -0.4090 -0.3331
34972ION     NA49819   0.990  14.018  11.287  0.0077 -0.3671 -0.1335
34973ION     NA49820   4.171   5.082   6.426 -0.2630  0.0482  0.3729
34974ION     NA49821  17.067   7.543  11.318  0.2438  0.2013 -0.1838
34975ION     NA49822  13.207  12.597  11.667  0.1346  0.0152 -0.2019
34976ION     NA49823  10.635   9.870  11.866 -0.0700 -0.0395  0.1160
34977ION     NA49824   9.595  12.527   7.304 -0.0680 -0.0284 -0.0509
34978ION     NA49825  14.048  10.317  17.409  0.3159  0.1679  0.1405
34979ION     NA49826  14.892   6.648  11.416 -0.1101 -0.1407 -0.1267
34980ION     NA49827   1.946   7.676  10.898  0.1000  0.0852 -0.1094
34981ION     NA49828   3.854  15.006   3.183  0.0453 -0.0378  0.0758
34982ION     NA49829   7.694  11.749   6.944  0.0808  0.0374  0.0498
34983ION     NA49830   0.608  12.344  13.827  0.1775  0.0988 -0.1903
34984ION     NA49831   0.845   6.190  13.324  0.0931 -0.0003 -0.3841
34985ION     NA49832   3.795   4.793   2.003 -0.0240  0.3956  0.0667
34986ION     NA49833   6.752  15.354  11.151 -0.1247 -0.0875 -0.2172
34987ION     NA49834   8.005   2.219  10.934 -0.2001  0.2432 -0.2556
34988ION     NA49835   7.836   0.644  10.940 -0.1408  0.1578  0.3773
34989ION     NA49836   8.128  14.233  12.473 -0.1896  0.2041  0.0595
34990ION     NA49837   3.871  15.563  11.113 -0.2756 -0.4331 -0.5041
34991ION     NA49838   1.967  13.475  12.026 -0.0539  0.2546  0.2560
34992ION     NA49839   0.889  17.245   5.417 -0.0896  0.0466 -0.1232
34993ION     NA49840   9.384   1.309   3.068 -0.4377  0.0441  0.0295
34994ION     NA49841  14.460   4.924   3.418  0.2256 -0.2087  0.2273
34995ION     NA49842   5.793  11.433   6.734  0.1438  0.1548 -0.0371
34996ION     NA49843   5.620   3.298  10.759 -0.0282 -0.1392  0.0492
34997ION     NA49844  15.482   3.551   6.570  0.0281 -0.1795 -0.1169
34998ION     CL49845   5.850  12.188   1.621  0.1146  0.3216  0.0248
34999ION     CL49846  11.232   8.685  12.339 -0.0931 -0.2726 -0.2934
35000ION     CL49847  11.084   4.572  15.596  0.0937  0.0974  0.1849
35001ION     CL49848   8.086  17.440  13.995  0.1928 -0.0703 -0.1282
35002ION     CL49849  11.864  16.030  15.927 -0.1821 -0.0350  0.0875
35003ION     CL49850  15.224  17.340   5.710  0.0694  0.0037 -0.1831
35004ION     CL49851   5.803  15.776  15.754  0.0721  0.0499  0.0320
35005ION     CL49852   2.366   1.678   2.304 -0.3882  0.0833 -0.0602
35006ION     CL49853  17.263   8.966  16.854  0.0825 -0.1575 -0.1329
35007ION     CL49854   9.969  16.874   1.123  0.1462  0.3295  0.1366
35008ION     CL49855   5.693  14.637   5.793  0.1415 -0.0688  0.3897
35009ION     CL49856   0.502   4.657   3.819 -0.1129  0.1762  0.0883
35010ION     CL49857   8.181  13.996  17.244 -0.1358 -0.0940  0.0944
35011ION     CL49858   7.751   5.775   4.939  0.3700  0.0402 -0.3701
35012ION     CL49859  11.480  13.929  14.486 -0.0304  0.2961  0.0854
35013ION     CL49860  16.323  15.830   2.217  0.1712 -0.5299 -0.2789
35014ION     CL49861   1.055   5.124   2.636 -0.1315  0.4042 -0.0934
35015ION     CL49862  16.774   8.291  13.231  0.2446 -0.1931  0.0771
35016ION     CL49863   1.844  11.077   1.468  0.3446  0.1497 -0.0393
35017ION     CL49864  10.659   2.836  14.963  0.0277 -0.1689 -0.0291
35018ION     CL49865   3.197  11.790   1.495  0.0904  0.2150 -0.0682
35019ION     CL49866   1.066   6.216  13.800  0.1196 -0.0730  0.0425
35020ION     CL49867  14.831   2.617   0.763  0.2750  0.5846 -0.2976
35021ION     CL49868  12.011   3.058  14.287 -0.3049  0.1301  0.0816
35022ION     CL49869   1.849  14.797   4.320 -0.0908 -0.1718  0.0924
35023ION     CL49870   9.321  12.938   5.435  0.4074 -0.3472 -0.0767
35024ION     CL49871   6.719   7.763  15.566 -0.0522  0.1453  0.0163
35025ION     CL49872  13.129   7.209   1.942 -0.0350 -0.0326  0.3207
35026ION     CL49873  15.767   4.917   5.527 -0.0312 -0.3460  0.2752
35027ION     CL49874   6.305   0.033  13.210  0.0245 -0.0084 -0.0663
35028ION     CL49875   7.346   5.662   2.640 -0.0911  0.1048  0.1664
35029ION     CL49876  10.155   6.768   4.143 -0.1449 -0.0857  0.1814
35030ION     CL49877   9.989   4.840  13.350 -0.0271 -0.0468  0.2426
35031ION     CL49878  10.864   4.337  12.538  0.0407 -0.1775  0.2744
35032ION     CL49879  13.546   7.975   5.915  0.0789  0.1700  0.3118
35033ION     CL49880  14.748  10.054   0.948  0.0323  0.0104  0.1975
35034ION     CL49881   9.844  17.230   6.093  0.1958  0.1676  0.0805
35035ION     CL49882   8.339  11.472   4.248  0.0867 -0.5079 -0.2622
35036ION     CL49883   7.130  10.298   4.469  0.3660  0.1392  0.3302
35037ION     CL49884   2.149  13.231  12.436 -0.0357 -0.0438  0.0642
35038ION     CL49885  10.349  14.044   3.276 -0.0235  0.0873  0.1087
35039ION     CL49886   8.583   0.444   2.713 -0.1614  0.0577  0.2680
35040ION     CL49887  10.133   3.805  14.088  0.3740  0.2383  0.1025
35041ION     CL49888  15.316   4.415  13.557 -0.0288 -0.1000  0.1056
35042ION     CL49889  13.442  10.192   1.513  0.2402  0.1055 -0.0491
35043ION     CL49890  17.254  13.105   1.343  0.0759  0.3397  0.1549
35044ION     CL49891   3.914   2.405  12.532  0.2760 -0.1738  0.1965
35045ION     CL49892  14.791   5.413  16.050  0.1087  0.1306  0.0490
35046ION     CL49893   7.219   3.617   4.470  0.0745  0.0457 -0.0014
35047ION     CL49894   4.991  13.230  17.222  0.3510 -0.1343 -0.0223
35048ION     CL49895   5.777  11.849  16.307 -0.0261  0.0653  0.0591
35049ION     CL49896   2.729   6.481  14.472 -0.2526 -0.0053  0.0884
35050ION     CL49897   3.382  16.614   0.556 -0.1586  0.1023 -0.2375
35051ION     CL49898   8.156  10.484   3.338 -0.0759 -0.0955 -0.0785
35052ION     CL49899  10.586   0.201  15.024  0.0343  0.8047  0.2730
35053ION     CL49900   8.519  11.718   2.836 -0.0443  0.0493 -0.2348
35054ION     CL49901   0.607  17.583  12.854  0.3447 -0.0341  0.1889
35055ION     CL49902   3.459  14.977  13.625 -0.0376  0.0905 -0.3082
35056ION     CL49903  13.784  11.134  14.267 -0.1837  0.1108 -0.3183
  17.67851  17.67851  17.68991
