INSANE! Membrane UpperLeaflet>loPI=1.0 LowerLeaflet>PSPI:POPI:POPS:YOPS:POPE:YOPE:POPC:YOPC:ERGO=6.0:14.0:21.0:9.0:9.0:21.0:12.0:48.0:60.0
49903
    1loPI    C1    1   5.121   4.276  11.555  0.2024 -0.1968 -0.0496
    1loPI    C2    2   5.477   4.399  11.691  0.1384  0.0648 -0.1143
    1loPI    C3    3   5.235   4.186  11.928  0.3553 -0.1532 -0.0850
    1loPI   PO4    4   5.139   4.405  11.295  0.0626 -0.2341 -0.1438
    1loPI   GL1    5   5.534   4.507  11.227  0.1587  0.2341 -0.1918
    1loPI   GL2    6   5.796   4.296  11.133  0.2190 -0.0076  0.0155
    1loPI   C1A    7   5.609   4.714  10.821  0.1164  0.3835  0.1308
    1loPI   C2A    8   5.550   4.514  10.347 -0.0217  0.0149 -0.1365
    1loPI   C3A    9   5.587   4.543  10.007 -0.1315  0.0094  0.2756
    1loPI   C4A   10   5.546   4.648   9.546  0.0322 -0.0643 -0.2087
    1loPI   C5A   11   5.474   4.615   9.206  0.0874 -0.1268 -0.0458
    1loPI   C6A   12   5.704   4.895   8.864  0.1307  0.1517 -0.4112
    1loPI   C1B   13   5.778   4.147  10.672  0.1049 -0.0766  0.0266
    1loPI   C2B   14   5.831   4.097  10.238  0.2709 -0.1322 -0.0168
    1loPI   C3B   15   5.845   4.230   9.734 -0.2914 -0.0426  0.0390
    1loPI   C4B   16   5.793   4.229   9.368  0.5453  0.1549  0.0649
    2loPI    C1   17  10.885  15.238  11.080  0.0546  0.0621  0.0012
    2loPI    C2   18  10.830  15.234  11.476 -0.1430  0.0892 -0.0250
    2loPI    C3   19  11.180  15.354  11.324 -0.0748  0.1026  0.1400
    2loPI   PO4   20  10.566  15.299  11.052  0.1730 -0.0429 -0.0955
    2loPI   GL1   21  10.351  15.250  10.685 -0.0340  0.1769 -0.0151
    2loPI   GL2   22  10.228  14.976  10.448 -0.1351  0.0611 -0.3245
    2loPI   C1A   23  10.634  15.368  10.390  0.1400 -0.3079 -0.0559
    2loPI   C2A   24  10.943  15.244  10.055  0.1364  0.0220 -0.2640
    2loPI   C3A   25  10.750  14.989   9.677 -0.0220  0.2531  0.3492
    2loPI   C4A   26  10.927  14.667   9.459  0.2359  0.1035 -0.0326
    2loPI   C5A   27  10.926  14.470   9.082 -0.0285  0.0177 -0.0226
    2loPI   C6A   28  11.233  14.550   8.698  0.1816 -0.0221 -0.1077
    2loPI   C1B   29   9.933  14.916  10.149 -0.0963 -0.3889 -0.2591
    2loPI   C2B   30   9.786  14.917   9.822 -0.3361 -0.0104  0.1487
    2loPI   C3B   31   9.870  14.827   9.445  0.0331  0.0031  0.0668
    2loPI   C4B   32   9.636  14.591   9.206  0.1384  0.0822  0.1540
    3loPI    C1   33   9.325  12.013  11.169  0.1878  0.1112  0.0201
    3loPI    C2   34   9.518  12.154  11.489  0.4294 -0.0188 -0.0661
    3loPI    C3   35   9.603  11.789  11.349 -0.0641 -0.1857  0.0487
    3loPI   PO4   36   9.413  12.259  10.923  0.1690  0.0176  0.0953
    3loPI   GL1   37   9.588  12.550  10.657  0.2609 -0.0664 -0.2411
    3loPI   GL2   38   9.669  12.848  10.659  0.2042 -0.2708  0.2967
    3loPI   C1A   39   9.478  12.549  10.215 -0.3122 -0.3319  0.1550
    3loPI   C2A   40   9.784  12.606   9.804 -0.2083 -0.1633  0.1695
    3loPI   C3A   41   9.717  12.422   9.358  0.3127  0.0660 -0.2261
    3loPI   C4A   42   9.466  12.312   9.123 -0.0903 -0.4551  0.3932
    3loPI   C5A   43   9.265  12.398   8.711  0.0092  0.2376 -0.0197
    3loPI   C6A   44   9.452  12.554   8.362 -0.3838 -0.3112 -0.0415
    3loPI   C1B   45   9.975  12.693  10.318  0.0090  0.1323 -0.0263
    3loPI   C2B   46  10.183  12.454  10.074 -0.2342 -0.2133 -0.2394
    3loPI   C3B   47  10.250  12.455   9.596 -0.4368  0.3623  0.0769
    3loPI   C4B   48  10.142  12.446   9.179  0.0046  0.1062  0.0911
    4loPI    C1   49   8.022   1.685  11.134  0.1482 -0.0468  0.0850
    4loPI    C2   50   8.260   1.717  11.454  0.1562 -0.1541  0.0898
    4loPI    C3   51   7.866   1.667  11.502  0.1353 -0.0020  0.0819
    4loPI   PO4   52   8.143   1.872  10.955  0.1184  0.0745 -0.0187
    4loPI   GL1   53   8.073   1.930  10.539  0.0277 -0.1339  0.3230
    4loPI   GL2   54   8.105   2.147  10.412 -0.1640 -0.0942 -0.0757
    4loPI   C1A   55   8.380   1.726  10.185 -0.0129  0.0501  0.0658
    4loPI   C2A   56   8.356   1.742   9.836 -0.0769  0.0005 -0.4730
    4loPI   C3A   57   8.267   1.843   9.362 -0.3944  0.0096 -0.0872
    4loPI   C4A   58   8.166   1.886   8.920 -0.0542  0.0232  0.0519
    4loPI   C5A   59   8.054   1.857   8.506 -0.0661  0.0388 -0.0529
    4loPI   C6A   60   8.232   1.976   8.188  0.4204  0.0676  0.0204
    4loPI   C1B   61   8.032   2.102  10.021  0.0480 -0.1810  0.1536
    4loPI   C2B   62   7.948   2.221   9.541  0.2630  0.2233  0.0165
    4loPI   C3B   63   7.909   2.289   9.140  0.1068  0.4184 -0.1470
    4loPI   C4B   64   7.904   2.276   8.662 -0.2417 -0.1494 -0.1142
    5loPI    C1   65   8.434  14.121  10.962 -0.1895 -0.1072  0.0672
    5loPI    C2   66   8.821  14.197  10.898 -0.2004  0.0277  0.1577
    5loPI    C3   67   8.713  13.927  11.172 -0.1637 -0.2565 -0.1021
    5loPI   PO4   68   8.312  14.009  10.788 -0.1786 -0.0237  0.1146
    5loPI   GL1   69   8.179  13.886  10.512  0.0828 -0.0947 -0.4074
    5loPI   GL2   70   8.077  14.044  10.323 -0.2449 -0.4332  0.0985
    5loPI   C1A   71   7.841  13.624  10.318  0.0436  0.3223  0.1882
    5loPI   C2A   72   7.574  13.470   9.919 -0.2156  0.0705 -0.0889
    5loPI   C3A   73   7.316  13.202   9.794 -0.2190  0.0216  0.0302
    5loPI   C4A   74   7.142  12.801   9.694  0.1545  0.4256 -0.3740
    5loPI   C5A   75   6.979  12.481   9.399  0.1568  0.1114 -0.0900
    5loPI   C6A   76   6.711  12.220   9.142 -0.1997  0.0900  0.0619
    5loPI   C1B   77   8.178  13.674   9.905  0.4391  0.0724 -0.1308
    5loPI   C2B   78   7.918  13.649   9.529 -0.0238 -0.3483 -0.1237
    5loPI   C3B   79   7.646  13.352   9.324  0.1125 -0.2465  0.3542
    5loPI   C4B   80   7.210  13.293   9.195  0.2665  0.1452  0.0742
    6loPI    C1   81   3.082   9.574  11.135 -0.0265 -0.2581  0.0753
    6loPI    C2   82   3.184   9.923  11.301 -0.2105 -0.1680  0.0012
    6loPI    C3   83   2.933   9.676  11.492 -0.0589 -0.2733  0.0662
    6loPI   PO4   84   3.079   9.712  10.866  0.3067  0.1441 -0.0225
    6loPI   GL1   85   2.873   9.793  10.409  0.2917 -0.3933  0.0053
    6loPI   GL2   86   3.028  10.071  10.435 -0.0767 -0.2968 -0.1456
    6loPI   C1A   87   2.871   9.761   9.995  0.3051 -0.2562 -0.1038
    6loPI   C2A   88   2.836   9.669   9.453 -0.1755  0.3518 -0.1396
    6loPI   C3A   89   2.813   9.466   9.116 -0.2652 -0.2582  0.0744
    6loPI   C4A   90   3.097   9.299   8.721 -0.0390  0.0782  0.0814
    6loPI   C5A   91   3.271   8.882   8.614 -0.0877  0.0274 -0.2453
    6loPI   C6A   92   3.008   8.493   8.489 -0.0574 -0.0505  0.0344
    6loPI   C1B   93   3.286  10.069  10.058  0.2251 -0.1961  0.1828
    6loPI   C2B   94   3.318   9.757   9.670  0.2626 -0.1639 -0.1578
    6loPI   C3B   95   3.613   9.642   9.239  0.3032  0.2386  0.2304
    6loPI   C4B   96   3.922   9.488   8.980 -0.1067  0.1294 -0.0557
    7loPI    C1   97   7.526   5.759  11.827 -0.0413 -0.0519 -0.1671
    7loPI    C2   98   7.181   5.612  11.965 -0.1176  0.2446 -0.0348
    7loPI    C3   99   7.524   5.524  12.151 -0.1023 -0.1491 -0.2373
    7loPI   PO4  100   7.463   5.738  11.591 -0.0306 -0.1532 -0.1664
    7loPI   GL1  101   7.648   5.666  11.207  0.2863  0.0931  0.1566
    7loPI   GL2  102   7.518   5.907  11.082  0.2340 -0.0776 -0.1054
    7loPI   C1A  103   7.503   5.664  10.681 -0.2560 -0.3423  0.0204
    7loPI   C2A  104   7.537   5.688  10.251 -0.1896 -0.0562 -0.2351
    7loPI   C3A  105   7.463   5.767   9.751 -0.1517 -0.0938 -0.0008
    7loPI   C4A  106   7.491   5.726   9.262 -0.0896  0.0416  0.2603
    7loPI   C5A  107   7.522   5.694   8.863 -0.1714 -0.1332 -0.4408
    7loPI   C6A  108   7.785   5.683   8.473  0.1357  0.1905  0.0662
    7loPI   C1B  109   7.740   6.160  10.743 -0.0079 -0.1703  0.3716
    7loPI   C2B  110   7.737   6.240  10.313 -0.0600 -0.1032  0.4653
    7loPI   C3B  111   7.718   6.250   9.844 -0.3623  0.1042 -0.0292
    7loPI   C4B  112   7.683   6.213   9.377  0.0170 -0.0323  0.0392
    8loPI    C1  113   0.507   1.788  10.382 -0.0881  0.1799 -0.0248
    8loPI    C2  114   0.270   1.844  10.699  0.0855 -0.0039  0.1398
    8loPI    C3  115   0.662   1.918  10.727  0.0507  0.3077 -0.1338
    8loPI   PO4  116   0.437   1.563  10.271  0.2604 -0.0518 -0.1875
    8loPI   GL1  117   0.497   1.163   9.976 -0.2559 -0.0511 -0.1666
    8loPI   GL2  118   0.281   1.442   9.803 -0.6585 -0.0202 -0.2227
    8loPI   C1A  119   0.778   1.177   9.604  0.1374  0.2992  0.3387
    8loPI   C2A  120   1.010   0.900   9.319 -0.1893 -0.0128  0.3042
    8loPI   C3A  121   1.014   0.836   8.882 -0.0434 -0.0058 -0.2455
    8loPI   C4A  122   1.107   0.843   8.412 -0.0344  0.0927  0.4163
    8loPI   C5A  123   1.012   1.054   8.003 -0.0366 -0.2642 -0.1813
    8loPI   C6A  124   0.656   1.309   7.822  0.1467 -0.0686 -0.2996
    8loPI   C1B  125   0.339   1.400   9.406 -0.1133 -0.2046 -0.1160
    8loPI   C2B  126   0.287   1.394   8.976  0.3866  0.0528 -0.1093
    8loPI   C3B  127   0.572   1.406   8.675 -0.2594  0.3033 -0.0061
    8loPI   C4B  128   0.966   1.266   8.567 -0.0776  0.3499 -0.0493
    9loPI    C1  129   2.561  16.572  10.926 -0.0571 -0.6893  0.0716
    9loPI    C2  130   2.211  16.613  11.116 -0.1087  0.1818 -0.1685
    9loPI    C3  131   2.544  16.764  11.277  0.0749 -0.1982 -0.1815
    9loPI   PO4  132   2.516  16.658  10.710  0.0766 -0.0348  0.0117
    9loPI   GL1  133   2.699  16.925  10.416 -0.1296 -0.0045  0.0861
    9loPI   GL2  134   2.969  16.897  10.483  0.1694 -0.2555 -0.1304
    9loPI   C1A  135   2.722  16.739  10.009 -0.0720  0.1643  0.0628
    9loPI   C2A  136   2.718  16.293   9.915 -0.2326 -0.3213 -0.1512
    9loPI   C3A  137   3.129  15.920   9.824  0.0883 -0.3777 -0.0255
    9loPI   C4A  138   3.311  15.560   9.612 -0.1096  0.2072 -0.0068
    9loPI   C5A  139   3.512  15.604   9.194 -0.2807 -0.0021 -0.0350
    9loPI   C6A  140   3.856  15.406   8.793  0.2540  0.1306  0.0578
    9loPI   C1B  141   3.251  17.011  10.245 -0.0041 -0.0008  0.0254
    9loPI   C2B  142   3.041  17.126   9.876 -0.2494  0.1359  0.1243
    9loPI   C3B  143   2.950  16.809   9.543 -0.3684  0.1149 -0.0943
    9loPI   C4B  144   2.736  16.687   9.149 -0.0640 -0.1454 -0.0817
   10loPI    C1  145   2.804   3.806  11.193 -0.2899 -0.2453  0.0535
   10loPI    C2  146   2.766   4.127  11.429  0.0644 -0.1933  0.0442
   10loPI    C3  147   3.005   3.825  11.538 -0.0186 -0.3117 -0.0985
   10loPI   PO4  148   2.802   3.946  10.925  0.1570 -0.0869  0.0285
   10loPI   GL1  149   2.568   4.367  10.665  0.3148 -0.1240 -0.1349
   10loPI   GL2  150   2.278   4.265  10.516  0.0342 -0.0446 -0.0758
   10loPI   C1A  151   2.998   4.380  10.318 -0.1932 -0.2580  0.1137
   10loPI   C2A  152   2.991   4.387   9.929  0.1456 -0.2650 -0.0496
   10loPI   C3A  153   2.930   4.407   9.403  0.0965  0.0646 -0.0296
   10loPI   C4A  154   2.672   4.402   9.124 -0.0350 -0.2333 -0.1638
   10loPI   C5A  155   2.717   4.439   8.831  0.0572 -0.0572  0.0584
   10loPI   C6A  156   2.413   4.652   8.501 -0.0732  0.3443 -0.2727
   10loPI   C1B  157   2.504   4.314  10.048  0.0219  0.2869 -0.0365
   10loPI   C2B  158   2.459   4.149   9.591 -0.4667  0.3299 -0.2078
   10loPI   C3B  159   2.758   3.893   9.255 -0.0813 -0.0276  0.4663
   10loPI   C4B  160   2.751   3.518   9.000 -0.0677 -0.0536 -0.1460
   11loPI    C1  161   3.121  16.211  11.011 -0.1237  0.1109  0.0717
   11loPI    C2  162   3.084  16.560  10.820  0.1213  0.0986 -0.0014
   11loPI    C3  163   3.004  16.537  11.211 -0.1469  0.1772 -0.0493
   11loPI   PO4  164   3.229  16.089  10.861  0.2726 -0.2080 -0.0007
   11loPI   GL1  165   3.500  16.148  10.611 -0.3211  0.0098  0.0386
   11loPI   GL2  166   3.503  16.448  10.632  0.3002  0.1270 -0.0285
   11loPI   C1A  167   3.552  16.145  10.192  0.2591  0.1009 -0.0800
   11loPI   C2A  168   3.679  16.004   9.758  0.2248  0.1024  0.0812
   11loPI   C3A  169   3.557  16.072   9.419 -0.0606  0.2178 -0.0372
   11loPI   C4A  170   3.908  15.955   9.089  0.1825  0.0591  0.0919
   11loPI   C5A  171   3.858  16.002   8.592  0.2250 -0.2475 -0.0872
   11loPI   C6A  172   4.011  15.844   8.231 -0.0653 -0.0618  0.2682
   11loPI   C1B  173   3.199  16.524  10.251 -0.1027 -0.0814  0.0074
   11loPI   C2B  174   3.232  16.436   9.868 -0.0128  0.2216  0.1707
   11loPI   C3B  175   3.346  16.503   9.489 -0.1250 -0.3087  0.1482
   11loPI   C4B  176   3.235  16.619   9.087  0.0450  0.0444  0.1633
   12loPI    C1  177   9.779   6.088  11.341  0.1610  0.0085  0.0547
   12loPI    C2  178  10.168   6.101  11.246  0.1379  0.0191 -0.0398
   12loPI    C3  179  10.056   6.036  11.625  0.2317  0.0186 -0.0121
   12loPI   PO4  180   9.674   6.235  11.194 -0.1630  0.1629 -0.0959
   12loPI   GL1  181   9.870   6.269  10.806  0.1506 -0.1615  0.1882
   12loPI   GL2  182  10.211   6.478  10.894  0.0399  0.2217  0.0548
   12loPI   C1A  183   9.763   6.358  10.397  0.0036  0.0782 -0.0325
   12loPI   C2A  184   9.826   6.384   9.962  0.0883  0.3624  0.3822
   12loPI   C3A  185   9.764   6.416   9.447  0.1606 -0.3320 -0.3879
   12loPI   C4A  186   9.782   6.548   9.058 -0.1782  0.1400  0.2244
   12loPI   C5A  187  10.124   6.529   8.800  0.0481 -0.1754 -0.2187
   12loPI   C6A  188  10.570   6.589   8.878  0.2527  0.1512 -0.0517
   12loPI   C1B  189  10.225   6.423  10.482 -0.0065 -0.2698  0.0041
   12loPI   C2B  190  10.295   6.407  10.110  0.0045 -0.1703  0.3420
   12loPI   C3B  191  10.313   6.457   9.709 -0.0414  0.2036  0.1027
   12loPI   C4B  192  10.258   6.426   9.270  0.4855 -0.1064 -0.3434
   13loPI    C1  193  11.350   2.011  10.769 -0.0985 -0.0995  0.1317
   13loPI    C2  194  11.591   1.702  10.848 -0.3202 -0.3131 -0.0105
   13loPI    C3  195  11.734   2.076  10.859  0.0092 -0.4338 -0.0695
   13loPI   PO4  196  11.156   1.901  10.615 -0.1592  0.1540  0.1515
   13loPI   GL1  197  11.238   1.665  10.250  0.4415 -0.2265 -0.3593
   13loPI   GL2  198  11.189   2.028  10.150 -0.1533  0.6443 -0.0719
   13loPI   C1A  199  11.254   1.707   9.848  0.1482  0.2046 -0.1121
   13loPI   C2A  200  11.149   1.624   9.470 -0.0959  0.2675 -0.1483
   13loPI   C3A  201  10.980   1.455   9.068  0.0936 -0.1333  0.0691
   13loPI   C4A  202  10.753   1.294   8.597 -0.0149  0.1808 -0.0054
   13loPI   C5A  203  10.405   1.097   8.240  0.0108  0.1030  0.2516
   13loPI   C6A  204  10.495   0.774   7.903  0.1956  0.4132 -0.3373
   13loPI   C1B  205  11.328   2.282   9.760  0.3136 -0.2587  0.0156
   13loPI   C2B  206  11.207   2.234   9.411  0.0652  0.0498  0.1787
   13loPI   C3B  207  11.187   2.002   9.065 -0.2460  0.1445  0.0095
   13loPI   C4B  208  11.367   1.738   8.786 -0.1360 -0.0957  0.1490
   14loPI    C1  209   6.131   9.848  11.522 -0.0217 -0.1821 -0.1532
   14loPI    C2  210   5.875  10.090  11.711  0.2277 -0.0243 -0.0119
   14loPI    C3  211   5.910   9.708  11.824  0.1731 -0.0034  0.0765
   14loPI   PO4  212   6.131   9.918  11.274  0.1594  0.0006  0.2839
   14loPI   GL1  213   6.119   9.852  10.883 -0.0914  0.2013  0.0957
   14loPI   GL2  214   5.980   9.704  10.830  0.1386 -0.3745  0.0613
   14loPI   C1A  215   6.199   9.812  10.338 -0.1418  0.0896 -0.0320
   14loPI   C2A  216   6.367   9.696   9.883  0.0365  0.1620 -0.2109
   14loPI   C3A  217   6.340   9.753   9.456 -0.3107  0.2838  0.1855
   14loPI   C4A  218   6.480   9.489   9.064  0.2398  0.1385  0.4516
   14loPI   C5A  219   6.226   9.324   8.751 -0.0564 -0.1441  0.2361
   14loPI   C6A  220   6.124   8.987   8.688 -0.1487  0.2635 -0.0644
   14loPI   C1B  221   5.976   9.429  10.477  0.2589  0.0072  0.2118
   14loPI   C2B  222   6.036   9.290  10.081  0.1163 -0.1096 -0.1336
   14loPI   C3B  223   6.155   9.250   9.678  0.1606  0.0117 -0.0837
   14loPI   C4B  224   6.604   9.200   9.533 -0.1693 -0.1091  0.0114
   15loPI    C1  225   3.733   9.115  11.272 -0.0181  0.0309  0.0974
   15loPI    C2  226   3.857   9.415  11.505  0.1309  0.1484 -0.1290
   15loPI    C3  227   3.864   9.039  11.642 -0.0422  0.2441  0.1507
   15loPI   PO4  228   3.862   9.200  10.968 -0.1576  0.0040 -0.2348
   15loPI   GL1  229   3.886   9.037  10.611 -0.0553 -0.0920  0.1320
   15loPI   GL2  230   4.045   8.732  10.805 -0.3370  0.1958 -0.0288
   15loPI   C1A  231   3.940   8.986  10.137 -0.0690 -0.0627 -0.0157
   15loPI   C2A  232   4.030   8.890   9.689 -0.2255 -0.0588  0.2600
   15loPI   C3A  233   3.948   8.866   9.232 -0.0456 -0.0051  0.1689
   15loPI   C4A  234   4.009   8.875   8.825  0.1145 -0.0059  0.0778
   15loPI   C5A  235   3.763   8.734   8.502 -0.0664  0.1873 -0.0720
   15loPI   C6A  236   3.823   8.628   8.041 -0.1312  0.1534  0.2338
   15loPI   C1B  237   4.284   8.637  10.403 -0.0290 -0.0415  0.2082
   15loPI   C2B  238   4.362   8.625  10.029 -0.1124 -0.0031 -0.1800
   15loPI   C3B  239   4.483   8.563   9.596 -0.0299  0.0028  0.0712
   15loPI   C4B  240   4.560   8.633   9.122 -0.1531  0.0758  0.2753
   16loPI    C1  241   6.509   9.369  11.428  0.0713 -0.0949 -0.0366
   16loPI    C2  242   6.518   9.597  11.756  0.1602 -0.0308 -0.0831
   16loPI    C3  243   6.679   9.231  11.763  0.1722 -0.0251 -0.0586
   16loPI   PO4  244   6.468   9.459  11.230 -0.2035  0.0981 -0.3771
   16loPI   GL1  245   6.370   9.268  10.811 -0.1156 -0.2135  0.5021
   16loPI   GL2  246   6.189   9.111  10.979 -0.0275  0.1173  0.1841
   16loPI   C1A  247   6.457   9.347  10.389  0.2679 -0.0039  0.0744
   16loPI   C2A  248   6.720   9.222  10.008  0.2859 -0.3098 -0.2496
   16loPI   C3A  249   7.095   9.195   9.685 -0.2503 -0.1906  0.0920
   16loPI   C4A  250   7.322   9.071   9.302  0.1212 -0.1295 -0.3480
   16loPI   C5A  251   7.616   9.176   9.026  0.1304 -0.1652 -0.1877
   16loPI   C6A  252   7.567   9.587   9.016  0.0512  0.1123  0.0555
   16loPI   C1B  253   6.062   8.951  10.596 -0.3830 -0.4313  0.3748
   16loPI   C2B  254   5.847   8.726  10.182 -0.2379  0.1028  0.0659
   16loPI   C3B  255   6.021   8.753   9.744  0.1954  0.2836  0.2747
   16loPI   C4B  256   5.949   8.574   9.335  0.0531 -0.1702  0.0929
   17loPI    C1  257   0.669  16.102  10.487  0.0217 -0.0691 -0.1729
   17loPI    C2  258   0.464  16.078  10.830  0.1250  0.1204 -0.0963
   17loPI    C3  259   0.854  16.167  10.836  0.2233 -0.2780 -0.2384
   17loPI   PO4  260   0.598  15.881  10.405 -0.0406  0.0219 -0.1446
   17loPI   GL1  261   0.581  15.564  10.074 -0.0322 -0.1046  0.2701
   17loPI   GL2  262   0.356  15.777   9.942  0.1593 -0.0128 -0.0456
   17loPI   C1A  263   0.434  15.342   9.706  0.2878 -0.1616  0.0970
   17loPI   C2A  264   0.427  14.977   9.385  0.0742  0.2571  0.1338
   17loPI   C3A  265   0.246  14.693   9.113  0.1586 -0.1351  0.1584
   17loPI   C4A  266   0.027  14.797   8.773  0.3485  0.3188  0.0062
   17loPI   C5A  267  -0.309  15.136   8.846 -0.1590  0.2356 -0.1543
   17loPI   C6A  268  -0.572  15.145   9.256 -0.0782  0.0247  0.2022
   17loPI   C1B  269   0.486  15.865   9.539  0.2573 -0.0355 -0.3421
   17loPI   C2B  270   0.629  16.021   9.176 -0.2844 -0.3514 -0.3116
   17loPI   C3B  271   0.554  16.163   8.786  0.0394  0.2489  0.2684
   17loPI   C4B  272   0.440  16.523   8.481 -0.1927 -0.0743 -0.3030
   18loPI    C1  273   8.768   2.513  11.167  0.0935  0.0528  0.1874
   18loPI    C2  274   8.932   2.401  10.820 -0.1606 -0.0293  0.0909
   18loPI    C3  275   9.115   2.314  11.165  0.0908  0.0477 -0.0205
   18loPI   PO4  276   8.490   2.604  10.997 -0.3622 -0.0419 -0.1178
   18loPI   GL1  277   8.486   2.541  10.544  0.3756  0.0364  0.2063
   18loPI   GL2  278   8.332   2.871  10.515 -0.1527  0.2354  0.2710
   18loPI   C1A  279   8.663   2.690  10.097 -0.1536  0.0071 -0.1136
   18loPI   C2A  280   8.651   2.803   9.687  0.1791  0.1225 -0.0036
   18loPI   C3A  281   8.655   2.734   9.320 -0.0607  0.0788 -0.0109
   18loPI   C4A  282   8.556   2.818   8.957 -0.1469  0.0198 -0.3404
   18loPI   C5A  283   8.586   2.633   8.490 -0.6713  0.1680 -0.2336
   18loPI   C6A  284   8.381   2.555   8.087  0.0843 -0.0395 -0.1098
   18loPI   C1B  285   8.262   3.112  10.132  0.0326 -0.0177 -0.2681
   18loPI   C2B  286   8.273   3.172   9.671  0.1620  0.1874  0.3453
   18loPI   C3B  287   8.267   3.208   9.260  0.0788 -0.0543  0.1376
   18loPI   C4B  288   8.118   3.198   8.778 -0.2739  0.1855  0.0746
   19loPI    C1  289  17.968  10.242  11.029 -0.2477  0.0431 -0.2631
   19loPI    C2  290  17.921  10.639  11.041  0.1777  0.0909  0.2007
   19loPI    C3  291  17.654  10.400  11.219  0.2188  0.2030  0.4160
   19loPI   PO4  292  17.948  10.165  10.820 -0.1352 -0.0831  0.1431
   19loPI   GL1  293  18.096  10.228  10.376 -0.1835  0.1264  0.1079
   19loPI   GL2  294  17.969  10.487  10.249 -0.1392 -0.1295  0.2626
   19loPI   C1A  295  18.431  10.255  10.011 -0.1837  0.0241  0.1380
   19loPI   C2A  296  18.548  10.060   9.688 -0.1515  0.1303  0.1338
   19loPI   C3A  297  18.708  10.132   9.238 -0.1769  0.3207 -0.0780
   19loPI   C4A  298  18.619  10.339   8.841  0.1436  0.2809  0.0618
   19loPI   C5A  299  18.734  10.573   8.561  0.0771 -0.0397 -0.2028
   19loPI   C6A  300  19.087  10.391   8.312 -0.1653 -0.3526 -0.1642
   19loPI   C1B  301  17.977  10.646   9.823  0.1271  0.1541  0.1413
   19loPI   C2B  302  17.840  10.694   9.393 -0.2796  0.2201 -0.0453
   19loPI   C3B  303  17.958  10.730   9.012  0.0542 -0.1572 -0.1806
   19loPI   C4B  304  18.168  10.627   8.630 -0.0246  0.0952 -0.2713
   20loPI    C1  305   7.591  15.613  11.194 -0.0452  0.2693  0.1925
   20loPI    C2  306   7.630  15.939  10.965  0.1123  0.0241 -0.1378
   20loPI    C3  307   7.939  15.809  11.184  0.0018  0.1825  0.1168
   20loPI   PO4  308   7.489  15.461  11.047  0.4585 -0.1011 -0.1840
   20loPI   GL1  309   7.546  15.449  10.670  0.2052  0.0691  0.1361
   20loPI   GL2  310   7.300  15.578  10.414  0.2402  0.1180 -0.1862
   20loPI   C1A  311   7.859  15.691  10.498  0.0733 -0.0193  0.1210
   20loPI   C2A  312   8.197  15.884  10.249 -0.2768  0.0522 -0.3595
   20loPI   C3A  313   8.307  15.703   9.888 -0.2822  0.2939 -0.0986
   20loPI   C4A  314   8.328  15.513   9.534 -0.3957 -0.1003  0.3349
   20loPI   C5A  315   8.305  15.208   9.204  0.0507 -0.3320 -0.1827
   20loPI   C6A  316   8.265  14.917   8.921 -0.3186  0.0930  0.0236
   20loPI   C1B  317   7.311  15.860  10.043  0.2387 -0.2222 -0.4280
   20loPI   C2B  318   7.479  16.216   9.953 -0.0983  0.0250  0.1598
   20loPI   C3B  319   7.574  16.464   9.560  0.0162 -0.1150  0.1456
   20loPI   C4B  320   7.277  16.651   9.165  0.0753  0.0622 -0.2974
   21loPI    C1  321   5.851   3.067  11.517  0.0683 -0.1460 -0.4369
   21loPI    C2  322   5.922   2.747  11.747 -0.2227  0.1120  0.0294
   21loPI    C3  323   6.045   3.109  11.865 -0.0860  0.2080 -0.3894
   21loPI   PO4  324   5.913   2.967  11.317 -0.3150  0.2560 -0.3825
   21loPI   GL1  325   5.955   2.932  10.945 -0.0426  0.0362  0.3849
   21loPI   GL2  326   6.183   2.677  10.753  0.2026 -0.1866 -0.0972
   21loPI   C1A  327   6.042   3.137  10.481  0.5850  0.0969 -0.1857
   21loPI   C2A  328   5.908   3.204  10.056 -0.0449  0.1694  0.1840
   21loPI   C3A  329   5.923   3.247   9.650 -0.1387  0.1221  0.1330
   21loPI   C4A  330   5.965   3.286   9.216  0.0632 -0.2030  0.4690
   21loPI   C5A  331   5.634   3.387   8.916 -0.0585  0.1996 -0.3135
   21loPI   C6A  332   5.411   3.296   8.579 -0.0857  0.1550  0.1045
   21loPI   C1B  333   6.245   2.733  10.346 -0.0177  0.1956 -0.0006
   21loPI   C2B  334   6.320   2.882   9.989 -0.1062  0.0025 -0.3603
   21loPI   C3B  335   6.330   2.906   9.526  0.2493  0.1712 -0.1109
   21loPI   C4B  336   6.221   2.908   9.087  0.0494  0.0646  0.0055
   22loPI    C1  337   5.079   2.438  11.014  0.0418 -0.1970  0.1147
   22loPI    C2  338   5.160   2.396  11.403 -0.1500 -0.1179  0.1644
   22loPI    C3  339   4.879   2.655  11.284 -0.0692 -0.1176 -0.0293
   22loPI   PO4  340   5.344   2.522  10.848 -0.2074  0.1933 -0.0297
   22loPI   GL1  341   5.642   2.358  10.508 -0.0520  0.4273  0.0232
   22loPI   GL2  342   5.912   2.279  10.428 -0.2469  0.2053  0.0434
   22loPI   C1A  343   5.529   2.310  10.011 -0.2311  0.0298 -0.0705
   22loPI   C2A  344   5.665   2.160   9.577 -0.2769 -0.0102  0.1520
   22loPI   C3A  345   5.419   1.875   9.424 -0.0833 -0.3649 -0.2051
   22loPI   C4A  346   5.673   1.528   9.242 -0.3242  0.0329 -0.1584
   22loPI   C5A  347   5.614   1.286   8.850  0.0725 -0.1508  0.0187
   22loPI   C6A  348   5.662   1.089   8.499 -0.3115  0.0514 -0.1329
   22loPI   C1B  349   6.143   2.384   9.954  0.2312  0.0495 -0.2339
   22loPI   C2B  350   6.128   2.377   9.543  0.2771 -0.2638 -0.0827
   22loPI   C3B  351   5.898   2.475   9.181  0.3073  0.0867  0.1738
   22loPI   C4B  352   6.079   2.523   8.838 -0.2280 -0.2245 -0.0163
   23loPI    C1  353   4.066   9.848  11.422 -0.0473  0.1521 -0.2114
   23loPI    C2  354   3.707   9.871  11.596 -0.0838 -0.0325 -0.2606
   23loPI    C3  355   4.035   9.827  11.820 -0.1141 -0.0962 -0.2282
   23loPI   PO4  356   3.951   9.971  11.174 -0.0841 -0.2509 -0.1017
   23loPI   GL1  357   4.151   9.831  10.790  0.0020 -0.2227  0.0116
   23loPI   GL2  358   3.949   9.687  10.744 -0.3570 -0.3874  0.0946
   23loPI   C1A  359   4.393   9.877  10.465  0.3310  0.2412 -0.0104
   23loPI   C2A  360   4.265   9.862   9.987 -0.1096  0.0685  0.0737
   23loPI   C3A  361   4.075   9.728   9.595 -0.0394 -0.1639  0.0821
   23loPI   C4A  362   4.084  10.015   9.151 -0.1537  0.1495  0.0057
   23loPI   C5A  363   3.933  10.304   8.844 -0.1152 -0.0552 -0.0523
   23loPI   C6A  364   3.703  10.566   8.644  0.1710 -0.1639 -0.1231
   23loPI   C1B  365   4.068   9.438  10.305 -0.1300  0.0256 -0.1780
   23loPI   C2B  366   4.230   9.335   9.954  0.3467  0.1494  0.2996
   23loPI   C3B  367   4.514   9.552   9.648  0.3084  0.3308  0.3292
   23loPI   C4B  368   4.439   9.553   9.200 -0.3520 -0.0312  0.0510
   24loPI    C1  369   8.932   1.712  10.944 -0.0217 -0.0749 -0.0122
   24loPI    C2  370   8.589   1.647  10.749 -0.1126  0.3107  0.0109
   24loPI    C3  371   8.600   1.619  11.148 -0.0204 -0.0870 -0.0156
   24loPI   PO4  372   9.052   1.892  10.830 -0.0807  0.0457 -0.2958
   24loPI   GL1  373   8.780   2.118  10.419 -0.1110  0.0118 -0.1728
   24loPI   GL2  374   8.885   1.786  10.323  0.0089  0.2075 -0.0080
   24loPI   C1A  375   8.518   2.231  10.130 -0.1500  0.1598 -0.1954
   24loPI   C2A  376   8.478   2.244   9.622 -0.0293  0.1321  0.3313
   24loPI   C3A  377   8.442   2.362   9.091  0.1740 -0.0505 -0.2254
   24loPI   C4A  378   8.401   2.208   8.641  0.0297  0.0331 -0.0097
   24loPI   C5A  379   8.683   2.150   8.420 -0.2648 -0.4504  0.3046
   24loPI   C6A  380   8.851   1.845   8.133 -0.1114 -0.0969 -0.1118
   24loPI   C1B  381   8.796   1.891   9.855  0.1573  0.0164  0.4881
   24loPI   C2B  382   8.780   1.785   9.427 -0.2567  0.0365 -0.0982
   24loPI   C3B  383   8.663   1.883   8.940  0.2622 -0.5035  0.1784
   24loPI   C4B  384   8.705   1.572   8.566  0.0944 -0.2287  0.1768
   25loPI    C1  385   9.770  15.997  11.093  0.1684  0.0869 -0.0971
   25loPI    C2  386  10.107  16.061  11.299  0.1294  0.3093 -0.0999
   25loPI    C3  387   9.772  15.955  11.491  0.1742  0.1937 -0.0853
   25loPI   PO4  388   9.712  16.181  10.848 -0.1273  0.3447  0.2418
   25loPI   GL1  389   9.589  16.208  10.438 -0.1838  0.0254  0.0123
   25loPI   GL2  390   9.325  16.233  10.545  0.1995 -0.2077 -0.0963
   25loPI   C1A  391   9.414  16.415  10.098 -0.0549 -0.0784 -0.0865
   25loPI   C2A  392   9.487  16.093   9.802 -0.1669  0.1386  0.2572
   25loPI   C3A  393   9.597  15.929   9.355 -0.3112  0.1546 -0.1656
   25loPI   C4A  394   9.563  16.037   9.000  0.0091 -0.0545 -0.2427
   25loPI   C5A  395   9.547  16.421   8.791 -0.0581 -0.4174  0.0374
   25loPI   C6A  396   9.656  16.566   8.380 -0.4148 -0.1030  0.0008
   25loPI   C1B  397   9.261  15.957  10.214 -0.0634  0.0443  0.0197
   25loPI   C2B  398   9.191  15.679   9.999  0.3075  0.0476  0.0249
   25loPI   C3B  399   9.208  15.619   9.578 -0.1438 -0.1344  0.1557
   25loPI   C4B  400   9.398  15.432   9.175 -0.2418 -0.1303  0.2997
   26loPI    C1  401   6.392  17.609  10.993 -0.1658 -0.1345  0.1771
   26loPI    C2  402   6.154  17.837  11.220  0.0112  0.2815 -0.0432
   26loPI    C3  403   6.013  17.675  10.883 -0.0305  0.3172 -0.0431
   26loPI   PO4  404   6.640  17.821  10.939  0.2979 -0.1541  0.0958
   26loPI   GL1  405   6.531  17.990  10.601  0.1031 -0.1829  0.1111
   26loPI   GL2  406   6.191  18.071  10.392 -0.2466  0.1924 -0.0195
   26loPI   C1A  407   6.308  17.630  10.494  0.1978  0.1334  0.1862
   26loPI   C2A  408   6.091  17.329  10.287 -0.2402  0.3217 -0.0549
   26loPI   C3A  409   6.008  17.470   9.946 -0.1306 -0.3577  0.1341
   26loPI   C4A  410   6.163  17.439   9.555 -0.1309  0.1783  0.3681
   26loPI   C5A  411   6.267  17.261   9.111 -0.1542  0.0958  0.2918
   26loPI   C6A  412   6.627  17.205   8.882  0.2778  0.1195  0.1939
   26loPI   C1B  413   6.192  17.965   9.890 -0.0977  0.2389 -0.0522
   26loPI   C2B  414   6.077  18.030   9.480 -0.1473  0.0734 -0.1659
   26loPI   C3B  415   6.017  17.845   9.088  0.2268  0.5805  0.3813
   26loPI   C4B  416   5.966  17.445   8.746 -0.0494 -0.1559  0.2447
   27loPI    C1  417   9.028   0.717  10.648  0.1482  0.0689  0.3610
   27loPI    C2  418   9.141   0.369  10.486  0.1250  0.0526  0.3795
   27loPI    C3  419   8.973   0.375  10.849 -0.1875  0.0470  0.2380
   27loPI   PO4  420   9.120   0.904  10.491 -0.1892  0.0155 -0.2963
   27loPI   GL1  421   9.133   1.047  10.111 -0.3354 -0.0501 -0.3750
   27loPI   GL2  422   9.311   1.233  10.116  0.1570 -0.0498  0.1301
   27loPI   C1A  423   9.326   0.936   9.632 -0.1549 -0.0868 -0.1436
   27loPI   C2A  424   9.486   1.077   9.286 -0.0130 -0.1869 -0.4443
   27loPI   C3A  425   9.529   1.510   9.158  0.2342  0.0184 -0.0075
   27loPI   C4A  426   9.569   1.754   8.792  0.5387 -0.0545  0.3079
   27loPI   C5A  427   9.820   2.038   8.716  0.0213 -0.0413 -0.0232
   27loPI   C6A  428  10.003   2.552   8.654 -0.3308  0.0486  0.1080
   27loPI   C1B  429   9.497   1.464   9.832  0.1101 -0.1062 -0.1698
   27loPI   C2B  430   9.746   1.688   9.633  0.1411  0.0692  0.1568
   27loPI   C3B  431   9.793   1.984   9.273  0.2241 -0.1895  0.3630
   27loPI   C4B  432   9.921   2.440   9.160 -0.0881 -0.1011 -0.0953
   28loPI    C1  433   9.178   2.905  11.154 -0.0131 -0.1350  0.1379
   28loPI    C2  434   9.491   2.951  11.398 -0.0711  0.0734  0.1750
   28loPI    C3  435   9.173   2.739  11.518  0.0494 -0.1295  0.1414
   28loPI   PO4  436   9.273   2.821  10.906  0.2514  0.1310  0.3612
   28loPI   GL1  437   9.201   2.586  10.431  0.2169 -0.0526 -0.0550
   28loPI   GL2  438   9.032   2.879  10.420 -0.0106 -0.1187  0.0887
   28loPI   C1A  439   9.039   2.345  10.140 -0.0108 -0.3942  0.1729
   28loPI   C2A  440   8.934   2.414   9.696  0.1166  0.2227 -0.1462
   28loPI   C3A  441   8.935   2.274   9.315  0.1823  0.0323  0.1575
   28loPI   C4A  442   8.907   2.392   8.974  0.0031  0.4705  0.2419
   28loPI   C5A  443   9.061   2.466   8.464  0.1973  0.2564  0.1544
   28loPI   C6A  444   8.893   2.482   8.101 -0.0642 -0.1019 -0.0282
   28loPI   C1B  445   9.137   2.862   9.947 -0.2666  0.4974  0.2600
   28loPI   C2B  446   9.162   2.755   9.481 -0.2571 -0.1224  0.2666
   28loPI   C3B  447   9.088   2.820   9.080 -0.1811  0.0507  0.0770
   28loPI   C4B  448   9.000   2.895   8.753 -0.0223  0.0557 -0.3249
   29loPI    C1  449  17.694   7.801  10.898 -0.0158  0.0216  0.1468
   29loPI    C2  450  17.905   8.121  10.785 -0.0384  0.0237  0.1104
   29loPI    C3  451  17.852   8.044  11.174  0.0576  0.0046  0.1199
   29loPI   PO4  452  17.797   7.597  10.734 -0.1307 -0.0723  0.0804
   29loPI   GL1  453  17.916   7.440  10.293  0.0406 -0.0095 -0.0966
   29loPI   GL2  454  18.084   7.817  10.361  0.3004  0.1435 -0.1188
   29loPI   C1A  455  18.132   7.547   9.917 -0.0948  0.3120  0.1334
   29loPI   C2A  456  18.339   7.468   9.586 -0.0280  0.2603  0.0979
   29loPI   C3A  457  18.461   7.735   9.212 -0.2721  0.4050 -0.0123
   29loPI   C4A  458  18.575   7.615   8.817 -0.0165 -0.4757 -0.1875
   29loPI   C5A  459  18.412   7.463   8.501 -0.3836 -0.0979 -0.0713
   29loPI   C6A  460  18.417   7.527   8.057 -0.0735  0.2638  0.1862
   29loPI   C1B  461  18.213   8.018  10.023  0.1262 -0.2028 -0.0271
   29loPI   C2B  462  18.491   7.981   9.652  0.0088 -0.0832  0.2224
   29loPI   C3B  463  18.734   8.089   9.346  0.0376  0.0844 -0.0344
   29loPI   C4B  464  18.681   8.162   8.921  0.0094  0.0584  0.1931
   30loPI    C1  465  10.499   9.157  11.529 -0.2545 -0.2959 -0.0728
   30loPI    C2  466  10.247   9.437  11.393  0.1709  0.2309  0.1854
   30loPI    C3  467  10.431   9.487  11.745  0.4183 -0.2801  0.1379
   30loPI   PO4  468  10.363   8.944  11.449 -0.0838 -0.0933  0.3294
   30loPI   GL1  469  10.108   8.920  11.040  0.1684 -0.1465 -0.2700
   30loPI   GL2  470  10.287   8.643  10.947  0.2219 -0.1011 -0.1143
   30loPI   C1A  471   9.973   8.889  10.641  0.2243 -0.0579  0.1811
   30loPI   C2A  472   9.862   8.612  10.319 -0.0680  0.0951 -0.0013
   30loPI   C3A  473   9.753   8.538   9.982 -0.1368 -0.1122 -0.0957
   30loPI   C4A  474   9.721   8.728   9.575 -0.2546  0.0921 -0.2615
   30loPI   C5A  475   9.630   8.751   9.198 -0.1860 -0.1989 -0.0071
   30loPI   C6A  476   9.785   9.004   8.788 -0.1346  0.1111  0.1040
   30loPI   C1B  477  10.277   8.389  10.691  0.0840 -0.0129  0.0356
   30loPI   C2B  478  10.200   8.157  10.308 -0.1203 -0.0665 -0.3525
   30loPI   C3B  479  10.059   8.061   9.876  0.0718 -0.0079  0.0356
   30loPI   C4B  480   9.884   7.617   9.810 -0.1189 -0.0961  0.2376
   31loPI    C1  481  10.724  10.389  11.397  0.0985 -0.0198 -0.0998
   31loPI    C2  482  11.102  10.472  11.498 -0.0064  0.0680  0.2334
   31loPI    C3  483  10.833  10.388  11.781 -0.2315 -0.0241 -0.0030
   31loPI   PO4  484  10.799  10.225  11.158 -0.0728  0.0674  0.1811
   31loPI   GL1  485  10.579  10.028  10.843 -0.0194 -0.0045  0.2431
   31loPI   GL2  486  10.487   9.840  10.578  0.1531 -0.0064  0.1123
   31loPI   C1A  487  10.509  10.265  10.375 -0.2537 -0.0720 -0.0704
   31loPI   C2A  488  10.208  10.463  10.087  0.1299  0.0143 -0.0443
   31loPI   C3A  489  10.086  10.536   9.684 -0.0645  0.1780  0.0791
   31loPI   C4A  490  10.252  10.622   9.223  0.0333 -0.0574 -0.0016
   31loPI   C5A  491  10.514  10.585   8.884 -0.2124 -0.1454 -0.0495
   31loPI   C6A  492  10.949  10.433   8.670 -0.2039  0.1652  0.0001
   31loPI   C1B  493  10.199   9.944  10.171 -0.0074  0.0577  0.1960
   31loPI   C2B  494   9.964  10.025   9.769 -0.3179  0.2843  0.2901
   31loPI   C3B  495   9.840   9.744   9.604  0.2161  0.0100 -0.1348
   31loPI   C4B  496  10.084   9.586   9.332 -0.2603 -0.2119 -0.0862
   32loPI    C1  497   5.319   4.879  11.849  0.0871  0.0324  0.0582
   32loPI    C2  498   4.995   4.685  11.980  0.1406 -0.1094 -0.0178
   32loPI    C3  499   5.348   4.626  12.157  0.1513 -0.0585 -0.0220
   32loPI   PO4  500   5.265   4.882  11.563 -0.3913  0.0936  0.2667
   32loPI   GL1  501   5.145   4.858  11.153 -0.1582  0.3805 -0.1107
   32loPI   GL2  502   5.196   5.146  11.069 -0.0786  0.2494  0.0861
   32loPI   C1A  503   5.101   4.792  10.705  0.3340  0.2835  0.1259
   32loPI   C2A  504   5.134   5.035  10.350 -0.0828 -0.1105 -0.0128
   32loPI   C3A  505   5.220   4.982   9.922 -0.2331  0.0767  0.0597
   32loPI   C4A  506   5.187   4.959   9.477  0.0428 -0.0184  0.0469
   32loPI   C5A  507   5.220   5.056   9.086 -0.0830  0.4149 -0.1868
   32loPI   C6A  508   5.548   5.383   8.977 -0.2897 -0.1091 -0.0482
   32loPI   C1B  509   5.428   5.220  10.759  0.4216 -0.0671 -0.1073
   32loPI   C2B  510   5.392   5.454  10.292  0.0852 -0.1770  0.0879
   32loPI   C3B  511   5.364   5.454   9.903 -0.3357  0.1853  0.2382
   32loPI   C4B  512   5.414   5.482   9.506 -0.0033  0.0193  0.1524
   33loPI    C1  513   8.578  12.960  11.445  0.1005 -0.1526 -0.0982
   33loPI    C2  514   8.969  12.877  11.451  0.1366  0.0152 -0.0875
   33loPI    C3  515   8.824  13.174  11.676  0.0443  0.1284 -0.2933
   33loPI   PO4  516   8.469  12.751  11.382 -0.1419 -0.1213 -0.0470
   33loPI   GL1  517   8.061  12.622  11.057  0.1441  0.0070 -0.3315
   33loPI   GL2  518   8.092  12.363  10.841  0.2370 -0.0237  0.2201
   33loPI   C1A  519   8.044  12.823  10.614  0.0736 -0.2573 -0.1876
   33loPI   C2A  520   7.980  12.691  10.185 -0.4350 -0.2243  0.2724
   33loPI   C3A  521   7.961  12.544   9.774  0.1130 -0.0707  0.2305
   33loPI   C4A  522   7.971  12.477   9.327 -0.0141  0.1152  0.0752
   33loPI   C5A  523   7.659  12.305   9.100 -0.3508  0.0479 -0.1091
   33loPI   C6A  524   7.555  12.102   8.736 -0.0351 -0.0765  0.0255
   33loPI   C1B  525   7.804  12.102  10.714 -0.2496  0.0617 -0.0587
   33loPI   C2B  526   7.643  11.795  10.386  0.0728  0.3200 -0.1495
   33loPI   C3B  527   7.802  11.589  10.119 -0.0571  0.0082 -0.0411
   33loPI   C4B  528   7.892  11.550   9.709 -0.0721 -0.1991 -0.1512
   34loPI    C1  529   1.584   9.667  10.786 -0.2359  0.0468  0.2127
   34loPI    C2  530   1.840   9.972  10.748  0.2800 -0.4012 -0.0518
   34loPI    C3  531   1.810   9.779  11.097 -0.0986 -0.0168  0.1371
   34loPI   PO4  532   1.594   9.568  10.533 -0.2553 -0.2006  0.0622
   34loPI   GL1  533   1.630   9.828  10.269  0.0891  0.1772  0.0936
   34loPI   GL2  534   1.912   9.735  10.251 -0.3273 -0.2024 -0.3168
   34loPI   C1A  535   1.504   9.860   9.853 -0.0105  0.2640  0.0519
   34loPI   C2A  536   1.681   9.801   9.447 -0.1151  0.0339  0.0774
   34loPI   C3A  537   1.774   9.770   9.038 -0.1673 -0.1953 -0.1705
   34loPI   C4A  538   1.690   9.686   8.624  0.3147  0.2006  0.2021
   34loPI   C5A  539   1.360   9.886   8.285  0.0040  0.0552 -0.0532
   34loPI   C6A  540   0.881   9.847   8.184 -0.0972 -0.4275 -0.1668
   34loPI   C1B  541   2.020   9.751   9.871 -0.1608  0.0175 -0.1273
   34loPI   C2B  542   2.173   9.833   9.429 -0.0189  0.2144  0.0517
   34loPI   C3B  543   2.309   9.625   9.016  0.2294  0.0033  0.3722
   34loPI   C4B  544   2.210   9.594   8.579  0.1130  0.1761  0.0277
   35loPI    C1  545   0.411  16.524  10.579 -0.0730  0.0406  0.1702
   35loPI    C2  546   0.453  16.756  10.902  0.2366 -0.0148  0.1727
   35loPI    C3  547   0.545  16.899  10.540 -0.0419  0.0239  0.1146
   35loPI   PO4  548   0.256  16.439  10.535  0.0394  0.0494  0.2223
   35loPI   GL1  549   0.293  16.323  10.063  0.2067 -0.0494  0.0359
   35loPI   GL2  550   0.376  16.630  10.016 -0.3420 -0.1331  0.1434
   35loPI   C1A  551   0.536  16.335   9.592 -0.0312 -0.2011  0.0809
   35loPI   C2A  552   0.478  16.528   9.169 -0.0176  0.1103 -0.0592
   35loPI   C3A  553   0.325  16.825   8.848  0.1956 -0.1127  0.4727
   35loPI   C4A  554   0.090  17.151   8.513  0.0592 -0.0232 -0.2390
   35loPI   C5A  555   0.221  17.626   8.603 -0.0695 -0.1726  0.2346
   35loPI   C6A  556   0.350  17.991   8.567 -0.2025 -0.0710  0.3559
   35loPI   C1B  557   0.097  16.594   9.581 -0.2606 -0.1078 -0.0564
   35loPI   C2B  558  -0.063  16.363   9.208  0.0824  0.3667 -0.2341
   35loPI   C3B  559   0.056  16.287   8.812 -0.1249  0.0849  0.0135
   35loPI   C4B  560   0.084  15.960   8.583 -0.2920 -0.0121  0.0354
   36loPI    C1  561   6.780  16.020  11.039  0.1111  0.3789  0.0643
   36loPI    C2  562   6.561  16.174  11.336 -0.2475  0.1479 -0.0740
   36loPI    C3  563   6.773  15.839  11.395 -0.1914  0.1904 -0.0341
   36loPI   PO4  564   6.604  15.998  10.848 -0.0891 -0.0398  0.1450
   36loPI   GL1  565   6.495  16.130  10.384  0.0998  0.2052  0.0057
   36loPI   GL2  566   6.361  15.792  10.323  0.1101 -0.0407  0.3389
   36loPI   C1A  567   6.540  16.304   9.964  0.2335 -0.1065 -0.3141
   36loPI   C2A  568   6.483  16.354   9.530  0.0163 -0.0127 -0.3170
   36loPI   C3A  569   6.436  16.275   9.134 -0.1649 -0.1327  0.4073
   36loPI   C4A  570   6.394  16.440   8.744 -0.0484 -0.1583  0.0664
   36loPI   C5A  571   6.675  16.520   8.405 -0.0335  0.1061  0.3719
   36loPI   C6A  572   6.711  17.032   8.401 -0.0541 -0.3119 -0.2136
   36loPI   C1B  573   6.306  15.861   9.905  0.1503 -0.0098 -0.0553
   36loPI   C2B  574   6.075  15.975   9.579  0.1129  0.2688  0.1251
   36loPI   C3B  575   6.078  15.926   9.222  0.1717  0.0622 -0.1206
   36loPI   C4B  576   5.842  15.739   8.938 -0.1541  0.0529  0.0842
   37loPI    C1  577  10.968   4.902  11.524 -0.0403 -0.0583  0.0721
   37loPI    C2  578  11.198   5.205  11.648 -0.0598  0.0142 -0.0668
   37loPI    C3  579  10.875   5.100  11.859 -0.0233  0.0555  0.0099
   37loPI   PO4  580  11.045   4.901  11.251  0.0042 -0.0644 -0.0439
   37loPI   GL1  581  11.163   5.020  10.746  0.0515  0.0755 -0.3449
   37loPI   GL2  582  10.941   4.999  10.482  0.0608 -0.1973 -0.2719
   37loPI   C1A  583  11.403   4.731  10.468  0.0636  0.1462  0.1016
   37loPI   C2A  584  11.502   4.762  10.012  0.2658 -0.0861  0.0497
   37loPI   C3A  585  11.549   4.736   9.537 -0.0080 -0.2497  0.0250
   37loPI   C4A  586  11.366   4.794   9.131 -0.1540 -0.0380  0.1252
   37loPI   C5A  587  11.606   4.583   8.820  0.2209  0.0163 -0.0617
   37loPI   C6A  588  11.977   4.485   8.532 -0.0808  0.0671  0.0259
   37loPI   C1B  589  10.833   5.127  10.098 -0.0341 -0.1898  0.1427
   37loPI   C2B  590  10.728   5.146   9.662  0.0957 -0.1942 -0.1441
   37loPI   C3B  591  10.588   5.293   9.173  0.2514  0.1658 -0.1502
   37loPI   C4B  592  10.412   5.290   8.681  0.0338  0.0773  0.1041
   38loPI    C1  593   4.390  16.573  11.011 -0.0137  0.2150 -0.0270
   38loPI    C2  594   4.229  16.778  11.314  0.0009  0.0352  0.1034
   38loPI    C3  595   4.611  16.660  11.333 -0.0920 -0.2645  0.1642
   38loPI   PO4  596   4.348  16.686  10.801  0.0787  0.2949  0.2828
   38loPI   GL1  597   4.737  16.651  10.502  0.2603 -0.2816 -0.0794
   38loPI   GL2  598   4.570  16.388  10.473 -0.0154 -0.0546 -0.2251
   38loPI   C1A  599   4.564  16.793  10.100 -0.4708 -0.1478 -0.1105
   38loPI   C2A  600   4.537  17.222   9.911  0.0196  0.0540  0.1888
   38loPI   C3A  601   4.481  17.531   9.510 -0.2999  0.3670 -0.2790
   38loPI   C4A  602   4.168  17.703   9.188 -0.0383 -0.1609 -0.2440
   38loPI   C5A  603   4.095  17.808   8.675 -0.0001 -0.2987 -0.3322
   38loPI   C6A  604   3.707  17.746   8.365 -0.0114 -0.0171  0.1371
   38loPI   C1B  605   4.418  16.269  10.131  0.0036 -0.0539 -0.1785
   38loPI   C2B  606   4.119  16.386   9.914  0.3597  0.0722 -0.0440
   38loPI   C3B  607   3.928  16.479   9.604 -0.1718  0.1054  0.1006
   38loPI   C4B  608   3.972  16.775   9.311 -0.0562 -0.0093  0.0720
   39loPI    C1  609   8.524   0.812  11.188 -0.0501  0.0250  0.1768
   39loPI    C2  610   8.421   1.158  11.016 -0.1138 -0.0054  0.1535
   39loPI    C3  611   8.625   1.158  11.360  0.0237  0.0558  0.0728
   39loPI   PO4  612   8.573   0.638  10.913 -0.2799 -0.1362 -0.1889
   39loPI   GL1  613   8.600   0.517  10.473  0.0780  0.0126  0.1418
   39loPI   GL2  614   8.678   0.224  10.430  0.0251  0.4072 -0.1018
   39loPI   C1A  615   8.260   0.648  10.267 -0.1529 -0.1446 -0.1050
   39loPI   C2A  616   7.995   0.807   9.809  0.0525  0.1704  0.0957
   39loPI   C3A  617   7.798   0.775   9.431  0.0261 -0.1788  0.1051
   39loPI   C4A  618   7.814   1.055   9.032  0.2339 -0.1445  0.1101
   39loPI   C5A  619   7.448   1.185   8.700 -0.3719  0.1522 -0.2601
   39loPI   C6A  620   6.872   1.085   8.655 -0.0858 -0.1859  0.0700
   39loPI   C1B  621   8.660   0.334  10.030 -0.0928  0.0036 -0.0617
   39loPI   C2B  622   8.601   0.449   9.566 -0.2942  0.0559 -0.0382
   39loPI   C3B  623   8.688   0.504   9.126  0.1269  0.1611  0.1406
   39loPI   C4B  624   8.842   0.561   8.730  0.0800 -0.1344 -0.0660
   40loPI    C1  625   6.596   5.744  11.566 -0.0432 -0.3043 -0.0841
   40loPI    C2  626   6.962   5.884  11.645 -0.1446  0.0192 -0.1729
   40loPI    C3  627   6.661   5.959  11.897 -0.1263 -0.3582 -0.0325
   40loPI   PO4  628   6.667   5.514  11.501 -0.0008  0.1358 -0.0337
   40loPI   GL1  629   6.742   5.271  11.016  0.2120 -0.0606 -0.4264
   40loPI   GL2  630   6.483   5.500  10.900  0.2760 -0.5001  0.1717
   40loPI   C1A  631   6.855   5.293  10.535  0.0959  0.4870  0.0329
   40loPI   C2A  632   6.767   5.245  10.096  0.1714  0.0047 -0.1435
   40loPI   C3A  633   6.736   5.276   9.662 -0.1028  0.2889  0.1574
   40loPI   C4A  634   6.807   5.240   9.251 -0.0318  0.1128 -0.1659
   40loPI   C5A  635   6.586   5.293   8.805  0.3023  0.0656 -0.3356
   40loPI   C6A  636   6.726   5.209   8.426 -0.1500  0.0088 -0.0619
   40loPI   C1B  637   6.426   5.627  10.499  0.2157 -0.0460 -0.0268
   40loPI   C2B  638   6.438   5.597  10.041  0.1178 -0.3446  0.1120
   40loPI   C3B  639   6.546   5.704   9.609 -0.3872 -0.2764  0.2738
   40loPI   C4B  640   6.380   5.605   9.171 -0.0635  0.5054  0.0779
   41loPI    C1  641  10.973  11.167  11.184 -0.0038 -0.0603  0.1124
   41loPI    C2  642  11.266  10.913  11.283 -0.2137 -0.2519  0.2516
   41loPI    C3  643  11.186  11.227  11.517  0.2157  0.0976 -0.0529
   41loPI   PO4  644  10.895  11.150  10.967  0.0851 -0.1394  0.1398
   41loPI   GL1  645  10.579  10.929  10.736 -0.0024 -0.3360  0.0222
   41loPI   GL2  646  10.485  10.598  10.883 -0.0035 -0.0104  0.2852
   41loPI   C1A  647  10.712  11.082  10.260  0.3308 -0.2489  0.0049
   41loPI   C2A  648  10.744  10.772   9.952 -0.1285  0.1267  0.0925
   41loPI   C3A  649  10.725  10.714   9.598 -0.0826  0.1044 -0.1076
   41loPI   C4A  650  10.845  10.460   9.239  0.0848  0.0674 -0.2072
   41loPI   C5A  651  10.683  10.141   9.004  0.1006 -0.2820 -0.1316
   41loPI   C6A  652  10.278   9.998   8.897  0.2299  0.1329 -0.0633
   41loPI   C1B  653  10.192  10.658  10.575  0.1797 -0.1522  0.2264
   41loPI   C2B  654  10.193  11.039  10.189 -0.1398  0.2844 -0.1289
   41loPI   C3B  655  10.145  10.997   9.872 -0.0743 -0.1413 -0.3247
   41loPI   C4B  656  10.003  11.088   9.528  0.1019  0.0203  0.1499
   42loPI    C1  657  10.358   5.186  11.122  0.1813  0.1740 -0.0614
   42loPI    C2  658  10.394   5.223  11.519  0.1624  0.0271 -0.0455
   42loPI    C3  659  10.720   5.232  11.286  0.1852 -0.0158 -0.0152
   42loPI   PO4  660  10.066   4.978  11.104  0.0092  0.0157 -0.3819
   42loPI   GL1  661   9.940   4.834  10.702  0.4322 -0.0595  0.1255
   42loPI   GL2  662  10.219   4.920  10.670 -0.2037 -0.2897  0.0250
   42loPI   C1A  663   9.706   5.028  10.461 -0.0783  0.1626  0.1055
   42loPI   C2A  664   9.671   5.024   9.995  0.0820 -0.3598  0.1044
   42loPI   C3A  665   9.609   5.040   9.554  0.1479 -0.3325  0.1172
   42loPI   C4A  666   9.507   4.996   9.138  0.1460 -0.1293  0.0911
   42loPI   C5A  667   9.558   5.120   8.675  0.1335  0.0496  0.1071
   42loPI   C6A  668   9.520   5.389   8.421 -0.0565  0.2075  0.0417
   42loPI   C1B  669  10.150   5.084  10.235 -0.1193  0.0441 -0.0790
   42loPI   C2B  670  10.140   5.060   9.789 -0.1566 -0.1288 -0.0712
   42loPI   C3B  671  10.063   5.134   9.320  0.0661 -0.1009 -0.0757
   42loPI   C4B  672   9.994   5.154   8.897 -0.1101 -0.0503  0.3498
   43loPI    C1  673   4.801   9.712  11.607 -0.1499 -0.0567  0.1177
   43loPI    C2  674   4.578   9.753  11.937 -0.1575 -0.0963  0.1175
   43loPI    C3  675   4.790   9.419  11.879  0.3082  0.1470  0.3663
   43loPI   PO4  676   4.601   9.823  11.414 -0.1473 -0.0350  0.1367
   43loPI   GL1  677   4.567   9.962  10.991 -0.1135  0.0684  0.2021
   43loPI   GL2  678   4.714   9.660  10.970 -0.1643 -0.1714  0.3407
   43loPI   C1A  679   4.845  10.007  10.658  0.1699  0.0085  0.0986
   43loPI   C2A  680   4.822  10.034  10.131 -0.1698  0.0202 -0.1487
   43loPI   C3A  681   4.664   9.977   9.725  0.0997  0.0571  0.2371
   43loPI   C4A  682   4.552  10.136   9.257  0.0111  0.0189 -0.0480
   43loPI   C5A  683   4.431   9.984   8.814  0.0549 -0.2832  0.1101
   43loPI   C6A  684   4.378   9.506   8.707 -0.2227 -0.3923 -0.1229
   43loPI   C1B  685   4.773   9.463  10.622  0.2883 -0.0708  0.0892
   43loPI   C2B  686   4.776   9.530  10.258  0.3072  0.4253  0.0894
   43loPI   C3B  687   4.965   9.626   9.858 -0.2847 -0.2211 -0.1618
   43loPI   C4B  688   5.026   9.774   9.455  0.0581  0.1619  0.2593
   44loPI    C1  689   5.039  11.004  11.694 -0.2053  0.1345 -0.1952
   44loPI    C2  690   5.228  10.651  11.682 -0.2781  0.0819  0.1137
   44loPI    C3  691   5.431  10.983  11.775 -0.2075  0.1260 -0.1867
   44loPI   PO4  692   4.859  10.896  11.473 -0.0249 -0.1160  0.0116
   44loPI   GL1  693   4.872  10.909  11.027 -0.0487  0.1754  0.3860
   44loPI   GL2  694   4.716  11.148  11.023  0.1947 -0.0970 -0.0581
   44loPI   C1A  695   4.669  10.883  10.629  0.1953  0.1703  0.1630
   44loPI   C2A  696   4.307  10.972  10.384  0.3668  0.3158 -0.0723
   44loPI   C3A  697   4.169  10.832  10.072  0.1234  0.2112  0.0140
   44loPI   C4A  698   3.735  10.973  10.093  0.1176  0.3045 -0.0939
   44loPI   C5A  699   3.589  11.147   9.652  0.1151 -0.1719  0.0032
   44loPI   C6A  700   3.893  11.270   9.376 -0.1342  0.0731 -0.0938
   44loPI   C1B  701   4.547  11.385  10.514  0.3576 -0.0650 -0.2044
   44loPI   C2B  702   4.488  11.340  10.077  0.0824  0.0931 -0.0346
   44loPI   C3B  703   4.419  11.441   9.650 -0.0387 -0.0847 -0.0585
   44loPI   C4B  704   4.327  11.439   9.198  0.3487 -0.0600 -0.1391
   45loPI    C1  705   8.523   9.096  11.686  0.1986  0.0816  0.0981
   45loPI    C2  706   8.195   8.899  11.801  0.1646 -0.1550 -0.3782
   45loPI    C3  707   8.491   8.963  12.062 -0.1713 -0.1122  0.0030
   45loPI   PO4  708   8.524   9.316  11.613  0.0205 -0.1447 -0.0720
   45loPI   GL1  709   8.383   9.563  11.189  0.0132 -0.0968  0.2044
   45loPI   GL2  710   8.120   9.760  11.234 -0.0430  0.1337  0.1143
   45loPI   C1A  711   8.374   9.704  10.741  0.0683 -0.3114 -0.3302
   45loPI   C2A  712   8.148   9.587  10.362  0.1608 -0.2794 -0.0623
   45loPI   C3A  713   8.131   9.582   9.879 -0.1030 -0.1023 -0.1475
   45loPI   C4A  714   7.995   9.732   9.478  0.5310  0.1275  0.0675
   45loPI   C5A  715   7.650  10.103   9.370  0.0893  0.0809 -0.0579
   45loPI   C6A  716   7.531  10.581   9.457  0.0309 -0.0166  0.1033
   45loPI   C1B  717   7.923   9.717  10.928 -0.2020 -0.0368  0.0216
   45loPI   C2B  718   7.900   9.988  10.620 -0.1218  0.1341  0.2070
   45loPI   C3B  719   7.838  10.208  10.299  0.3959 -0.1692  0.3401
   45loPI   C4B  720   8.052  10.460   9.973  0.0909  0.3637 -0.0090
   46loPI    C1  721  17.599   2.985  10.812 -0.2830  0.0031  0.1069
   46loPI    C2  722  17.522   2.601  10.890  0.1131 -0.0515  0.2542
   46loPI    C3  723  17.583   2.857  11.191 -0.1336  0.1257  0.1562
   46loPI   PO4  724  17.500   3.028  10.507 -0.1635 -0.0651  0.0471
   46loPI   GL1  725  17.448   2.869  10.138  0.0662  0.1169  0.2270
   46loPI   GL2  726  17.180   2.769   9.926  0.1839 -0.0810  0.0586
   46loPI   C1A  727  17.574   3.110   9.768  0.2478 -0.0478  0.2056
   46loPI   C2A  728  17.517   3.081   9.327  0.1374  0.0657  0.0857
   46loPI   C3A  729  17.571   3.088   8.874  0.1457  0.1202  0.0031
   46loPI   C4A  730  17.845   2.980   8.523  0.1006 -0.1044  0.1478
   46loPI   C5A  731  18.089   3.148   8.192 -0.0825 -0.1244 -0.0547
   46loPI   C6A  732  18.272   3.345   7.842  0.0386  0.0153  0.0033
   46loPI   C1B  733  17.047   2.964   9.550  0.0029 -0.1385 -0.1139
   46loPI   C2B  734  17.090   3.060   9.121 -0.1606  0.1686 -0.3174
   46loPI   C3B  735  17.064   3.065   8.659  0.0742 -0.1062  0.0964
   46loPI   C4B  736  17.366   2.967   8.435  0.1860  0.1454  0.1469
   47loPI    C1  737   3.152   8.174  11.064 -0.0212 -0.2141 -0.0987
   47loPI    C2  738   3.235   8.124  11.453  0.2106  0.0948 -0.1047
   47loPI    C3  739   2.871   8.245  11.340  0.0818 -0.1852 -0.0003
   47loPI   PO4  740   3.244   7.840  11.018 -0.0002  0.1873 -0.2308
   47loPI   GL1  741   3.106   7.754  10.667  0.1029  0.0011 -0.2189
   47loPI   GL2  742   3.465   7.654  10.564 -0.0124 -0.1455  0.0375
   47loPI   C1A  743   2.846   7.582  10.321  0.1545 -0.2824  0.1846
   47loPI   C2A  744   2.924   7.464   9.889  0.0978 -0.0797 -0.2701
   47loPI   C3A  745   3.039   7.386   9.529  0.1336 -0.1616 -0.1637
   47loPI   C4A  746   2.987   7.458   9.140  0.3063 -0.2998  0.1615
   47loPI   C5A  747   2.992   7.450   8.706  0.0738 -0.2425 -0.0726
   47loPI   C6A  748   2.633   7.504   8.476  0.1266 -0.0687 -0.1781
   47loPI   C1B  749   3.404   7.631  10.046  0.1372 -0.0508 -0.1551
   47loPI   C2B  750   3.468   7.524   9.634 -0.2264 -0.2065  0.2335
   47loPI   C3B  751   3.427   7.572   9.254  0.0561 -0.0744  0.1069
   47loPI   C4B  752   3.147   7.907   8.948  0.0724  0.1743  0.3867
   48loPI    C1  753   6.800   4.219  11.472 -0.0928  0.2021  0.0199
   48loPI    C2  754   6.626   4.094  11.809 -0.2393 -0.0590 -0.1493
   48loPI    C3  755   6.703   4.483  11.757  0.0257 -0.0447  0.2941
   48loPI   PO4  756   7.068   4.030  11.458 -0.0851  0.3424  0.0297
   48loPI   GL1  757   7.211   3.850  11.021 -0.2890  0.0243 -0.1900
   48loPI   GL2  758   6.954   3.920  10.933  0.0228  0.0326 -0.3395
   48loPI   C1A  759   7.176   3.981  10.487  0.0586  0.1231  0.1183
   48loPI   C2A  760   7.125   3.877  10.050 -0.1115  0.2248 -0.0957
   48loPI   C3A  761   7.142   3.946   9.556 -0.0593  0.1482 -0.2928
   48loPI   C4A  762   7.094   3.942   9.119  0.0807 -0.1065 -0.0781
   48loPI   C5A  763   7.018   3.965   8.703 -0.0808 -0.0468 -0.0782
   48loPI   C6A  764   7.432   3.901   8.472 -0.4466 -0.3188 -0.0618
   48loPI   C1B  765   6.668   3.873  10.655 -0.3013  0.1740 -0.0005
   48loPI   C2B  766   6.664   3.852  10.270 -0.0824 -0.1229  0.2100
   48loPI   C3B  767   6.647   3.839   9.879  0.0178 -0.1181  0.0420
   48loPI   C4B  768   6.609   3.851   9.402 -0.1396  0.3914  0.0324
   49loPI    C1  769   1.763  11.350  11.100 -0.2430 -0.2185  0.0563
   49loPI    C2  770   1.899  11.168  11.429 -0.1817 -0.0275  0.1377
   49loPI    C3  771   2.000  11.548  11.355 -0.4005  0.0104  0.0277
   49loPI   PO4  772   1.622  11.210  10.893 -0.4446  0.2189 -0.0973
   49loPI   GL1  773   1.598  10.962  10.560 -0.1412 -0.0111 -0.0052
   49loPI   GL2  774   1.442  11.211  10.438 -0.0971  0.3588  0.1545
   49loPI   C1A  775   1.632  10.865  10.132 -0.1560 -0.0239  0.1615
   49loPI   C2A  776   1.692  10.813   9.673  0.0014  0.1878  0.2284
   49loPI   C3A  777   1.763  11.106   9.364  0.2050  0.0197  0.0797
   49loPI   C4A  778   1.865  11.244   8.994 -0.0240 -0.0339 -0.1151
   49loPI   C5A  779   1.851  11.619   8.751  0.0328  0.4325  0.2131
   49loPI   C6A  780   1.894  11.689   8.377 -0.1816 -0.1103 -0.2004
   49loPI   C1B  781   1.325  11.307  10.067 -0.2979  0.2889  0.2658
   49loPI   C2B  782   1.198  11.236   9.705  0.0499  0.0910  0.2804
   49loPI   C3B  783   1.269  11.288   9.230  0.1220 -0.0754 -0.2548
   49loPI   C4B  784   1.366  11.344   8.789  0.2079 -0.2710 -0.2821
   50loPI    C1  785   5.440   5.718  11.692 -0.0538 -0.1692  0.3313
   50loPI    C2  786   5.372   5.374  11.499  0.0934 -0.0882  0.1319
   50loPI    C3  787   5.290   5.404  11.889 -0.5301 -0.1503  0.0163
   50loPI   PO4  788   5.488   5.915  11.441 -0.0429  0.1485 -0.3428
   50loPI   GL1  789   5.341   5.932  10.948  0.0690 -0.0709  0.0514
   50loPI   GL2  790   5.210   5.675  11.141 -0.0709 -0.2339  0.0782
   50loPI   C1A  791   5.575   5.918  10.596  0.3123 -0.2244 -0.2225
   50loPI   C2A  792   5.643   5.919  10.152 -0.1303  0.0017  0.1670
   50loPI   C3A  793   5.605   5.945   9.648  0.1424  0.2396 -0.3593
   50loPI   C4A  794   5.612   5.961   9.191 -0.1338  0.0025 -0.1417
   50loPI   C5A  795   5.456   5.873   8.763  0.0252  0.1707  0.2377
   50loPI   C6A  796   5.294   6.081   8.296 -0.1086  0.1454  0.3262
   50loPI   C1B  797   5.085   5.557  10.742  0.2207 -0.2384 -0.0371
   50loPI   C2B  798   4.931   5.542  10.295 -0.1823 -0.0914 -0.0114
   50loPI   C3B  799   4.855   5.501   9.845 -0.0162  0.3211  0.0716
   50loPI   C4B  800   4.892   5.377   9.449  0.0512  0.2814  0.1457
   51loPI    C1  801   6.106  15.020  11.047  0.0548 -0.2825 -0.0796
   51loPI    C2  802   6.340  14.911  11.352  0.1748  0.0781 -0.0385
   51loPI    C3  803   5.950  14.826  11.360  0.2010 -0.0307  0.1541
   51loPI   PO4  804   6.217  15.267  10.950  0.2296  0.0197  0.1210
   51loPI   GL1  805   6.061  15.421  10.602 -0.0999 -0.0544 -0.4594
   51loPI   GL2  806   6.246  15.107  10.425 -0.0703 -0.2002 -0.1155
   51loPI   C1A  807   5.822  15.449  10.325 -0.1241  0.1640 -0.1319
   51loPI   C2A  808   5.742  15.453   9.986  0.0688  0.1434  0.0465
   51loPI   C3A  809   5.674  15.513   9.516  0.2168  0.2284 -0.0267
   51loPI   C4A  810   5.580  15.308   9.162  0.1479  0.1372 -0.1503
   51loPI   C5A  811   5.179  15.012   9.018 -0.2891 -0.2761  0.2010
   51loPI   C6A  812   4.773  14.919   9.017 -0.0347  0.3614  0.0342
   51loPI   C1B  813   6.220  15.262  10.071 -0.0013 -0.2632  0.1005
   51loPI   C2B  814   6.189  15.350   9.734  0.4428 -0.2134 -0.1331
   51loPI   C3B  815   6.131  15.377   9.271  0.0930  0.1411 -0.0813
   51loPI   C4B  816   5.943  15.192   8.862 -0.2395  0.1380 -0.1075
   52loPI    C1  817   0.140  13.362  10.871  0.0652 -0.0225  0.0223
   52loPI    C2  818   0.521  13.379  10.749  0.0099 -0.0224 -0.1529
   52loPI    C3  819   0.365  13.031  10.872  0.0702 -0.0194 -0.0672
   52loPI   PO4  820   0.145  13.708  10.694  0.3733  0.0564 -0.1086
   52loPI   GL1  821   0.113  13.854  10.325 -0.1997 -0.1519  0.0076
   52loPI   GL2  822  -0.187  13.828  10.173 -0.0856 -0.1116  0.2522
   52loPI   C1A  823  -0.001  13.501   9.918 -0.0771  0.1488 -0.0196
   52loPI   C2A  824  -0.120  13.349   9.500 -0.1430 -0.0514  0.1262
   52loPI   C3A  825  -0.266  13.303   9.067  0.3238 -0.2370 -0.1492
   52loPI   C4A  826  -0.532  13.091   8.884 -0.3045  0.0904  0.0150
   52loPI   C5A  827  -0.754  12.898   8.529 -0.0750 -0.2014 -0.2560
   52loPI   C6A  828  -0.976  12.506   8.418  0.0942 -0.2018 -0.0342
   52loPI   C1B  829   0.035  13.991   9.804  0.0656  0.2621 -0.3160
   52loPI   C2B  830  -0.042  13.852   9.437 -0.0693 -0.1979  0.0224
   52loPI   C3B  831   0.090  13.739   9.079 -0.0999  0.1750  0.0740
   52loPI   C4B  832   0.082  13.815   8.612 -0.1235 -0.0170  0.3005
   53loPI    C1  833  17.075   9.604  11.125  0.0576 -0.0874 -0.1323
   53loPI    C2  834  16.931   9.247  11.015 -0.2586 -0.0283  0.0755
   53loPI    C3  835  17.138   9.283  11.355  0.0245 -0.0635 -0.0899
   53loPI   PO4  836  16.926   9.767  10.850  0.0362 -0.1324  0.1807
   53loPI   GL1  837  16.996   9.880  10.471 -0.2424  0.0757 -0.3778
   53loPI   GL2  838  17.245  10.037  10.478  0.1074  0.1810  0.0022
   53loPI   C1A  839  17.192   9.866  10.030  0.0376 -0.3666  0.0269
   53loPI   C2A  840  17.422   9.878   9.709 -0.3189 -0.2815 -0.1036
   53loPI   C3A  841  17.747   9.882   9.409  0.2180  0.1873 -0.3437
   53loPI   C4A  842  17.901  10.216   9.086 -0.0138 -0.0860  0.1649
   53loPI   C5A  843  18.133  10.038   8.736  0.1621  0.0608 -0.0795
   53loPI   C6A  844  17.966  10.078   8.341  0.1692  0.0156 -0.0075
   53loPI   C1B  845  17.569  10.181  10.222 -0.0406  0.1949 -0.0152
   53loPI   C2B  846  17.859  10.109   9.901 -0.5210 -0.0118  0.3683
   53loPI   C3B  847  18.071  10.220   9.612  0.2457  0.1538 -0.1105
   53loPI   C4B  848  18.345  10.398   9.367  0.2002 -0.2742 -0.0249
   54loPI    C1  849   4.885  10.201  11.654  0.0264  0.0814 -0.0721
   54loPI    C2  850   4.496  10.220  11.744  0.0608  0.3201  0.0337
   54loPI    C3  851   4.769  10.217  12.036  0.1330 -0.0737 -0.0325
   54loPI   PO4  852   4.835  10.389  11.362 -0.1392 -0.0554 -0.1846
   54loPI   GL1  853   4.935  10.424  10.931  0.0210 -0.0368  0.1026
   54loPI   GL2  854   4.660  10.469  10.842 -0.0570 -0.0895  0.1661
   54loPI   C1A  855   5.026  10.529  10.474  0.1204  0.0722 -0.1681
   54loPI   C2A  856   5.307  10.665  10.286  0.1112  0.2108  0.0306
   54loPI   C3A  857   5.493  10.720   9.831  0.3174 -0.0231 -0.0787
   54loPI   C4A  858   5.452  10.635   9.462 -0.2473 -0.0669 -0.0522
   54loPI   C5A  859   5.362  10.526   9.034 -0.2898  0.3574 -0.1273
   54loPI   C6A  860   5.734  10.207   8.842  0.0215  0.2082 -0.1131
   54loPI   C1B  861   4.386  10.410  10.490 -0.2510  0.3215  0.1183
   54loPI   C2B  862   4.493  10.399  10.035  0.0127  0.1857  0.1046
   54loPI   C3B  863   4.608  10.496   9.644  0.0585 -0.2606  0.3780
   54loPI   C4B  864   4.256  10.537   9.268 -0.1566  0.4495  0.1216
   55loPI    C1  865   5.141   7.949  11.340 -0.0813 -0.0385  0.0210
   55loPI    C2  866   5.302   8.021  11.699  0.0437 -0.0288 -0.0364
   55loPI    C3  867   4.997   8.244  11.568 -0.0126 -0.0430  0.0706
   55loPI   PO4  868   5.043   7.738  11.335 -0.1603 -0.0407 -0.1835
   55loPI   GL1  869   4.973   7.621  10.913  0.2420 -0.0002  0.0268
   55loPI   GL2  870   4.827   7.324  10.852 -0.1215 -0.0600  0.0230
   55loPI   C1A  871   4.997   7.731  10.529 -0.3817 -0.1727 -0.0854
   55loPI   C2A  872   4.988   7.777  10.049  0.1844 -0.2104 -0.2268
   55loPI   C3A  873   4.987   7.658   9.648  0.2352  0.0038 -0.0176
   55loPI   C4A  874   4.945   7.732   9.182 -0.1527  0.3388 -0.3136
   55loPI   C5A  875   4.985   7.575   8.814 -0.0210 -0.0905  0.0617
   55loPI   C6A  876   4.944   7.252   8.565  0.0564 -0.0136  0.0967
   55loPI   C1B  877   4.828   7.368  10.307  0.1120 -0.0764  0.0172
   55loPI   C2B  878   4.773   7.287   9.897  0.0538  0.1955  0.0496
   55loPI   C3B  879   4.837   7.195   9.436 -0.0920 -0.2157 -0.1300
   55loPI   C4B  880   4.739   7.189   9.025  0.1355 -0.1460  0.0720
   56loPI    C1  881   2.586   1.625  10.914  0.1649  0.0041  0.2025
   56loPI    C2  882   2.523   1.542  11.300  0.1806 -0.2669  0.1491
   56loPI    C3  883   2.832   1.376  11.108  0.1981 -0.0994  0.0300
   56loPI   PO4  884   2.367   1.633  10.764 -0.1374 -0.0590  0.2358
   56loPI   GL1  885   2.455   1.553  10.314 -0.0800  0.0606 -0.1661
   56loPI   GL2  886   2.459   1.327  10.076  0.4482 -0.0013  0.0435
   56loPI   C1A  887   2.302   1.699   9.856  0.0992 -0.0198 -0.4334
   56loPI   C2A  888   2.283   1.636   9.456 -0.1029  0.1786  0.3504
   56loPI   C3A  889   2.233   1.490   9.015  0.2301 -0.2057 -0.1524
   56loPI   C4A  890   2.214   1.370   8.619 -0.2408  0.0098 -0.1445
   56loPI   C5A  891   2.412   1.661   8.271  0.1325 -0.0254  0.3932
   56loPI   C6A  892   2.385   2.015   7.972  0.1790 -0.1083 -0.2427
   56loPI   C1B  893   2.352   1.182   9.703 -0.1963  0.2725 -0.0653
   56loPI   C2B  894   2.578   1.207   9.276  0.1424  0.2331  0.3042
   56loPI   C3B  895   2.698   1.313   8.875  0.0074 -0.1802  0.0308
   56loPI   C4B  896   2.820   1.495   8.516  0.2873 -0.1920  0.0223
   57loPI    C1  897   0.068  16.926  10.218 -0.0642 -0.0670  0.0655
   57loPI    C2  898  -0.297  16.960  10.377 -0.1552 -0.0631 -0.1410
   57loPI    C3  899  -0.250  16.789  10.019  0.0027  0.2658 -0.2823
   57loPI   PO4  900   0.140  17.186  10.253  0.3537  0.1981  0.2444
   57loPI   GL1  901   0.238  17.259   9.855 -0.2639  0.0801 -0.0463
   57loPI   GL2  902   0.019  17.439   9.846 -0.0569  0.0773  0.0033
   57loPI   C1A  903   0.553  17.334   9.586 -0.0652 -0.0376 -0.0955
   57loPI   C2A  904   0.828  17.487   9.252 -0.0859  0.0996 -0.3122
   57loPI   C3A  905   1.124  17.320   9.032  0.5368  0.0476  0.1680
   57loPI   C4A  906   1.210  17.342   8.636 -0.1265  0.3759 -0.0753
   57loPI   C5A  907   1.331  17.462   8.168 -0.4397 -0.0179 -0.0335
   57loPI   C6A  908   1.596  17.581   7.838  0.1842  0.0328  0.2252
   57loPI   C1B  909  -0.108  17.309   9.505  0.0146 -0.2685  0.3076
   57loPI   C2B  910  -0.169  17.014   9.099 -0.2550 -0.1019 -0.1012
   57loPI   C3B  911  -0.382  17.006   8.763  0.3846  0.0056 -0.0203
   57loPI   C4B  912  -0.570  16.847   8.416 -0.1771 -0.1139 -0.0483
   58loPI    C1  913  10.730  16.305  10.884 -0.0965  0.1588 -0.0801
   58loPI    C2  914  10.989  16.211  11.174 -0.1899 -0.1291 -0.0872
   58loPI    C3  915  10.619  16.331  11.267 -0.0910  0.1797 -0.0799
   58loPI   PO4  916  10.973  16.263  10.693  0.0884  0.3342 -0.0627
   58loPI   GL1  917  11.213  16.122  10.405  0.2546  0.0545 -0.0797
   58loPI   GL2  918  11.347  15.880  10.449  0.0842 -0.1301 -0.1550
   58loPI   C1A  919  11.187  16.018   9.921 -0.0649 -0.0557 -0.0444
   58loPI   C2A  920  11.058  15.964   9.538  0.0514 -0.2146  0.1284
   58loPI   C3A  921  11.056  16.032   9.073  0.0245  0.2524  0.0356
   58loPI   C4A  922  10.987  15.971   8.613  0.0525  0.0993 -0.0560
   58loPI   C5A  923  11.179  15.775   8.298  0.3028 -0.1784 -0.0253
   58loPI   C6A  924  11.337  15.418   8.251 -0.1488 -0.0716  0.1644
   58loPI   C1B  925  11.347  15.542  10.173 -0.0406 -0.1290 -0.1241
   58loPI   C2B  926  11.245  15.499   9.763 -0.1543  0.4751  0.3200
   58loPI   C3B  927  11.243  15.477   9.263  0.1126 -0.2531  0.2895
   58loPI   C4B  928  11.278  15.514   8.720 -0.3282 -0.0044 -0.0220
   59loPI    C1  929   1.581   1.371  10.754  0.2264 -0.0426  0.3183
   59loPI    C2  930   1.230   1.191  10.822  0.2725 -0.2669 -0.0098
   59loPI    C3  931   1.527   1.159  11.088  0.1706 -0.3986  0.0895
   59loPI   PO4  932   1.493   1.538  10.477  0.3322 -0.1755 -0.1491
   59loPI   GL1  933   1.590   1.701  10.055  0.2423 -0.1185  0.0227
   59loPI   GL2  934   1.887   1.545  10.053  0.1065 -0.1003  0.1373
   59loPI   C1A  935   1.819   1.864   9.626  0.2552  0.2410  0.0926
   59loPI   C2A  936   1.943   2.010   9.261  0.1907  0.1387 -0.3527
   59loPI   C3A  937   2.097   2.068   8.877  0.1985  0.0911 -0.1693
   59loPI   C4A  938   2.015   1.853   8.479  0.1523 -0.2920 -0.1679
   59loPI   C5A  939   1.993   1.468   8.157 -0.1643  0.0469  0.1528
   59loPI   C6A  940   1.585   1.280   7.946  0.3924  0.1439  0.2072
   59loPI   C1B  941   1.860   1.355   9.651 -0.0293  0.1115 -0.2460
   59loPI   C2B  942   1.762   1.590   9.144 -0.1266 -0.0405 -0.0558
   59loPI   C3B  943   1.730   1.495   8.681 -0.0618  0.0011  0.0274
   59loPI   C4B  944   1.749   1.100   8.430 -0.1900 -0.0562 -0.0235
   60loPI    C1  945   6.794  12.544  11.437  0.0337  0.5496  0.1484
   60loPI    C2  946   7.163  12.399  11.384 -0.1375  0.1944 -0.1161
   60loPI    C3  947   6.916  12.229  11.650 -0.1814  0.3018 -0.0874
   60loPI   PO4  948   6.745  12.723  11.357 -0.0910  0.0572 -0.2748
   60loPI   GL1  949   6.662  12.789  10.889 -0.2288 -0.0753  0.1938
   60loPI   GL2  950   6.924  12.453  10.931  0.0385 -0.1807  0.0942
   60loPI   C1A  951   6.752  12.905  10.428 -0.1141  0.0812 -0.2392
   60loPI   C2A  952   6.667  13.042   9.968  0.1004  0.3178 -0.0882
   60loPI   C3A  953   6.714  13.119   9.499  0.1138  0.0099  0.0417
   60loPI   C4A  954   6.603  13.195   9.012  0.2325  0.5293  0.0524
   60loPI   C5A  955   6.409  13.445   8.734  0.0673 -0.3554  0.0374
   60loPI   C6A  956   6.558  13.762   8.493  0.2810  0.3449 -0.1552
   60loPI   C1B  957   6.729  12.387  10.533  0.4688 -0.2157 -0.0907
   60loPI   C2B  958   6.677  12.426  10.047 -0.0785 -0.4453  0.0873
   60loPI   C3B  959   6.600  12.628   9.647 -0.1800  0.2922 -0.3191
   60loPI   C4B  960   6.561  12.698   9.263 -0.1084 -0.1968  0.0259
   61loPI    C1  961   9.090  13.592  11.014  0.0078 -0.0585  0.0128
   61loPI    C2  962   9.074  13.675  11.405 -0.0837 -0.0908  0.0162
   61loPI    C3  963   9.186  13.311  11.282 -0.0067 -0.0655  0.0106
   61loPI   PO4  964   9.235  13.760  10.919  0.1516 -0.2363 -0.0481
   61loPI   GL1  965   9.262  13.683  10.532  0.0917 -0.1812  0.0005
   61loPI   GL2  966   9.141  14.130  10.493 -0.2564 -0.0730 -0.1782
   61loPI   C1A  967   8.970  13.342  10.540 -0.0385  0.1464 -0.1032
   61loPI   C2A  968   8.819  13.066  10.259  0.3150 -0.1466 -0.2169
   61loPI   C3A  969   8.819  12.978   9.787  0.2491 -0.2099 -0.0381
   61loPI   C4A  970   8.898  13.000   9.377 -0.5930 -0.1264 -0.1726
   61loPI   C5A  971   8.740  13.049   8.954  0.0355 -0.0656  0.3541
   61loPI   C6A  972   8.500  12.819   8.605  0.0547  0.1031 -0.1991
   61loPI   C1B  973   9.050  14.108  10.037  0.2081  0.1100 -0.2328
   61loPI   C2B  974   9.049  13.854   9.650 -0.1006  0.2652  0.3903
   61loPI   C3B  975   9.304  13.801   9.245 -0.1974  0.0697  0.3330
   61loPI   C4B  976   9.529  14.126   8.971  0.4244  0.0805  0.0024
   62loPI    C1  977   4.960  15.173  11.572  0.1187 -0.1829  0.0189
   62loPI    C2  978   5.109  14.902  11.827  0.0128 -0.1365  0.1307
   62loPI    C3  979   5.271  15.267  11.805  0.0763 -0.1681  0.0697
   62loPI   PO4  980   4.952  15.027  11.382  0.1723  0.2493  0.0882
   62loPI   GL1  981   5.153  14.964  10.953 -0.2556 -0.2284 -0.1386
   62loPI   GL2  982   5.098  14.633  10.917 -0.0057 -0.0421  0.3948
   62loPI   C1A  983   4.924  14.943  10.551  0.3612  0.1554 -0.0740
   62loPI   C2A  984   5.119  14.831  10.162 -0.1415 -0.1230 -0.0487
   62loPI   C3A  985   5.179  14.742   9.796 -0.0747 -0.2604  0.0464
   62loPI   C4A  986   5.060  14.670   9.339 -0.2019  0.1013 -0.3067
   62loPI   C5A  987   4.593  14.524   9.352  0.0601 -0.0897  0.2995
   62loPI   C6A  988   4.155  14.576   9.579  0.0541  0.0442  0.2555
   62loPI   C1B  989   5.354  14.632  10.575 -0.0819  0.1753 -0.0474
   62loPI   C2B  990   5.518  14.494  10.233  0.1896  0.0076 -0.3186
   62loPI   C3B  991   5.596  14.440   9.831 -0.0196  0.1043  0.0073
   62loPI   C4B  992   5.970  14.570   9.654 -0.1321  0.2759 -0.1021
   63loPI    C1  993  10.527   0.115  10.724 -0.1645  0.1906  0.0267
   63loPI    C2  994  10.354   0.348  10.999 -0.0671 -0.1360  0.3728
   63loPI    C3  995  10.196  -0.009  10.911 -0.1669  0.0152 -0.0915
   63loPI   PO4  996  10.604   0.263  10.493 -0.2516  0.2412  0.1112
   63loPI   GL1  997  10.474   0.297  10.176 -0.1907  0.2146  0.1264
   63loPI   GL2  998  10.304   0.658  10.084  0.1530  0.0002 -0.1220
   63loPI   C1A  999  10.382   0.085   9.783  0.1203 -0.3762 -0.0496
   63loPI   C2A 1000  10.152   0.117   9.442  0.1944  0.0216 -0.0662
   63loPI   C3A 1001   9.914   0.176   9.082  0.2232  0.1984 -0.0655
   63loPI   C4A 1002   9.825   0.519   8.868  0.2301 -0.2049 -0.0551
   63loPI   C5A 1003   9.546   0.765   8.833  0.2479 -0.1748 -0.0445
   63loPI   C6A 1004   9.396   1.170   8.781  0.0382  0.2874  0.0629
   63loPI   C1B 1005  10.694   0.837   9.863  0.4142  0.2405  0.1953
   63loPI   C2B 1006  10.825   0.821   9.470 -0.1038  0.2936  0.1273
   63loPI   C3B 1007  10.755   0.863   9.029  0.0743  0.0352 -0.4350
   63loPI   C4B 1008  10.650   0.790   8.609 -0.1098 -0.0179  0.1868
   64loPI    C1 1009   6.943  17.008  11.308 -0.0197 -0.0844  0.0001
   64loPI    C2 1010   6.729  16.688  11.418 -0.1764  0.0145 -0.0129
   64loPI    C3 1011   6.706  17.026  11.630  0.0386 -0.0018  0.0386
   64loPI   PO4 1012   6.994  16.845  11.033 -0.2278 -0.4222  0.0211
   64loPI   GL1 1013   6.850  16.886  10.629 -0.2785 -0.2237  0.2204
   64loPI   GL2 1014   7.052  17.157  10.534  0.4256 -0.2912 -0.1901
   64loPI   C1A 1015   6.593  17.141  10.375 -0.0998  0.1011  0.1072
   64loPI   C2A 1016   6.518  17.208   9.965 -0.1739 -0.0746 -0.1249
   64loPI   C3A 1017   6.660  17.510   9.666 -0.0189 -0.0632 -0.1071
   64loPI   C4A 1018   6.507  17.731   9.245 -0.3928  0.0632  0.0249
   64loPI   C5A 1019   6.504  17.751   8.822 -0.2157  0.2346  0.1644
   64loPI   C6A 1020   6.592  17.522   8.442  0.0328 -0.0764  0.0098
   64loPI   C1B 1021   7.081  17.314  10.193 -0.0805 -0.1897 -0.1584
   64loPI   C2B 1022   7.107  17.325   9.713 -0.0582 -0.2590 -0.2200
   64loPI   C3B 1023   6.991  17.221   9.342 -0.2717 -0.0518 -0.0237
   64loPI   C4B 1024   7.141  17.117   8.927  0.0476 -0.1835 -0.1262
   65loPI    C1 1025   5.972  12.335  11.519 -0.0782 -0.3396 -0.1226
   65loPI    C2 1026   5.811  12.671  11.666 -0.0686 -0.3371 -0.1177
   65loPI    C3 1027   6.144  12.521  11.829  0.1584 -0.1264 -0.3773
   65loPI   PO4 1028   5.895  12.370  11.201  0.0376 -0.1676 -0.3571
   65loPI   GL1 1029   5.972  12.405  10.783 -0.2349 -0.0826 -0.0032
   65loPI   GL2 1030   6.254  12.520  10.704  0.0783  0.2230 -0.2461
   65loPI   C1A 1031   5.832  12.371  10.344 -0.3842 -0.2124  0.0565
   65loPI   C2A 1032   5.753  12.485   9.953  0.0860 -0.0285  0.2367
   65loPI   C3A 1033   5.784  12.479   9.544  0.0927  0.2023  0.0698
   65loPI   C4A 1034   5.651  12.609   9.097  0.0569 -0.3043  0.2566
   65loPI   C5A 1035   5.442  12.980   8.814  0.1631  0.0343 -0.1057
   65loPI   C6A 1036   5.176  13.183   8.494  0.3052 -0.3816 -0.0107
   65loPI   C1B 1037   6.273  12.672  10.289  0.1667 -0.0637  0.0960
   65loPI   C2B 1038   6.184  12.807   9.980  0.1375  0.0506 -0.2973
   65loPI   C3B 1039   6.156  12.804   9.532 -0.1329 -0.1002  0.1987
   65loPI   C4B 1040   6.029  12.901   9.049 -0.1685  0.1083  0.0817
   66loPI    C1 1041   8.108   1.227  11.371  0.0357 -0.0458 -0.0658
   66loPI    C2 1042   7.862   1.173  11.682  0.0599  0.1696 -0.0076
   66loPI    C3 1043   8.160   0.914  11.614  0.0393  0.1079  0.1337
   66loPI   PO4 1044   7.920   1.225  11.096 -0.2712  0.3958  0.0484
   66loPI   GL1 1045   7.782   1.503  10.768  0.4053  0.0881 -0.2194
   66loPI   GL2 1046   8.095   1.419  10.645  0.0672 -0.0357 -0.2422
   66loPI   C1A 1047   7.772   1.181  10.418  0.0787  0.1585 -0.1075
   66loPI   C2A 1048   7.949   1.282  10.002  0.0796 -0.0146 -0.0978
   66loPI   C3A 1049   8.336   1.260   9.830 -0.1205 -0.2051  0.1338
   66loPI   C4A 1050   8.514   1.380   9.513  0.2494 -0.2454 -0.0534
   66loPI   C5A 1051   8.384   1.451   9.024  0.3369 -0.2124  0.1080
   66loPI   C6A 1052   8.158   1.322   8.640 -0.0971  0.1977 -0.0426
   66loPI   C1B 1053   7.782   1.652  10.245 -0.0959  0.0642 -0.0910
   66loPI   C2B 1054   7.845   1.723   9.798 -0.0061  0.1148 -0.2000
   66loPI   C3B 1055   7.690   1.798   9.437  0.0541  0.0901 -0.5887
   66loPI   C4B 1056   7.733   1.525   9.049 -0.0119 -0.1754  0.0195
   67loPI    C1 1057   5.030  12.092  11.345  0.0850  0.2391 -0.1154
   67loPI    C2 1058   5.282  11.792  11.425 -0.0637  0.0978 -0.1707
   67loPI    C3 1059   5.124  12.005  11.724 -0.0978  0.0039 -0.1216
   67loPI   PO4 1060   5.059  12.110  11.123  0.0229  0.1232  0.1261
   67loPI   GL1 1061   5.153  12.221  10.791  0.1849  0.1733  0.1163
   67loPI   GL2 1062   5.374  12.139  10.596 -0.2394 -0.0738  0.2038
   67loPI   C1A 1063   4.927  12.366  10.459  0.1331  0.1220  0.0700
   67loPI   C2A 1064   4.956  12.392   9.942  0.0111  0.3672  0.1181
   67loPI   C3A 1065   4.864  12.334   9.447  0.0749 -0.1191 -0.3267
   67loPI   C4A 1066   4.752  12.284   9.018  0.0761 -0.0599 -0.0179
   67loPI   C5A 1067   4.501  11.920   8.942 -0.2707 -0.0695  0.4535
   67loPI   C6A 1068   4.508  11.530   8.736 -0.1853  0.0765 -0.1155
   67loPI   C1B 1069   5.336  12.177  10.134 -0.0584  0.0374  0.0376
   67loPI   C2B 1070   5.337  12.236   9.638  0.0972  0.0295  0.0645
   67loPI   C3B 1071   5.250  12.266   9.181  0.0661  0.2976 -0.1739
   67loPI   C4B 1072   5.283  12.242   8.747  0.4960 -0.3464 -0.2156
   68loPI    C1 1073   0.121  12.236  10.774 -0.0582  0.0821  0.0627
   68loPI    C2 1074   0.376  12.115  11.058 -0.2826  0.1913  0.3158
   68loPI    C3 1075   0.117  11.855  10.899 -0.0320  0.0849  0.0724
   68loPI   PO4 1076   0.209  12.339  10.585  0.2991  0.1129  0.0363
   68loPI   GL1 1077   0.274  12.738  10.383  0.4471  0.1021  0.2530
   68loPI   GL2 1078   0.549  12.841  10.403 -0.0322  0.0168  0.0241
   68loPI   C1A 1079   0.346  12.936   9.987 -0.0024  0.4410  0.0124
   68loPI   C2A 1080   0.446  13.123   9.686 -0.1036  0.0271  0.0005
   68loPI   C3A 1081   0.280  13.254   9.213 -0.0245  0.2200 -0.0732
   68loPI   C4A 1082   0.151  13.311   8.795 -0.0960 -0.2444  0.0897
   68loPI   C5A 1083  -0.242  13.374   8.555  0.0963 -0.2013 -0.0556
   68loPI   C6A 1084  -0.251  13.608   8.265  0.4584  0.2285  0.2523
   68loPI   C1B 1085   0.784  12.730  10.089 -0.2152 -0.1320 -0.1291
   68loPI   C2B 1086   0.801  12.717   9.702  0.0752  0.1841  0.0136
   68loPI   C3B 1087   0.997  12.615   9.342  0.0447  0.1822  0.1185
   68loPI   C4B 1088   0.754  12.332   9.146 -0.1115  0.0462 -0.0381
   69loPI    C1 1089   5.794   8.078  11.596  0.0800  0.2993 -0.1416
   69loPI    C2 1090   6.188   8.010  11.600  0.0192 -0.0730  0.1213
   69loPI    C3 1091   6.004   8.140  11.931 -0.0815  0.0972  0.0000
   69loPI   PO4 1092   5.749   8.182  11.363  0.2180 -0.0690 -0.2996
   69loPI   GL1 1093   5.667   8.195  10.910 -0.0880 -0.2272 -0.2106
   69loPI   GL2 1094   5.506   7.946  10.933  0.0676 -0.1193  0.0078
   69loPI   C1A 1095   5.689   8.266  10.466  0.0380 -0.0611 -0.1581
   69loPI   C2A 1096   5.690   8.272  10.084  0.4787 -0.3009  0.2142
   69loPI   C3A 1097   5.754   8.259   9.730 -0.0863 -0.1702  0.2904
   69loPI   C4A 1098   5.609   8.202   9.304 -0.0388  0.0699  0.0525
   69loPI   C5A 1099   5.494   8.463   8.969  0.0812 -0.2883 -0.2183
   69loPI   C6A 1100   5.127   8.900   9.142 -0.2317 -0.2737  0.1544
   69loPI   C1B 1101   5.554   7.802  10.568  0.0254 -0.2165  0.1876
   69loPI   C2B 1102   5.431   7.763  10.188 -0.1216  0.1186 -0.0708
   69loPI   C3B 1103   5.490   7.697   9.720 -0.1084 -0.0710  0.0385
   69loPI   C4B 1104   5.473   7.721   9.258 -0.1599  0.2109  0.0859
   70loPI    C1 1105   0.593   8.450  11.055 -0.1084  0.2893 -0.2318
   70loPI    C2 1106   0.949   8.474  10.874 -0.0734  0.0136 -0.2042
   70loPI    C3 1107   0.928   8.442  11.272 -0.1396  0.2885 -0.1836
   70loPI   PO4 1108   0.434   8.238  10.835  0.3479 -0.0023 -0.0282
   70loPI   GL1 1109   0.409   8.180  10.463  0.0495  0.0429 -0.0602
   70loPI   GL2 1110   0.582   7.825  10.390  0.0189 -0.3313  0.1488
   70loPI   C1A 1111   0.642   8.251  10.090 -0.0065 -0.3420 -0.0067
   70loPI   C2A 1112   0.814   8.398   9.786 -0.0215  0.0066 -0.0331
   70loPI   C3A 1113   1.034   8.479   9.445 -0.0915 -0.3773 -0.0397
   70loPI   C4A 1114   1.149   8.364   9.086 -0.0272 -0.0177 -0.0537
   70loPI   C5A 1115   1.099   8.364   8.626 -0.3720  0.1978  0.0360
   70loPI   C6A 1116   1.179   8.351   8.160 -0.2494 -0.0859  0.1098
   70loPI   C1B 1117   0.667   7.726  10.051 -0.0078 -0.1329 -0.0982
   70loPI   C2B 1118   0.840   7.547   9.602 -0.2600  0.4172 -0.1176
   70loPI   C3B 1119   0.918   7.335   9.165 -0.1403  0.1167 -0.1146
   70loPI   C4B 1120   1.085   7.437   8.755  0.0865  0.2005 -0.2094
   71loPI    C1 1121   1.361   9.929  11.203  0.0863 -0.2018  0.0147
   71loPI    C2 1122   1.120   9.700  11.424 -0.0849 -0.1088 -0.0736
   71loPI    C3 1123   1.324   9.998  11.595 -0.2318 -0.0249 -0.0435
   71loPI   PO4 1124   1.285  10.019  11.039 -0.0375 -0.0864  0.0773
   71loPI   GL1 1125   1.408  10.223  10.649  0.1214  0.0783  0.0169
   71loPI   GL2 1126   1.521  10.351  10.452  0.0114  0.0455 -0.1084
   71loPI   C1A 1127   1.193   9.990  10.197 -0.0192 -0.0179 -0.4485
   71loPI   C2A 1128   1.082  10.015   9.723  0.0647 -0.0952 -0.2879
   71loPI   C3A 1129   1.172   9.773   9.385  0.0404  0.0345  0.1312
   71loPI   C4A 1130   1.248   9.833   8.995  0.1268 -0.0888 -0.3667
   71loPI   C5A 1131   0.951   9.967   8.639 -0.0365 -0.1480 -0.0551
   71loPI   C6A 1132   0.625   9.782   8.725 -0.0577 -0.0967  0.0199
   71loPI   C1B 1133   1.426  10.383   9.986 -0.0102  0.0345 -0.1126
   71loPI   C2B 1134   1.489  10.377   9.650  0.0588 -0.0303  0.3386
   71loPI   C3B 1135   1.309  10.296   9.268  0.0972  0.0428  0.3576
   71loPI   C4B 1136   1.200  10.330   8.868  0.1165 -0.1450  0.1498
   72loPI    C1 1137  17.637   5.299  11.285 -0.1765 -0.0715 -0.2000
   72loPI    C2 1138  17.627   5.034  11.584  0.3124 -0.0367 -0.1442
   72loPI    C3 1139  17.403   5.365  11.603  0.1918 -0.1290  0.0895
   72loPI   PO4 1140  17.919   5.279  11.193 -0.3568  0.1444  0.1215
   72loPI   GL1 1141  18.034   5.016  10.699  0.4685  0.0817  0.0107
   72loPI   GL2 1142  17.731   4.805  10.392  0.2951 -0.1736  0.2712
   72loPI   C1A 1143  18.397   4.987  10.369 -0.2262 -0.3876 -0.0406
   72loPI   C2A 1144  18.786   4.970  10.171 -0.0168  0.3128 -0.0889
   72loPI   C3A 1145  19.076   4.640  10.041  0.1326  0.0246 -0.1116
   72loPI   C4A 1146  19.033   4.409   9.584  0.0256 -0.0648 -0.1150
   72loPI   C5A 1147  18.997   4.334   9.239  0.3443  0.0449 -0.2080
   72loPI   C6A 1148  18.960   4.120   8.859  0.0565  0.1271 -0.0060
   72loPI   C1B 1149  18.076   4.647  10.050 -0.0632 -0.0915  0.1442
   72loPI   C2B 1150  18.034   4.655   9.537  0.0174  0.0927  0.1235
   72loPI   C3B 1151  18.119   4.720   9.036 -0.0293  0.1257  0.0429
   72loPI   C4B 1152  17.996   4.847   8.663  0.0226  0.0768  0.0843
   73loPI    C1 1153   6.017   6.499  11.391 -0.2943 -0.0564 -0.1562
   73loPI    C2 1154   5.725   6.530  11.662 -0.0350 -0.1058  0.1350
   73loPI    C3 1155   5.882   6.172  11.577  0.1735 -0.0390  0.2335
   73loPI   PO4 1156   5.902   6.687  11.191 -0.1057 -0.0609  0.0066
   73loPI   GL1 1157   5.971   6.517  10.840 -0.0239  0.3183 -0.0447
   73loPI   GL2 1158   6.344   6.584  10.844  0.2771  0.0827 -0.3123
   73loPI   C1A 1159   5.793   6.416  10.485 -0.4385  0.0040  0.1101
   73loPI   C2A 1160   5.847   6.398  10.070 -0.1846  0.1393  0.0508
   73loPI   C3A 1161   5.805   6.408   9.628 -0.3426  0.3686 -0.1454
   73loPI   C4A 1162   5.964   6.359   9.166 -0.0987  0.0901  0.1263
   73loPI   C5A 1163   5.858   6.286   8.722  0.3880  0.1580 -0.2799
   73loPI   C6A 1164   5.714   6.419   8.263 -0.2943  0.1654 -0.3459
   73loPI   C1B 1165   6.396   6.540  10.443 -0.1572  0.1596 -0.1021
   73loPI   C2B 1166   6.399   6.508  10.033  0.0418 -0.0474 -0.1365
   73loPI   C3B 1167   6.419   6.477   9.522 -0.0263  0.0062 -0.1895
   73loPI   C4B 1168   6.548   6.655   8.991  0.1987 -0.1194  0.3147
   74loPI    C1 1169  10.584   8.161  11.613 -0.1486  0.0768  0.0091
   74loPI    C2 1170  10.858   8.451  11.636 -0.0292 -0.0416  0.0929
   74loPI    C3 1171  10.474   8.532  11.716 -0.0218  0.1272 -0.0360
   74loPI   PO4 1172  10.793   7.968  11.429 -0.2590  0.2118  0.2658
   74loPI   GL1 1173  10.726   7.705  11.067 -0.1043  0.1967 -0.0805
   74loPI   GL2 1174  10.523   7.505  11.056 -0.0988 -0.0787 -0.0391
   74loPI   C1A 1175  10.818   7.691  10.605 -0.0164 -0.1120  0.3278
   74loPI   C2A 1176  10.661   7.918  10.209 -0.0461  0.0794 -0.1222
   74loPI   C3A 1177  10.487   7.771   9.781  0.2305  0.1734  0.0845
   74loPI   C4A 1178  10.339   7.868   9.348 -0.0526  0.0780 -0.0263
   74loPI   C5A 1179  10.493   7.985   8.926  0.1648  0.2027  0.1211
   74loPI   C6A 1180  10.713   7.846   8.476  0.0124 -0.1167  0.1520
   74loPI   C1B 1181  10.112   7.359  10.813 -0.0093 -0.1875  0.2265
   74loPI   C2B 1182   9.801   7.250  10.404 -0.1300  0.2483 -0.1357
   74loPI   C3B 1183   9.741   7.216  10.016  0.2547  0.3738 -0.0391
   74loPI   C4B 1184   9.647   7.183   9.628  0.1501 -0.0415 -0.0665
   75loPI    C1 1185   0.237  15.682  11.003  0.0870  0.0166  0.0746
   75loPI    C2 1186   0.371  15.361  11.199 -0.0258 -0.1131 -0.0584
   75loPI    C3 1187   0.150  15.634  11.390  0.0635 -0.1181  0.0530
   75loPI   PO4 1188   0.159  15.561  10.767  0.0199 -0.0447  0.1502
   75loPI   GL1 1189   0.117  15.675  10.408 -0.0386  0.0532 -0.1299
   75loPI   GL2 1190  -0.025  15.892  10.168  0.2411  0.1264 -0.1888
   75loPI   C1A 1191   0.117  15.357  10.092 -0.0014 -0.2285 -0.1218
   75loPI   C2A 1192  -0.001  15.043   9.737 -0.2629  0.0159 -0.0744
   75loPI   C3A 1193  -0.043  15.034   9.296 -0.2127 -0.0886 -0.1257
   75loPI   C4A 1194   0.159  15.222   9.035 -0.0143 -0.2139  0.2489
   75loPI   C5A 1195  -0.013  15.475   8.670  0.2318  0.3260  0.2919
   75loPI   C6A 1196  -0.108  15.259   8.335 -0.0251 -0.0974 -0.1426
   75loPI   C1B 1197  -0.064  16.096   9.781  0.1195 -0.3587 -0.0519
   75loPI   C2B 1198  -0.381  16.419   9.547 -0.0322  0.1437  0.0550
   75loPI   C3B 1199  -0.529  16.864   9.403  0.1292 -0.0823 -0.1275
   75loPI   C4B 1200  -0.753  16.986   9.103  0.2967 -0.0034 -0.0765
   76loPI    C1 1201   2.192   3.837  10.906  0.3303 -0.2729 -0.0016
   76loPI    C2 1202   2.350   4.171  11.060 -0.0250 -0.1637  0.1369
   76loPI    C3 1203   2.304   3.848  11.290 -0.3352 -0.0773  0.2013
   76loPI   PO4 1204   2.364   3.776  10.712 -0.0664 -0.0368  0.0856
   76loPI   GL1 1205   2.583   3.910  10.371  0.4642  0.2378  0.0073
   76loPI   GL2 1206   2.830   3.788  10.320 -0.0871  0.2954  0.0735
   76loPI   C1A 1207   2.301   3.830  10.001 -0.0069 -0.0942 -0.0640
   76loPI   C2A 1208   2.329   3.596   9.628 -0.2902 -0.0093  0.0429
   76loPI   C3A 1209   2.312   3.432   9.229  0.0571 -0.4670  0.0060
   76loPI   C4A 1210   2.324   3.385   8.751  0.0422  0.0618 -0.0635
   76loPI   C5A 1211   2.080   3.434   8.516 -0.2660 -0.3914  0.2574
   76loPI   C6A 1212   1.665   3.482   8.367 -0.0306 -0.1536  0.1285
   76loPI   C1B 1213   2.767   3.861   9.910 -0.1348  0.3243  0.0881
   76loPI   C2B 1214   2.906   3.595   9.633  0.2637  0.0475  0.0304
   76loPI   C3B 1215   3.171   3.389   9.391 -0.2340  0.1208  0.2368
   76loPI   C4B 1216   3.345   3.267   9.111 -0.3069 -0.3200 -0.0325
   77loPI    C1 1217   9.499  14.765  11.119 -0.1181  0.0466  0.2283
   77loPI    C2 1218   9.433  14.507  10.820 -0.0748  0.0434  0.2216
   77loPI    C3 1219   9.143  14.586  11.085 -0.1295  0.0837  0.1499
   77loPI   PO4 1220   9.629  14.992  10.997 -0.1780  0.0419  0.0610
   77loPI   GL1 1221   9.790  15.096  10.592  0.1981 -0.1119 -0.1115
   77loPI   GL2 1222   9.735  15.270  10.420  0.1727 -0.0019  0.2674
   77loPI   C1A 1223   9.414  14.867  10.350 -0.2592  0.2223  0.1030
   77loPI   C2A 1224   9.354  14.631   9.945  0.1334 -0.1057  0.1902
   77loPI   C3A 1225   9.335  14.380   9.589 -0.0553  0.0257 -0.1097
   77loPI   C4A 1226   9.105  14.458   9.202 -0.0830 -0.0006  0.1528
   77loPI   C5A 1227   8.818  14.471   8.837 -0.2048 -0.2390 -0.1123
   77loPI   C6A 1228   8.603  14.582   8.478  0.5805 -0.0166 -0.2573
   77loPI   C1B 1229   9.540  15.304  10.060  0.0593  0.0298 -0.3338
   77loPI   C2B 1230   9.328  15.128   9.766 -0.1713  0.1187 -0.0477
   77loPI   C3B 1231   9.291  14.975   9.325  0.1185 -0.3131 -0.1961
   77loPI   C4B 1232   9.053  14.870   8.903 -0.0059 -0.0049  0.2136
   78loPI    C1 1233  11.221   7.182  11.731  0.0293 -0.0681  0.0745
   78loPI    C2 1234  11.233   6.817  11.893  0.0883 -0.1117 -0.0271
   78loPI    C3 1235  10.883   7.006  11.852  0.0713 -0.1053  0.1386
   78loPI   PO4 1236  11.332   7.215  11.493 -0.1127 -0.1435 -0.1961
   78loPI   GL1 1237  11.191   7.359  11.151  0.2478 -0.0360  0.3257
   78loPI   GL2 1238  11.223   7.640  10.972 -0.1789  0.0076  0.0292
   78loPI   C1A 1239  10.910   7.166  10.830  0.0292  0.1032 -0.0911
   78loPI   C2A 1240  10.939   6.993  10.464 -0.1237 -0.2788  0.3503
   78loPI   C3A 1241  11.170   6.918  10.124 -0.0580  0.1312 -0.0257
   78loPI   C4A 1242  11.018   6.987   9.614 -0.0116  0.0932  0.2827
   78loPI   C5A 1243  11.172   6.763   9.236  0.1934  0.0083 -0.0990
   78loPI   C6A 1244  11.048   6.580   8.927  0.3156 -0.0088  0.1488
   78loPI   C1B 1245  11.571   7.806  10.840  0.0831  0.1563 -0.3667
   78loPI   C2B 1246  11.627   7.815  10.416  0.0164  0.1825  0.1384
   78loPI   C3B 1247  11.402   7.788  10.100 -0.1116  0.0338  0.2834
   78loPI   C4B 1248  11.084   7.815   9.954 -0.1207  0.0295  0.3260
   79loPI    C1 1249   9.990  13.835  11.200 -0.0106 -0.1787 -0.2187
   79loPI    C2 1250   9.604  13.742  11.246 -0.0465  0.0798  0.0338
   79loPI    C3 1251   9.873  13.611  11.511 -0.0315  0.2995  0.1293
   79loPI   PO4 1252  10.033  13.846  10.958  0.1276  0.2068  0.1769
   79loPI   GL1 1253   9.731  13.678  10.684 -0.1659 -0.0543  0.1528
   79loPI   GL2 1254   9.591  14.004  10.702 -0.0875 -0.2983  0.2722
   79loPI   C1A 1255   9.605  13.434  10.267  0.3568  0.1413  0.1257
   79loPI   C2A 1256   9.324  13.455   9.968 -0.2741 -0.1248 -0.0500
   79loPI   C3A 1257   9.103  13.384   9.637 -0.0543  0.3805  0.4543
   79loPI   C4A 1258   8.819  13.528   9.308  0.1035 -0.2178 -0.0155
   79loPI   C5A 1259   8.915  13.615   8.848 -0.0197  0.0196  0.0594
   79loPI   C6A 1260   8.839  13.641   8.385  0.0578 -0.1597  0.1657
   79loPI   C1B 1261   9.537  13.952  10.250  0.2317 -0.0001  0.0392
   79loPI   C2B 1262   9.515  13.885   9.750 -0.0074  0.0798 -0.0387
   79loPI   C3B 1263   9.710  14.104   9.415 -0.0837  0.0848  0.0368
   79loPI   C4B 1264  10.032  14.361   9.325 -0.0865  0.0827  0.1604
   80loPI    C1 1265   9.971  13.306  11.059 -0.1230 -0.1776 -0.0793
   80loPI    C2 1266   9.879  12.923  11.127 -0.0906 -0.1456  0.1536
   80loPI    C3 1267   9.667  13.214  11.302 -0.0999 -0.0567 -0.0035
   80loPI   PO4 1268  10.025  13.284  10.754  0.1233 -0.3231 -0.2959
   80loPI   GL1 1269  10.030  13.208  10.424  0.1671 -0.1192 -0.4446
   80loPI   GL2 1270  10.219  13.396  10.209  0.1886 -0.2726  0.1354
   80loPI   C1A 1271   9.757  13.063  10.008  0.0780 -0.1231 -0.0591
   80loPI   C2A 1272   9.554  13.127   9.601 -0.0856  0.0665 -0.0933
   80loPI   C3A 1273   9.344  13.268   9.238 -0.1035  0.3765  0.0237
   80loPI   C4A 1274   9.387  13.485   8.881  0.0729  0.1470  0.1080
   80loPI   C5A 1275   9.178  13.327   8.454  0.0671  0.0506 -0.1656
   80loPI   C6A 1276   9.231  13.471   8.041 -0.2326  0.0612  0.0669
   80loPI   C1B 1277  10.465  13.359   9.861 -0.0409  0.1082  0.1177
   80loPI   C2B 1278  10.303  13.318   9.472 -0.2326  0.0682  0.3748
   80loPI   C3B 1279  10.434  13.136   9.134 -0.1231 -0.2207 -0.2017
   80loPI   C4B 1280  10.448  13.122   8.716  0.0119  0.1538 -0.0271
   81loPI    C1 1281   7.591   2.793  11.193  0.0276  0.0392 -0.0376
   81loPI    C2 1282   7.292   3.037  11.088 -0.2156 -0.2507 -0.0318
   81loPI    C3 1283   7.326   2.913  11.467 -0.0915 -0.2250 -0.0340
   81loPI   PO4 1284   7.610   2.579  10.973  0.3048  0.0151  0.2188
   81loPI   GL1 1285   7.674   2.544  10.596 -0.3497  0.0830 -0.1502
   81loPI   GL2 1286   7.791   2.736  10.490  0.1941 -0.3082  0.1372
   81loPI   C1A 1287   7.611   2.522  10.102 -0.0598  0.1537 -0.0367
   81loPI   C2A 1288   7.635   2.565   9.716  0.0691  0.0244  0.4244
   81loPI   C3A 1289   7.618   2.669   9.342 -0.0765  0.1158 -0.2834
   81loPI   C4A 1290   7.605   2.626   8.923 -0.0041 -0.2386 -0.2313
   81loPI   C5A 1291   7.624   2.711   8.481  0.0010 -0.3472 -0.4722
   81loPI   C6A 1292   7.852   3.129   8.373 -0.1486  0.0288  0.2098
   81loPI   C1B 1293   8.108   2.591  10.155  0.2873 -0.0313  0.0758
   81loPI   C2B 1294   8.187   2.566   9.815 -0.0260 -0.0079 -0.4533
   81loPI   C3B 1295   8.094   2.706   9.333 -0.0131 -0.2528 -0.2009
   81loPI   C4B 1296   8.077   2.676   8.872  0.0308  0.3057 -0.0156
   82loPI    C1 1297  17.697  11.902  10.622 -0.1030 -0.0961  0.0446
   82loPI    C2 1298  17.453  12.141  10.830  0.0069 -0.0294  0.0980
   82loPI    C3 1299  17.525  11.769  10.957 -0.1330 -0.0784  0.0362
   82loPI   PO4 1300  17.700  11.991  10.444  0.3846  0.0506  0.0969
   82loPI   GL1 1301  17.878  12.170  10.121  0.2248  0.0185  0.0312
   82loPI   GL2 1302  18.130  11.853  10.339  0.1755  0.0237  0.2376
   82loPI   C1A 1303  18.007  12.540   9.904  0.0851 -0.2058 -0.0208
   82loPI   C2A 1304  18.346  12.505   9.661 -0.2769  0.0905  0.0276
   82loPI   C3A 1305  18.464  12.792   9.283  0.1125 -0.0079  0.0202
   82loPI   C4A 1306  18.680  12.855   8.980 -0.1002 -0.0394 -0.2798
   82loPI   C5A 1307  18.589  13.217   8.679 -0.0990 -0.1771 -0.2027
   82loPI   C6A 1308  18.799  13.592   8.465  0.2397  0.0411  0.1029
   82loPI   C1B 1309  18.105  11.579   9.980  0.3266 -0.2417 -0.1474
   82loPI   C2B 1310  18.295  11.475   9.572  0.2453 -0.2360  0.1985
   82loPI   C3B 1311  18.320  11.449   9.117 -0.2258  0.1355 -0.1059
   82loPI   C4B 1312  18.385  11.535   8.735  0.1670  0.1224 -0.0645
   83loPI    C1 1313   9.021   8.765  11.580 -0.2055 -0.0400 -0.0615
   83loPI    C2 1314   9.060   8.708  11.973 -0.2014  0.2313 -0.0202
   83loPI    C3 1315   8.997   9.076  11.831  0.3469  0.2212 -0.3140
   83loPI   PO4 1316   8.862   8.673  11.400  0.2310 -0.0092  0.0077
   83loPI   GL1 1317   8.676   8.716  10.940 -0.2286 -0.4200  0.1081
   83loPI   GL2 1318   9.002   8.884  10.840 -0.0837 -0.1998  0.0730
   83loPI   C1A 1319   8.482   8.595  10.588 -0.2538 -0.0765  0.1395
   83loPI   C2A 1320   8.286   8.654  10.221 -0.1565 -0.0103  0.0905
   83loPI   C3A 1321   8.297   8.639   9.788 -0.0450  0.2175 -0.2864
   83loPI   C4A 1322   8.232   8.730   9.337 -0.1037  0.1299 -0.1622
   83loPI   C5A 1323   8.485   8.487   9.043 -0.1592 -0.0946  0.1455
   83loPI   C6A 1324   8.768   8.244   8.879  0.1619  0.1313 -0.1582
   83loPI   C1B 1325   8.911   8.946  10.452 -0.1189  0.0376 -0.1700
   83loPI   C2B 1326   8.935   8.861  10.053  0.2452 -0.1030  0.2509
   83loPI   C3B 1327   8.759   8.870   9.662 -0.1413 -0.1553 -0.0622
   83loPI   C4B 1328   8.809   8.934   9.158 -0.0794  0.0371  0.0041
   84loPI    C1 1329   7.238  16.236  10.971 -0.2202  0.0409 -0.1070
   84loPI    C2 1330   7.177  16.438  11.310  0.1028 -0.1751  0.0852
   84loPI    C3 1331   7.222  16.040  11.319 -0.1121 -0.2106 -0.2405
   84loPI   PO4 1332   7.048  16.336  10.776  0.0606 -0.2886  0.1117
   84loPI   GL1 1333   6.951  16.255  10.363 -0.0553  0.1598  0.3842
   84loPI   GL2 1334   6.969  15.990  10.412  0.1449  0.2196  0.0937
   84loPI   C1A 1335   7.055  16.334   9.948  0.0284 -0.0520 -0.0654
   84loPI   C2A 1336   6.994  16.322   9.532  0.1396  0.2226  0.1080
   84loPI   C3A 1337   7.270  16.129   9.226  0.0327  0.2790 -0.0639
   84loPI   C4A 1338   7.278  16.048   8.758 -0.3020  0.2419  0.2728
   84loPI   C5A 1339   7.400  16.263   8.373  0.1800  0.0541  0.4980
   84loPI   C6A 1340   7.130  16.648   8.263 -0.0013 -0.1330 -0.0741
   84loPI   C1B 1341   6.851  15.839   9.968 -0.2762 -0.2629  0.1453
   84loPI   C2B 1342   7.112  15.832   9.594 -0.0064  0.0155  0.0848
   84loPI   C3B 1343   7.145  15.628   9.264 -0.3022  0.3936  0.3468
   84loPI   C4B 1344   7.315  15.284   8.967  0.0571 -0.0670  0.0649
   85loPI    C1 1345  17.902  14.650  11.025 -0.0281  0.0896  0.0263
   85loPI    C2 1346  18.252  14.840  10.986 -0.0707  0.2185  0.2515
   85loPI    C3 1347  18.213  14.546  11.254 -0.0764  0.0592  0.0785
   85loPI   PO4 1348  17.805  14.691  10.734 -0.3608  0.1905  0.0719
   85loPI   GL1 1349  17.670  14.766  10.321 -0.2632 -0.0248  0.2911
   85loPI   GL2 1350  17.592  14.713  10.015 -0.3217 -0.0309 -0.1793
   85loPI   C1A 1351  18.081  14.696  10.172 -0.0771  0.1049  0.0069
   85loPI   C2A 1352  18.504  14.844   9.931  0.1663  0.2322  0.3058
   85loPI   C3A 1353  18.859  14.926   9.726  0.1076 -0.3115  0.0308
   85loPI   C4A 1354  18.965  15.141   9.391 -0.1446 -0.4807  0.0478
   85loPI   C5A 1355  19.150  15.109   9.029  0.1011  0.4009  0.1566
   85loPI   C6A 1356  19.548  14.992   8.832  0.1063 -0.1263 -0.1244
   85loPI   C1B 1357  17.986  14.524   9.748  0.0280  0.1537  0.1212
   85loPI   C2B 1358  18.030  14.354   9.416  0.3696  0.0072 -0.3971
   85loPI   C3B 1359  18.012  14.299   9.046  0.1121  0.4282  0.1772
   85loPI   C4B 1360  18.016  14.370   8.535 -0.0900 -0.1410 -0.0372
   86loPI    C1 1361   4.314   8.446  11.118  0.0528  0.1800  0.2147
   86loPI    C2 1362   4.711   8.402  11.093  0.0400  0.1751 -0.0061
   86loPI    C3 1363   4.538   8.465  11.449  0.2085 -0.1062  0.1288
   86loPI   PO4 1364   4.173   8.222  11.009 -0.0197 -0.1364 -0.1477
   86loPI   GL1 1365   4.094   8.088  10.657  0.2353  0.2400  0.2178
   86loPI   GL2 1366   3.967   7.787  10.676  0.0008  0.1228  0.0105
   86loPI   C1A 1367   4.181   8.184  10.232  0.2921 -0.0540 -0.0301
   86loPI   C2A 1368   4.118   8.147   9.780 -0.0349 -0.2246 -0.0787
   86loPI   C3A 1369   4.179   8.236   9.396  0.0151 -0.0681  0.0791
   86loPI   C4A 1370   4.088   8.462   9.141 -0.4206  0.2734 -0.2923
   86loPI   C5A 1371   3.905   8.353   8.773  0.2391 -0.2013 -0.1732
   86loPI   C6A 1372   3.804   8.083   8.542 -0.0839  0.1737  0.1789
   86loPI   C1B 1373   3.933   7.691  10.210  0.3888 -0.2820  0.1096
   86loPI   C2B 1374   3.938   7.615   9.755 -0.1848 -0.1688  0.1198
   86loPI   C3B 1375   3.928   7.517   9.401  0.2037 -0.0493 -0.0762
   86loPI   C4B 1376   3.946   7.641   8.938  0.2867  0.1264  0.4187
   87loPI    C1 1377  16.766   5.163  10.845 -0.1732 -0.0836  0.1014
   87loPI    C2 1378  16.422   5.038  10.684  0.0076 -0.3762 -0.0682
   87loPI    C3 1379  16.464   5.048  11.081 -0.1795 -0.3815 -0.0469
   87loPI   PO4 1380  16.993   5.013  10.737 -0.1046  0.2486  0.0998
   87loPI   GL1 1381  17.028   5.145  10.356 -0.0931 -0.0225  0.2834
   87loPI   GL2 1382  17.306   5.033  10.280  0.0597  0.3246 -0.0646
   87loPI   C1A 1383  17.059   4.934   9.851  0.0065 -0.0659  0.0835
   87loPI   C2A 1384  17.052   4.955   9.460  0.3151 -0.1607 -0.1957
   87loPI   C3A 1385  17.010   5.138   9.024 -0.2798 -0.0615  0.4424
   87loPI   C4A 1386  17.149   5.454   8.806 -0.2505 -0.1631  0.1753
   87loPI   C5A 1387  17.379   5.747   8.538 -0.0055  0.0740  0.2375
   87loPI   C6A 1388  17.815   5.784   8.326 -0.0574  0.0644 -0.1701
   87loPI   C1B 1389  17.555   4.978   9.881  0.0748  0.1383  0.0618
   87loPI   C2B 1390  17.515   4.888   9.476 -0.0670  0.1512  0.5113
   87loPI   C3B 1391  17.533   4.954   9.082  0.2395 -0.1951 -0.0767
   87loPI   C4B 1392  17.636   5.229   8.734  0.1659  0.0279  0.5781
   88loPI    C1 1393   8.916  16.718  11.068 -0.1158 -0.2368  0.1794
   88loPI    C2 1394   8.929  16.374  10.864  0.1368 -0.2425  0.2017
   88loPI    C3 1395   9.266  16.577  10.934 -0.0397  0.1420 -0.0323
   88loPI   PO4 1396   8.806  16.879  10.930  0.4777 -0.0244 -0.0577
   88loPI   GL1 1397   8.810  16.873  10.495 -0.0181 -0.1192  0.2933
   88loPI   GL2 1398   8.718  16.607  10.462  0.2689  0.0116  0.0540
   88loPI   C1A 1399   8.495  16.896  10.062 -0.1440 -0.2663 -0.1686
   88loPI   C2A 1400   8.313  16.837   9.766  0.0317  0.1177 -0.0810
   88loPI   C3A 1401   8.107  16.508   9.450  0.0100 -0.0234 -0.1730
   88loPI   C4A 1402   7.815  16.489   9.114 -0.0932 -0.2424  0.0995
   88loPI   C5A 1403   7.459  16.582   8.725  0.1696 -0.0556 -0.0699
   88loPI   C6A 1404   7.551  16.885   8.387 -0.4203 -0.0441 -0.1316
   88loPI   C1B 1405   8.809  16.462  10.071 -0.2540  0.0473 -0.2847
   88loPI   C2B 1406   9.072  16.318   9.650 -0.0816  0.1087  0.0740
   88loPI   C3B 1407   9.058  16.004   9.255 -0.0154 -0.0300 -0.0755
   88loPI   C4B 1408   9.125  15.712   8.919  0.0166  0.0261  0.4536
   89loPI    C1 1409   6.120   2.455  11.311 -0.0668 -0.0898  0.0851
   89loPI    C2 1410   6.242   2.284  11.651  0.1751 -0.0447  0.0231
   89loPI    C3 1411   5.910   2.154  11.470  0.1399 -0.1838  0.1843
   89loPI   PO4 1412   6.274   2.423  11.152 -0.1261  0.0097  0.0660
   89loPI   GL1 1413   6.639   2.374  10.877  0.1010 -0.0541 -0.4307
   89loPI   GL2 1414   6.510   2.170  10.741  0.0086 -0.0642 -0.3980
   89loPI   C1A 1415   6.740   2.695  10.483  0.2600  0.0210 -0.2850
   89loPI   C2A 1416   6.891   2.877  10.076 -0.1602 -0.2902 -0.0017
   89loPI   C3A 1417   6.858   2.957   9.636  0.3172  0.1209 -0.0512
   89loPI   C4A 1418   6.820   2.959   9.168  0.2773 -0.5802 -0.2595
   89loPI   C5A 1419   6.614   2.846   8.779  0.1310 -0.0717 -0.1446
   89loPI   C6A 1420   6.262   2.866   8.530  0.0873  0.2645 -0.1278
   89loPI   C1B 1421   6.479   2.277  10.325  0.0023  0.0214 -0.0722
   89loPI   C2B 1422   6.659   2.342   9.988  0.0144  0.3310  0.4251
   89loPI   C3B 1423   6.711   2.483   9.679  0.3583  0.4221 -0.0849
   89loPI   C4B 1424   6.579   2.549   9.227  0.0734  0.1829 -0.4592
   90loPI    C1 1425   8.482  10.084  11.471 -0.1024 -0.2333 -0.1585
   90loPI    C2 1426   8.528   9.834  11.780 -0.1222 -0.1697 -0.1039
   90loPI    C3 1427   8.172  10.005  11.711 -0.0576  0.0009 -0.0203
   90loPI   PO4 1428   8.725  10.239  11.335 -0.1288  0.0137  0.1409
   90loPI   GL1 1429   8.774  10.114  10.892  0.3120  0.1852  0.0591
   90loPI   GL2 1430   9.081  10.143  10.951  0.1619  0.1703  0.0111
   90loPI   C1A 1431   8.859   9.894  10.566 -0.0056  0.3175  0.2283
   90loPI   C2A 1432   9.011   9.954  10.180 -0.2630 -0.3012  0.0178
   90loPI   C3A 1433   8.866  10.012   9.719  0.3033  0.1483 -0.1626
   90loPI   C4A 1434   8.717  10.188   9.390 -0.0397 -0.3721 -0.2264
   90loPI   C5A 1435   8.500  10.211   8.959  0.1430 -0.1027  0.0471
   90loPI   C6A 1436   8.181  10.231   8.733  0.4203  0.4773 -0.1695
   90loPI   C1B 1437   9.304  10.372  10.639 -0.4083 -0.0248  0.0693
   90loPI   C2B 1438   9.252  10.376  10.191 -0.1646  0.2083  0.0222
   90loPI   C3B 1439   9.220  10.388   9.775 -0.0978 -0.0585  0.2585
   90loPI   C4B 1440   9.113  10.522   9.369 -0.2206 -0.0022  0.0079
   91loPI    C1 1441   4.739  12.818  11.702  0.0447  0.2390 -0.1089
   91loPI    C2 1442   4.649  13.087  11.985 -0.0592 -0.1436  0.2316
   91loPI    C3 1443   5.014  13.082  11.822 -0.0144  0.1137  0.3200
   91loPI   PO4 1444   4.477  12.785  11.556  0.0714  0.0893  0.1076
   91loPI   GL1 1445   4.359  12.688  11.084 -0.0942 -0.3418 -0.0979
   91loPI   GL2 1446   4.483  13.054  10.859 -0.0283 -0.1614 -0.3003
   91loPI   C1A 1447   4.564  12.639  10.643  0.1686 -0.0514 -0.0253
   91loPI   C2A 1448   4.538  12.491  10.196 -0.1622 -0.0862 -0.0012
   91loPI   C3A 1449   4.425  12.506   9.801 -0.1158 -0.0045  0.0490
   91loPI   C4A 1450   4.270  12.371   9.450  0.2048 -0.0320  0.0884
   91loPI   C5A 1451   4.219  12.319   9.057  0.1191 -0.3168 -0.2227
   91loPI   C6A 1452   4.310  12.304   8.595  0.0735  0.0889 -0.0568
   91loPI   C1B 1453   4.367  13.078  10.429 -0.0165 -0.1111 -0.4817
   91loPI   C2B 1454   4.341  12.947   9.971 -0.0423 -0.2172  0.3393
   91loPI   C3B 1455   4.294  13.060   9.565  0.3592  0.2353 -0.0790
   91loPI   C4B 1456   4.420  13.165   9.258 -0.1297 -0.1176 -0.1337
   92loPI    C1 1457  10.457   5.800  11.693 -0.1184  0.0733 -0.1589
   92loPI    C2 1458  10.510   5.475  11.920  0.0448 -0.0904 -0.4256
   92loPI    C3 1459  10.208   5.726  11.997  0.0812 -0.1566 -0.0477
   92loPI   PO4 1460  10.474   5.769  11.429 -0.0641  0.0949 -0.0326
   92loPI   GL1 1461  10.492   5.636  10.981  0.2623  0.0798 -0.0549
   92loPI   GL2 1462  10.736   5.457  10.803  0.0749  0.1554 -0.1345
   92loPI   C1A 1463  10.201   5.910  10.772  0.3266 -0.3606 -0.0818
   92loPI   C2A 1464  10.181   5.953  10.259  0.1578 -0.0071  0.1532
   92loPI   C3A 1465  10.155   5.918   9.846 -0.0145  0.1668 -0.0384
   92loPI   C4A 1466   9.990   5.984   9.466 -0.2688  0.1165  0.1714
   92loPI   C5A 1467   9.989   6.083   9.000 -0.1328 -0.0275 -0.2139
   92loPI   C6A 1468   9.708   6.181   8.692 -0.1590  0.0349 -0.1702
   92loPI   C1B 1469  10.563   5.368  10.476  0.1884  0.2096  0.0033
   92loPI   C2B 1470  10.474   5.452  10.046  0.1194 -0.0097 -0.1191
   92loPI   C3B 1471  10.342   5.558   9.555 -0.0404  0.1703 -0.1633
   92loPI   C4B 1472  10.242   5.654   9.089  0.2032 -0.1170 -0.0414
   93loPI    C1 1473   4.733   0.744  10.903  0.0582 -0.0549 -0.1866
   93loPI    C2 1474   4.455   0.578  11.138 -0.0058 -0.1187 -0.3063
   93loPI    C3 1475   4.825   0.639  11.278 -0.0616 -0.0942 -0.1678
   93loPI   PO4 1476   4.548   0.903  10.738  0.1977  0.0106 -0.1943
   93loPI   GL1 1477   4.484   1.178  10.416 -0.1707 -0.0556 -0.1895
   93loPI   GL2 1478   4.770   1.246  10.393 -0.1479 -0.4374  0.1458
   93loPI   C1A 1479   4.543   0.986   9.972  0.1368  0.1094  0.2909
   93loPI   C2A 1480   4.538   0.890   9.570  0.0866 -0.2437 -0.1598
   93loPI   C3A 1481   4.413   1.084   9.250 -0.0121  0.0164  0.1217
   93loPI   C4A 1482   4.163   1.198   8.853  0.1718  0.0446 -0.1417
   93loPI   C5A 1483   3.927   0.846   8.548 -0.1349 -0.0518 -0.2514
   93loPI   C6A 1484   3.553   0.544   8.639  0.0313 -0.1381  0.0134
   93loPI   C1B 1485   4.761   1.405   9.910  0.0607  0.0378 -0.2225
   93loPI   C2B 1486   4.677   1.364   9.514 -0.4915 -0.1948 -0.4037
   93loPI   C3B 1487   4.801   1.348   9.058  0.1135  0.0498  0.4760
   93loPI   C4B 1488   4.670   1.339   8.670  0.1798  0.0468  0.0568
   94loPI    C1 1489   2.317  14.859  10.657 -0.2418 -0.1386 -0.0346
   94loPI    C2 1490   2.243  15.065  10.322  0.0829  0.1764  0.0813
   94loPI    C3 1491   2.003  15.107  10.639 -0.1751 -0.0568 -0.0793
   94loPI   PO4 1492   2.329  14.620  10.615  0.1160 -0.1576 -0.3336
   94loPI   GL1 1493   2.493  14.373  10.358  0.4228 -0.2134 -0.0088
   94loPI   GL2 1494   2.677  14.609  10.288  0.0543 -0.1775  0.0575
   94loPI   C1A 1495   2.496  14.398   9.888 -0.3916 -0.1506  0.1043
   94loPI   C2A 1496   2.441  14.581   9.442  0.1342  0.3162  0.3395
   94loPI   C3A 1497   2.354  14.803   9.037  0.1387 -0.0481 -0.2119
   94loPI   C4A 1498   2.074  14.947   8.661 -0.2062  0.0018  0.0401
   94loPI   C5A 1499   2.341  15.085   8.341 -0.4563 -0.0555 -0.1390
   94loPI   C6A 1500   2.752  15.334   8.190  0.2088  0.0841  0.1109
   94loPI   C1B 1501   2.672  14.839   9.972 -0.1609 -0.3482  0.1366
   94loPI   C2B 1502   2.974  14.751   9.664 -0.2918  0.1777 -0.0974
   94loPI   C3B 1503   3.299  14.935   9.337 -0.0690 -0.2821  0.2631
   94loPI   C4B 1504   3.441  15.035   8.908 -0.0109  0.2967 -0.2413
   95loPI    C1 1505   9.752   1.993  11.091  0.1895  0.0441  0.2689
   95loPI    C2 1506   9.793   1.726  11.386 -0.0767 -0.0352  0.2372
   95loPI    C3 1507   9.740   2.113  11.472  0.0974 -0.0216  0.2871
   95loPI   PO4 1508   9.594   1.819  10.872  0.2743 -0.0578 -0.2631
   95loPI   GL1 1509   9.416   1.941  10.456 -0.1764 -0.0511  0.2359
   95loPI   GL2 1510   9.663   1.689  10.319  0.4041  0.1234 -0.1164
   95loPI   C1A 1511   9.240   1.857  10.001 -0.0492  0.1755 -0.1149
   95loPI   C2A 1512   9.284   1.827   9.520  0.0163  0.1387  0.1658
   95loPI   C3A 1513   9.208   1.946   9.054 -0.0074 -0.2705  0.1040
   95loPI   C4A 1514   9.158   2.042   8.584 -0.4107  0.0606  0.1955
   95loPI   C5A 1515   9.470   2.102   8.298 -0.0402  0.0084  0.0338
   95loPI   C6A 1516   9.842   1.884   8.249 -0.1674 -0.1697 -0.0520
   95loPI   C1B 1517   9.785   1.937  10.026 -0.0482 -0.0884 -0.0976
   95loPI   C2B 1518   9.906   2.261   9.709  0.0960 -0.2725  0.0120
   95loPI   C3B 1519  10.229   2.197   9.466 -0.0133  0.1594  0.0397
   95loPI   C4B 1520  10.230   2.064   9.015  0.0592 -0.0454  0.1365
   96loPI    C1 1521   9.043   4.992  11.511  0.0312  0.0614  0.1111
   96loPI    C2 1522   9.075   4.807  11.864  0.0588  0.0555  0.1056
   96loPI    C3 1523   8.885   5.158  11.839 -0.0966 -0.0281  0.0960
   96loPI   PO4 1524   8.998   4.898  11.248  0.0428 -0.2728  0.1674
   96loPI   GL1 1525   8.971   5.120  10.844 -0.1840  0.1329 -0.0316
   96loPI   GL2 1526   9.222   4.977  10.635 -0.1238 -0.4581  0.3347
   96loPI   C1A 1527   8.859   5.346  10.497 -0.0994 -0.1637  0.2837
   96loPI   C2A 1528   8.854   5.397  10.107 -0.0443  0.3138 -0.0250
   96loPI   C3A 1529   8.864   5.371   9.632  0.0533 -0.1810 -0.4988
   96loPI   C4A 1530   8.774   5.463   9.272 -0.1260 -0.2298 -0.0645
   96loPI   C5A 1531   8.609   5.480   8.802  0.0921 -0.2500  0.0754
   96loPI   C6A 1532   8.156   5.543   8.747  0.1031  0.0109 -0.3212
   96loPI   C1B 1533   9.158   4.933  10.195 -0.3195  0.1871 -0.1467
   96loPI   C2B 1534   9.135   4.974   9.783  0.0940 -0.0087 -0.0320
   96loPI   C3B 1535   9.024   4.973   9.326 -0.0127  0.0968 -0.2357
   96loPI   C4B 1536   9.003   5.069   8.816  0.1952  0.0130  0.1347
   97loPI    C1 1537   2.802   4.940  11.391  0.0359  0.0097  0.2452
   97loPI    C2 1538   3.045   4.650  11.522 -0.1287 -0.3075 -0.1304
   97loPI    C3 1539   2.648   4.607  11.552 -0.1543 -0.1170 -0.1854
   97loPI   PO4 1540   2.875   4.990  11.148 -0.1660  0.1659  0.0059
   97loPI   GL1 1541   2.992   5.004  10.658 -0.3031  0.1983 -0.2447
   97loPI   GL2 1542   2.774   4.809  10.557 -0.2381 -0.0518 -0.0270
   97loPI   C1A 1543   2.927   5.326  10.241 -0.0661  0.2333  0.1542
   97loPI   C2A 1544   2.860   5.271   9.734 -0.0851 -0.1869  0.0262
   97loPI   C3A 1545   2.902   5.265   9.331  0.0359 -0.4208  0.2693
   97loPI   C4A 1546   2.797   5.199   8.955 -0.0639  0.0915 -0.2761
   97loPI   C5A 1547   2.635   5.168   8.555 -0.0325 -0.3342 -0.4035
   97loPI   C6A 1548   2.266   5.095   8.323 -0.0570  0.2624 -0.2168
   97loPI   C1B 1549   2.729   4.744  10.184  0.0131 -0.1638 -0.0647
   97loPI   C2B 1550   2.642   4.722   9.791  0.0351  0.2760  0.0481
   97loPI   C3B 1551   2.652   4.839   9.404 -0.0486 -0.0746 -0.0330
   97loPI   C4B 1552   2.436   4.841   8.937 -0.2410 -0.5403 -0.1676
   98loPI    C1 1553   3.169   4.302  11.173 -0.0415  0.2313  0.2014
   98loPI    C2 1554   3.079   4.463  10.818 -0.0377 -0.3678 -0.0855
   98loPI    C3 1555   2.806   4.459  11.111 -0.0542  0.0951 -0.0862
   98loPI   PO4 1556   3.396   4.343  11.195  0.3627 -0.1238 -0.2199
   98loPI   GL1 1557   3.605   4.445  10.835  0.5091 -0.1280  0.0122
   98loPI   GL2 1558   3.776   4.504  10.675 -0.0122 -0.1492 -0.0314
   98loPI   C1A 1559   3.509   4.211  10.426  0.1709  0.0820  0.1430
   98loPI   C2A 1560   3.502   4.375  10.000 -0.2720 -0.0527 -0.2256
   98loPI   C3A 1561   3.475   4.421   9.583  0.3908  0.0573 -0.1036
   98loPI   C4A 1562   3.410   4.305   9.124  0.0879  0.1757 -0.1509
   98loPI   C5A 1563   3.108   4.152   8.963 -0.1288 -0.1259  0.0952
   98loPI   C6A 1564   2.805   3.895   8.732 -0.3662 -0.0179 -0.0923
   98loPI   C1B 1565   3.963   4.455  10.206 -0.2496 -0.2738 -0.0906
   98loPI   C2B 1566   4.018   4.373   9.714  0.4573  0.0446  0.1646
   98loPI   C3B 1567   3.991   4.367   9.208 -0.1923  0.2282  0.2339
   98loPI   C4B 1568   3.965   4.126   8.917  0.0137  0.0323  0.0190
   99loPI    C1 1569   0.720   1.214  10.485 -0.0089  0.0874  0.0743
   99loPI    C2 1570   0.792   1.439  10.808 -0.0801 -0.0803  0.2089
   99loPI    C3 1571   0.421   1.313  10.731 -0.0835  0.0531 -0.0023
   99loPI   PO4 1572   0.884   1.312  10.299 -0.1362  0.2886  0.0615
   99loPI   GL1 1573   1.144   1.222   9.969 -0.1375 -0.2170  0.1928
   99loPI   GL2 1574   1.480   1.179   9.896  0.1470 -0.2015 -0.1574
   99loPI   C1A 1575   1.052   0.793   9.778  0.0421 -0.0649  0.0390
   99loPI   C2A 1576   0.829   0.470   9.451 -0.0154  0.1556  0.0221
   99loPI   C3A 1577   0.867   0.377   9.015 -0.1138  0.5277  0.0097
   99loPI   C4A 1578   1.016   0.348   8.647  0.0810  0.1462 -0.0142
   99loPI   C5A 1579   1.420   0.235   8.418  0.1553  0.0002  0.0684
   99loPI   C6A 1580   1.422   0.119   7.943  0.2449 -0.0428 -0.2169
   99loPI   C1B 1581   1.532   0.874   9.554  0.0911 -0.2589  0.1024
   99loPI   C2B 1582   1.767   0.675   9.246  0.1474  0.2354 -0.1454
   99loPI   C3B 1583   1.992   0.688   8.869  0.1211  0.3064  0.1561
   99loPI   C4B 1584   2.082   0.724   8.471 -0.0813  0.3155 -0.1127
  100loPI    C1 1585   3.019  11.956  11.207  0.1145  0.0964 -0.1921
  100loPI    C2 1586   2.747  12.210  11.356  0.0237 -0.0782 -0.0566
  100loPI    C3 1587   3.117  12.200  11.509  0.0141 -0.0589 -0.0319
  100loPI   PO4 1588   3.003  11.928  10.999 -0.0138  0.0110  0.1240
  100loPI   GL1 1589   3.122  12.135  10.650 -0.1005  0.3385  0.0671
  100loPI   GL2 1590   3.140  12.483  10.510  0.2541 -0.2480  0.0811
  100loPI   C1A 1591   3.244  11.934  10.257 -0.0280 -0.0443 -0.0148
  100loPI   C2A 1592   3.239  11.497  10.048  0.0023 -0.3717  0.1455
  100loPI   C3A 1593   3.133  11.312   9.606 -0.4246  0.1763  0.0400
  100loPI   C4A 1594   3.334  11.176   9.124 -0.2260 -0.1140  0.0298
  100loPI   C5A 1595   3.128  11.233   8.723  0.3076 -0.2343 -0.3267
  100loPI   C6A 1596   2.803  11.350   8.671  0.0799 -0.0142 -0.1322
  100loPI   C1B 1597   3.036  12.434   9.963 -0.2377 -0.1366  0.1738
  100loPI   C2B 1598   3.212  12.116   9.611  0.0317  0.1343  0.2188
  100loPI   C3B 1599   3.177  12.027   9.235  0.1518 -0.2440 -0.0438
  100loPI   C4B 1600   3.343  11.942   8.812  0.0196 -0.1431 -0.2493
  101loPI    C1 1601   3.307   8.636  11.370 -0.2227  0.0048 -0.1310
  101loPI    C2 1602   3.192   9.007  11.465 -0.1333  0.0004 -0.0036
  101loPI    C3 1603   3.373   8.778  11.738 -0.2047 -0.1437 -0.0764
  101loPI   PO4 1604   3.441   8.681  11.124  0.0030  0.1436 -0.2606
  101loPI   GL1 1605   3.361   8.782  10.687  0.1201 -0.0480  0.2739
  101loPI   GL2 1606   3.236   8.466  10.675 -0.0614 -0.2054 -0.0020
  101loPI   C1A 1607   3.402   9.014  10.331 -0.0878  0.0336 -0.0726
  101loPI   C2A 1608   3.405   8.921   9.898  0.1242  0.0165  0.3487
  101loPI   C3A 1609   3.523   8.949   9.504 -0.2380 -0.0123  0.2705
  101loPI   C4A 1610   3.519   9.164   9.070  0.1836 -0.1037  0.0157
  101loPI   C5A 1611   3.698   9.215   8.636  0.2846  0.5157 -0.2319
  101loPI   C6A 1612   3.981   9.389   8.460 -0.4007 -0.0795  0.0195
  101loPI   C1B 1613   3.320   8.538  10.207  0.1463 -0.1309 -0.0979
  101loPI   C2B 1614   3.227   8.488   9.814 -0.0155 -0.1994 -0.1484
  101loPI   C3B 1615   3.154   8.576   9.400  0.0357  0.1338  0.1590
  101loPI   C4B 1616   3.021   8.397   9.053  0.1880 -0.0610  0.0547
  102loPI    C1 1617   7.879   8.376  11.985 -0.1179 -0.0262 -0.1961
  102loPI    C2 1618   8.194   8.502  12.195 -0.2097 -0.0749 -0.0272
  102loPI    C3 1619   7.866   8.729  12.172 -0.1642 -0.0256 -0.2002
  102loPI   PO4 1620   7.969   8.325  11.738  0.0403 -0.0139 -0.2071
  102loPI   GL1 1621   7.804   8.121  11.350 -0.3405  0.0622 -0.2011
  102loPI   GL2 1622   7.537   8.302  11.115  0.4757  0.3479 -0.0262
  102loPI   C1A 1623   7.934   7.977  10.946  0.1222  0.3632 -0.0028
  102loPI   C2A 1624   7.804   7.962  10.566 -0.2594 -0.0121  0.0667
  102loPI   C3A 1625   7.538   7.919  10.186 -0.0863  0.1398 -0.3895
  102loPI   C4A 1626   7.478   7.963   9.801  0.0356  0.2107 -0.1223
  102loPI   C5A 1627   7.595   8.184   9.418 -0.0374 -0.0028 -0.0742
  102loPI   C6A 1628   7.558   8.028   9.011 -0.0228 -0.2106  0.0432
  102loPI   C1B 1629   7.441   8.246  10.721 -0.0504  0.0338 -0.0281
  102loPI   C2B 1630   7.279   8.379  10.337 -0.0682 -0.2098  0.2478
  102loPI   C3B 1631   7.192   8.377   9.935  0.2689 -0.2322 -0.0250
  102loPI   C4B 1632   7.057   8.661   9.629 -0.0649  0.3488  0.1884
  103loPI    C1 1633   0.917  10.263  10.855  0.0230  0.0537  0.1851
  103loPI    C2 1634   0.842  10.638  10.972  0.0454  0.0574  0.1875
  103loPI    C3 1635   1.219  10.505  10.955  0.0486  0.0847  0.0343
  103loPI   PO4 1636   0.815  10.265  10.646 -0.2655  0.3455 -0.0312
  103loPI   GL1 1637   0.602  10.599  10.422 -0.2362 -0.2258  0.3215
  103loPI   GL2 1638   0.399  10.821  10.213  0.0099 -0.1025 -0.0978
  103loPI   C1A 1639   0.871  10.540  10.064  0.0924 -0.1628 -0.1850
  103loPI   C2A 1640   1.101  10.778   9.771  0.0769  0.4831  0.1453
  103loPI   C3A 1641   1.243  10.825   9.365 -0.0273 -0.0195 -0.1233
  103loPI   C4A 1642   1.463  10.842   9.057  0.1580  0.1237 -0.0654
  103loPI   C5A 1643   1.593  10.894   8.691  0.1352 -0.0080 -0.1496
  103loPI   C6A 1644   1.957  11.153   8.509  0.0165  0.1236 -0.0427
  103loPI   C1B 1645   0.487  10.672   9.794 -0.1606 -0.3187 -0.0677
  103loPI   C2B 1646   0.817  10.465   9.551 -0.3810 -0.5624 -0.0366
  103loPI   C3B 1647   0.820  10.617   9.206 -0.0624  0.1067 -0.0439
  103loPI   C4B 1648   1.019  10.916   8.817  0.0550 -0.0651  0.0047
  104loPI    C1 1649   4.475   3.286  10.877  0.2071  0.0579 -0.1688
  104loPI    C2 1650   4.273   3.259  11.221  0.1628  0.0145 -0.1981
  104loPI    C3 1651   4.593   3.028  11.159  0.2596  0.1276 -0.1265
  104loPI   PO4 1652   4.634   3.578  10.819  0.1459 -0.0827 -0.1585
  104loPI   GL1 1653   4.894   3.831  10.631  0.1020  0.2534  0.2184
  104loPI   GL2 1654   5.075   3.733  10.532  0.0174 -0.1208 -0.2077
  104loPI   C1A 1655   4.843   4.039  10.164 -0.0058  0.1313  0.0078
  104loPI   C2A 1656   4.799   4.031   9.670  0.2055  0.0101  0.0907
  104loPI   C3A 1657   4.777   4.080   9.152  0.1474  0.2336 -0.1188
  104loPI   C4A 1658   4.925   4.069   8.672 -0.0774 -0.0889  0.0924
  104loPI   C5A 1659   5.389   4.079   8.486 -0.2288 -0.0269  0.1499
  104loPI   C6A 1660   5.703   3.736   8.525  0.2595  0.2106 -0.1871
  104loPI   C1B 1661   5.123   3.590  10.133  0.1954  0.2336  0.3321
  104loPI   C2B 1662   5.181   3.640   9.649 -0.0369  0.0883  0.4802
  104loPI   C3B 1663   5.148   3.651   9.221 -0.0056 -0.1040  0.0952
  104loPI   C4B 1664   5.193   3.627   8.825  0.3536 -0.3246  0.0222
  105loPI    C1 1665   2.568  16.075  10.812  0.1547 -0.0419 -0.2510
  105loPI    C2 1666   2.278  15.826  10.693  0.1395 -0.0082 -0.2845
  105loPI    C3 1667   2.185  16.187  10.839  0.1375 -0.1874  0.1707
  105loPI   PO4 1668   2.772  15.966  10.626  0.0657  0.4059 -0.0955
  105loPI   GL1 1669   2.664  15.800  10.265  0.2236 -0.0360  0.1436
  105loPI   GL2 1670   2.715  15.536  10.027  0.2865 -0.2337 -0.1026
  105loPI   C1A 1671   2.376  15.953   9.926 -0.0229  0.1029 -0.3049
  105loPI   C2A 1672   2.277  15.771   9.567  0.1712  0.1688 -0.2869
  105loPI   C3A 1673   2.109  15.664   9.172 -0.1242 -0.1369 -0.0270
  105loPI   C4A 1674   2.235  15.391   8.861 -0.1239 -0.0089  0.1070
  105loPI   C5A 1675   2.676  15.264   8.720  0.0244 -0.0143  0.1050
  105loPI   C6A 1676   3.181  15.214   8.507 -0.2870  0.0458 -0.2536
  105loPI   C1B 1677   2.761  15.717   9.626 -0.2622  0.1341 -0.0308
  105loPI   C2B 1678   2.621  15.657   9.163  0.1689 -0.0924 -0.0720
  105loPI   C3B 1679   2.715  15.873   8.707  0.0743 -0.0985  0.2425
  105loPI   C4B 1680   2.419  16.163   8.395  0.0640  0.1393 -0.1296
  106loPI    C1 1681   4.699  11.497  11.366 -0.2869  0.1262  0.0590
  106loPI    C2 1682   4.968  11.491  11.661 -0.1228 -0.1465 -0.0915
  106loPI    C3 1683   4.609  11.323  11.715 -0.1728 -0.0058  0.0233
  106loPI   PO4 1684   4.780  11.686  11.214 -0.1493  0.2509  0.0248
  106loPI   GL1 1685   5.194  11.715  10.885 -0.2966  0.0204  0.1731
  106loPI   GL2 1686   4.827  11.857  10.736 -0.1404  0.0761 -0.3070
  106loPI   C1A 1687   5.518  11.593  10.584 -0.2058 -0.0333  0.1391
  106loPI   C2A 1688   5.468  11.623  10.128  0.1737 -0.0706 -0.2658
  106loPI   C3A 1689   5.312  11.747   9.718 -0.2382  0.0077 -0.1300
  106loPI   C4A 1690   5.300  11.815   9.313 -0.0490  0.0147  0.1966
  106loPI   C5A 1691   5.058  11.824   8.916  0.1250  0.1704 -0.0531
  106loPI   C6A 1692   4.923  11.805   8.539  0.0704 -0.0405 -0.0509
  106loPI   C1B 1693   5.016  11.790  10.347  0.1676 -0.0671 -0.1498
  106loPI   C2B 1694   4.937  11.600  10.080 -0.0753  0.0584  0.4087
  106loPI   C3B 1695   4.922  11.316   9.681  0.1479 -0.0922 -0.1318
  106loPI   C4B 1696   5.042  10.917   9.709  0.0823 -0.4401  0.0077
  107loPI    C1 1697  11.504  16.259  10.899  0.2234 -0.1602 -0.2338
  107loPI    C2 1698  11.647  16.624  10.977 -0.1006 -0.0371 -0.1988
  107loPI    C3 1699  11.380  16.573  10.684 -0.1813 -0.2191 -0.0949
  107loPI   PO4 1700  11.625  16.084  10.813  0.0159  0.0920 -0.1883
  107loPI   GL1 1701  11.812  15.798  10.456 -0.0530  0.0473 -0.0528
  107loPI   GL2 1702  12.123  15.911  10.537  0.1866  0.0703 -0.2961
  107loPI   C1A 1703  11.682  15.906  10.051  0.1401  0.0992  0.0911
  107loPI   C2A 1704  11.621  15.868   9.683 -0.1065  0.0376  0.3762
  107loPI   C3A 1705  11.549  15.894   9.251 -0.0423 -0.0473  0.1906
  107loPI   C4A 1706  11.515  16.026   8.758  0.0250 -0.1001  0.0510
  107loPI   C5A 1707  11.398  16.285   8.377 -0.0907 -0.0058 -0.2256
  107loPI   C6A 1708  11.277  16.125   7.930 -0.0708 -0.0412 -0.1285
  107loPI   C1B 1709  12.177  16.131  10.130 -0.0531  0.0015 -0.1507
  107loPI   C2B 1710  11.922  16.289   9.857  0.1761  0.3952 -0.3625
  107loPI   C3B 1711  11.864  16.247   9.478  0.0596 -0.1421 -0.2774
  107loPI   C4B 1712  11.893  16.206   9.090  0.2196  0.0899 -0.1666
  108loPI    C1 1713   2.696  15.378  10.655  0.0439 -0.1398 -0.2061
  108loPI    C2 1714   2.341  15.357  10.837  0.0351  0.0574 -0.1987
  108loPI    C3 1715   2.646  15.134  10.968 -0.0682 -0.0661 -0.1664
  108loPI   PO4 1716   2.742  15.226  10.484  0.0714 -0.3986  0.1777
  108loPI   GL1 1717   3.069  15.110  10.262  0.0438 -0.1666  0.0857
  108loPI   GL2 1718   3.182  14.883  10.118  0.0125 -0.0392  0.1325
  108loPI   C1A 1719   2.931  15.252   9.764 -0.1024  0.2856 -0.1180
  108loPI   C2A 1720   2.978  15.319   9.332 -0.1380  0.2506 -0.1432
  108loPI   C3A 1721   3.025  15.501   8.958 -0.2738  0.3617 -0.2078
  108loPI   C4A 1722   3.394  15.780   8.743  0.2232 -0.0336 -0.2813
  108loPI   C5A 1723   3.458  16.209   8.904  0.2287 -0.0363  0.3873
  108loPI   C6A 1724   3.760  16.439   9.075 -0.2233  0.1343  0.2647
  108loPI   C1B 1725   3.403  15.054   9.836 -0.0443  0.0799  0.2553
  108loPI   C2B 1726   3.694  15.181   9.510  0.0176  0.0741 -0.1642
  108loPI   C3B 1727   3.942  15.025   9.187 -0.1108  0.0192  0.0344
  108loPI   C4B 1728   3.884  14.863   8.884  0.3082  0.1020 -0.1271
  109loPI    C1 1729  11.604   9.689  11.019  0.3849 -0.2341  0.1966
  109loPI    C2 1730  11.642   9.934  11.333  0.0561  0.0931 -0.0110
  109loPI    C3 1731  11.430   9.596  11.367  0.3613 -0.0794  0.2268
  109loPI   PO4 1732  11.519   9.883  10.807 -0.1253 -0.2275 -0.1975
  109loPI   GL1 1733  11.597   9.706  10.432  0.1062  0.0706 -0.2259
  109loPI   GL2 1734  11.244   9.844  10.449 -0.2023  0.0741  0.2030
  109loPI   C1A 1735  11.684   9.478  10.073 -0.0636 -0.0797  0.0725
  109loPI   C2A 1736  11.546   9.274   9.689  0.1797  0.1337 -0.2144
  109loPI   C3A 1737  11.184   9.310   9.349 -0.0379 -0.2094  0.2859
  109loPI   C4A 1738  10.746   9.354   9.206 -0.1421  0.3023 -0.2681
  109loPI   C5A 1739  10.360   9.246   9.089 -0.1078  0.0838 -0.0037
  109loPI   C6A 1740  10.072   9.430   8.794 -0.0980  0.1716 -0.0289
  109loPI   C1B 1741  10.900   9.926  10.362 -0.3302 -0.1570  0.1865
  109loPI   C2B 1742  10.670   9.984  10.003  0.0492  0.1564 -0.1143
  109loPI   C3B 1743  10.493  10.239   9.702 -0.0004  0.2051  0.0506
  109loPI   C4B 1744  10.128  10.147   9.334 -0.2326  0.1816 -0.0435
  110loPI    C1 1745   2.780   7.793  11.109  0.1830 -0.2100  0.0050
  110loPI    C2 1746   2.442   7.602  11.206 -0.2047  0.3411 -0.2084
  110loPI    C3 1747   2.654   7.789  11.489 -0.0096 -0.0952 -0.0563
  110loPI   PO4 1748   2.691   7.944  10.871 -0.0624 -0.0494 -0.2466
  110loPI   GL1 1749   2.483   7.757  10.627  0.0568 -0.1433  0.3113
  110loPI   GL2 1750   2.413   7.430  10.563  0.1443 -0.2538  0.2094
  110loPI   C1A 1751   2.474   7.996  10.276  0.2759  0.1214  0.1123
  110loPI   C2A 1752   2.648   7.856   9.935 -0.1218  0.0430  0.0397
  110loPI   C3A 1753   2.750   7.824   9.493  0.1488  0.0297  0.0979
  110loPI   C4A 1754   2.654   7.754   8.981  0.0333 -0.1175 -0.0379
  110loPI   C5A 1755   2.337   7.911   8.686 -0.0697 -0.0138 -0.0406
  110loPI   C6A 1756   2.074   8.226   8.598  0.4003  0.0686  0.0504
  110loPI   C1B 1757   2.414   7.398  10.122  0.2708 -0.1659 -0.1986
  110loPI   C2B 1758   2.501   7.389   9.697  0.1002 -0.0970  0.1935
  110loPI   C3B 1759   2.488   7.434   9.275 -0.0697 -0.0137 -0.1997
  110loPI   C4B 1760   2.598   7.221   8.882  0.2135 -0.4136 -0.0127
  111loPI    C1 1761   6.097  11.810  11.629  0.0712 -0.0211 -0.0520
  111loPI    C2 1762   6.427  12.037  11.627  0.1988 -0.2015  0.0953
  111loPI    C3 1763   6.425  11.689  11.824 -0.1945 -0.0346  0.4018
  111loPI   PO4 1764   5.943  11.853  11.378 -0.0190 -0.0885  0.4694
  111loPI   GL1 1765   6.062  11.888  10.992  0.3500 -0.0310  0.2978
  111loPI   GL2 1766   6.305  11.976  10.811  0.1423  0.1384  0.3253
  111loPI   C1A 1767   5.982  11.830  10.475  0.0346 -0.1794 -0.1775
  111loPI   C2A 1768   5.814  11.945  10.045 -0.1003 -0.1590  0.2131
  111loPI   C3A 1769   5.788  11.991   9.605  0.2991 -0.0934 -0.0034
  111loPI   C4A 1770   5.707  11.993   9.161  0.1172 -0.0245  0.0437
  111loPI   C5A 1771   5.879  12.162   8.815  0.0575  0.0209  0.0125
  111loPI   C6A 1772   6.278  12.110   8.799 -0.0576  0.2443 -0.1665
  111loPI   C1B 1773   6.310  12.143  10.315  0.1265  0.2494  0.0223
  111loPI   C2B 1774   6.209  12.271   9.950  0.3413  0.1186  0.3784
  111loPI   C3B 1775   6.301  12.279   9.498  0.0907  0.1660 -0.1033
  111loPI   C4B 1776   6.125  12.419   9.163 -0.3037  0.1075 -0.0655
  112loPI    C1 1777   2.561   9.358  11.323 -0.0740 -0.0741  0.0644
  112loPI    C2 1778   2.582   9.577  10.989  0.0941  0.2581  0.2869
  112loPI    C3 1779   2.266   9.612  11.231 -0.1969 -0.2393 -0.0027
  112loPI   PO4 1780   2.747   9.123  11.201 -0.0405 -0.0959  0.2862
  112loPI   GL1 1781   2.827   9.120  10.794 -0.2148  0.2871  0.1009
  112loPI   GL2 1782   3.014   9.241  10.600  0.1255  0.0527 -0.2624
  112loPI   C1A 1783   2.927   8.837  10.381  0.0055 -0.0341 -0.0824
  112loPI   C2A 1784   2.810   8.779   9.992 -0.1721 -0.0733  0.0907
  112loPI   C3A 1785   2.762   8.856   9.548 -0.0102 -0.1943 -0.1357
  112loPI   C4A 1786   2.657   8.637   9.285  0.2572 -0.0487  0.0473
  112loPI   C5A 1787   2.637   8.227   9.271 -0.1714 -0.0140  0.1086
  112loPI   C6A 1788   2.289   7.969   9.320 -0.1516 -0.0251 -0.2247
  112loPI   C1B 1789   3.290   9.525  10.219 -0.0206 -0.1337  0.2145
  112loPI   C2B 1790   3.647   9.478  10.092 -0.0241  0.0968  0.4115
  112loPI   C3B 1791   3.772   9.315   9.824  0.1346  0.1949 -0.0574
  112loPI   C4B 1792   3.849   9.295   9.480 -0.0765  0.2238  0.1901
  113loPI    C1 1793   7.995  17.386  11.138 -0.1252  0.1327  0.0710
  113loPI    C2 1794   7.646  17.579  11.162 -0.1008  0.1546  0.2660
  113loPI    C3 1795   7.959  17.706  11.376  0.0221  0.1240  0.1059
  113loPI   PO4 1796   8.010  17.249  10.945 -0.0784  0.0478 -0.0550
  113loPI   GL1 1797   8.033  17.340  10.509 -0.2921  0.1869 -0.1641
  113loPI   GL2 1798   8.139  17.107  10.348  0.4662  0.1622  0.0571
  113loPI   C1A 1799   8.124  17.583  10.053 -0.2983  0.1508 -0.0578
  113loPI   C2A 1800   8.179  17.443   9.633  0.3174 -0.2398  0.1097
  113loPI   C3A 1801   8.093  17.480   9.233 -0.0964  0.0934  0.2597
  113loPI   C4A 1802   7.849  17.445   8.987  0.1782  0.0725 -0.1464
  113loPI   C5A 1803   7.518  17.407   8.785 -0.2513 -0.1416 -0.3813
  113loPI   C6A 1804   7.035  17.354   8.518  0.2403 -0.1666  0.1319
  113loPI   C1B 1805   7.947  17.112   9.945  0.0781  0.2085  0.5676
  113loPI   C2B 1806   7.922  17.010   9.549  0.0605  0.1915 -0.1587
  113loPI   C3B 1807   8.118  16.976   9.261 -0.3494  0.1466  0.1224
  113loPI   C4B 1808   8.350  16.661   8.963  0.0671 -0.1384 -0.0038
  114loPI    C1 1809   1.438  12.189  11.040  0.1915  0.2928 -0.1353
  114loPI    C2 1810   1.138  12.105  11.291  0.2670 -0.2336 -0.2103
  114loPI    C3 1811   1.254  12.484  11.238 -0.0425 -0.0730  0.2070
  114loPI   PO4 1812   1.339  12.100  10.823  0.2450 -0.0844  0.2507
  114loPI   GL1 1813   1.376  12.148  10.408  0.1919 -0.1916 -0.2716
  114loPI   GL2 1814   1.119  11.929  10.304  0.1000 -0.1254 -0.5063
  114loPI   C1A 1815   1.420  12.245  10.010  0.1124 -0.0889 -0.0283
  114loPI   C2A 1816   1.522  12.424   9.591 -0.1554 -0.2289 -0.1373
  114loPI   C3A 1817   1.472  12.458   9.183  0.0263  0.0930 -0.2819
  114loPI   C4A 1818   1.176  12.654   8.852 -0.3362  0.2014  0.1791
  114loPI   C5A 1819   0.985  12.932   8.616  0.1541  0.0756  0.0593
  114loPI   C6A 1820   0.804  13.103   8.190  0.1029  0.0766 -0.1232
  114loPI   C1B 1821   0.900  12.202  10.053 -0.2244  0.0115 -0.0546
  114loPI   C2B 1822   0.882  12.218   9.630  0.0394 -0.0863  0.0737
  114loPI   C3B 1823   1.194  12.114   9.376 -0.0954  0.1793 -0.2899
  114loPI   C4B 1824   1.394  11.831   9.127 -0.1599  0.2815  0.2208
  115loPI    C1 1825   6.829   6.525  11.912  0.0661 -0.0405  0.0907
  115loPI    C2 1826   6.589   6.788  11.730 -0.0632 -0.1885  0.0448
  115loPI    C3 1827   6.831   6.909  12.025 -0.1662 -0.0306  0.0661
  115loPI   PO4 1828   6.839   6.353  11.609  0.2039 -0.1712 -0.0211
  115loPI   GL1 1829   6.872   6.323  11.136 -0.1520 -0.1200  0.0485
  115loPI   GL2 1830   6.663   6.007  11.126 -0.0570  0.0974 -0.0564
  115loPI   C1A 1831   7.126   6.117  10.894 -0.1336  0.1682  0.1243
  115loPI   C2A 1832   7.331   6.083  10.537  0.0510  0.1592  0.1612
  115loPI   C3A 1833   7.294   6.133  10.076  0.2918 -0.1689 -0.0098
  115loPI   C4A 1834   7.165   6.095   9.609 -0.0766 -0.1900  0.2874
  115loPI   C5A 1835   7.196   6.126   9.104 -0.0245  0.1070  0.2787
  115loPI   C6A 1836   7.249   6.056   8.704 -0.0588 -0.1322 -0.1383
  115loPI   C1B 1837   6.703   6.101  10.615 -0.2649 -0.2279  0.0939
  115loPI   C2B 1838   6.699   6.046  10.181 -0.1890  0.0342 -0.0105
  115loPI   C3B 1839   6.719   6.150   9.740 -0.0217  0.0571  0.0610
  115loPI   C4B 1840   6.714   6.087   9.299 -0.2450  0.1670  0.1010
  116loPI    C1 1841   7.546   1.737  11.169  0.0428  0.1439  0.1168
  116loPI    C2 1842   7.466   1.407  11.380 -0.0197  0.0708 -0.0200
  116loPI    C3 1843   7.340   1.763  11.511  0.0588  0.0425  0.1346
  116loPI   PO4 1844   7.330   1.693  10.933  0.3150 -0.2829  0.3571
  116loPI   GL1 1845   7.390   1.855  10.448 -0.0422 -0.2552  0.1398
  116loPI   GL2 1846   7.535   2.127  10.345 -0.1137 -0.0001  0.2300
  116loPI   C1A 1847   7.289   1.581  10.093 -0.3016  0.0086  0.1606
  116loPI   C2A 1848   7.320   1.616   9.720  0.2611 -0.1535 -0.2550
  116loPI   C3A 1849   7.188   1.620   9.304  0.1466 -0.3693  0.1717
  116loPI   C4A 1850   7.212   1.518   8.869 -0.2403 -0.0424  0.2168
  116loPI   C5A 1851   7.137   1.470   8.439  0.0068 -0.0747 -0.0532
  116loPI   C6A 1852   7.278   1.105   8.204 -0.2327 -0.0532 -0.1912
  116loPI   C1B 1853   7.472   2.123   9.842  0.2295  0.1835 -0.2086
  116loPI   C2B 1854   7.463   2.200   9.436 -0.0704 -0.1576  0.2218
  116loPI   C3B 1855   7.400   2.050   9.019 -0.0001  0.0906 -0.3435
  116loPI   C4B 1856   7.486   2.026   8.583  0.1697 -0.0999  0.0421
  117loPI    C1 1857  11.524   5.175  11.183 -0.1801 -0.0708  0.0844
  117loPI    C2 1858  11.879   4.998  11.237 -0.0422  0.1481 -0.0871
  117loPI    C3 1859  11.544   4.815  11.356  0.1326 -0.0303  0.1385
  117loPI   PO4 1860  11.515   5.267  10.972  0.0157  0.0487  0.2516
  117loPI   GL1 1861  11.447   5.461  10.683 -0.1039  0.1135  0.0137
  117loPI   GL2 1862  11.314   5.693  10.687  0.2204 -0.0172  0.4294
  117loPI   C1A 1863  11.331   5.194  10.221  0.2052  0.0175 -0.2654
  117loPI   C2A 1864  11.208   5.132   9.842  0.0108  0.1835 -0.0451
  117loPI   C3A 1865  11.195   5.139   9.502 -0.2019  0.0026 -0.0697
  117loPI   C4A 1866  11.073   5.222   9.059  0.0999  0.0755 -0.0697
  117loPI   C5A 1867  10.930   5.236   8.623 -0.2102  0.1942 -0.3324
  117loPI   C6A 1868  11.126   5.210   8.230  0.2381 -0.3733  0.3272
  117loPI   C1B 1869  11.057   5.555  10.365  0.0042 -0.0337  0.1755
  117loPI   C2B 1870  10.898   5.612   9.937 -0.0119 -0.2477 -0.1229
  117loPI   C3B 1871  10.950   5.678   9.469  0.2284  0.0175  0.1615
  117loPI   C4B 1872  10.917   5.791   9.085 -0.1697  0.0519  0.3491
  118loPI    C1 1873   4.031  15.015  10.972  0.0243 -0.2135  0.1449
  118loPI    C2 1874   3.859  15.318  10.775 -0.0218 -0.2121  0.1870
  118loPI    C3 1875   3.673  15.152  11.088 -0.0323 -0.3354  0.1158
  118loPI   PO4 1876   4.011  14.752  10.851  0.0714 -0.1651  0.0221
  118loPI   GL1 1877   3.942  14.396  10.636  0.0276 -0.1409  0.1424
  118loPI   GL2 1878   4.295  14.528  10.491  0.0416  0.3262 -0.2541
  118loPI   C1A 1879   3.612  14.522  10.248 -0.0211 -0.0425  0.2065
  118loPI   C2A 1880   3.476  14.571   9.764  0.2400 -0.0265  0.0704
  118loPI   C3A 1881   3.672  14.660   9.467  0.0297  0.1275  0.0017
  118loPI   C4A 1882   3.649  14.472   9.146 -0.3220  0.1026  0.2917
  118loPI   C5A 1883   3.841  14.202   8.779 -0.1786  0.0634  0.1422
  118loPI   C6A 1884   4.118  14.140   8.321  0.1007  0.0519  0.1891
  118loPI   C1B 1885   4.169  14.457  10.066  0.2837 -0.0874  0.3251
  118loPI   C2B 1886   4.126  14.119   9.676  0.2952  0.3134 -0.1178
  118loPI   C3B 1887   4.086  14.159   9.238 -0.0428  0.0260  0.1741
  118loPI   C4B 1888   4.171  14.520   9.054 -0.0404  0.2929 -0.3438
  119loPI    C1 1889  10.383   3.333  11.104  0.1741 -0.2514  0.0026
  119loPI    C2 1890  10.455   3.634  11.357  0.2231 -0.2793  0.0220
  119loPI    C3 1891  10.391   3.265  11.498 -0.0150 -0.2449  0.0085
  119loPI   PO4 1892  10.509   3.457  10.821  0.1403 -0.2807 -0.1372
  119loPI   GL1 1893  10.257   3.574  10.489  0.1709  0.1068  0.0610
  119loPI   GL2 1894  10.447   3.876  10.478  0.1650 -0.3008 -0.3830
  119loPI   C1A 1895  10.011   3.683  10.198 -0.0008 -0.1370 -0.3432
  119loPI   C2A 1896  10.008   3.712   9.700  0.0309 -0.0159  0.1190
  119loPI   C3A 1897  10.003   3.797   9.208  0.2690 -0.1339  0.1912
  119loPI   C4A 1898   9.995   3.787   8.726 -0.0369 -0.1241 -0.1650
  119loPI   C5A 1899  10.037   3.541   8.474  0.2301 -0.0573  0.1026
  119loPI   C6A 1900  10.346   3.350   8.112  0.1649  0.0579  0.0357
  119loPI   C1B 1901  10.311   4.069  10.125 -0.1378  0.1437  0.2103
  119loPI   C2B 1902  10.251   4.250   9.689 -0.1020  0.2497  0.2595
  119loPI   C3B 1903  10.185   4.277   9.263 -0.0317  0.2877  0.0168
  119loPI   C4B 1904  10.184   4.350   8.850 -0.3061  0.0673  0.3144
  120loPI    C1 1905   6.747   8.403  11.613 -0.1004 -0.0095 -0.0571
  120loPI    C2 1906   6.384   8.481  11.760 -0.0542 -0.1554  0.1381
  120loPI    C3 1907   6.665   8.765  11.760 -0.1373 -0.0725  0.0781
  120loPI   PO4 1908   6.693   8.137  11.517  0.1512  0.1352 -0.1087
  120loPI   GL1 1909   6.583   7.968  11.210 -0.0661 -0.0729 -0.1330
  120loPI   GL2 1910   6.257   8.133  11.165 -0.0237  0.0971  0.2381
  120loPI   C1A 1911   6.535   7.752  10.811 -0.0765  0.2933 -0.1857
  120loPI   C2A 1912   6.363   7.501  10.404  0.0170 -0.2969 -0.1160
  120loPI   C3A 1913   6.174   7.032  10.215 -0.0611 -0.4175  0.2828
  120loPI   C4A 1914   6.082   6.832   9.816  0.0663  0.0906  0.0845
  120loPI   C5A 1915   6.060   6.850   9.390  0.1999 -0.0896 -0.3623
  120loPI   C6A 1916   6.031   6.820   8.906 -0.0700 -0.1837  0.0011
  120loPI   C1B 1917   6.084   7.970  10.721 -0.0316 -0.0402 -0.0929
  120loPI   C2B 1918   5.989   7.913  10.299 -0.1101  0.0496 -0.3249
  120loPI   C3B 1919   6.014   7.775   9.855  0.0698 -0.3018  0.0944
  120loPI   C4B 1920   5.983   7.888   9.428 -0.0084  0.2219  0.0115
  121loPI    C1 1921  10.551  14.022  11.024 -0.0941 -0.0737  0.1009
  121loPI    C2 1922  10.606  14.361  11.230  0.0021  0.0683 -0.1537
  121loPI    C3 1923  10.259  14.295  11.042 -0.0565 -0.0253 -0.0144
  121loPI   PO4 1924  10.636  14.024  10.855  0.2970 -0.0577 -0.2036
  121loPI   GL1 1925  10.807  13.765  10.499  0.0859  0.1520 -0.0174
  121loPI   GL2 1926  10.633  13.627  10.324 -0.0258  0.2872  0.1240
  121loPI   C1A 1927  10.760  14.188  10.302  0.1104 -0.1206 -0.1058
  121loPI   C2A 1928  10.382  14.356  10.226 -0.0787 -0.3694 -0.0578
  121loPI   C3A 1929  10.222  14.528   9.920  0.0261  0.0049  0.0204
  121loPI   C4A 1930  10.338  14.674   9.642 -0.0813  0.1134  0.0415
  121loPI   C5A 1931  10.410  14.654   9.276 -0.1940 -0.0572  0.4010
  121loPI   C6A 1932  10.206  14.735   9.010  0.2477 -0.0449  0.2129
  121loPI   C1B 1933  10.555  13.820   9.980 -0.0636 -0.2224  0.1596
  121loPI   C2B 1934  10.643  13.664   9.500 -0.0135 -0.2634 -0.2214
  121loPI   C3B 1935  10.500  13.617   9.062 -0.0544 -0.1151  0.1548
  121loPI   C4B 1936  10.398  13.680   8.685  0.1315 -0.1303  0.1539
  122loPI    C1 1937   0.831  12.794  10.948  0.0312 -0.0203  0.0800
  122loPI    C2 1938   0.512  12.560  10.891 -0.0905  0.0565  0.4176
  122loPI    C3 1939   0.859  12.399  11.009  0.0762 -0.0616 -0.1974
  122loPI   PO4 1940   0.901  12.983  10.736  0.3765 -0.0422 -0.1677
  122loPI   GL1 1941   1.278  13.091  10.551 -0.1080 -0.0577  0.4113
  122loPI   GL2 1942   1.652  13.005  10.567 -0.0445  0.0863 -0.1624
  122loPI   C1A 1943   1.151  13.113  10.146  0.3368  0.1187 -0.2262
  122loPI   C2A 1944   1.234  12.945   9.771 -0.1388 -0.0390 -0.0255
  122loPI   C3A 1945   1.411  12.901   9.341 -0.1020  0.2809 -0.2519
  122loPI   C4A 1946   1.570  13.076   9.013  0.1783 -0.2008  0.2525
  122loPI   C5A 1947   1.501  13.062   8.572  0.0529 -0.1251 -0.2870
  122loPI   C6A 1948   1.301  13.081   8.190 -0.0180 -0.0564  0.1742
  122loPI   C1B 1949   1.641  13.226  10.243 -0.1807 -0.2751 -0.0935
  122loPI   C2B 1950   1.602  13.490   9.863 -0.0939  0.3346 -0.1467
  122loPI   C3B 1951   1.357  13.438   9.433  0.3965 -0.4469  0.0016
  122loPI   C4B 1952   1.351  13.711   9.072  0.2074 -0.0906 -0.0596
  123loPI    C1 1953   0.496   9.267  10.905  0.1520  0.0441  0.0481
  123loPI    C2 1954   0.289   9.037  10.651  0.2670 -0.0120  0.0041
  123loPI    C3 1955   0.396   8.894  11.009  0.1185  0.0616  0.0790
  123loPI   PO4 1956   0.646   9.387  10.836  0.1182  0.1256 -0.0765
  123loPI   GL1 1957   0.947   9.375  10.536 -0.1512 -0.1916 -0.2186
  123loPI   GL2 1958   1.196   9.507  10.245  0.2330  0.2183 -0.0197
  123loPI   C1A 1959   0.892   9.110  10.146  0.4197 -0.3426 -0.1479
  123loPI   C2A 1960   1.030   9.116   9.699  0.1112  0.0641  0.0558
  123loPI   C3A 1961   1.030   9.265   9.284  0.3636 -0.0477  0.1768
  123loPI   C4A 1962   0.927   9.373   8.878 -0.0632  0.0345 -0.0768
  123loPI   C5A 1963   0.995   9.441   8.517  0.0418 -0.2000 -0.0707
  123loPI   C6A 1964   0.942   9.250   8.116 -0.3657  0.1817 -0.0053
  123loPI   C1B 1965   1.045   9.593   9.916  0.3101 -0.0381  0.0719
  123loPI   C2B 1966   0.796   9.628   9.620 -0.0030  0.2713  0.0629
  123loPI   C3B 1967   0.600   9.679   9.262 -0.0216 -0.1726 -0.1139
  123loPI   C4B 1968   0.277   9.884   9.186  0.1593  0.0286 -0.0484
  124loPI    C1 1969   7.123  10.793  11.663 -0.0432  0.0603  0.0361
  124loPI    C2 1970   7.482  10.921  11.784  0.0519 -0.1759  0.0092
  124loPI    C3 1971   7.184  10.882  12.048 -0.0339  0.2718 -0.0126
  124loPI   PO4 1972   7.215  10.838  11.364 -0.1815 -0.0654 -0.0835
  124loPI   GL1 1973   7.166  10.976  10.938  0.3331 -0.1689  0.0004
  124loPI   GL2 1974   7.389  11.238  10.837  0.1374  0.2993 -0.0774
  124loPI   C1A 1975   7.378  10.624  10.780 -0.1021 -0.2220 -0.0564
  124loPI   C2A 1976   7.367  10.423  10.326  0.1022 -0.3070 -0.0555
  124loPI   C3A 1977   7.326  10.329   9.910 -0.1038 -0.1779 -0.0865
  124loPI   C4A 1978   7.200  10.184   9.520 -0.1318 -0.0606 -0.4286
  124loPI   C5A 1979   7.212   9.823   9.333  0.1071  0.2041  0.1938
  124loPI   C6A 1980   6.927   9.452   9.236 -0.3508  0.2585  0.0645
  124loPI   C1B 1981   7.232  10.982  10.444 -0.0507 -0.2593 -0.2812
  124loPI   C2B 1982   7.106  10.783  10.081 -0.1751 -0.3734  0.2353
  124loPI   C3B 1983   7.084  10.812   9.667 -0.2703 -0.2043  0.3037
  124loPI   C4B 1984   7.205  10.898   9.234 -0.1908  0.0435 -0.1062
  125loPI    C1 1985   9.491  17.562  10.742  0.1928 -0.1823 -0.0516
  125loPI    C2 1986   9.637  17.336  10.445  0.2047 -0.0486 -0.1483
  125loPI    C3 1987   9.879  17.585  10.645  0.1657 -0.0273 -0.1276
  125loPI   PO4 1988   9.222  17.685  10.535  0.0425 -0.1418 -0.0021
  125loPI   GL1 1989   8.920  17.586  10.270  0.0061  0.1047  0.1367
  125loPI   GL2 1990   8.993  17.959  10.156 -0.1516  0.1124  0.0651
  125loPI   C1A 1991   8.603  17.400   9.929 -0.0538 -0.0005 -0.1665
  125loPI   C2A 1992   8.572  17.335   9.365  0.0278 -0.3452  0.4121
  125loPI   C3A 1993   8.823  17.399   9.026  0.0932 -0.0707  0.0410
  125loPI   C4A 1994   8.819  17.665   8.638  0.0717  0.0696 -0.0628
  125loPI   C5A 1995   8.559  17.735   8.240 -0.1051 -0.0572 -0.0612
  125loPI   C6A 1996   8.258  17.356   8.048  0.2859 -0.0805  0.0283
  125loPI   C1B 1997   8.975  18.025   9.688  0.0653  0.3129 -0.0951
  125loPI   C2B 1998   8.932  17.842   9.311  0.2396  0.0973 -0.0022
  125loPI   C3B 1999   8.977  18.016   8.932  0.2568  0.2307 -0.2048
  125loPI   C4B 2000   8.930  18.154   8.457 -0.0332  0.2317 -0.1024
  126loPI    C1 2001   7.071   4.867  11.819 -0.0896 -0.1246  0.0133
  126loPI    C2 2002   7.131   4.567  11.561  0.0238 -0.0912  0.0004
  126loPI    C3 2003   7.375   4.613  11.874 -0.1020 -0.1203  0.1039
  126loPI   PO4 2004   6.959   5.060  11.510  0.0233 -0.0408 -0.5566
  126loPI   GL1 2005   7.202   5.372  11.288  0.3853 -0.1666 -0.0212
  126loPI   GL2 2006   7.065   5.608  11.188  0.0205 -0.1747 -0.0430
  126loPI   C1A 2007   7.250   5.239  10.826 -0.0593  0.4556 -0.2758
  126loPI   C2A 2008   7.347   5.256  10.413  0.2817  0.0028 -0.0370
  126loPI   C3A 2009   7.245   5.233  10.003  0.0630  0.0189 -0.2111
  126loPI   C4A 2010   7.240   5.296   9.602  0.0588  0.0213 -0.1136
  126loPI   C5A 2011   7.312   5.224   9.096  0.2367  0.1238  0.2878
  126loPI   C6A 2012   7.206   5.392   8.694  0.3062  0.0287 -0.2504
  126loPI   C1B 2013   7.007   5.705  10.708 -0.1943 -0.2830 -0.0219
  126loPI   C2B 2014   7.057   5.703  10.285 -0.0850  0.1553 -0.2095
  126loPI   C3B 2015   6.973   5.694   9.879  0.1616 -0.1397  0.0055
  126loPI   C4B 2016   6.989   5.674   9.371  0.1074  0.2115  0.1049
  127loPI    C1 2017   5.910   1.821  11.078 -0.1278  0.1069  0.3111
  127loPI    C2 2018   5.690   1.507  10.965  0.3390 -0.1486  0.0807
  127loPI    C3 2019   5.705   1.612  11.350 -0.3832  0.0406  0.0723
  127loPI   PO4 2020   5.888   1.968  10.833  0.2688  0.0364  0.4174
  127loPI   GL1 2021   5.747   1.698  10.497 -0.0209 -0.1303 -0.1779
  127loPI   GL2 2022   5.552   1.849  10.392  0.3664  0.0681 -0.1761
  127loPI   C1A 2023   6.074   1.920  10.172  0.1119 -0.4717  0.2879
  127loPI   C2A 2024   6.360   1.934   9.771  0.0420 -0.0582 -0.2969
  127loPI   C3A 2025   6.517   1.821   9.370  0.1910 -0.3767 -0.0714
  127loPI   C4A 2026   6.715   1.611   8.989  0.1408 -0.1599  0.1871
  127loPI   C5A 2027   6.915   1.205   9.120 -0.1660  0.2629  0.2744
  127loPI   C6A 2028   7.357   1.167   9.211 -0.2119  0.1586  0.1418
  127loPI   C1B 2029   5.353   1.862   9.960  0.0990 -0.0943  0.0692
  127loPI   C2B 2030   4.993   1.812   9.630 -0.0122  0.1024 -0.1037
  127loPI   C3B 2031   4.826   1.783   9.197  0.4159 -0.3770  0.0990
  127loPI   C4B 2032   4.749   1.835   8.640 -0.0972  0.0570 -0.3124
  128loPI    C1 2033   4.301  17.516  11.218 -0.1520 -0.0721  0.0695
  128loPI    C2 2034   4.097  17.363  11.526 -0.3436  0.0639  0.0123
  128loPI    C3 2035   4.445  17.551  11.589 -0.3004 -0.0529  0.1258
  128loPI   PO4 2036   4.184  17.662  11.077  0.0164 -0.0283  0.4283
  128loPI   GL1 2037   4.209  17.860  10.601 -0.2387  0.0756 -0.3607
  128loPI   GL2 2038   4.233  17.562  10.371 -0.3563 -0.1487 -0.0437
  128loPI   C1A 2039   4.344  18.082  10.322  0.0818  0.3856 -0.0946
  128loPI   C2A 2040   4.335  18.250   9.928 -0.2582 -0.0018  0.0124
  128loPI   C3A 2041   4.531  18.404   9.486  0.2860 -0.1073  0.0516
  128loPI   C4A 2042   4.733  18.456   9.035  0.0198 -0.1556  0.2645
  128loPI   C5A 2043   4.942  18.459   8.604 -0.0196 -0.1379 -0.1614
  128loPI   C6A 2044   4.969  18.809   8.348  0.1546  0.1280  0.1548
  128loPI   C1B 2045   4.162  17.686   9.860 -0.1448  0.3507 -0.1121
  128loPI   C2B 2046   4.116  18.050   9.527  0.2173 -0.3285 -0.2474
  128loPI   C3B 2047   4.116  18.220   9.169 -0.1421 -0.3900 -0.1346
  128loPI   C4B 2048   4.334  18.502   8.809  0.2298  0.2170  0.2162
  129loPI    C1 2049  17.435   6.583  10.619 -0.0951  0.2924 -0.0935
  129loPI    C2 2050  17.509   6.722  10.986  0.0970 -0.0792  0.0132
  129loPI    C3 2051  17.134   6.638  10.876  0.0385  0.0353  0.1230
  129loPI   PO4 2052  17.665   6.658  10.504  0.3817 -0.0825  0.0392
  129loPI   GL1 2053  17.809   6.529  10.128 -0.0667  0.0847  0.2297
  129loPI   GL2 2054  17.588   6.244  10.194  0.1797 -0.1213 -0.1007
  129loPI   C1A 2055  18.271   6.516   9.982  0.3182  0.0514  0.0241
  129loPI   C2A 2056  18.593   6.457   9.650  0.1444  0.0559 -0.2379
  129loPI   C3A 2057  18.994   6.477   9.424  0.1644  0.1055  0.4215
  129loPI   C4A 2058  19.128   6.334   9.102  0.1085  0.1033 -0.1277
  129loPI   C5A 2059  19.322   5.973   8.898  0.2066 -0.2008  0.1016
  129loPI   C6A 2060  19.215   5.590   8.621 -0.1323 -0.2142 -0.1764
  129loPI   C1B 2061  17.530   6.024   9.815 -0.0809 -0.0807 -0.0850
  129loPI   C2B 2062  17.674   5.921   9.469  0.2466  0.1993  0.0831
  129loPI   C3B 2063  18.009   6.092   9.292 -0.2340 -0.0585  0.1184
  129loPI   C4B 2064  18.243   6.408   9.317 -0.3117  0.3177 -0.0297
  130loPI    C1 2065   4.688   5.963  11.466  0.1586  0.1079  0.1838
  130loPI    C2 2066   4.898   5.713  11.697  0.2574  0.1335  0.1223
  130loPI    C3 2067   4.530   5.826  11.807  0.2029 -0.0564  0.1395
  130loPI   PO4 2068   4.744   5.865  11.233 -0.2610 -0.2833  0.0972
  130loPI   GL1 2069   4.801   5.985  10.909  0.1196  0.0106  0.5300
  130loPI   GL2 2070   4.407   5.880  10.815 -0.1713  0.1827  0.0695
  130loPI   C1A 2071   5.054   5.943  10.488 -0.1178 -0.0784  0.2050
  130loPI   C2A 2072   5.034   5.922  10.060  0.2511 -0.0996 -0.2794
  130loPI   C3A 2073   5.067   5.894   9.619 -0.1142 -0.5791  0.0568
  130loPI   C4A 2074   5.176   5.791   9.157  0.2419 -0.0326 -0.1434
  130loPI   C5A 2075   4.989   5.459   8.933 -0.2069  0.3851  0.0823
  130loPI   C6A 2076   4.947   5.076   8.673 -0.0712 -0.4009  0.0230
  130loPI   C1B 2077   4.568   6.025  10.345  0.1734 -0.0431  0.1324
  130loPI   C2B 2078   4.568   5.897   9.899 -0.0511 -0.0804  0.0559
  130loPI   C3B 2079   4.627   5.837   9.433  0.1140 -0.0805  0.1745
  130loPI   C4B 2080   4.577   5.822   9.047  0.1345 -0.0242  0.3190
  131loPI    C1 2081   7.655  12.504  11.446 -0.2306  0.0905  0.0425
  131loPI    C2 2082   7.830  12.607  11.790  0.0567  0.0776 -0.0968
  131loPI    C3 2083   7.473  12.760  11.694 -0.0298  0.0746  0.2088
  131loPI   PO4 2084   7.667  12.209  11.375  0.2914 -0.0400 -0.4202
  131loPI   GL1 2085   7.375  12.183  11.014  0.0733 -0.1579 -0.1671
  131loPI   GL2 2086   7.538  12.518  10.912 -0.1151 -0.2891 -0.1142
  131loPI   C1A 2087   7.314  12.027  10.622  0.3388  0.0252  0.0598
  131loPI   C2A 2088   7.327  12.248  10.157  0.1170 -0.3412  0.4630
  131loPI   C3A 2089   7.073  12.246   9.858  0.3392 -0.0709  0.0593
  131loPI   C4A 2090   6.728  12.015   9.602  0.1636 -0.3756  0.0473
  131loPI   C5A 2091   6.747  11.752   9.311 -0.0640  0.1335 -0.0748
  131loPI   C6A 2092   6.685  11.790   8.928  0.3201  0.2604 -0.1436
  131loPI   C1B 2093   7.634  12.498  10.536 -0.0622 -0.1720  0.1680
  131loPI   C2B 2094   7.835  12.199  10.153  0.0666  0.0454 -0.0714
  131loPI   C3B 2095   8.139  11.956  10.005 -0.0276  0.0102  0.3036
  131loPI   C4B 2096   8.320  11.545  10.043  0.2969 -0.2855  0.0967
  132loPI    C1 2097   6.718   3.647  11.278 -0.1136 -0.0701  0.0453
  132loPI    C2 2098   6.798   3.605  11.668 -0.1105 -0.1296  0.0383
  132loPI    C3 2099   7.090   3.560  11.398 -0.0939 -0.0022  0.0341
  132loPI   PO4 2100   6.502   3.874  11.235 -0.2543  0.1758  0.0623
  132loPI   GL1 2101   6.433   4.212  10.924  0.0147 -0.2061  0.1917
  132loPI   GL2 2102   6.432   4.577  10.742 -0.2735  0.3344 -0.2413
  132loPI   C1A 2103   6.303   4.160  10.459  0.0676 -0.1339 -0.1966
  132loPI   C2A 2104   6.281   4.244  10.011  0.0150 -0.2876  0.2350
  132loPI   C3A 2105   6.317   4.296   9.577 -0.2351 -0.0833  0.2720
  132loPI   C4A 2106   6.291   4.341   9.256 -0.1466 -0.0030  0.0605
  132loPI   C5A 2107   6.352   4.086   8.891 -0.0438  0.2403  0.2232
  132loPI   C6A 2108   6.579   3.726   8.712 -0.0961 -0.1450 -0.2207
  132loPI   C1B 2109   6.518   4.746  10.357  0.1212 -0.0608  0.2214
  132loPI   C2B 2110   6.511   4.725   9.914 -0.0154 -0.2691  0.1762
  132loPI   C3B 2111   6.553   4.770   9.459 -0.1076  0.0052 -0.3362
  132loPI   C4B 2112   6.530   4.853   9.026 -0.0778  0.1605 -0.1229
  133loPI    C1 2113   1.607   3.891  11.249  0.0384  0.0226 -0.0134
  133loPI    C2 2114   1.463   3.524  11.181  0.2288 -0.0781  0.1178
  133loPI    C3 2115   1.238   3.795  11.370  0.0838 -0.1231  0.0114
  133loPI   PO4 2116   1.723   3.950  10.938  0.0433  0.0727  0.1639
  133loPI   GL1 2117   1.834   4.070  10.496 -0.3013  0.0958 -0.2171
  133loPI   GL2 2118   1.573   4.072  10.336 -0.1225  0.0139  0.2197
  133loPI   C1A 2119   1.979   4.198  10.115 -0.0020  0.1601  0.0820
  133loPI   C2A 2120   1.999   4.326   9.647 -0.0914  0.1002 -0.1476
  133loPI   C3A 2121   2.078   4.274   9.235  0.2644  0.1154 -0.2486
  133loPI   C4A 2122   2.162   4.343   8.792  0.0961 -0.1987 -0.0873
  133loPI   C5A 2123   2.057   4.285   8.399  0.2822 -0.0364  0.1582
  133loPI   C6A 2124   2.185   4.409   8.080  0.0192 -0.1444 -0.0274
  133loPI   C1B 2125   1.395   4.215   9.938 -0.0281  0.0525  0.0930
  133loPI   C2B 2126   1.534   4.234   9.464  0.0250 -0.1131 -0.1007
  133loPI   C3B 2127   1.572   4.119   8.921 -0.1262 -0.1459 -0.0110
  133loPI   C4B 2128   1.801   3.929   8.574  0.1754 -0.2757  0.1261
  134loPI    C1 2129   5.262  13.284  11.467  0.0378 -0.0504 -0.0806
  134loPI    C2 2130   5.522  13.091  11.703  0.1924  0.0028 -0.2058
  134loPI    C3 2131   5.384  13.451  11.810 -0.0757 -0.1612  0.0151
  134loPI   PO4 2132   5.371  13.224  11.249  0.3252 -0.1841  0.0895
  134loPI   GL1 2133   5.264  13.012  10.835 -0.1332 -0.3612  0.2226
  134loPI   GL2 2134   5.048  12.763  10.734  0.2946  0.0247 -0.1402
  134loPI   C1A 2135   5.312  13.256  10.454 -0.0563 -0.2236  0.2833
  134loPI   C2A 2136   5.228  13.187  10.020  0.0842  0.1255 -0.2561
  134loPI   C3A 2137   5.198  13.165   9.636 -0.2467 -0.1101 -0.0810
  134loPI   C4A 2138   5.173  13.259   9.248 -0.3523 -0.4225 -0.0299
  134loPI   C5A 2139   5.160  13.464   8.901 -0.1903 -0.1109 -0.3764
  134loPI   C6A 2140   4.996  13.716   8.640 -0.0790 -0.1825 -0.1340
  134loPI   C1B 2141   4.931  12.936  10.350  0.0681 -0.0724 -0.2516
  134loPI   C2B 2142   4.822  12.872   9.957  0.1595 -0.2582  0.2851
  134loPI   C3B 2143   4.774  12.845   9.547  0.2178  0.1217 -0.0937
  134loPI   C4B 2144   4.517  12.734   9.136 -0.0294 -0.2133  0.2846
  135loPI    C1 2145   0.981   6.924  10.644 -0.0810 -0.3754 -0.1357
  135loPI    C2 2146   0.771   7.057  10.957  0.1798 -0.1151 -0.0664
  135loPI    C3 2147   0.635   6.748  10.742 -0.1507 -0.1046  0.1194
  135loPI   PO4 2148   1.174   7.127  10.527 -0.0406 -0.1671 -0.1486
  135loPI   GL1 2149   1.003   7.412  10.195 -0.0535  0.3220 -0.3754
  135loPI   GL2 2150   1.240   7.718  10.225 -0.1057 -0.1497 -0.0316
  135loPI   C1A 2151   1.246   7.398   9.850 -0.1126  0.1935 -0.1393
  135loPI   C2A 2152   1.323   7.281   9.502  0.0491  0.0223 -0.1658
  135loPI   C3A 2153   1.487   7.396   9.044 -0.2283 -0.1762  0.1531
  135loPI   C4A 2154   1.582   7.328   8.585 -0.0288 -0.4518 -0.0184
  135loPI   C5A 2155   1.336   7.337   8.290  0.0491  0.1934 -0.1465
  135loPI   C6A 2156   0.953   7.433   8.148 -0.0190  0.2418  0.0502
  135loPI   C1B 2157   1.616   7.747   9.968 -0.0733  0.1577 -0.1544
  135loPI   C2B 2158   1.769   7.855   9.531 -0.1917 -0.1785  0.0627
  135loPI   C3B 2159   1.693   7.867   9.070 -0.1498 -0.1899 -0.1636
  135loPI   C4B 2160   1.780   7.751   8.755  0.0926 -0.0878 -0.0774
  136loPI    C1 2161   4.838   6.999  11.709  0.0613 -0.0163 -0.0281
  136loPI    C2 2162   4.794   7.390  11.783 -0.2969 -0.0745  0.0883
  136loPI    C3 2163   5.006   7.161  12.034 -0.0649  0.0471  0.0064
  136loPI   PO4 2164   4.761   7.009  11.471  0.0523  0.0741  0.0991
  136loPI   GL1 2165   4.688   6.826  11.020  0.0215 -0.1510 -0.0927
  136loPI   GL2 2166   4.436   6.970  10.843 -0.1698  0.1923  0.0651
  136loPI   C1A 2167   4.977   6.873  10.816 -0.2649 -0.0504 -0.2788
  136loPI   C2A 2168   5.172   6.903  10.457  0.0440  0.0255  0.1951
  136loPI   C3A 2169   5.122   6.857  10.012  0.2158  0.0597 -0.2829
  136loPI   C4A 2170   4.984   6.784   9.640 -0.3914  0.0564 -0.1307
  136loPI   C5A 2171   5.068   6.754   9.176 -0.0183 -0.1223 -0.2579
  136loPI   C6A 2172   4.995   6.687   8.791 -0.1261  0.2271  0.4926
  136loPI   C1B 2173   4.553   6.874  10.483  0.1000  0.0647 -0.1292
  136loPI   C2B 2174   4.554   6.782   9.962 -0.2340 -0.2323  0.0482
  136loPI   C3B 2175   4.525   6.821   9.500  0.2123  0.2024  0.1471
  136loPI   C4B 2176   4.541   6.703   9.089  0.2712  0.0150 -0.0497
  137loPI    C1 2177   0.263  17.924  10.305 -0.0277  0.1781  0.0220
  137loPI    C2 2178   0.638  18.029  10.395 -0.0327 -0.0791  0.3640
  137loPI    C3 2179   0.335  18.277  10.477  0.0574  0.1220  0.1022
  137loPI   PO4 2180   0.331  17.696  10.145 -0.0694 -0.2162 -0.1362
  137loPI   GL1 2181   0.534  17.795   9.886 -0.1615 -0.3973  0.2444
  137loPI   GL2 2182   0.848  17.649   9.987 -0.2243  0.2687 -0.2246
  137loPI   C1A 2183   0.437  18.194   9.650  0.3373  0.0396 -0.1802
  137loPI   C2A 2184   0.433  18.319   9.215  0.0361 -0.2015  0.2121
  137loPI   C3A 2185   0.464  18.562   8.868 -0.1671 -0.2586 -0.0767
  137loPI   C4A 2186   0.624  18.886   8.576 -0.1600  0.0219 -0.0311
  137loPI   C5A 2187   0.705  18.668   8.212  0.0389  0.3198  0.1747
  137loPI   C6A 2188   0.986  18.318   8.123  0.0172 -0.1589  0.1049
  137loPI   C1B 2189   1.140  17.548   9.630 -0.2787 -0.2248  0.1652
  137loPI   C2B 2190   1.308  17.187   9.430 -0.0488 -0.0905  0.1591
  137loPI   C3B 2191   1.484  16.971   9.111 -0.1634  0.0003  0.1133
  137loPI   C4B 2192   1.858  16.887   8.812  0.2520  0.3399  0.0130
  138loPI    C1 2193   2.389   6.563  11.246  0.2774  0.0414 -0.0680
  138loPI    C2 2194   2.720   6.400  11.092  0.1837 -0.2461  0.0283
  138loPI    C3 2195   2.472   6.178  11.313 -0.0182 -0.0045  0.0493
  138loPI   PO4 2196   2.304   6.722  11.052 -0.0936  0.1413  0.2241
  138loPI   GL1 2197   2.589   6.903  10.714 -0.0921 -0.1691  0.0107
  138loPI   GL2 2198   2.828   6.813  10.848 -0.1152  0.1449 -0.4297
  138loPI   C1A 2199   2.730   7.083  10.294 -0.3559  0.0105 -0.0177
  138loPI   C2A 2200   2.780   7.018   9.807  0.0486 -0.2146 -0.2226
  138loPI   C3A 2201   2.777   7.005   9.351 -0.4242  0.1974  0.0891
  138loPI   C4A 2202   3.026   6.977   8.898 -0.3401  0.1540  0.0916
  138loPI   C5A 2203   3.266   6.721   8.778  0.3161  0.0562  0.0791
  138loPI   C6A 2204   3.669   6.647   8.769  0.2320 -0.2020  0.2389
  138loPI   C1B 2205   2.979   6.680  10.486  0.0494  0.2373 -0.0261
  138loPI   C2B 2206   3.046   6.665  10.096 -0.2568  0.1920 -0.0628
  138loPI   C3B 2207   3.052   6.614   9.613 -0.1490 -0.0980  0.0058
  138loPI   C4B 2208   3.027   6.559   9.280 -0.2698 -0.0205  0.1214
  139loPI    C1 2209   6.039  16.220  11.372  0.2412  0.0360  0.3243
  139loPI    C2 2210   6.221  16.545  11.226  0.0586 -0.0392 -0.0868
  139loPI    C3 2211   5.863  16.579  11.401  0.1142  0.0015  0.0204
  139loPI   PO4 2212   5.902  16.074  11.140  0.1387 -0.0557 -0.1852
  139loPI   GL1 2213   6.074  15.991  10.735  0.0147 -0.2224  0.2245
  139loPI   GL2 2214   6.147  16.293  10.756  0.0260  0.3795  0.0313
  139loPI   C1A 2215   5.889  15.914  10.402 -0.0482 -0.0523 -0.0234
  139loPI   C2A 2216   5.735  16.019   9.993  0.2019  0.3331 -0.2785
  139loPI   C3A 2217   5.618  16.019   9.524  0.4839 -0.0894 -0.0444
  139loPI   C4A 2218   5.463  16.111   9.159  0.0229 -0.0386  0.1901
  139loPI   C5A 2219   5.218  16.033   8.822 -0.1050 -0.2119  0.0872
  139loPI   C6A 2220   4.834  16.173   8.549 -0.1517 -0.0233 -0.5231
  139loPI   C1B 2221   6.077  16.375  10.347 -0.3152  0.1629  0.0019
  139loPI   C2B 2222   5.970  16.399   9.872  0.1562 -0.0718  0.3838
  139loPI   C3B 2223   5.961  16.378   9.438 -0.0076  0.1143  0.3367
  139loPI   C4B 2224   5.939  16.362   8.998 -0.2324  0.2081  0.0578
  140loPI    C1 2225   7.003   0.904  10.903  0.0125  0.2218 -0.0026
  140loPI    C2 2226   7.042   0.979  11.294  0.1020 -0.0186  0.0367
  140loPI    C3 2227   7.127   1.264  11.025  0.3623  0.0440  0.1816
  140loPI   PO4 2228   6.817   0.788  10.861 -0.0812  0.0291 -0.2723
  140loPI   GL1 2229   6.670   0.569  10.471 -0.0046 -0.0012 -0.0860
  140loPI   GL2 2230   6.485   0.495  10.616  0.2710  0.0598  0.3175
  140loPI   C1A 2231   6.846   0.204  10.167 -0.1290  0.0583 -0.1343
  140loPI   C2A 2232   7.151   0.253   9.916 -0.1907 -0.0306  0.2126
  140loPI   C3A 2233   7.052   0.272   9.493  0.0289 -0.0224  0.0946
  140loPI   C4A 2234   6.947   0.193   8.988 -0.3267 -0.0642 -0.0685
  140loPI   C5A 2235   6.765   0.358   8.666  0.2346  0.0264  0.0304
  140loPI   C6A 2236   6.640   0.068   8.389  0.0863  0.1847  0.0814
  140loPI   C1B 2237   6.349   0.470  10.122 -0.1349  0.1411  0.2974
  140loPI   C2B 2238   6.313   0.612   9.613 -0.0311  0.0905  0.0075
  140loPI   C3B 2239   6.328   0.678   9.225 -0.2864  0.1554  0.1908
  140loPI   C4B 2240   6.594   0.717   8.919 -0.0252  0.0143  0.2174
  141loPI    C1 2241   3.580   2.155  10.777  0.0175  0.1830  0.0535
  141loPI    C2 2242   3.481   1.924  11.088  0.0308  0.0502 -0.0403
  141loPI    C3 2243   3.776   2.191  11.124 -0.0398  0.1109  0.0937
  141loPI   PO4 2244   3.401   2.129  10.609 -0.1679  0.0067  0.0506
  141loPI   GL1 2245   3.192   1.949  10.369 -0.0640 -0.0470 -0.0545
  141loPI   GL2 2246   2.977   2.191  10.235  0.0671  0.2276  0.3699
  141loPI   C1A 2247   3.229   1.826   9.919  0.2630  0.0764 -0.0120
  141loPI   C2A 2248   3.130   1.927   9.510  0.1736 -0.0313  0.2088
  141loPI   C3A 2249   2.928   2.189   9.169 -0.1727  0.0399  0.0366
  141loPI   C4A 2250   3.106   2.352   8.887  0.0384  0.0016 -0.0052
  141loPI   C5A 2251   2.893   2.587   8.503  0.1289  0.1196 -0.1566
  141loPI   C6A 2252   2.983   2.484   8.108  0.0827 -0.0564  0.1164
  141loPI   C1B 2253   2.773   2.069   9.932 -0.0197  0.0985 -0.2196
  141loPI   C2B 2254   2.690   2.148   9.651 -0.1513  0.0385 -0.2050
  141loPI   C3B 2255   2.463   2.087   9.246 -0.0783  0.2290  0.1010
  141loPI   C4B 2256   2.568   1.811   8.824 -0.3002 -0.0955  0.3385
  142loPI    C1 2257   1.793  11.843  10.895  0.1029 -0.0573 -0.0432
  142loPI    C2 2258   1.912  12.032  11.226 -0.0639 -0.0995  0.0415
  142loPI    C3 2259   1.594  11.789  11.237 -0.2031  0.0679 -0.1975
  142loPI   PO4 2260   2.005  11.672  10.774  0.0842  0.2479 -0.4214
  142loPI   GL1 2261   2.149  11.779  10.392 -0.3688  0.0239 -0.0753
  142loPI   GL2 2262   1.861  12.000  10.418 -0.0548  0.1301  0.2813
  142loPI   C1A 2263   2.283  12.009  10.045 -0.2332 -0.1781 -0.0049
  142loPI   C2A 2264   2.352  12.140   9.644  0.1820 -0.0063  0.0291
  142loPI   C3A 2265   2.234  12.281   9.237  0.1561  0.3127  0.0934
  142loPI   C4A 2266   1.999  12.441   8.843 -0.0469 -0.4243 -0.1329
  142loPI   C5A 2267   1.596  12.542   8.520 -0.1226 -0.2834 -0.0860
  142loPI   C6A 2268   1.195  12.568   8.305  0.2082  0.3742  0.1832
  142loPI   C1B 2269   1.830  11.820  10.014 -0.0613  0.1680  0.4290
  142loPI   C2B 2270   1.824  12.009   9.589  0.1519 -0.0894 -0.1241
  142loPI   C3B 2271   1.818  12.013   9.126  0.0722  0.1394  0.0715
  142loPI   C4B 2272   1.654  12.064   8.709 -0.1254  0.2099 -0.1400
  143loPI    C1 2273  10.182  14.793  10.935 -0.2642  0.1037  0.0146
  143loPI    C2 2274  10.096  14.706  11.316 -0.1239  0.0391  0.0319
  143loPI    C3 2275  10.458  14.848  11.219 -0.1117 -0.0768 -0.0962
  143loPI   PO4 2276   9.989  14.667  10.820 -0.1512 -0.0662  0.0787
  143loPI   GL1 2277   9.994  14.355  10.589  0.0818 -0.1451 -0.0500
  143loPI   GL2 2278  10.213  14.059  10.592  0.0006  0.0597  0.5039
  143loPI   C1A 2279   9.683  14.383  10.400  0.1703 -0.2130 -0.0052
  143loPI   C2A 2280   9.753  14.304   9.918  0.1199 -0.0571  0.2728
  143loPI   C3A 2281  10.118  14.099   9.743  0.0781  0.0741 -0.2290
  143loPI   C4A 2282  10.209  13.860   9.412 -0.0714  0.2727  0.1107
  143loPI   C5A 2283  10.026  13.927   9.012  0.0284 -0.0846 -0.2395
  143loPI   C6A 2284   9.881  13.781   8.584 -0.2100 -0.0665  0.0333
  143loPI   C1B 2285  10.036  13.859  10.307 -0.0059 -0.1599  0.0935
  143loPI   C2B 2286   9.906  13.596   9.894 -0.1566  0.1846 -0.0297
  143loPI   C3B 2287   9.842  13.525   9.407  0.0330  0.1242  0.1360
  143loPI   C4B 2288   9.863  13.295   9.061 -0.0611  0.1377  0.0122
  144loPI    C1 2289   1.146   8.905  11.269 -0.1065  0.0145  0.0059
  144loPI    C2 2290   1.153   9.186  11.553 -0.3808  0.1989 -0.1650
  144loPI    C3 2291   1.141   8.799  11.654 -0.0683  0.2479  0.0718
  144loPI   PO4 2292   0.939   8.948  11.060  0.2186  0.0497 -0.1652
  144loPI   GL1 2293   0.783   8.919  10.677  0.1606 -0.0699 -0.1155
  144loPI   GL2 2294   0.593   8.657  10.594  0.0678  0.6552  0.1404
  144loPI   C1A 2295   1.048   8.673  10.310  0.1145 -0.1510 -0.0795
  144loPI   C2A 2296   1.243   8.721   9.933 -0.1057  0.0299  0.1659
  144loPI   C3A 2297   1.460   8.514   9.698 -0.1630  0.2676  0.0388
  144loPI   C4A 2298   1.528   8.438   9.349 -0.0321 -0.0597  0.0431
  144loPI   C5A 2299   1.619   8.368   8.904  0.0623  0.0747  0.1746
  144loPI   C6A 2300   1.535   8.597   8.489  0.2186  0.0928 -0.1575
  144loPI   C1B 2301   0.564   8.750  10.136 -0.2137 -0.2656 -0.0089
  144loPI   C2B 2302   0.614   8.888   9.694 -0.0107  0.0571 -0.0773
  144loPI   C3B 2303   0.748   8.822   9.264  0.4233 -0.1603  0.0485
  144loPI   C4B 2304   0.589   8.732   8.889 -0.3444 -0.0689 -0.4268
  145loPI    C1 2305   1.982  12.686  10.730  0.0917 -0.1139  0.0219
  145loPI    C2 2306   1.830  12.320  10.790 -0.0159 -0.1253 -0.2984
  145loPI    C3 2307   1.737  12.523  10.458  0.0875  0.1719 -0.1493
  145loPI   PO4 2308   2.220  12.672  10.694 -0.3673  0.2146 -0.0610
  145loPI   GL1 2309   2.618  12.872  10.446 -0.2823 -0.0230 -0.0565
  145loPI   GL2 2310   2.899  12.843  10.235  0.1317  0.1165  0.4890
  145loPI   C1A 2311   2.493  13.113  10.086  0.0571  0.0482 -0.0118
  145loPI   C2A 2312   2.380  12.976   9.632  0.2885  0.1290  0.1264
  145loPI   C3A 2313   2.389  12.731   9.167  0.1961 -0.1125  0.1911
  145loPI   C4A 2314   2.630  12.736   8.734  0.0803  0.0549 -0.0405
  145loPI   C5A 2315   2.784  12.534   8.346 -0.2286  0.0438 -0.0171
  145loPI   C6A 2316   2.637  12.881   8.164 -0.0035  0.1238  0.1761
  145loPI   C1B 2317   2.991  12.878   9.724  0.2207  0.0601 -0.0447
  145loPI   C2B 2318   2.970  13.140   9.383 -0.0573  0.1225  0.0254
  145loPI   C3B 2319   3.035  12.902   9.006  0.1506  0.4649  0.0437
  145loPI   C4B 2320   3.108  12.911   8.578 -0.3258  0.1057 -0.0915
  146loPI    C1 2321   6.626   2.116  11.407  0.0074 -0.0246 -0.0855
  146loPI    C2 2322   6.956   2.097  11.182  0.1414 -0.0793  0.1131
  146loPI    C3 2323   6.986   2.117  11.581 -0.0893  0.2006  0.1197
  146loPI   PO4 2324   6.419   1.959  11.171  0.5660  0.0881 -0.0396
  146loPI   GL1 2325   6.304   1.518  10.950  0.0507  0.0978  0.2384
  146loPI   GL2 2326   6.253   1.767  10.645 -0.1179  0.2859 -0.0407
  146loPI   C1A 2327   6.205   1.403  10.349  0.2376 -0.1852  0.1188
  146loPI   C2A 2328   6.201   1.413   9.855  0.3226  0.1286 -0.3248
  146loPI   C3A 2329   6.167   1.498   9.451 -0.2917  0.1041  0.0176
  146loPI   C4A 2330   6.178   1.585   8.988  0.0081 -0.2854 -0.1078
  146loPI   C5A 2331   5.982   1.512   8.515 -0.0491  0.1761  0.0256
  146loPI   C6A 2332   6.085   1.388   8.160  0.0330 -0.0595  0.2894
  146loPI   C1B 2333   6.662   1.640  10.292  0.2274 -0.0894 -0.3801
  146loPI   C2B 2334   6.799   1.531   9.810 -0.1333 -0.1746  0.4264
  146loPI   C3B 2335   6.990   1.180   9.588  0.1282  0.0308 -0.1541
  146loPI   C4B 2336   7.281   0.813   9.590  0.1729  0.1676  0.1987
  147loPI    C1 2337  10.768  11.871  11.432 -0.1145  0.0228  0.0966
  147loPI    C2 2338  10.414  11.703  11.351  0.0440 -0.1099 -0.3527
  147loPI    C3 2339  10.720  11.475  11.471  0.0434 -0.0272 -0.1908
  147loPI   PO4 2340  10.877  12.009  11.234  0.2374 -0.1244  0.1326
  147loPI   GL1 2341  10.908  12.150  10.931  0.0186 -0.1611 -0.0958
  147loPI   GL2 2342  11.018  12.419  10.815  0.3787  0.1477  0.3680
  147loPI   C1A 2343  10.737  12.017  10.577  0.1242  0.4609  0.2690
  147loPI   C2A 2344  10.866  12.084  10.106 -0.1100 -0.2161 -0.1077
  147loPI   C3A 2345  10.984  12.107   9.688 -0.2940  0.1825 -0.1526
  147loPI   C4A 2346  11.208  11.859   9.267  0.1702 -0.0249  0.1215
  147loPI   C5A 2347  11.324  11.804   8.855  0.4167 -0.1324  0.1181
  147loPI   C6A 2348  11.581  12.030   8.646 -0.2333 -0.1855 -0.0016
  147loPI   C1B 2349  11.148  12.693  10.514 -0.4511  0.0111 -0.0757
  147loPI   C2B 2350  11.117  12.795  10.125  0.2459 -0.0170  0.0257
  147loPI   C3B 2351  11.343  12.963   9.796 -0.3398  0.0901  0.0875
  147loPI   C4B 2352  11.489  12.823   9.486  0.0091 -0.2021 -0.1707
  148loPI    C1 2353   5.654  17.576  11.201  0.2284 -0.0441 -0.0160
  148loPI    C2 2354   5.363  17.798  11.361  0.1550 -0.0694 -0.1132
  148loPI    C3 2355   5.689  17.712  11.575  0.2134  0.1848 -0.0960
  148loPI   PO4 2356   5.543  17.475  10.977  0.1818  0.1583 -0.0343
  148loPI   GL1 2357   5.675  17.293  10.610 -0.3456  0.0346  0.3080
  148loPI   GL2 2358   5.351  17.514  10.519 -0.1161 -0.1390 -0.0662
  148loPI   C1A 2359   5.776  17.728  10.346 -0.1525  0.0393 -0.1261
  148loPI   C2A 2360   5.690  17.885   9.923 -0.1709 -0.1776  0.2010
  148loPI   C3A 2361   5.590  17.883   9.472 -0.2465 -0.1089  0.3273
  148loPI   C4A 2362   5.495  18.074   9.165 -0.1834 -0.2389  0.0665
  148loPI   C5A 2363   5.593  18.119   8.807  0.1397 -0.1506 -0.2015
  148loPI   C6A 2364   5.362  17.903   8.506  0.1554  0.0306  0.0924
  148loPI   C1B 2365   5.466  17.431  10.092  0.0663 -0.2918 -0.1746
  148loPI   C2B 2366   5.546  17.355   9.680  0.0177 -0.3573  0.0994
  148loPI   C3B 2367   5.735  17.433   9.237 -0.5291  0.5475 -0.1741
  148loPI   C4B 2368   5.556  17.651   8.912  0.0919 -0.2297  0.0379
  149loPI    C1 2369   7.198   8.621  11.572  0.1351  0.0795  0.1940
  149loPI    C2 2370   7.486   8.349  11.630 -0.0563 -0.1907 -0.0895
  149loPI    C3 2371   7.482   8.686  11.846  0.4122 -0.2282 -0.0126
  149loPI   PO4 2372   7.182   8.529  11.302  0.1805  0.0222 -0.1360
  149loPI   GL1 2373   7.186   8.784  11.050  0.1063  0.1978 -0.1393
  149loPI   GL2 2374   7.532   8.795  10.981 -0.1245 -0.0553 -0.2907
  149loPI   C1A 2375   7.007   8.595  10.659  0.1460  0.0504 -0.0572
  149loPI   C2A 2376   6.777   8.398  10.281  0.1498 -0.1590  0.1953
  149loPI   C3A 2377   6.720   8.247   9.830  0.2463 -0.1502 -0.1304
  149loPI   C4A 2378   6.875   8.253   9.466 -0.0910  0.3895 -0.0747
  149loPI   C5A 2379   6.984   7.862   9.197  0.2238 -0.0277  0.0332
  149loPI   C6A 2380   6.822   7.474   8.998  0.1266  0.1515  0.2855
  149loPI   C1B 2381   7.435   8.904  10.531  0.2951 -0.2398 -0.0661
  149loPI   C2B 2382   7.363   9.135  10.337  0.4086 -0.1626 -0.0081
  149loPI   C3B 2383   7.188   9.447  10.168 -0.0124  0.1358 -0.0697
  149loPI   C4B 2384   6.772   9.689  10.212 -0.0525 -0.5615 -0.1040
  150loPI    C1 2385   6.147  13.006  11.739  0.0679 -0.0184 -0.2228
  150loPI    C2 2386   6.379  13.262  11.941 -0.0540 -0.0377 -0.0561
  150loPI    C3 2387   6.533  12.921  11.799  0.0101 -0.0709  0.0912
  150loPI   PO4 2388   5.999  13.130  11.528 -0.2034  0.2167  0.2139
  150loPI   GL1 2389   6.091  13.078  11.054  0.0266 -0.2018  0.0653
  150loPI   GL2 2390   6.071  13.423  11.088  0.1031  0.1861  0.1192
  150loPI   C1A 2391   5.691  13.255  10.740  0.1365 -0.0224 -0.0170
  150loPI   C2A 2392   5.693  13.537  10.357 -0.2052  0.2769 -0.1718
  150loPI   C3A 2393   5.647  13.518   9.995  0.1274 -0.2053 -0.1061
  150loPI   C4A 2394   5.678  13.509   9.560  0.2218 -0.1593 -0.2094
  150loPI   C5A 2395   5.846  13.746   9.320 -0.1621 -0.1284 -0.0744
  150loPI   C6A 2396   6.161  13.864   8.991  0.0594  0.0900  0.1253
  150loPI   C1B 2397   6.115  13.675  10.709  0.0318 -0.2544  0.1227
  150loPI   C2B 2398   6.283  13.681  10.293 -0.2429 -0.0226 -0.1983
  150loPI   C3B 2399   6.605  13.744  10.057  0.0782 -0.1989  0.2011
  150loPI   C4B 2400   6.872  14.088   9.958  0.1572  0.1947  0.1358
  151loPI    C1 2401   9.514   5.182  11.601 -0.1280  0.3579  0.0601
  151loPI    C2 2402   9.571   4.828  11.777  0.0897  0.2695 -0.1815
  151loPI    C3 2403   9.566   5.162  11.997 -0.0537  0.1246  0.0402
  151loPI   PO4 2404   9.721   5.165  11.397 -0.1737 -0.0842 -0.1631
  151loPI   GL1 2405   9.749   5.348  10.889  0.1045  0.1414 -0.0571
  151loPI   GL2 2406   9.495   5.402  10.738 -0.0715 -0.1431  0.1739
  151loPI   C1A 2407   9.977   5.485  10.494  0.0628  0.1645 -0.2260
  151loPI   C2A 2408   9.910   5.511  10.116  0.0684  0.0305  0.1202
  151loPI   C3A 2409   9.822   5.513   9.715  0.0035  0.0871 -0.1416
  151loPI   C4A 2410   9.798   5.549   9.276 -0.0215 -0.1254  0.0052
  151loPI   C5A 2411   9.769   5.577   8.917  0.2238 -0.1301  0.0041
  151loPI   C6A 2412   9.977   5.730   8.556  0.0750 -0.2717 -0.1627
  151loPI   C1B 2413   9.340   5.387  10.298  0.0377  0.1681  0.2068
  151loPI   C2B 2414   9.373   5.423   9.870 -0.3259  0.0908  0.2014
  151loPI   C3B 2415   9.350   5.439   9.469  0.0552  0.1780  0.2198
  151loPI   C4B 2416   9.312   5.401   8.962 -0.0026  0.1637  0.0214
  152loPI    C1 2417   8.554  11.139  11.518 -0.0957 -0.2055 -0.2503
  152loPI    C2 2418   8.897  11.323  11.426 -0.2364  0.2121  0.0303
  152loPI    C3 2419   8.867  11.116  11.767 -0.0603 -0.4015 -0.3109
  152loPI   PO4 2420   8.464  11.084  11.203 -0.4092 -0.0767  0.0315
  152loPI   GL1 2421   8.766  11.005  10.837 -0.0739 -0.0037 -0.2311
  152loPI   GL2 2422   8.647  10.644  10.995  0.0803 -0.3085 -0.3376
  152loPI   C1A 2423   8.708  11.090  10.352  0.0015 -0.0539  0.1225
  152loPI   C2A 2424   8.655  11.236   9.931  0.2638 -0.0559  0.2114
  152loPI   C3A 2425   8.284  11.280   9.566  0.1844 -0.1560  0.0659
  152loPI   C4A 2426   8.154  11.160   9.317 -0.1522  0.2304 -0.2705
  152loPI   C5A 2427   8.264  10.995   8.913  0.1195  0.1011  0.2530
  152loPI   C6A 2428   8.394  11.097   8.441 -0.0833 -0.0665 -0.0951
  152loPI   C1B 2429   8.762  10.496  10.560 -0.0174 -0.0850  0.1153
  152loPI   C2B 2430   8.782  10.412  10.080 -0.1697 -0.0144 -0.1825
  152loPI   C3B 2431   8.412  10.217   9.786 -0.1951  0.0857  0.0052
  152loPI   C4B 2432   8.163  10.246   9.410 -0.0172 -0.0724  0.1784
  153loPI    C1 2433   3.246   3.794  10.629  0.0758  0.0486 -0.1671
  153loPI    C2 2434   3.614   3.841  10.778 -0.0245  0.0403  0.0874
  153loPI    C3 2435   3.296   3.861  11.020 -0.1866 -0.0401 -0.1163
  153loPI   PO4 2436   3.234   3.490  10.495 -0.0020 -0.1686  0.1087
  153loPI   GL1 2437   3.093   3.086  10.347  0.2582 -0.0288  0.1278
  153loPI   GL2 2438   2.831   3.238  10.238  0.3427  0.0044  0.2597
  153loPI   C1A 2439   3.160   3.022   9.828  0.0087  0.0884 -0.1031
  153loPI   C2A 2440   3.104   2.868   9.430 -0.0134  0.0278 -0.2939
  153loPI   C3A 2441   3.014   2.833   8.987  0.0575 -0.0704 -0.1043
  153loPI   C4A 2442   3.095   3.038   8.620 -0.1060 -0.3050 -0.2385
  153loPI   C5A 2443   3.082   3.019   8.266  0.2771 -0.0063  0.0392
  153loPI   C6A 2444   2.688   2.898   8.137  0.0643  0.1634 -0.0080
  153loPI   C1B 2445   2.727   3.222   9.904  0.0519  0.0351 -0.1130
  153loPI   C2B 2446   2.683   3.193   9.377 -0.2795 -0.1622  0.1086
  153loPI   C3B 2447   2.517   2.997   8.996 -0.3281 -0.0331  0.1193
  153loPI   C4B 2448   2.481   2.896   8.575 -0.0103 -0.2008  0.2219
  154loPI    C1 2449  11.127   4.090  11.074 -0.0501 -0.1905 -0.0903
  154loPI    C2 2450  11.504   4.197  11.151  0.0070 -0.3642 -0.1229
  154loPI    C3 2451  11.269   4.063  11.446 -0.1514  0.1026 -0.0277
  154loPI   PO4 2452  11.123   3.903  10.924  0.2949  0.1872  0.3020
  154loPI   GL1 2453  10.905   3.935  10.555  0.2332 -0.0573 -0.0110
  154loPI   GL2 2454  11.167   3.752  10.397 -0.0621  0.1173 -0.1615
  154loPI   C1A 2455  10.954   4.199  10.269  0.1748 -0.2189 -0.0260
  154loPI   C2A 2456  10.988   4.659  10.061 -0.2057  0.0610  0.2395
  154loPI   C3A 2457  11.055   4.729   9.666  0.1538 -0.1144  0.0581
  154loPI   C4A 2458  10.853   4.802   9.293 -0.0790 -0.1921  0.2375
  154loPI   C5A 2459  10.950   4.712   8.840  0.0797 -0.4455 -0.0849
  154loPI   C6A 2460  11.159   4.780   8.465 -0.1334 -0.1340  0.1472
  154loPI   C1B 2461  11.098   3.838   9.939  0.0176 -0.1045 -0.0694
  154loPI   C2B 2462  11.086   3.866   9.470  0.2633 -0.4827 -0.1493
  154loPI   C3B 2463  11.354   3.799   9.158  0.1599  0.0278 -0.1583
  154loPI   C4B 2464  11.601   3.562   9.005 -0.2249  0.0341 -0.4995
  155loPI    C1 2465   7.462  14.511  11.042 -0.0306  0.1335  0.2147
  155loPI    C2 2466   7.111  14.365  11.165  0.1064 -0.1645  0.2595
  155loPI    C3 2467   7.292  14.652  11.376 -0.1493  0.0543  0.1883
  155loPI   PO4 2468   7.416  14.474  10.801 -0.5356 -0.3931  0.0974
  155loPI   GL1 2469   7.394  14.424  10.447 -0.3419  0.1594  0.1602
  155loPI   GL2 2470   7.158  14.408  10.280  0.0797  0.0515  0.3194
  155loPI   C1A 2471   7.656  14.281  10.141  0.3773 -0.0384  0.1333
  155loPI   C2A 2472   7.691  14.133   9.753 -0.0086 -0.2246 -0.2330
  155loPI   C3A 2473   7.748  14.453   9.386  0.0235  0.1618 -0.1025
  155loPI   C4A 2474   7.924  14.449   8.928 -0.0844 -0.2582 -0.0955
  155loPI   C5A 2475   8.105  14.603   8.561  0.0818 -0.1508  0.2815
  155loPI   C6A 2476   8.200  14.552   8.135 -0.1176 -0.1138  0.0614
  155loPI   C1B 2477   7.292  14.499   9.832  0.2836  0.2622  0.2538
  155loPI   C2B 2478   7.281  14.294   9.413  0.3319 -0.2796  0.2450
  155loPI   C3B 2479   7.496  14.225   9.014  0.2154  0.1468  0.3283
  155loPI   C4B 2480   7.451  14.281   8.567 -0.1823  0.2373 -0.4702
  156loPI    C1 2481   3.123   2.594  10.797  0.0923  0.0034 -0.0303
  156loPI    C2 2482   3.096   2.306  11.073 -0.0010  0.0813  0.0429
  156loPI    C3 2483   2.840   2.613  11.079 -0.1492 -0.0309 -0.2653
  156loPI   PO4 2484   3.052   2.550  10.583 -0.0455 -0.0827  0.2435
  156loPI   GL1 2485   2.762   2.697  10.217  0.2089  0.3476 -0.0724
  156loPI   GL2 2486   2.403   2.547  10.118  0.1398  0.1192 -0.2472
  156loPI   C1A 2487   2.774   2.627   9.777 -0.1478 -0.0715  0.0564
  156loPI   C2A 2488   2.638   2.622   9.328  0.1627  0.1026 -0.0741
  156loPI   C3A 2489   2.608   2.489   8.902  0.0134 -0.0016  0.0748
  156loPI   C4A 2490   2.566   2.208   8.558  0.1451  0.3278  0.2917
  156loPI   C5A 2491   2.931   2.053   8.511  0.1616  0.3572  0.0208
  156loPI   C6A 2492   3.294   2.154   8.309 -0.2941 -0.2485 -0.1830
  156loPI   C1B 2493   2.362   2.909   9.736 -0.0209  0.2146 -0.0344
  156loPI   C2B 2494   2.129   3.003   9.342 -0.1620  0.0220 -0.0182
  156loPI   C3B 2495   1.947   3.083   8.926  0.0510  0.0283  0.0706
  156loPI   C4B 2496   1.650   2.944   8.650  0.1614 -0.0275  0.0352
  157loPI    C1 2497  10.265   2.236  10.684 -0.0516  0.0760 -0.3446
  157loPI    C2 2498   9.885   2.163  10.585 -0.0745 -0.0015 -0.2018
  157loPI    C3 2499  10.115   1.868  10.726 -0.0441  0.1074 -0.0199
  157loPI   PO4 2500  10.385   2.302  10.486  0.1586  0.2190 -0.2373
  157loPI   GL1 2501  10.766   2.241  10.227 -0.0180  0.0249  0.1532
  157loPI   GL2 2502  10.532   2.222  10.018  0.0741 -0.2865  0.1068
  157loPI   C1A 2503  10.856   2.486   9.752 -0.0117  0.2226  0.1966
  157loPI   C2A 2504  10.618   2.552   9.379 -0.2704 -0.4541 -0.1225
  157loPI   C3A 2505  10.531   2.459   9.065  0.1871 -0.0795  0.2496
  157loPI   C4A 2506  10.510   2.676   8.621 -0.1029  0.1862 -0.0457
  157loPI   C5A 2507  10.274   2.788   8.208 -0.0190  0.1595 -0.0201
  157loPI   C6A 2508  10.433   2.823   7.783 -0.2848 -0.0169  0.0623
  157loPI   C1B 2509  10.831   1.996   9.769  0.1960  0.1944 -0.3233
  157loPI   C2B 2510  10.732   2.018   9.472  0.1281 -0.2706 -0.2638
  157loPI   C3B 2511  10.648   1.836   9.129  0.0847  0.1302 -0.3553
  157loPI   C4B 2512  10.587   1.734   8.773  0.0659  0.1715  0.1797
  158loPI    C1 2513   2.445  11.316  11.283  0.0551  0.1366  0.2275
  158loPI    C2 2514   2.327  10.947  11.381  0.1004  0.0255 -0.1210
  158loPI    C3 2515   2.492  11.184  11.658 -0.0005 -0.1851  0.1244
  158loPI   PO4 2516   2.287  11.348  11.018  0.0540  0.3134 -0.0453
  158loPI   GL1 2517   2.405  11.361  10.593  0.4288 -0.2402  0.0225
  158loPI   GL2 2518   2.057  11.201  10.578  0.0639  0.0786 -0.2232
  158loPI   C1A 2519   2.372  11.124  10.166 -0.0820  0.5777  0.2630
  158loPI   C2A 2520   2.080  11.062   9.882  0.0588 -0.1350 -0.0432
  158loPI   C3A 2521   2.147  10.781   9.517 -0.3261 -0.3262 -0.1095
  158loPI   C4A 2522   1.944  10.706   9.100  0.1928  0.0675 -0.0687
  158loPI   C5A 2523   1.664  10.369   8.892 -0.4738 -0.2016  0.0046
  158loPI   C6A 2524   1.613  10.200   8.582  0.1076 -0.0557 -0.2913
  158loPI   C1B 2525   1.874  11.323  10.252 -0.2303 -0.0215 -0.1592
  158loPI   C2B 2526   1.756  11.396   9.862  0.0497  0.0643  0.2971
  158loPI   C3B 2527   1.541  11.587   9.573 -0.0822  0.1445  0.0958
  158loPI   C4B 2528   1.175  11.780   9.776  0.0447 -0.1820  0.0766
  159loPI    C1 2529   8.574  17.366  11.088 -0.0396 -0.0091  0.1908
  159loPI    C2 2530   8.473  17.349  11.475  0.1146 -0.1083  0.2278
  159loPI    C3 2531   8.382  17.046  11.231  0.1399 -0.1067  0.2164
  159loPI   PO4 2532   8.429  17.575  11.018 -0.0354 -0.0615 -0.2201
  159loPI   GL1 2533   8.307  17.882  10.638 -0.3156 -0.0631 -0.1277
  159loPI   GL2 2534   8.036  17.868  10.726  0.2225 -0.1480  0.2214
  159loPI   C1A 2535   8.502  17.823  10.171  0.0444  0.1117  0.0917
  159loPI   C2A 2536   8.454  17.878   9.708 -0.0952  0.1068  0.1907
  159loPI   C3A 2537   8.464  17.957   9.212 -0.0951 -0.1328 -0.2987
  159loPI   C4A 2538   8.529  18.066   8.741 -0.1237  0.0841 -0.0981
  159loPI   C5A 2539   8.329  18.439   8.575  0.2206  0.0551  0.1306
  159loPI   C6A 2540   8.613  18.749   8.318 -0.0413 -0.1712 -0.0696
  159loPI   C1B 2541   7.718  17.684  10.368  0.1793  0.0581 -0.1572
  159loPI   C2B 2542   7.570  17.418   9.919  0.2248 -0.0550  0.0457
  159loPI   C3B 2543   7.576  17.521   9.414 -0.2353 -0.0607  0.1175
  159loPI   C4B 2544   7.486  17.826   9.122  0.0568  0.1293  0.0640
  160loPI    C1 2545  10.398  17.477  10.839  0.1633 -0.0670 -0.0049
  160loPI    C2 2546  10.461  17.594  11.216 -0.1261 -0.2960  0.1186
  160loPI    C3 2547  10.095  17.482  11.100 -0.0140 -0.3429 -0.1992
  160loPI   PO4 2548  10.530  17.576  10.679 -0.0428 -0.0954 -0.2379
  160loPI   GL1 2549  10.467  17.690  10.204  0.4214 -0.1481  0.0725
  160loPI   GL2 2550  10.707  17.841  10.033 -0.1024  0.0594  0.0810
  160loPI   C1A 2551  10.292  17.512   9.740  0.1404 -0.2241  0.2692
  160loPI   C2A 2552  10.062  17.629   9.346 -0.6139 -0.0385  0.2472
  160loPI   C3A 2553   9.971  17.425   8.935 -0.1001 -0.1066  0.3310
  160loPI   C4A 2554   9.775  17.062   8.686 -0.1073 -0.1746 -0.3297
  160loPI   C5A 2555   9.442  16.888   8.846  0.0710  0.1268 -0.2646
  160loPI   C6A 2556   9.173  16.598   9.174 -0.1929 -0.1820  0.1875
  160loPI   C1B 2557  10.838  17.847   9.671  0.1496 -0.0042  0.2196
  160loPI   C2B 2558  10.594  17.741   9.299 -0.0636 -0.4009  0.1834
  160loPI   C3B 2559  10.333  17.970   9.021 -0.0266 -0.0621 -0.1267
  160loPI   C4B 2560  10.017  17.906   8.706 -0.0275  0.0860  0.0567
  161loPI    C1 2561   3.422  10.322  11.383  0.0229  0.3297 -0.1991
  161loPI    C2 2562   3.296  10.686  11.490  0.2778  0.3482  0.0508
  161loPI    C3 2563   3.427  10.430  11.768 -0.2644 -0.0832 -0.0730
  161loPI   PO4 2564   3.568  10.300  11.240 -0.1022  0.1889  0.0216
  161loPI   GL1 2565   3.643  10.277  10.806 -0.0196 -0.1517  0.2435
  161loPI   GL2 2566   3.566   9.999  10.821 -0.1618 -0.2519 -0.3115
  161loPI   C1A 2567   3.432  10.465  10.352  0.0487 -0.0674 -0.1171
  161loPI   C2A 2568   3.442  10.547   9.898 -0.3216  0.2646  0.0863
  161loPI   C3A 2569   3.772  10.638   9.579 -0.0759  0.1668  0.2658
  161loPI   C4A 2570   3.759  10.821   9.200 -0.0964  0.2774  0.3672
  161loPI   C5A 2571   4.218  10.984   9.114 -0.0861 -0.0073  0.2166
  161loPI   C6A 2572   4.595  11.011   8.936  0.1391  0.1607  0.0140
  161loPI   C1B 2573   3.831   9.886  10.341  0.0184 -0.1595 -0.3360
  161loPI   C2B 2574   3.724   9.982   9.891 -0.0256 -0.0829  0.0390
  161loPI   C3B 2575   3.521  10.179   9.551  0.0191 -0.0863 -0.2384
  161loPI   C4B 2576   3.480  10.326   9.092  0.0514 -0.0774  0.3932
  162loPI    C1 2577   1.801  13.030  11.087 -0.0512  0.0015  0.0376
  162loPI    C2 2578   2.080  12.866  11.322  0.0702  0.1563  0.0033
  162loPI    C3 2579   1.770  12.647  11.197  0.1083  0.0188  0.1467
  162loPI   PO4 2580   1.943  13.235  10.926  0.0460  0.1294 -0.0024
  162loPI   GL1 2581   2.169  13.127  10.515 -0.1801 -0.0840  0.1505
  162loPI   GL2 2582   2.328  13.381  10.550  0.2291  0.2156  0.2972
  162loPI   C1A 2583   2.045  12.859  10.097 -0.2285 -0.0372 -0.1300
  162loPI   C2A 2584   2.476  12.568   9.939 -0.5448  0.0562  0.1967
  162loPI   C3A 2585   2.676  12.574   9.544  0.0990  0.0580  0.1678
  162loPI   C4A 2586   2.739  12.341   9.261 -0.0580  0.0224  0.0657
  162loPI   C5A 2587   3.003  12.325   8.851  0.2637  0.0478 -0.2525
  162loPI   C6A 2588   3.394  12.428   8.611  0.0753 -0.1679  0.2693
  162loPI   C1B 2589   2.151  13.442  10.165 -0.0149 -0.1719  0.1691
  162loPI   C2B 2590   2.091  13.447   9.803 -0.0479 -0.0570  0.1834
  162loPI   C3B 2591   2.202  13.653   9.455 -0.2718 -0.3976 -0.0970
  162loPI   C4B 2592   2.401  13.821   9.056  0.0044 -0.3820  0.2495
  163loPI    C1 2593   9.049   3.701  11.594 -0.0870  0.1006 -0.0905
  163loPI    C2 2594   9.202   3.883  11.916  0.0529  0.1099 -0.1613
  163loPI    C3 2595   8.991   3.545  11.958 -0.0626  0.1957 -0.0456
  163loPI   PO4 2596   8.891   3.842  11.466 -0.0654  0.0274  0.1781
  163loPI   GL1 2597   8.870   3.920  11.104  0.0490 -0.0961  0.0245
  163loPI   GL2 2598   9.196   3.857  10.888  0.0612 -0.0965 -0.0091
  163loPI   C1A 2599   8.687   4.022  10.822 -0.1057  0.0542  0.4781
  163loPI   C2A 2600   8.714   4.053  10.359  0.0316  0.0081 -0.2106
  163loPI   C3A 2601   8.720   4.048   9.851  0.0762  0.0469  0.0039
  163loPI   C4A 2602   8.635   4.026   9.388  0.2906 -0.0165 -0.0716
  163loPI   C5A 2603   8.598   4.072   8.978 -0.1598  0.1518 -0.1514
  163loPI   C6A 2604   8.684   4.030   8.540 -0.0241  0.0352 -0.3978
  163loPI   C1B 2605   9.199   3.989  10.532 -0.0704 -0.0521  0.0661
  163loPI   C2B 2606   9.293   4.125  10.104  0.2754 -0.0598  0.2487
  163loPI   C3B 2607   9.171   4.091   9.624 -0.0617 -0.1691 -0.2365
  163loPI   C4B 2608   9.226   4.121   9.141  0.0187 -0.2185 -0.1786
  164loPI    C1 2609   6.427   0.293  11.111  0.0430  0.2152  0.0357
  164loPI    C2 2610   6.214   0.281  11.450  0.1212 -0.0188  0.0782
  164loPI    C3 2611   6.574   0.107  11.433  0.1656  0.0872 -0.0929
  164loPI   PO4 2612   6.151   0.246  10.887 -0.0016 -0.0327  0.4590
  164loPI   GL1 2613   5.820   0.437  10.627  0.4902 -0.0455  0.0288
  164loPI   GL2 2614   5.635   0.703  10.599 -0.0770 -0.1338  0.1110
  164loPI   C1A 2615   5.838   0.350  10.143  0.0598 -0.2755  0.0685
  164loPI   C2A 2616   5.869   0.447   9.730  0.3923 -0.3188 -0.0495
  164loPI   C3A 2617   5.804   0.563   9.322 -0.0318 -0.2401  0.0570
  164loPI   C4A 2618   5.963   0.487   8.911 -0.1202 -0.4408  0.0427
  164loPI   C5A 2619   6.057   0.130   8.649 -0.2893 -0.2887 -0.0447
  164loPI   C6A 2620   6.094  -0.155   8.274  0.0084 -0.1768  0.0356
  164loPI   C1B 2621   5.574   0.796  10.208  0.2250 -0.0973 -0.3564
  164loPI   C2B 2622   5.444   0.912   9.793  0.1150 -0.2395 -0.1880
  164loPI   C3B 2623   5.406   1.004   9.275 -0.2050  0.1906 -0.0329
  164loPI   C4B 2624   5.140   1.098   8.811  0.2234 -0.3004 -0.2376
  165loPI    C1 2625   4.641   3.830  11.547 -0.0278 -0.0495 -0.0597
  165loPI    C2 2626   4.354   3.756  11.278 -0.2584  0.3909  0.0566
  165loPI    C3 2627   4.372   3.542  11.616 -0.0595 -0.0624 -0.2330
  165loPI   PO4 2628   4.645   4.156  11.417  0.0573  0.2187  0.2896
  165loPI   GL1 2629   4.704   4.598  10.984 -0.0556  0.1543  0.1032
  165loPI   GL2 2630   4.371   4.545  10.768  0.4790 -0.1420 -0.2818
  165loPI   C1A 2631   4.957   4.340  10.580  0.0915  0.1275 -0.2205
  165loPI   C2A 2632   5.016   4.535  10.214 -0.0230 -0.0902 -0.1205
  165loPI   C3A 2633   5.079   4.530   9.766 -0.0840  0.1735  0.1797
  165loPI   C4A 2634   4.967   4.519   9.390 -0.2377 -0.0595 -0.0896
  165loPI   C5A 2635   5.034   4.598   8.922  0.0134 -0.1559 -0.3485
  165loPI   C6A 2636   5.222   4.576   8.486 -0.0940  0.2021 -0.3465
  165loPI   C1B 2637   4.462   4.421  10.342 -0.2091  0.1488 -0.1230
  165loPI   C2B 2638   4.598   4.424   9.932 -0.2934  0.0856  0.1622
  165loPI   C3B 2639   4.495   4.407   9.471 -0.1048 -0.0431  0.1542
  165loPI   C4B 2640   4.504   4.469   9.013  0.1208  0.0289  0.0048
  166loPI    C1 2641   7.801   4.721  11.538 -0.2915 -0.1093  0.0715
  166loPI    C2 2642   7.853   4.474  11.848 -0.1679 -0.2275 -0.0421
  166loPI    C3 2643   8.127   4.491  11.557 -0.0095  0.2838  0.1264
  166loPI   PO4 2644   7.584   4.759  11.427  0.2197 -0.3557  0.0943
  166loPI   GL1 2645   7.356   4.797  11.044 -0.0024  0.0592  0.2878
  166loPI   GL2 2646   7.032   4.897  11.079 -0.0105  0.0009  0.1866
  166loPI   C1A 2647   7.586   4.816  10.491 -0.3249  0.0460 -0.1393
  166loPI   C2A 2648   7.509   4.817  10.011 -0.0822 -0.1899 -0.0978
  166loPI   C3A 2649   7.638   4.849   9.556 -0.0485 -0.1328 -0.0795
  166loPI   C4A 2650   7.503   4.775   9.178 -0.3738  0.1718 -0.2672
  166loPI   C5A 2651   7.576   4.787   8.753  0.0742 -0.1724 -0.0315
  166loPI   C6A 2652   7.638   4.720   8.313 -0.0251  0.0285  0.0705
  166loPI   C1B 2653   7.097   4.823  10.612  0.0472 -0.2671  0.0937
  166loPI   C2B 2654   7.020   4.770  10.172 -0.1564  0.2933  0.0560
  166loPI   C3B 2655   7.117   4.699   9.807  0.0064 -0.2160  0.0652
  166loPI   C4B 2656   7.054   4.849   9.385  0.0869  0.0497  0.0808
  167loPI    C1 2657   1.651  14.168  10.912  0.2093  0.1711 -0.0749
  167loPI    C2 2658   1.758  13.829  11.095  0.0215  0.1673  0.0300
  167loPI    C3 2659   1.893  14.180  11.230  0.0084  0.1530  0.0803
  167loPI   PO4 2660   1.630  14.115  10.684  0.2395  0.1807  0.0480
  167loPI   GL1 2661   1.448  13.729  10.434 -0.0498 -0.1706 -0.0916
  167loPI   GL2 2662   1.585  13.932  10.204 -0.0221 -0.0170  0.0638
  167loPI   C1A 2663   1.144  13.587  10.089  0.0260  0.1371 -0.1572
  167loPI   C2A 2664   0.932  13.330   9.732 -0.2309 -0.3616 -0.0957
  167loPI   C3A 2665   0.853  13.144   9.345  0.2001 -0.0112 -0.1604
  167loPI   C4A 2666   1.116  13.248   8.957  0.0142 -0.2194 -0.1296
  167loPI   C5A 2667   1.223  13.469   8.624 -0.0350 -0.1230 -0.3438
  167loPI   C6A 2668   1.270  13.587   8.230 -0.1849  0.0010  0.3054
  167loPI   C1B 2669   1.500  13.963   9.790 -0.1193  0.0189 -0.1387
  167loPI   C2B 2670   1.703  13.879   9.423  0.1512 -0.2040  0.2304
  167loPI   C3B 2671   1.843  13.684   9.082  0.2316  0.0561  0.2054
  167loPI   C4B 2672   1.905  13.339   8.685  0.0115 -0.2152  0.1801
  168loPI    C1 2673  11.523  10.501  10.823 -0.0195 -0.0952 -0.2440
  168loPI    C2 2674  11.357  10.263  11.098 -0.0731 -0.0483 -0.2357
  168loPI    C3 2675  11.751  10.330  11.104 -0.1070  0.1425 -0.0244
  168loPI   PO4 2676  11.404  10.749  10.839  0.0169  0.2457  0.1307
  168loPI   GL1 2677  11.093  10.907  10.597 -0.6638  0.1449  0.1621
  168loPI   GL2 2678  10.875  10.686  10.468 -0.1609 -0.0403  0.0326
  168loPI   C1A 2679  11.273  10.802  10.190  0.2717 -0.0034  0.4510
  168loPI   C2A 2680  11.230  10.690   9.679 -0.0148 -0.0158  0.0843
  168loPI   C3A 2681  11.132  10.974   9.355  0.1308  0.3355 -0.2783
  168loPI   C4A 2682  10.771  11.126   9.172  0.0846 -0.0179  0.1567
  168loPI   C5A 2683  10.417  11.064   9.176  0.0901 -0.0737 -0.1957
  168loPI   C6A 2684  10.074  11.081   8.915  0.3506  0.1089 -0.0956
  168loPI   C1B 2685  10.964  10.396  10.153 -0.1558  0.1168 -0.0555
  168loPI   C2B 2686  10.991  10.269   9.736 -0.1881  0.1450 -0.1652
  168loPI   C3B 2687  10.966   9.959   9.363  0.2123  0.2290  0.1947
  168loPI   C4B 2688  11.099   9.829   8.920 -0.0634  0.2163 -0.0742
  169loPI    C1 2689   3.304   5.826  11.622 -0.1207 -0.1477  0.1178
  169loPI    C2 2690   3.088   5.582  11.854 -0.0585 -0.1039  0.2229
  169loPI    C3 2691   3.481   5.521  11.811 -0.0889 -0.1782  0.0393
  169loPI   PO4 2692   3.287   5.793  11.309 -0.0110  0.2974  0.1967
  169loPI   GL1 2693   3.109   5.989  11.058 -0.1081  0.2313  0.0987
  169loPI   GL2 2694   2.852   5.987  10.778  0.0656 -0.1280 -0.1674
  169loPI   C1A 2695   3.243   6.338  10.695  0.4708 -0.0476  0.0488
  169loPI   C2A 2696   3.406   6.268  10.349  0.1567  0.1644  0.0922
  169loPI   C3A 2697   3.297   6.240   9.881  0.1071  0.0432  0.1440
  169loPI   C4A 2698   3.294   6.126   9.510  0.2327  0.0126 -0.1457
  169loPI   C5A 2699   3.407   6.127   9.052  0.1071  0.1024  0.0381
  169loPI   C6A 2700   3.452   6.218   8.691  0.0396 -0.1562 -0.3173
  169loPI   C1B 2701   2.806   6.143  10.303 -0.0612 -0.0199 -0.0984
  169loPI   C2B 2702   2.831   6.148   9.858 -0.2170 -0.1706  0.3673
  169loPI   C3B 2703   2.737   6.217   9.441 -0.0163 -0.2002 -0.3464
  169loPI   C4B 2704   2.929   6.078   9.043  0.0117  0.0445  0.4160
  170loPI    C1 2705   6.287  10.329  11.506  0.2393  0.1153  0.1714
  170loPI    C2 2706   6.203  10.527  11.843  0.1449  0.1722  0.1147
  170loPI    C3 2707   6.367  10.163  11.861 -0.1289  0.0516  0.2286
  170loPI   PO4 2708   6.287  10.594  11.261 -0.3175  0.0582 -0.1714
  170loPI   GL1 2709   6.526  10.670  10.843 -0.4115  0.0649 -0.1147
  170loPI   GL2 2710   6.778  10.631  10.766 -0.3007  0.0602  0.1731
  170loPI   C1A 2711   6.305  10.567  10.564 -0.0173  0.1290 -0.1417
  170loPI   C2A 2712   6.242  10.570  10.164  0.1593  0.0429  0.1679
  170loPI   C3A 2713   6.104  10.662   9.703  0.2802 -0.0259 -0.4010
  170loPI   C4A 2714   6.330  10.640   9.308 -0.2127 -0.1648 -0.1570
  170loPI   C5A 2715   6.647  10.417   8.954 -0.0507 -0.0058 -0.3396
  170loPI   C6A 2716   7.066  10.406   9.107  0.0141 -0.1466 -0.0411
  170loPI   C1B 2717   6.783  10.620  10.416  0.0991  0.1562  0.2624
  170loPI   C2B 2718   6.879  10.302  10.105 -0.0190 -0.2401  0.0726
  170loPI   C3B 2719   6.882  10.035   9.884 -0.1142  0.0800  0.3064
  170loPI   C4B 2720   6.875   9.675   9.676 -0.0698  0.1133 -0.2644
  171loPI    C1 2721   8.464   6.724  12.013  0.2707 -0.0775 -0.0175
  171loPI    C2 2722   8.233   7.028  12.134  0.2489 -0.0106 -0.2238
  171loPI    C3 2723   8.568   6.940  12.334  0.0428 -0.1143  0.0828
  171loPI   PO4 2724   8.350   6.720  11.716  0.0606 -0.1311 -0.1447
  171loPI   GL1 2725   8.213   6.800  11.281  0.1380 -0.0293  0.2868
  171loPI   GL2 2726   8.423   7.024  11.173 -0.2216 -0.1330  0.1158
  171loPI   C1A 2727   8.352   6.613  10.934  0.1187 -0.0564 -0.3298
  171loPI   C2A 2728   8.479   6.748  10.543  0.1207  0.3007  0.2535
  171loPI   C3A 2729   8.440   6.759  10.077  0.1081 -0.1227 -0.0971
  171loPI   C4A 2730   8.390   6.685   9.557 -0.0328 -0.1231  0.0950
  171loPI   C5A 2731   8.505   6.724   9.195  0.0806  0.3331 -0.1618
  171loPI   C6A 2732   8.447   6.557   8.708 -0.1994  0.1871 -0.0816
  171loPI   C1B 2733   8.165   7.064  10.832  0.0556 -0.0173 -0.1656
  171loPI   C2B 2734   8.195   7.156  10.355  0.1491  0.1108  0.2740
  171loPI   C3B 2735   8.253   7.281   9.935  0.0849 -0.1150 -0.0542
  171loPI   C4B 2736   8.131   7.102   9.537 -0.2971 -0.0050  0.3282
  172loPI    C1 2737   5.570   9.743  11.483  0.1176  0.0129 -0.0980
  172loPI    C2 2738   5.240   9.520  11.444  0.1314 -0.0169 -0.0453
  172loPI    C3 2739   5.283   9.761  11.761  0.0682  0.1423 -0.1562
  172loPI   PO4 2740   5.613   9.876  11.182 -0.4277 -0.0156 -0.1919
  172loPI   GL1 2741   5.562  10.028  10.788 -0.0666  0.3553  0.1624
  172loPI   GL2 2742   5.270  10.140  10.625 -0.2829 -0.2436  0.2033
  172loPI   C1A 2743   5.700   9.817  10.475 -0.3646  0.0365 -0.0647
  172loPI   C2A 2744   5.811   9.736  10.008 -0.1337 -0.3585  0.0588
  172loPI   C3A 2745   5.842   9.791   9.566 -0.0630  0.1572 -0.2798
  172loPI   C4A 2746   5.874   9.811   9.106 -0.0005 -0.0633 -0.4036
  172loPI   C5A 2747   5.804   9.577   8.783  0.0749 -0.0608 -0.4058
  172loPI   C6A 2748   5.763   9.233   8.519  0.1487 -0.0638  0.2140
  172loPI   C1B 2749   5.357  10.167  10.237 -0.0680 -0.1239 -0.2255
  172loPI   C2B 2750   5.355  10.068   9.734 -0.0808 -0.0409  0.0521
  172loPI   C3B 2751   5.467  10.049   9.245  0.0808  0.1797 -0.0502
  172loPI   C4B 2752   5.399   9.806   8.906  0.1503 -0.1466  0.0441
  173loPI    C1 2753   0.150   2.890  10.786 -0.1809 -0.3468 -0.1117
  173loPI    C2 2754   0.419   2.737  11.039  0.0121  0.3035  0.0953
  173loPI    C3 2755   0.028   2.697  11.115  0.0508 -0.1932  0.0671
  173loPI   PO4 2756   0.329   2.909  10.567  0.5455 -0.0725 -0.1163
  173loPI   GL1 2757   0.428   2.704  10.228 -0.1790  0.2689 -0.0764
  173loPI   GL2 2758   0.720   2.681  10.176  0.3143  0.0757 -0.1400
  173loPI   C1A 2759   0.336   2.826   9.805  0.4152 -0.3169 -0.2570
  173loPI   C2A 2760   0.372   3.168   9.373  0.1789  0.2598 -0.1137
  173loPI   C3A 2761   0.437   3.283   9.016 -0.1229 -0.0023  0.0295
  173loPI   C4A 2762   0.315   3.466   8.705  0.0667 -0.0754 -0.0312
  173loPI   C5A 2763   0.189   3.782   8.380  0.1395  0.0487 -0.0214
  173loPI   C6A 2764   0.476   4.159   8.217 -0.1713 -0.1569  0.1883
  173loPI   C1B 2765   0.767   2.439   9.894  0.3793 -0.0220 -0.1706
  173loPI   C2B 2766   0.859   2.217   9.434  0.1041 -0.0253 -0.1905
  173loPI   C3B 2767   1.015   2.130   9.018 -0.1425  0.0802 -0.2735
  173loPI   C4B 2768   0.788   1.913   8.596  0.1983  0.0485 -0.3680
  174loPI    C1 2769  10.852  16.765  11.179  0.1827 -0.0558 -0.1504
  174loPI    C2 2770  11.222  16.637  11.264  0.0733 -0.2260  0.0813
  174loPI    C3 2771  10.978  16.754  11.559 -0.0325 -0.0397 -0.0771
  174loPI   PO4 2772  10.946  16.786  10.849  0.0481 -0.2867 -0.0370
  174loPI   GL1 2773  10.951  16.762  10.443  0.1995 -0.1082 -0.1030
  174loPI   GL2 2774  10.602  16.510  10.435 -0.1483 -0.0012  0.0679
  174loPI   C1A 2775  10.709  16.899  10.035 -0.0762  0.2902  0.1666
  174loPI   C2A 2776  10.627  16.823   9.617  0.0625 -0.1071 -0.1019
  174loPI   C3A 2777  10.681  16.890   9.290 -0.1050 -0.2857  0.0890
  174loPI   C4A 2778  10.674  16.804   8.827 -0.1035  0.1305  0.1122
  174loPI   C5A 2779  10.866  16.538   8.604 -0.1710  0.0054 -0.0384
  174loPI   C6A 2780  10.891  16.277   8.236 -0.0578 -0.0319 -0.0687
  174loPI   C1B 2781  10.757  16.327  10.073  0.0538 -0.2442 -0.1282
  174loPI   C2B 2782  11.034  16.496   9.895 -0.0202 -0.2428  0.3872
  174loPI   C3B 2783  10.935  16.428   9.484  0.3016  0.2267 -0.1093
  174loPI   C4B 2784  10.856  16.444   9.086 -0.0378 -0.0909  0.0489
  175loPI    C1 2785   5.741   0.109  11.083  0.1888  0.1084 -0.0393
  175loPI    C2 2786   5.783   0.501  11.153 -0.0613  0.1765 -0.2556
  175loPI    C3 2787   5.730   0.248  11.458  0.3201  0.2802 -0.0973
  175loPI   PO4 2788   5.529   0.011  10.932 -0.0943  0.1836  0.2087
  175loPI   GL1 2789   5.436   0.079  10.589  0.0052 -0.0472 -0.1414
  175loPI   GL2 2790   5.281   0.368  10.461 -0.1141 -0.0500 -0.0192
  175loPI   C1A 2791   5.267  -0.071  10.183 -0.2089 -0.1866 -0.0880
  175loPI   C2A 2792   5.186  -0.062   9.772  0.2831  0.0101  0.0968
  175loPI   C3A 2793   5.146  -0.291   9.322 -0.0138 -0.3022  0.1149
  175loPI   C4A 2794   4.835  -0.366   9.061  0.0968  0.0126 -0.2225
  175loPI   C5A 2795   4.668  -0.346   8.580 -0.1075  0.0051  0.3072
  175loPI   C6A 2796   4.454  -0.329   8.259 -0.2679 -0.0856  0.3969
  175loPI   C1B 2797   5.389   0.398  10.018  0.0890  0.4127  0.1537
  175loPI   C2B 2798   5.369   0.446   9.522  0.0560 -0.1203  0.0497
  175loPI   C3B 2799   5.267   0.577   9.107 -0.1603  0.1521  0.0090
  175loPI   C4B 2800   5.490   0.731   8.833  0.0542 -0.0297  0.0589
  176loPI    C1 2801   6.185   8.969  11.530  0.0197 -0.2912  0.0597
  176loPI    C2 2802   6.203   8.929  11.928 -0.0182 -0.2037  0.0703
  176loPI    C3 2803   6.108   9.282  11.766 -0.0004 -0.2384 -0.0166
  176loPI   PO4 2804   6.379   8.897  11.364  0.2341 -0.1769 -0.5433
  176loPI   GL1 2805   6.513   8.686  11.180  0.0133 -0.0203  0.0540
  176loPI   GL2 2806   6.747   8.495  11.056 -0.4032 -0.1909 -0.1405
  176loPI   C1A 2807   6.546   8.800  10.715 -0.3197  0.1393  0.2759
  176loPI   C2A 2808   6.410   8.831  10.283 -0.0276  0.0297  0.0557
  176loPI   C3A 2809   6.583   8.735   9.821 -0.0293  0.2550 -0.1119
  176loPI   C4A 2810   6.520   8.676   9.388  0.4058 -0.0723  0.0083
  176loPI   C5A 2811   6.277   8.992   9.152  0.1263  0.3692  0.0268
  176loPI   C6A 2812   5.927   9.301   9.193 -0.2321 -0.2127  0.1921
  176loPI   C1B 2813   6.583   8.231  10.758  0.1598  0.2094 -0.0263
  176loPI   C2B 2814   6.504   7.994  10.359 -0.0667  0.1681 -0.2048
  176loPI   C3B 2815   6.560   7.815   9.937  0.0215  0.0892  0.1619
  176loPI   C4B 2816   6.535   7.842   9.502 -0.1281 -0.2779 -0.2233
  177loPI    C1 2817   7.927   5.386  11.875  0.3276  0.0609  0.0280
  177loPI    C2 2818   7.793   5.034  12.011  0.0084  0.2099  0.1077
  177loPI    C3 2819   8.030   5.261  12.241  0.0266  0.1515  0.1466
  177loPI   PO4 2820   7.922   5.359  11.572 -0.0373  0.0924  0.1354
  177loPI   GL1 2821   8.065   5.449  11.121  0.3068  0.0553 -0.0641
  177loPI   GL2 2822   8.113   5.769  11.024 -0.0861 -0.3038  0.0085
  177loPI   C1A 2823   7.796   5.286  10.676 -0.1197  0.1437  0.0984
  177loPI   C2A 2824   7.848   5.259  10.262  0.1560  0.2052 -0.2483
  177loPI   C3A 2825   7.700   5.329   9.852 -0.1798  0.0442  0.2353
  177loPI   C4A 2826   7.756   5.378   9.439 -0.0160 -0.2845 -0.2136
  177loPI   C5A 2827   7.778   5.289   9.015 -0.2973  0.0348 -0.0759
  177loPI   C6A 2828   7.700   5.229   8.616  0.2290  0.0241  0.2146
  177loPI   C1B 2829   8.036   5.719  10.541 -0.0312 -0.1917  0.1499
  177loPI   C2B 2830   7.971   5.741  10.050 -0.2717  0.5042  0.0579
  177loPI   C3B 2831   7.917   5.828   9.540  0.1334  0.3165  0.1278
  177loPI   C4B 2832   7.925   5.848   9.099 -0.1705  0.3026 -0.2696
  178loPI    C1 2833   6.971  15.347  11.081 -0.0184 -0.1601 -0.0857
  178loPI    C2 2834   6.885  14.994  11.248 -0.1387 -0.0784  0.0265
  178loPI    C3 2835   6.630  15.301  11.284  0.0211  0.0551  0.0332
  178loPI   PO4 2836   6.985  15.300  10.827 -0.2332  0.1466  0.1266
  178loPI   GL1 2837   6.825  15.182  10.383 -0.1854 -0.1182 -0.0700
  178loPI   GL2 2838   6.793  15.505  10.327  0.5294  0.1040 -0.0638
  178loPI   C1A 2839   6.677  15.212   9.918  0.0468 -0.0125 -0.1872
  178loPI   C2A 2840   6.645  15.481   9.584 -0.0323  0.3639  0.0014
  178loPI   C3A 2841   6.606  15.855   9.471  0.0535 -0.3480  0.0478
  178loPI   C4A 2842   6.823  16.065   9.079  0.2024  0.3478 -0.1680
  178loPI   C5A 2843   6.669  16.037   8.622 -0.0884  0.0073 -0.1490
  178loPI   C6A 2844   6.860  16.004   8.280  0.2679  0.0718  0.3091
  178loPI   C1B 2845   7.147  15.409   9.991 -0.0339 -0.0965  0.0750
  178loPI   C2B 2846   7.414  15.460   9.708  0.0502 -0.0162  0.0645
  178loPI   C3B 2847   7.609  15.427   9.326 -0.3154  0.2772 -0.0230
  178loPI   C4B 2848   8.020  15.557   9.013 -0.2832 -0.4453 -0.0023
  179loPI    C1 2849   8.375  14.330  11.379 -0.2072  0.3267 -0.2345
  179loPI    C2 2850   8.540  14.663  11.526  0.0432  0.0668  0.0869
  179loPI    C3 2851   8.773  14.362  11.404 -0.1817  0.0053 -0.1986
  179loPI   PO4 2852   8.189  14.495  11.103  0.0868  0.2044  0.1122
  179loPI   GL1 2853   8.320  14.462  10.655 -0.3142 -0.1306  0.0554
  179loPI   GL2 2854   8.558  14.265  10.426  0.1712  0.0872 -0.1885
  179loPI   C1A 2855   8.136  14.633  10.289  0.0518 -0.1498  0.0605
  179loPI   C2A 2856   8.077  14.521   9.886 -0.1469 -0.2132 -0.0775
  179loPI   C3A 2857   8.190  14.164   9.660 -0.0188  0.1850 -0.2000
  179loPI   C4A 2858   8.049  14.091   9.280  0.0896 -0.1787  0.0694
  179loPI   C5A 2859   7.890  13.885   8.858 -0.0812 -0.0777  0.0829
  179loPI   C6A 2860   7.862  13.497   8.887  0.0133  0.0757 -0.0166
  179loPI   C1B 2861   8.533  14.013  10.099  0.1007 -0.0501 -0.0899
  179loPI   C2B 2862   8.538  13.819   9.594 -0.1974 -0.5423  0.1229
  179loPI   C3B 2863   8.378  13.760   9.110  0.2152  0.0797  0.2062
  179loPI   C4B 2864   8.308  13.673   8.668  0.0941  0.3136  0.1289
  180loPI    C1 2865   5.036  17.312  10.935  0.1304  0.0161 -0.0606
  180loPI    C2 2866   5.084  17.706  10.886  0.0433  0.0458  0.0879
  180loPI    C3 2867   4.864  17.567  11.190 -0.0121 -0.1149 -0.0239
  180loPI   PO4 2868   4.976  17.191  10.654 -0.0682 -0.0670  0.0175
  180loPI   GL1 2869   4.865  17.394  10.241  0.0664  0.3071 -0.3934
  180loPI   GL2 2870   5.026  17.045  10.171 -0.0226 -0.0259 -0.0545
  180loPI   C1A 2871   4.954  17.460   9.814 -0.0545 -0.2707 -0.2138
  180loPI   C2A 2872   4.884  17.240   9.444 -0.0501 -0.2164  0.0949
  180loPI   C3A 2873   4.839  17.102   9.046 -0.0074  0.0079 -0.2849
  180loPI   C4A 2874   4.708  17.060   8.577 -0.1989 -0.1472 -0.1579
  180loPI   C5A 2875   4.388  17.058   8.300 -0.0355  0.0971 -0.0066
  180loPI   C6A 2876   3.972  17.312   8.207  0.3166 -0.1101 -0.1254
  180loPI   C1B 2877   5.215  16.966   9.792  0.0223  0.1438 -0.1022
  180loPI   C2B 2878   5.298  16.997   9.294  0.0650 -0.3400 -0.0970
  180loPI   C3B 2879   5.240  17.321   8.947  0.3063  0.0003 -0.2188
  180loPI   C4B 2880   5.182  17.411   8.527  0.1222 -0.0234  0.0620
  181loPI    C1 2881   5.583   7.677  11.355  0.0009 -0.3865  0.0101
  181loPI    C2 2882   5.943   7.758  11.201 -0.0846 -0.2094 -0.1007
  181loPI    C3 2883   5.914   7.569  11.553  0.1192 -0.0027  0.0300
  181loPI   PO4 2884   5.497   7.552  11.255 -0.2064 -0.3375  0.1689
  181loPI   GL1 2885   5.489   7.317  10.839  0.1652  0.1291 -0.4821
  181loPI   GL2 2886   5.554   6.969  10.987 -0.1228  0.3120  0.2773
  181loPI   C1A 2887   5.350   7.327  10.486  0.1486 -0.1898  0.0850
  181loPI   C2A 2888   5.324   7.311  10.041  0.4190  0.0264  0.2672
  181loPI   C3A 2889   5.294   7.244   9.624  0.0502  0.1698 -0.2624
  181loPI   C4A 2890   5.230   7.273   9.140  0.0276 -0.2177 -0.4404
  181loPI   C5A 2891   5.493   7.326   8.707 -0.1489  0.1811 -0.0450
  181loPI   C6A 2892   5.864   7.261   8.590 -0.0322 -0.0602 -0.2116
  181loPI   C1B 2893   5.773   6.956  10.560 -0.1821  0.1130  0.5240
  181loPI   C2B 2894   5.652   6.924  10.133  0.0739  0.2344 -0.0837
  181loPI   C3B 2895   5.516   6.828   9.720 -0.1520  0.2865  0.0248
  181loPI   C4B 2896   5.561   6.880   9.148 -0.0857 -0.1474 -0.1371
  182loPI    C1 2897   9.464   1.098  10.871 -0.0766  0.1641 -0.0227
  182loPI    C2 2898   9.761   1.189  11.123  0.0961  0.0106 -0.1678
  182loPI    C3 2899   9.432   1.415  11.112  0.3011  0.3149 -0.1619
  182loPI   PO4 2900   9.555   1.101  10.548  0.4026  0.0219  0.1807
  182loPI   GL1 2901   9.550   0.831  10.216 -0.1463 -0.3563  0.0529
  182loPI   GL2 2902   9.500   0.602  10.196  0.2087  0.1904  0.2156
  182loPI   C1A 2903   9.775   1.021   9.855 -0.2698 -0.1966 -0.1381
  182loPI   C2A 2904  10.145   0.990   9.721 -0.1365  0.0567  0.1821
  182loPI   C3A 2905  10.276   0.825   9.339  0.1994  0.0444 -0.2490
  182loPI   C4A 2906  10.303   0.601   9.005 -0.0868  0.1811  0.1003
  182loPI   C5A 2907  10.262   0.327   8.655  0.1754 -0.1508  0.0930
  182loPI   C6A 2908   9.803   0.312   8.439  0.1196  0.0733 -0.1714
  182loPI   C1B 2909   9.107   0.536   9.902  0.2238  0.0522  0.1401
  182loPI   C2B 2910   9.088   0.524   9.430  0.1080  0.0387  0.1401
  182loPI   C3B 2911   9.029   0.865   9.112  0.0929 -0.0015  0.3903
  182loPI   C4B 2912   8.844   1.069   8.661 -0.1480 -0.1940 -0.2100
  183loPI    C1 2913   2.124   2.301  10.979 -0.1147 -0.0513  0.0074
  183loPI    C2 2914   2.189   1.926  11.102 -0.0984 -0.0861 -0.1055
  183loPI    C3 2915   2.498   2.174  11.045 -0.1063 -0.0683 -0.0715
  183loPI   PO4 2916   2.006   2.290  10.698 -0.2442  0.1013  0.2523
  183loPI   GL1 2917   1.940   2.383  10.310 -0.0153 -0.0917 -0.2156
  183loPI   GL2 2918   1.982   1.988  10.256 -0.0233  0.1277 -0.0666
  183loPI   C1A 2919   1.691   2.315  10.039 -0.0847  0.3833 -0.1908
  183loPI   C2A 2920   1.596   2.323   9.639  0.3163  0.1013 -0.3669
  183loPI   C3A 2921   1.528   2.153   9.243  0.2046 -0.4370 -0.3450
  183loPI   C4A 2922   1.545   1.930   8.796 -0.0643  0.0433  0.1883
  183loPI   C5A 2923   1.323   1.744   8.383  0.2480 -0.1958 -0.0679
  183loPI   C6A 2924   1.382   1.370   8.369  0.1552 -0.0037 -0.0538
  183loPI   C1B 2925   2.241   2.192   9.843  0.0537  0.3046  0.0339
  183loPI   C2B 2926   2.206   2.428   9.513 -0.5867  0.1847  0.1400
  183loPI   C3B 2927   2.201   2.531   9.110  0.1234 -0.2541 -0.1343
  183loPI   C4B 2928   2.168   2.491   8.663  0.1146 -0.2456 -0.0099
  184loPI    C1 2929   3.256   1.091  11.079 -0.0460 -0.1176 -0.0053
  184loPI    C2 2930   3.476   1.425  11.084 -0.1673 -0.0380  0.0791
  184loPI    C3 2931   3.248   1.331  11.399 -0.4360  0.0032 -0.1000
  184loPI   PO4 2932   3.232   1.137  10.738  0.0506  0.0810  0.1602
  184loPI   GL1 2933   3.189   1.255  10.357  0.1516  0.2917 -0.0313
  184loPI   GL2 2934   2.966   1.534  10.275  0.0151 -0.1428  0.1119
  184loPI   C1A 2935   3.220   1.274   9.893 -0.1658 -0.2990  0.0034
  184loPI   C2A 2936   3.083   1.206   9.450  0.1996  0.0072 -0.1145
  184loPI   C3A 2937   3.084   0.895   9.019 -0.1984  0.1054 -0.2969
  184loPI   C4A 2938   3.050   0.553   8.742 -0.1020  0.4024  0.2668
  184loPI   C5A 2939   3.193   0.344   8.336  0.1428 -0.3138 -0.1755
  184loPI   C6A 2940   3.207  -0.043   8.303  0.0403 -0.3080 -0.1592
  184loPI   C1B 2941   2.813   1.575   9.767 -0.2722 -0.0416  0.3187
  184loPI   C2B 2942   2.754   1.637   9.298 -0.1600  0.0568  0.3459
  184loPI   C3B 2943   3.080   1.789   9.019  0.1310 -0.2433 -0.2159
  184loPI   C4B 2944   3.392   1.789   8.661 -0.1993 -0.0631  0.0913
  185loPI    C1 2945   8.924   6.808  11.812  0.2219  0.0131  0.1266
  185loPI    C2 2946   9.076   7.018  12.117  0.0277  0.1012  0.1642
  185loPI    C3 2947   8.987   6.631  12.165  0.2404  0.0483  0.1409
  185loPI   PO4 2948   9.036   6.873  11.639  0.1132 -0.0599  0.2419
  185loPI   GL1 2949   8.912   6.943  11.223  0.0289 -0.0847 -0.1721
  185loPI   GL2 2950   9.106   6.850  10.945 -0.1403 -0.0301  0.0859
  185loPI   C1A 2951   8.736   7.176  10.775 -0.1224 -0.1828  0.0911
  185loPI   C2A 2952   8.682   7.129  10.301 -0.1204 -0.0317 -0.0902
  185loPI   C3A 2953   8.699   7.106   9.851 -0.4582  0.1523 -0.2964
  185loPI   C4A 2954   8.717   7.157   9.445 -0.0491 -0.1390  0.0543
  185loPI   C5A 2955   8.825   7.123   9.090  0.0979  0.0494  0.0645
  185loPI   C6A 2956   8.968   6.717   8.820 -0.1274  0.0187  0.1941
  185loPI   C1B 2957   8.996   6.792  10.496  0.0604 -0.1429  0.2658
  185loPI   C2B 2958   8.980   6.720  10.076 -0.0438 -0.1658 -0.0004
  185loPI   C3B 2959   8.923   6.707   9.638 -0.0770 -0.1798 -0.0010
  185loPI   C4B 2960   8.973   6.653   9.289  0.1229 -0.2643  0.1125
  186loPI    C1 2961   4.786   8.896  11.255 -0.1571 -0.1435 -0.0531
  186loPI    C2 2962   4.964   9.215  11.092  0.1226 -0.1321  0.2651
  186loPI    C3 2963   4.662   9.265  11.348 -0.0279 -0.1353  0.0901
  186loPI   PO4 2964   5.017   8.756  11.381 -0.1318  0.0725 -0.1030
  186loPI   GL1 2965   5.278   8.742  11.058  0.2876 -0.3588  0.1131
  186loPI   GL2 2966   5.260   8.432  10.969 -0.0608  0.0465  0.0297
  186loPI   C1A 2967   5.183   8.864  10.673 -0.0699 -0.0666 -0.1522
  186loPI   C2A 2968   5.084   9.103  10.256 -0.1152 -0.2465  0.3697
  186loPI   C3A 2969   5.109   9.137   9.808 -0.0803 -0.4224 -0.0840
  186loPI   C4A 2970   4.937   9.291   9.361 -0.0630  0.0216  0.0532
  186loPI   C5A 2971   4.922   9.590   9.020  0.1213 -0.1349 -0.0281
  186loPI   C6A 2972   5.009   9.695   8.621  0.3120  0.0729 -0.0236
  186loPI   C1B 2973   5.140   8.357  10.642 -0.0698 -0.1918  0.1842
  186loPI   C2B 2974   5.218   8.192  10.249 -0.1897 -0.0392 -0.3793
  186loPI   C3B 2975   5.306   8.165   9.844  0.1210  0.0027  0.1273
  186loPI   C4B 2976   5.172   8.055   9.473  0.0134  0.1262 -0.0204
  187loPI    C1 2977   7.466  17.142  11.002 -0.1252 -0.0078 -0.0901
  187loPI    C2 2978   7.501  16.783  11.174  0.0081  0.0426 -0.0104
  187loPI    C3 2979   7.600  17.112  11.378 -0.1195  0.1251 -0.0811
  187loPI   PO4 2980   7.579  17.053  10.740  0.2818  0.0181  0.2095
  187loPI   GL1 2981   7.602  17.133  10.325 -0.0016 -0.1186  0.0124
  187loPI   GL2 2982   7.723  16.749  10.280 -0.1380  0.1618 -0.0674
  187loPI   C1A 2983   7.406  16.875   9.924  0.1821  0.1620 -0.0294
  187loPI   C2A 2984   7.445  17.001   9.496  0.1165  0.2405 -0.1352
  187loPI   C3A 2985   7.633  16.993   9.071  0.1683  0.0149  0.1096
  187loPI   C4A 2986   7.912  16.935   8.806  0.1716 -0.1521 -0.0194
  187loPI   C5A 2987   8.378  17.149   8.879  0.1267 -0.2316  0.0789
  187loPI   C6A 2988   8.360  17.585   8.826  0.0145 -0.3010  0.0190
  187loPI   C1B 2989   7.879  16.559   9.976  0.1345 -0.2944  0.0428
  187loPI   C2B 2990   8.007  16.149   9.807  0.0809 -0.2343 -0.4212
  187loPI   C3B 2991   8.172  15.966   9.371 -0.0330 -0.0123  0.1065
  187loPI   C4B 2992   8.268  16.076   9.003  0.2313 -0.3502 -0.1551
  188loPI    C1 2993   1.696  10.271  11.114  0.1889  0.0248  0.1605
  188loPI    C2 2994   1.445  10.422  11.387  0.0407  0.0304  0.0226
  188loPI    C3 2995   1.770  10.221  11.504 -0.0817 -0.0651  0.2024
  188loPI   PO4 2996   1.734  10.455  10.926  0.0170  0.0697 -0.2476
  188loPI   GL1 2997   2.100  10.311  10.538  0.4758 -0.1662 -0.1838
  188loPI   GL2 2998   2.071  10.573  10.625  0.0898 -0.3652  0.0873
  188loPI   C1A 2999   1.924  10.236  10.226 -0.0288 -0.0913 -0.3222
  188loPI   C2A 3000   1.991  10.410   9.804  0.2834  0.1552 -0.1773
  188loPI   C3A 3001   1.845  10.285   9.344  0.1266  0.1133 -0.0806
  188loPI   C4A 3002   2.184  10.227   8.996  0.1192 -0.2112  0.1417
  188loPI   C5A 3003   2.621  10.007   9.025 -0.0168 -0.0417  0.1913
  188loPI   C6A 3004   2.910  10.348   9.066 -0.1559  0.0081 -0.3849
  188loPI   C1B 3005   2.123  10.661  10.187 -0.3603 -0.0112 -0.0039
  188loPI   C2B 3006   2.477  10.603   9.925 -0.4208 -0.2028 -0.0313
  188loPI   C3B 3007   2.686  10.778   9.580 -0.0470 -0.1616  0.5482
  188loPI   C4B 3008   2.864  10.992   9.165 -0.1164 -0.3691  0.2204
  189loPI    C1 3009  11.426  17.584  10.920 -0.0436  0.1694  0.0087
  189loPI    C2 3010  11.288  17.629  11.293 -0.1014  0.3524 -0.0338
  189loPI    C3 3011  11.678  17.672  11.218 -0.0624  0.1321  0.0357
  189loPI   PO4 3012  11.228  17.604  10.780 -0.0439 -0.1869 -0.3450
  189loPI   GL1 3013  11.018  17.290  10.415  0.1291  0.0319 -0.1613
  189loPI   GL2 3014  10.743  17.347  10.342 -0.0261  0.0817  0.3578
  189loPI   C1A 3015  11.246  17.543  10.076 -0.2390 -0.4567  0.1767
  189loPI   C2A 3016  11.237  17.511   9.672  0.0490 -0.4827  0.3242
  189loPI   C3A 3017  11.152  17.522   9.256  0.0779  0.3102 -0.0332
  189loPI   C4A 3018  11.187  17.506   8.784 -0.1978 -0.0940 -0.3574
  189loPI   C5A 3019  11.200  17.285   8.513 -0.0259  0.1074 -0.1863
  189loPI   C6A 3020  11.320  16.924   8.441 -0.0079 -0.0763 -0.1977
  189loPI   C1B 3021  10.729  17.353   9.924  0.1199  0.4734 -0.0547
  189loPI   C2B 3022  10.709  17.339   9.530 -0.1260 -0.1517  0.1180
  189loPI   C3B 3023  10.752  17.310   9.055 -0.0001 -0.0237 -0.0183
  189loPI   C4B 3024  10.670  17.335   8.728 -0.1721  0.0010 -0.3441
  190loPI    C1 3025   3.904  13.238  11.429 -0.0530  0.0568  0.1479
  190loPI    C2 3026   4.173  13.110  11.697 -0.1275 -0.1007  0.1488
  190loPI    C3 3027   3.927  13.412  11.788  0.0363  0.0325  0.1544
  190loPI   PO4 3028   4.106  13.355  11.167 -0.2042  0.2031 -0.0066
  190loPI   GL1 3029   4.087  13.701  10.902 -0.0541 -0.0447  0.0161
  190loPI   GL2 3030   4.447  13.589  10.821 -0.0785 -0.0375 -0.3597
  190loPI   C1A 3031   4.042  13.503  10.542  0.2631 -0.3019 -0.3044
  190loPI   C2A 3032   4.197  13.493  10.133 -0.1570 -0.0518 -0.3015
  190loPI   C3A 3033   4.346  13.643   9.700 -0.2003 -0.0091  0.1462
  190loPI   C4A 3034   4.260  13.653   9.294 -0.0138 -0.2986 -0.1240
  190loPI   C5A 3035   4.189  13.687   8.954  0.2374  0.0485  0.3880
  190loPI   C6A 3036   4.328  13.371   8.832 -0.1041 -0.1866  0.0534
  190loPI   C1B 3037   4.559  13.584  10.454  0.1645  0.2221  0.0764
  190loPI   C2B 3038   4.775  13.355  10.144 -0.1594 -0.1995  0.0254
  190loPI   C3B 3039   4.722  13.304   9.714  0.3841  0.3252 -0.3603
  190loPI   C4B 3040   4.718  13.532   9.332  0.2196  0.0468 -0.0543
  191loPI    C1 3041   3.777   7.233  11.351 -0.0521 -0.0857  0.0819
  191loPI    C2 3042   3.838   6.915  11.587 -0.1081 -0.2391 -0.1076
  191loPI    C3 3043   3.465   7.032  11.501 -0.0879 -0.0574  0.0457
  191loPI   PO4 3044   3.989   7.247  11.240 -0.2737 -0.2678  0.1804
  191loPI   GL1 3045   4.151   7.374  10.913  0.0853  0.2811 -0.0463
  191loPI   GL2 3046   3.772   7.339  10.793  0.1367 -0.0266  0.0929
  191loPI   C1A 3047   4.243   7.333  10.451 -0.0479 -0.2064 -0.0296
  191loPI   C2A 3048   4.324   7.255  10.005 -0.0748  0.0501 -0.3666
  191loPI   C3A 3049   4.268   7.220   9.693 -0.2350  0.2342  0.0537
  191loPI   C4A 3050   4.314   7.122   9.243 -0.0898  0.2017  0.0747
  191loPI   C5A 3051   4.266   7.245   8.783  0.1847  0.0595  0.1988
  191loPI   C6A 3052   3.928   7.428   8.514  0.0586  0.2004 -0.0708
  191loPI   C1B 3053   3.748   7.259  10.378  0.0331 -0.0494  0.0837
  191loPI   C2B 3054   3.766   7.223   9.960  0.0586  0.3261  0.1311
  191loPI   C3B 3055   3.729   7.035   9.472  0.0282  0.2494 -0.1409
  191loPI   C4B 3056   3.896   6.969   9.087 -0.2693 -0.2365  0.3083
  192loPI    C1 3057   2.174  17.080  10.565 -0.1185 -0.1141 -0.0821
  192loPI    C2 3058   1.948  16.923  10.856 -0.1175 -0.0227 -0.0316
  192loPI    C3 3059   2.311  17.067  10.941 -0.0530 -0.1388 -0.1067
  192loPI   PO4 3060   2.045  17.203  10.401 -0.0260 -0.0461  0.0431
  192loPI   GL1 3061   2.040  17.395  10.065  0.0951  0.0116  0.1009
  192loPI   GL2 3062   2.075  17.726  10.044 -0.1463  0.1786 -0.4299
  192loPI   C1A 3063   2.105  17.278   9.647 -0.3096  0.1396  0.3396
  192loPI   C2A 3064   2.063  17.258   9.142 -0.0560  0.1546  0.0070
  192loPI   C3A 3065   2.167  17.277   8.712  0.0469  0.1139  0.1396
  192loPI   C4A 3066   2.176  16.996   8.421  0.0145 -0.0315 -0.0122
  192loPI   C5A 3067   2.096  16.559   8.278  0.1863 -0.0967  0.2696
  192loPI   C6A 3068   1.658  16.470   8.357  0.0244  0.1679  0.0657
  192loPI   C1B 3069   2.064  17.775   9.565  0.5503 -0.1020  0.0298
  192loPI   C2B 3070   2.087  17.787   9.132 -0.0185 -0.1143 -0.0324
  192loPI   C3B 3071   2.086  17.795   8.681  0.1757 -0.0772  0.2086
  192loPI   C4B 3072   2.359  18.082   8.329  0.3928  0.2239  0.1812
  193loPI    C1 3073   9.900  17.031  10.932  0.0901 -0.1812 -0.0792
  193loPI    C2 3074   9.501  17.055  10.946  0.1087  0.1903 -0.0878
  193loPI    C3 3075   9.715  17.074  11.284  0.1158 -0.1484 -0.0696
  193loPI   PO4 3076  10.037  17.100  10.700 -0.1910 -0.0739 -0.1479
  193loPI   GL1 3077  10.225  17.275  10.368  0.0271 -0.0095  0.0694
  193loPI   GL2 3078  10.030  17.488  10.175 -0.1205 -0.0187 -0.0899
  193loPI   C1A 3079  10.193  17.074   9.984 -0.1158  0.3988  0.2595
  193loPI   C2A 3080  10.190  17.113   9.479  0.0907 -0.0354 -0.0074
  193loPI   C3A 3081  10.283  17.022   9.019 -0.0024  0.0219  0.1201
  193loPI   C4A 3082  10.260  17.004   8.582  0.2721  0.1528  0.0185
  193loPI   C5A 3083  10.422  16.694   8.352  0.0037  0.0434 -0.1793
  193loPI   C6A 3084  10.617  16.670   7.893  0.0932  0.0470 -0.0440
  193loPI   C1B 3085   9.809  17.331   9.874 -0.2129 -0.2439 -0.0791
  193loPI   C2B 3086   9.456  17.161   9.809  0.1316  0.2503  0.0348
  193loPI   C3B 3087   9.375  16.810   9.606 -0.0796 -0.0844  0.2092
  193loPI   C4B 3088   9.624  16.396   9.398 -0.0455 -0.0055  0.3427
  194loPI    C1 3089   3.225  12.862  11.316 -0.3239 -0.0015  0.0429
  194loPI    C2 3090   3.335  13.139  11.583  0.0146 -0.0569 -0.0340
  194loPI    C3 3091   2.951  13.107  11.474 -0.0062  0.4964 -0.1525
  194loPI   PO4 3092   3.457  12.784  11.220 -0.0671  0.0303  0.0340
  194loPI   GL1 3093   3.697  13.013  10.991  0.1218 -0.0216  0.0569
  194loPI   GL2 3094   3.994  13.031  10.856 -0.2900  0.2303 -0.1386
  194loPI   C1A 3095   3.597  13.212  10.619  0.1070 -0.1555 -0.1699
  194loPI   C2A 3096   3.779  13.109  10.194  0.1426 -0.0335  0.2767
  194loPI   C3A 3097   3.828  13.004   9.739  0.1467  0.0309  0.2301
  194loPI   C4A 3098   3.499  12.920   9.378  0.1212 -0.4849 -0.1490
  194loPI   C5A 3099   3.551  12.802   8.940  0.3733  0.0202  0.0984
  194loPI   C6A 3100   3.800  12.693   8.489 -0.1179 -0.2090 -0.0628
  194loPI   C1B 3101   3.957  12.817  10.559 -0.0699  0.2390  0.0550
  194loPI   C2B 3102   3.964  12.649  10.097  0.1216  0.0602 -0.0227
  194loPI   C3B 3103   3.927  12.561   9.739  0.0096 -0.1864 -0.2041
  194loPI   C4B 3104   3.969  12.712   9.291  0.1806  0.1399  0.1743
  195loPI    C1 3105   0.739  11.814  11.068 -0.3027  0.0237 -0.0662
  195loPI    C2 3106   0.773  11.422  10.997 -0.1454  0.0011  0.1233
  195loPI    C3 3107   0.438  11.567  11.159 -0.2224 -0.0475  0.0089
  195loPI   PO4 3108   0.842  11.927  10.792 -0.4482 -0.3062 -0.3087
  195loPI   GL1 3109   0.665  12.199  10.495  0.0675  0.2325 -0.0404
  195loPI   GL2 3110   0.957  12.459  10.537 -0.3480 -0.2594 -0.0174
  195loPI   C1A 3111   0.390  12.144  10.055  0.0190  0.2167  0.0093
  195loPI   C2A 3112   0.200  12.043   9.722  0.0172  0.0746 -0.1869
  195loPI   C3A 3113   0.415  12.007   9.351 -0.4840  0.0007  0.0580
  195loPI   C4A 3114   0.342  11.978   8.973  0.0593 -0.1845 -0.2685
  195loPI   C5A 3115   0.652  12.007   8.583  0.3028 -0.0221  0.1646
  195loPI   C6A 3116   0.477  12.144   8.188 -0.1538  0.2118 -0.1385
  195loPI   C1B 3117   1.248  12.645  10.299 -0.0937  0.0830 -0.1581
  195loPI   C2B 3118   1.584  12.732  10.004  0.1010 -0.1769  0.0804
  195loPI   C3B 3119   1.822  13.054   9.708  0.3162  0.0253 -0.1756
  195loPI   C4B 3120   2.047  13.208   9.346  0.2314  0.0257  0.0277
  196loPI    C1 3121   5.962  10.811  11.573  0.1321 -0.0535 -0.0782
  196loPI    C2 3122   6.298  11.004  11.671  0.0728 -0.1236  0.2780
  196loPI    C3 3123   5.982  11.015  11.916 -0.2083 -0.0110 -0.0802
  196loPI   PO4 3124   5.871  10.926  11.385 -0.0421  0.1982  0.0155
  196loPI   GL1 3125   5.874  10.808  11.024  0.0904  0.0953  0.0002
  196loPI   GL2 3126   6.197  11.018  10.981 -0.0909 -0.2361  0.3303
  196loPI   C1A 3127   5.787  11.172  10.761 -0.1738  0.1527  0.0667
  196loPI   C2A 3128   5.923  11.385  10.281  0.2681 -0.0105  0.1798
  196loPI   C3A 3129   5.867  11.508   9.802  0.2399 -0.1715 -0.1237
  196loPI   C4A 3130   5.840  11.519   9.395  0.0567 -0.1292 -0.2331
  196loPI   C5A 3131   5.553  11.483   9.005  0.0626 -0.1305 -0.0693
  196loPI   C6A 3132   5.207  11.290   8.823  0.4012 -0.0813  0.0248
  196loPI   C1B 3133   6.276  11.069  10.572  0.0143  0.0035  0.0845
  196loPI   C2B 3134   6.366  11.217  10.087  0.0589 -0.0199  0.1451
  196loPI   C3B 3135   6.245  11.263   9.604  0.3095  0.0158 -0.3865
  196loPI   C4B 3136   6.363  11.371   9.190  0.2492 -0.1842  0.0399
  197loPI    C1 3137   1.871   8.161  11.498  0.0627  0.2679  0.3770
  197loPI    C2 3138   2.052   7.804  11.495  0.0178  0.2454  0.1287
  197loPI    C3 3139   1.731   7.864  11.725  0.0214  0.1236  0.1658
  197loPI   PO4 3140   1.772   8.203  11.171  0.2769  0.3280 -0.1136
  197loPI   GL1 3141   1.780   8.244  10.667 -0.0702 -0.0632 -0.0241
  197loPI   GL2 3142   2.045   8.500  10.394  0.1102 -0.2127  0.1184
  197loPI   C1A 3143   1.739   8.120  10.280 -0.1167 -0.0650 -0.0365
  197loPI   C2A 3144   1.852   8.279   9.921 -0.0570 -0.0998  0.1976
  197loPI   C3A 3145   1.954   8.331   9.510 -0.0452  0.0686  0.1042
  197loPI   C4A 3146   2.201   8.373   9.038  0.1674  0.0047 -0.0086
  197loPI   C5A 3147   2.569   8.331   8.746 -0.1414 -0.4446 -0.1985
  197loPI   C6A 3148   2.831   8.017   8.563  0.1510 -0.1077 -0.1251
  197loPI   C1B 3149   2.378   8.493  10.087 -0.2244  0.0454 -0.2141
  197loPI   C2B 3150   2.311   8.652   9.667  0.3854 -0.1513 -0.2349
  197loPI   C3B 3151   2.128   8.926   9.313 -0.2205 -0.1812  0.0929
  197loPI   C4B 3152   1.745   8.846   8.997 -0.2454 -0.0327 -0.2694
  198loPI    C1 3153   2.292   4.654  11.161 -0.0142  0.0738  0.0098
  198loPI    C2 3154   2.334   5.027  11.299  0.0629  0.1166 -0.1270
  198loPI    C3 3155   2.168   4.745  11.530  0.0673  0.2187  0.0020
  198loPI   PO4 3156   2.264   4.761  10.800 -0.1337 -0.0966  0.1059
  198loPI   GL1 3157   2.229   4.773  10.410 -0.1542 -0.1666 -0.1925
  198loPI   GL2 3158   2.069   5.058  10.412 -0.2368  0.0221 -0.2275
  198loPI   C1A 3159   2.107   4.757   9.952 -0.1245 -0.3279  0.0828
  198loPI   C2A 3160   2.081   4.780   9.486  0.1685  0.0388 -0.1253
  198loPI   C3A 3161   1.698   4.644   9.187  0.0477  0.0530 -0.1134
  198loPI   C4A 3162   1.306   4.593   8.972 -0.1977 -0.0823 -0.3091
  198loPI   C5A 3163   1.302   4.642   8.517 -0.1519  0.0465  0.0570
  198loPI   C6A 3164   1.508   4.303   8.450 -0.2182  0.0177  0.1616
  198loPI   C1B 3165   2.441   5.122  10.126 -0.1849 -0.0073 -0.1399
  198loPI   C2B 3166   2.407   5.200   9.686  0.0934  0.1215  0.3148
  198loPI   C3B 3167   2.382   5.245   9.264  0.0231  0.1758 -0.0132
  198loPI   C4B 3168   2.216   5.307   8.834  0.1276  0.2619 -0.1086
  199loPI    C1 3169   7.507  13.986  11.168  0.3360 -0.1108  0.0623
  199loPI    C2 3170   7.299  13.753  11.418 -0.0850  0.2341  0.0470
  199loPI    C3 3171   7.383  14.130  11.520  0.2798  0.1906 -0.0774
  199loPI   PO4 3172   7.383  14.008  10.899 -0.0009  0.2590 -0.1229
  199loPI   GL1 3173   7.220  13.788  10.587 -0.0172 -0.1232 -0.2310
  199loPI   GL2 3174   7.489  13.957  10.450  0.2961 -0.1232 -0.2212
  199loPI   C1A 3175   7.338  13.401  10.510 -0.1599  0.1974 -0.1171
  199loPI   C2A 3176   7.611  13.142  10.397 -0.0352  0.0852  0.0169
  199loPI   C3A 3177   7.841  13.078   9.958 -0.1014  0.0420 -0.2690
  199loPI   C4A 3178   7.669  12.949   9.590 -0.2478 -0.0675 -0.0320
  199loPI   C5A 3179   7.414  12.781   9.218 -0.2597  0.1271 -0.2268
  199loPI   C6A 3180   6.957  12.889   9.083  0.1321  0.1903  0.0029
  199loPI   C1B 3181   7.287  13.838  10.048  0.2890 -0.1287  0.0001
  199loPI   C2B 3182   7.279  13.691   9.548  0.1065 -0.0315 -0.0366
  199loPI   C3B 3183   7.148  13.824   9.111  0.1309 -0.3245  0.1033
  199loPI   C4B 3184   7.058  14.072   8.774  0.1216  0.1946 -0.0778
  200loPI    C1 3185   4.219  12.121  11.013  0.0825  0.0621  0.0482
  200loPI    C2 3186   4.487  12.090  11.308  0.1742 -0.2487 -0.0640
  200loPI    C3 3187   4.593  12.251  10.957  0.1613 -0.1972 -0.0442
  200loPI   PO4 3188   3.998  12.268  11.138 -0.1011 -0.0792  0.1365
  200loPI   GL1 3189   3.814  12.430  10.859  0.2936 -0.0322  0.0152
  200loPI   GL2 3190   3.551  12.498  10.859  0.1460 -0.1794  0.2561
  200loPI   C1A 3191   4.141  12.323  10.470 -0.0998 -0.2992  0.0504
  200loPI   C2A 3192   4.049  12.102  10.058 -0.1395  0.1571  0.1148
  200loPI   C3A 3193   4.169  11.889   9.709 -0.0454 -0.0811  0.0257
  200loPI   C4A 3194   3.994  11.811   9.292  0.2440 -0.4269 -0.1347
  200loPI   C5A 3195   3.851  11.556   8.926  0.0879  0.0866  0.1228
  200loPI   C6A 3196   4.032  11.492   8.489  0.0573  0.0423 -0.3389
  200loPI   C1B 3197   3.483  12.788  10.473 -0.0823  0.0983  0.0022
  200loPI   C2B 3198   3.452  12.729  10.088  0.3576  0.1686  0.2243
  200loPI   C3B 3199   3.423  12.564   9.673  0.2235 -0.0945 -0.1277
  200loPI   C4B 3200   3.236  12.488   9.310  0.0799 -0.4658 -0.1848
  201loPI    C1 3201   4.142   5.967  11.534 -0.1870  0.2007  0.2194
  201loPI    C2 3202   4.059   6.343  11.427 -0.3980  0.1902  0.3412
  201loPI    C3 3203   4.299   6.273  11.739 -0.0146  0.2208  0.0599
  201loPI   PO4 3204   4.192   5.921  11.247  0.1544 -0.0462 -0.0673
  201loPI   GL1 3205   3.923   5.883  10.878  0.2540 -0.0332  0.0100
  201loPI   GL2 3206   3.631   5.846  10.687  0.0454 -0.1399 -0.1954
  201loPI   C1A 3207   4.083   5.974  10.433 -0.1875 -0.0900  0.0083
  201loPI   C2A 3208   4.101   5.903   9.933 -0.1907 -0.0461 -0.0892
  201loPI   C3A 3209   4.138   5.788   9.490 -0.0292  0.1998  0.1401
  201loPI   C4A 3210   4.056   5.744   9.004 -0.1333  0.2407  0.0708
  201loPI   C5A 3211   3.862   5.980   8.609 -0.0119  0.0043 -0.1912
  201loPI   C6A 3212   3.808   6.342   8.356  0.0165  0.0589  0.3858
  201loPI   C1B 3213   3.669   5.823  10.238  0.3701  0.1985 -0.0285
  201loPI   C2B 3214   3.600   5.741   9.725 -0.1455 -0.1080  0.0889
  201loPI   C3B 3215   3.615   5.721   9.362  0.1622  0.2236  0.0194
  201loPI   C4B 3216   3.593   5.606   8.898 -0.4902  0.0972  0.0560
  202loPI    C1 3217   7.778   6.174  11.693 -0.0016  0.2152  0.1696
  202loPI    C2 3218   7.977   5.912  11.921 -0.1945  0.0850  0.1902
  202loPI    C3 3219   7.948   5.852  11.527  0.0189  0.2361  0.1501
  202loPI   PO4 3220   7.843   6.391  11.704  0.2966  0.0505  0.0106
  202loPI   GL1 3221   7.770   6.814  11.570  0.1502  0.1109 -0.0223
  202loPI   GL2 3222   7.449   6.530  11.309  0.1573  0.1509  0.0502
  202loPI   C1A 3223   7.655   6.975  11.121  0.2999 -0.1499 -0.0004
  202loPI   C2A 3224   7.653   7.215  10.766 -0.0024 -0.2446 -0.1625
  202loPI   C3A 3225   7.745   7.071  10.327  0.0431  0.2481  0.2412
  202loPI   C4A 3226   7.680   7.070   9.774 -0.0317  0.3426 -0.0428
  202loPI   C5A 3227   7.654   6.966   9.272 -0.0040  0.2683 -0.4342
  202loPI   C6A 3228   7.966   6.815   8.975 -0.1134  0.3207  0.1662
  202loPI   C1B 3229   7.406   6.574  10.840 -0.1133  0.3045  0.0539
  202loPI   C2B 3230   7.456   6.644  10.449  0.0494  0.3004  0.0263
  202loPI   C3B 3231   7.505   6.628  10.077  0.2191 -0.2445  0.1280
  202loPI   C4B 3232   7.430   6.557   9.622  0.0951  0.2198 -0.4982
  203loPI    C1 3233  11.247  11.667  11.344  0.0535 -0.0727  0.1952
  203loPI    C2 3234  11.618  11.781  11.441  0.1525 -0.1173 -0.1172
  203loPI    C3 3235  11.303  11.998  11.561  0.3080  0.1965 -0.2657
  203loPI   PO4 3236  11.115  11.594  11.032  0.1189 -0.2019 -0.2574
  203loPI   GL1 3237  11.215  11.770  10.649 -0.0633 -0.4936 -0.1055
  203loPI   GL2 3238  10.955  11.516  10.558 -0.0611 -0.0329 -0.1863
  203loPI   C1A 3239  11.253  11.749  10.181  0.0262 -0.1051 -0.0986
  203loPI   C2A 3240  11.246  11.576   9.791 -0.2591  0.0261  0.0785
  203loPI   C3A 3241  10.963  11.483   9.470 -0.0386  0.1553 -0.0525
  203loPI   C4A 3242  10.809  11.641   9.032 -0.0567 -0.1109 -0.0599
  203loPI   C5A 3243  10.671  11.914   8.710 -0.0363  0.0583 -0.0688
  203loPI   C6A 3244  10.308  12.122   8.849 -0.0595 -0.3881  0.2836
  203loPI   C1B 3245  10.721  11.640  10.261 -0.0953 -0.1489 -0.2123
  203loPI   C2B 3246  10.688  11.684   9.825 -0.2625  0.0765 -0.4908
  203loPI   C3B 3247  10.650  11.948   9.377 -0.0259 -0.2471 -0.0558
  203loPI   C4B 3248  10.770  12.258   9.122 -0.1070 -0.0297  0.0523
  204loPI    C1 3249   2.275  13.607  11.159  0.0912  0.1711  0.0346
  204loPI    C2 3250   2.286  13.676  11.553  0.0487  0.1675  0.0366
  204loPI    C3 3251   2.025  13.412  11.403  0.2557 -0.0409  0.0369
  204loPI   PO4 3252   2.249  13.824  11.006 -0.0838 -0.0722 -0.1790
  204loPI   GL1 3253   2.413  13.851  10.532 -0.1473 -0.0801  0.1345
  204loPI   GL2 3254   2.191  13.877  10.319 -0.0871  0.0371 -0.2684
  204loPI   C1A 3255   2.683  13.786  10.122  0.0743 -0.3454  0.0688
  204loPI   C2A 3256   2.563  13.858   9.773  0.1218 -0.0130  0.2461
  204loPI   C3A 3257   2.660  14.002   9.490  0.1934 -0.2230 -0.2445
  204loPI   C4A 3258   2.785  14.234   9.092  0.1823  0.0256  0.0267
  204loPI   C5A 3259   2.739  14.448   8.754  0.0160 -0.4098  0.2332
  204loPI   C6A 3260   2.859  14.786   8.475  0.0451 -0.1730  0.1595
  204loPI   C1B 3261   2.049  13.941   9.962 -0.4573 -0.0146 -0.1478
  204loPI   C2B 3262   2.081  14.206   9.586 -0.0759  0.0124  0.0894
  204loPI   C3B 3263   2.107  14.212   9.214  0.2219  0.1301 -0.0257
  204loPI   C4B 3264   2.263  14.290   8.912  0.0948 -0.0496 -0.0304
  205loPI    C1 3265   6.766  11.182  11.598  0.0352 -0.0823 -0.0702
  205loPI    C2 3266   6.723  11.336  11.965 -0.3780  0.0232 -0.1568
  205loPI    C3 3267   7.087  11.305  11.802 -0.1839 -0.0741  0.2794
  205loPI   PO4 3268   6.678  11.311  11.463  0.1647  0.3319  0.1160
  205loPI   GL1 3269   6.632  11.269  11.016  0.1095 -0.0514  0.1756
  205loPI   GL2 3270   6.323  11.474  10.808 -0.3060 -0.1853  0.0604
  205loPI   C1A 3271   6.795  11.222  10.591 -0.2824  0.1834 -0.2727
  205loPI   C2A 3272   6.847  11.251  10.155  0.1309  0.1460  0.1001
  205loPI   C3A 3273   6.642  10.973   9.784  0.1018 -0.1465  0.1883
  205loPI   C4A 3274   6.602  10.576   9.755  0.2644 -0.0064 -0.0675
  205loPI   C5A 3275   6.676  10.334   9.502  0.3600 -0.3244 -0.0084
  205loPI   C6A 3276   6.742   9.942   9.223  0.0567 -0.0313 -0.1238
  205loPI   C1B 3277   6.449  11.586  10.396 -0.4375  0.4037  0.1587
  205loPI   C2B 3278   6.269  11.707   9.986  0.2813 -0.0734 -0.0104
  205loPI   C3B 3279   6.268  11.785   9.602 -0.0337 -0.1720 -0.2156
  205loPI   C4B 3280   6.190  11.873   9.217 -0.0436 -0.2925 -0.0656
  206loPI    C1 3281   8.747   6.148  11.320 -0.3231  0.0965  0.0229
  206loPI    C2 3282   8.649   6.535  11.342 -0.2125  0.1441 -0.2748
  206loPI    C3 3283   8.789   6.346  11.665  0.0982  0.4539 -0.2225
  206loPI   PO4 3284   8.496   6.004  11.227 -0.1637  0.2337 -0.2723
  206loPI   GL1 3285   8.139   6.273  11.230 -0.4164  0.0936  0.0303
  206loPI   GL2 3286   7.890   6.285  11.210  0.0245 -0.0340  0.1367
  206loPI   C1A 3287   8.213   6.164  10.754 -0.1755  0.0395 -0.3422
  206loPI   C2A 3288   8.252   6.227  10.386  0.0422  0.1051  0.3103
  206loPI   C3A 3289   8.227   6.119   9.921  0.1409 -0.3134 -0.1359
  206loPI   C4A 3290   8.175   6.227   9.385  0.0552 -0.0351 -0.1026
  206loPI   C5A 3291   8.073   6.319   8.986 -0.2048  0.2477 -0.0652
  206loPI   C6A 3292   7.767   6.115   8.705  0.3867  0.1222  0.1709
  206loPI   C1B 3293   7.860   6.587  10.940 -0.0800  0.0414 -0.1700
  206loPI   C2B 3294   7.977   6.671  10.528 -0.0831 -0.1047 -0.2415
  206loPI   C3B 3295   7.974   6.612  10.042 -0.0658  0.0617 -0.1089
  206loPI   C4B 3296   7.901   6.615   9.544 -0.2456 -0.0182 -0.2718
  207loPI    C1 3297  17.953   3.763  11.255 -0.0284  0.3076 -0.0581
  207loPI    C2 3298  18.287   3.828  11.465  0.1632 -0.2020 -0.1919
  207loPI    C3 3299  18.019   3.560  11.593 -0.3247  0.3755  0.0444
  207loPI   PO4 3300  17.990   3.805  11.055  0.0903 -0.1052  0.0570
  207loPI   GL1 3301  18.111   3.976  10.674  0.4012 -0.1151 -0.1076
  207loPI   GL2 3302  18.322   3.949  10.465 -0.0951  0.2726 -0.0850
  207loPI   C1A 3303  17.972   4.258  10.274 -0.2603  0.1273 -0.1880
  207loPI   C2A 3304  17.704   4.213   9.925  0.0243  0.1320 -0.0135
  207loPI   C3A 3305  17.623   4.396   9.548  0.0473 -0.1546 -0.0474
  207loPI   C4A 3306  17.699   4.424   9.090  0.1179  0.0769 -0.1398
  207loPI   C5A 3307  17.586   4.516   8.717  0.0333  0.0467 -0.4545
  207loPI   C6A 3308  17.447   4.377   8.306 -0.3013  0.1240 -0.3662
  207loPI   C1B 3309  18.350   3.979  10.048 -0.1769 -0.1746 -0.4050
  207loPI   C2B 3310  18.209   4.237   9.758  0.1949  0.1569  0.3403
  207loPI   C3B 3311  18.132   4.205   9.297 -0.0222 -0.0581 -0.2738
  207loPI   C4B 3312  18.537   4.398   9.041 -0.1542  0.0909 -0.1119
  208loPI    C1 3313   3.968   4.047  11.247  0.1662 -0.1844  0.1022
  208loPI    C2 3314   3.832   4.344  11.479  0.0260 -0.1091 -0.0731
  208loPI    C3 3315   4.138   4.117  11.602 -0.0537 -0.0778  0.1887
  208loPI   PO4 3316   4.068   4.211  10.987 -0.0676 -0.3423 -0.0685
  208loPI   GL1 3317   4.008   4.008  10.579 -0.2306  0.0518  0.0383
  208loPI   GL2 3318   4.367   3.883  10.504 -0.0557 -0.2949  0.1338
  208loPI   C1A 3319   3.799   3.901  10.090  0.0836 -0.0156 -0.2143
  208loPI   C2A 3320   3.363   3.933   9.867  0.1604  0.0268 -0.1132
  208loPI   C3A 3321   3.252   3.917   9.473  0.0342  0.1097  0.0236
  208loPI   C4A 3322   3.308   3.765   9.109  0.0413 -0.2358  0.0002
  208loPI   C5A 3323   3.541   3.922   8.719  0.0661  0.1591  0.0345
  208loPI   C6A 3324   3.857   4.062   8.436 -0.0930  0.1390 -0.0094
  208loPI   C1B 3325   4.287   4.036  10.004  0.0894  0.0093  0.4263
  208loPI   C2B 3326   4.299   3.938   9.590  0.0529  0.1413 -0.1230
  208loPI   C3B 3327   4.310   4.013   9.238  0.3305  0.0193 -0.1278
  208loPI   C4B 3328   4.266   3.811   8.747 -0.2931  0.1227  0.0855
  209loPI    C1 3329   7.572   4.179  11.175 -0.0536 -0.1573 -0.0037
  209loPI    C2 3330   7.507   4.232  11.566 -0.0733 -0.1339 -0.0102
  209loPI    C3 3331   7.551   3.863  11.419  0.0275 -0.1378  0.0288
  209loPI   PO4 3332   7.793   4.319  11.157  0.2355 -0.3763  0.0717
  209loPI   GL1 3333   7.775   4.578  10.892  0.0711 -0.0535 -0.3432
  209loPI   GL2 3334   7.927   4.804  11.023  0.0575 -0.1205  0.1405
  209loPI   C1A 3335   7.971   4.452  10.508  0.0676  0.1020  0.3019
  209loPI   C2A 3336   7.939   4.407  10.103  0.1202  0.3108  0.1126
  209loPI   C3A 3337   7.887   4.419   9.717  0.1281  0.4405  0.4677
  209loPI   C4A 3338   7.863   4.431   9.208  0.0587 -0.0174 -0.1909
  209loPI   C5A 3339   7.963   4.484   8.846  0.0590  0.0755 -0.3399
  209loPI   C6A 3340   7.859   4.325   8.516  0.0448  0.2181  0.1987
  209loPI   C1B 3341   8.176   4.921  10.591 -0.0389  0.1518 -0.1559
  209loPI   C2B 3342   8.098   4.858  10.237 -0.0081  0.1640 -0.1470
  209loPI   C3B 3343   8.066   4.951   9.769 -0.0351  0.1214 -0.2741
  209loPI   C4B 3344   8.035   4.927   9.246  0.2177 -0.2223  0.0983
  210loPI    C1 3345   0.005  12.746  10.806  0.3781  0.0454  0.0452
  210loPI    C2 3346  -0.282  12.612  11.049  0.3504  0.1066  0.0466
  210loPI    C3 3347   0.101  12.601  11.166  0.3378  0.1303  0.0907
  210loPI   PO4 3348  -0.172  12.933  10.662 -0.0062  0.0202  0.1914
  210loPI   GL1 3349  -0.117  13.087  10.293  0.1105 -0.1318  0.0566
  210loPI   GL2 3350   0.189  13.223  10.334 -0.2302 -0.2875  0.2686
  210loPI   C1A 3351  -0.183  13.012   9.887 -0.2747 -0.0645  0.1714
  210loPI   C2A 3352   0.023  12.888   9.491 -0.0153  0.0988 -0.2180
  210loPI   C3A 3353   0.084  12.890   9.001  0.2581  0.0395  0.0736
  210loPI   C4A 3354  -0.164  12.793   8.637  0.0138  0.1234 -0.1997
  210loPI   C5A 3355  -0.052  12.522   8.441 -0.0776 -0.3125 -0.3781
  210loPI   C6A 3356   0.152  12.055   8.540 -0.0254  0.0759 -0.1175
  210loPI   C1B 3357   0.469  13.487  10.092  0.0321 -0.0239 -0.0617
  210loPI   C2B 3358   0.407  13.657   9.722  0.2021  0.2493 -0.0563
  210loPI   C3B 3359   0.495  13.821   9.313 -0.2366  0.2317 -0.1883
  210loPI   C4B 3360   0.817  13.681   8.938  0.0703  0.1115 -0.3347
  211loPI    C1 3361   1.549  17.262  10.351  0.0006  0.0147  0.0407
  211loPI    C2 3362   1.648  17.327  10.733 -0.1422 -0.0582  0.0910
  211loPI    C3 3363   1.738  17.599  10.454  0.1012 -0.0745  0.1511
  211loPI   PO4 3364   1.596  17.021  10.324  0.2474 -0.0611  0.2334
  211loPI   GL1 3365   1.604  16.923   9.923  0.1029 -0.3156 -0.2028
  211loPI   GL2 3366   1.942  16.892   9.988 -0.0410 -0.0369 -0.0238
  211loPI   C1A 3367   1.796  16.931   9.540 -0.0208 -0.3715  0.0873
  211loPI   C2A 3368   1.958  16.653   9.226 -0.2728 -0.3114  0.1551
  211loPI   C3A 3369   2.051  16.394   8.822 -0.0754  0.1637  0.1333
  211loPI   C4A 3370   1.947  16.078   8.546  0.1481  0.3449  0.1266
  211loPI   C5A 3371   1.889  15.698   8.565  0.1037 -0.0785 -0.1104
  211loPI   C6A 3372   1.852  15.402   8.461  0.0805 -0.0668  0.0859
  211loPI   C1B 3373   2.245  16.678   9.799  0.2785 -0.0274 -0.1727
  211loPI   C2B 3374   2.414  16.396   9.506 -0.0507  0.0024 -0.1583
  211loPI   C3B 3375   2.892  16.287   9.396 -0.4060  0.0050  0.1782
  211loPI   C4B 3376   3.147  15.893   9.247  0.1846 -0.0471 -0.3937
  212loPI    C1 3377   0.801   3.162  10.778 -0.1696  0.0272 -0.1873
  212loPI    C2 3378   1.159   3.341  10.763 -0.1219 -0.0456  0.0451
  212loPI    C3 3379   0.915   3.405  11.074 -0.3755  0.1201 -0.1827
  212loPI   PO4 3380   0.852   3.022  10.542  0.2551  0.0196  0.0458
  212loPI   GL1 3381   0.622   3.159  10.171  0.2402 -0.0684 -0.0745
  212loPI   GL2 3382   0.421   3.339  10.091  0.0800 -0.0239 -0.0452
  212loPI   C1A 3383   0.776   3.080   9.780 -0.0589  0.0667 -0.1504
  212loPI   C2A 3384   0.647   2.799   9.445 -0.1718 -0.3578 -0.1363
  212loPI   C3A 3385   0.561   2.574   9.127  0.0503 -0.1304 -0.1425
  212loPI   C4A 3386   0.490   2.137   9.012  0.1176 -0.0059  0.2907
  212loPI   C5A 3387   0.553   1.788   9.184 -0.0478  0.2583  0.2067
  212loPI   C6A 3388   0.889   1.706   9.400 -0.0442  0.2870 -0.0171
  212loPI   C1B 3389   0.371   3.585   9.672  0.1920 -0.0397 -0.0028
  212loPI   C2B 3390   0.256   3.709   9.267 -0.0101  0.5063  0.2214
  212loPI   C3B 3391   0.313   3.926   8.931  0.0687  0.1148  0.0689
  212loPI   C4B 3392   0.567   3.976   8.637 -0.2092  0.1387  0.2256
  213loPI    C1 3393  10.868  13.620  11.024  0.0046  0.2033 -0.1514
  213loPI    C2 3394  10.864  13.544  11.416 -0.0533 -0.0834 -0.2053
  213loPI    C3 3395  10.971  13.906  11.284  0.0548 -0.0123  0.0694
  213loPI   PO4 3396  10.798  13.386  10.936 -0.2845  0.0230  0.2578
  213loPI   GL1 3397  10.776  13.148  10.567  0.0826 -0.0109 -0.0673
  213loPI   GL2 3398  10.494  13.171  10.578  0.2078  0.2510  0.1957
  213loPI   C1A 3399  10.934  13.239  10.201  0.0454  0.0139 -0.2368
  213loPI   C2A 3400  10.938  13.327   9.838 -0.0470 -0.2577  0.1082
  213loPI   C3A 3401  10.814  13.081   9.614 -0.0430 -0.0263  0.0075
  213loPI   C4A 3402  10.567  12.775   9.444 -0.0714  0.2972 -0.1020
  213loPI   C5A 3403  10.546  12.704   8.976  0.0736 -0.1294  0.0602
  213loPI   C6A 3404  10.614  12.411   8.613 -0.1358 -0.3462  0.1117
  213loPI   C1B 3405  10.433  12.900  10.197 -0.0325 -0.1958  0.3413
  213loPI   C2B 3406  10.231  12.936   9.792 -0.0238  0.2445 -0.1429
  213loPI   C3B 3407   9.969  12.898   9.380  0.1505 -0.0029 -0.1117
  213loPI   C4B 3408  10.078  12.842   8.920  0.0984  0.0849  0.2752
  214loPI    C1 3409  10.422  11.223  11.164 -0.2921  0.1347 -0.0082
  214loPI    C2 3410  10.483  10.867  11.336  0.1268  0.1839 -0.0445
  214loPI    C3 3411  10.320  11.166  11.547  0.0116  0.0476  0.0619
  214loPI   PO4 3412  10.251  11.239  10.954 -0.3017  0.0202 -0.0268
  214loPI   GL1 3413  10.028  11.307  10.594  0.0719 -0.0344  0.0131
  214loPI   GL2 3414  10.390  11.400  10.496  0.1775 -0.0069  0.1409
  214loPI   C1A 3415   9.805  11.514  10.311 -0.1657 -0.1068  0.0345
  214loPI   C2A 3416   9.479  11.571   9.974  0.1093 -0.2274 -0.1201
  214loPI   C3A 3417   9.257  11.285   9.646 -0.0551  0.2073 -0.3760
  214loPI   C4A 3418   8.922  11.397   9.469  0.0833 -0.0859  0.4725
  214loPI   C5A 3419   8.588  11.595   9.256  0.3664 -0.0031 -0.1705
  214loPI   C6A 3420   8.251  11.752   9.378  0.1479  0.0151  0.1773
  214loPI   C1B 3421  10.248  11.550  10.028  0.0050 -0.1128 -0.1221
  214loPI   C2B 3422   9.937  11.499   9.810 -0.1075  0.1748  0.2632
  214loPI   C3B 3423   9.855  11.505   9.320  0.0389  0.2382 -0.0604
  214loPI   C4B 3424   9.573  11.249   9.233 -0.2092 -0.1263 -0.2005
  215loPI    C1 3425   3.194   0.149  10.855 -0.0065  0.2563 -0.1916
  215loPI    C2 3426   2.861   0.348  10.948 -0.0850  0.0670 -0.0623
  215loPI    C3 3427   3.124   0.253  11.234  0.0215  0.1090 -0.1454
  215loPI   PO4 3428   3.337   0.227  10.707 -0.3023  0.1779  0.0249
  215loPI   GL1 3429   3.340   0.439  10.373  0.2659  0.3467 -0.1696
  215loPI   GL2 3430   3.550   0.749  10.462 -0.0092 -0.1345  0.0501
  215loPI   C1A 3431   3.312   0.754  10.069 -0.3037 -0.0799  0.0532
  215loPI   C2A 3432   3.533   0.954   9.715  0.3179  0.1764 -0.0441
  215loPI   C3A 3433   3.582   0.997   9.378  0.1404  0.0065  0.1566
  215loPI   C4A 3434   3.621   0.985   8.884  0.2466  0.0394 -0.1710
  215loPI   C5A 3435   3.664   1.288   8.591  0.1519 -0.1021  0.0515
  215loPI   C6A 3436   3.648   1.381   8.260 -0.2351 -0.1572  0.0003
  215loPI   C1B 3437   3.771   0.987  10.142  0.1242  0.2287 -0.0905
  215loPI   C2B 3438   4.087   1.157  10.088  0.2872 -0.2192  0.0306
  215loPI   C3B 3439   4.237   1.378   9.776  0.0141  0.0432  0.1415
  215loPI   C4B 3440   4.350   1.770   9.582  0.0013 -0.2287 -0.2970
  216loPI    C1 3441  17.198   2.193  10.070  0.1174 -0.1060 -0.0207
  216loPI    C2 3442  17.470   1.940   9.921  0.0717 -0.0015 -0.2884
  216loPI    C3 3443  17.110   1.972   9.749 -0.0790 -0.0690  0.0064
  216loPI   PO4 3444  17.469   2.336  10.209 -0.0612  0.2053 -0.2532
  216loPI   GL1 3445  17.822   2.577   9.951 -0.2365  0.0603  0.2580
  216loPI   GL2 3446  17.851   2.242   9.794 -0.0893 -0.2326  0.0897
  216loPI   C1A 3447  17.828   2.731   9.603  0.2157 -0.1426  0.4395
  216loPI   C2A 3448  17.984   2.821   9.313 -0.0349 -0.2625 -0.0763
  216loPI   C3A 3449  18.185   2.844   8.926  0.1114 -0.0177  0.1168
  216loPI   C4A 3450  18.360   2.940   8.509  0.2212 -0.2110 -0.3163
  216loPI   C5A 3451  18.773   2.997   8.447  0.0935 -0.0481 -0.0419
  216loPI   C6A 3452  19.163   2.802   8.374 -0.1327  0.1236 -0.0451
  216loPI   C1B 3453  17.663   2.000   9.492  0.2056 -0.2043  0.0307
  216loPI   C2B 3454  17.607   2.077   9.000 -0.5470  0.2289  0.0286
  216loPI   C3B 3455  17.589   1.993   8.604 -0.0488 -0.1200  0.0605
  216loPI   C4B 3456  17.884   1.990   8.257  0.2399 -0.2047  0.0649
  217loPI    C1 3457   2.145   7.272  10.980 -0.1183  0.0501 -0.1025
  217loPI    C2 3458   1.756   7.340  10.918 -0.1101  0.2254  0.0311
  217loPI    C3 3459   1.911   7.383  11.285  0.0296  0.1291 -0.0162
  217loPI   PO4 3460   2.129   7.065  10.718 -0.1841  0.1992 -0.1114
  217loPI   GL1 3461   2.149   7.006  10.406  0.0397  0.1692  0.0277
  217loPI   GL2 3462   1.969   6.675  10.376  0.0392 -0.0548  0.0550
  217loPI   C1A 3463   2.257   6.939   9.912 -0.0528  0.0915  0.1260
  217loPI   C2A 3464   2.277   6.998   9.474 -0.0957  0.0844  0.3483
  217loPI   C3A 3465   2.204   6.930   9.003 -0.1352 -0.0272 -0.3702
  217loPI   C4A 3466   1.943   6.793   8.694  0.0332  0.4112 -0.3606
  217loPI   C5A 3467   1.544   6.788   8.576  0.0214 -0.5916  0.0030
  217loPI   C6A 3468   1.240   6.939   8.750  0.0792 -0.1638  0.2506
  217loPI   C1B 3469   1.753   6.805  10.075 -0.3343 -0.0708 -0.2934
  217loPI   C2B 3470   1.790   6.950   9.658 -0.4399 -0.1437 -0.0619
  217loPI   C3B 3471   1.657   6.909   9.314  0.1971 -0.0565 -0.1217
  217loPI   C4B 3472   1.233   6.853   9.216  0.1751 -0.3962 -0.1752
  218loPI    C1 3473   3.633   2.669  11.125  0.0465  0.1059 -0.2082
  218loPI    C2 3474   3.290   2.685  11.330  0.1284 -0.1816 -0.0441
  218loPI    C3 3475   3.545   2.992  11.344  0.0049 -0.0827  0.0579
  218loPI   PO4 3476   3.586   2.678  10.863 -0.1172  0.2435  0.2499
  218loPI   GL1 3477   3.597   2.545  10.467 -0.3022 -0.2296  0.1940
  218loPI   GL2 3478   3.348   2.684  10.182 -0.1062  0.0220 -0.3159
  218loPI   C1A 3479   3.870   2.769  10.231  0.1648  0.0957 -0.0972
  218loPI   C2A 3480   4.107   2.770   9.895  0.0248 -0.0765  0.0235
  218loPI   C3A 3481   4.338   2.571   9.519 -0.0622  0.1388  0.1181
  218loPI   C4A 3482   4.280   2.641   9.054 -0.1675  0.1572  0.0274
  218loPI   C5A 3483   4.193   2.655   8.664  0.1649 -0.0091  0.1289
  218loPI   C6A 3484   4.029   2.369   8.362  0.0201 -0.1989 -0.0153
  218loPI   C1B 3485   3.263   2.335   9.846 -0.0088 -0.0397 -0.1646
  218loPI   C2B 3486   3.342   2.356   9.411  0.0199  0.0735 -0.1352
  218loPI   C3B 3487   3.505   2.092   9.123  0.3368 -0.3532 -0.0667
  218loPI   C4B 3488   3.701   2.220   8.783 -0.1424 -0.4117  0.0382
  219loPI    C1 3489   7.748  13.722  11.546 -0.2463 -0.1954 -0.0128
  219loPI    C2 3490   7.952  13.632  11.878 -0.1153  0.0646 -0.0209
  219loPI    C3 3491   7.555  13.674  11.893 -0.1291 -0.0894  0.0677
  219loPI   PO4 3492   7.785  13.574  11.384  0.1341 -0.1671  0.2218
  219loPI   GL1 3493   7.744  13.252  11.014  0.1346  0.3860  0.0594
  219loPI   GL2 3494   7.594  13.033  10.906  0.4296  0.1698  0.1382
  219loPI   C1A 3495   8.109  13.352  10.688 -0.1780 -0.0562  0.2508
  219loPI   C2A 3496   8.451  13.100  10.606 -0.1573  0.0391  0.2624
  219loPI   C3A 3497   8.471  12.751  10.363  0.0941  0.0125 -0.0383
  219loPI   C4A 3498   8.451  12.447  10.007  0.1077  0.2032  0.3801
  219loPI   C5A 3499   8.430  12.159   9.606  0.0215  0.1180  0.0819
  219loPI   C6A 3500   8.491  12.161   9.125 -0.0323  0.2221 -0.0763
  219loPI   C1B 3501   7.190  12.881  10.651  0.2273 -0.0422 -0.0319
  219loPI   C2B 3502   7.240  12.794  10.248 -0.0104 -0.2527 -0.2670
  219loPI   C3B 3503   7.514  12.730  10.040  0.1227 -0.0144  0.1333
  219loPI   C4B 3504   7.527  12.470   9.644  0.1463 -0.0746  0.1598
  220loPI    C1 3505   4.210   4.896  11.571  0.1172  0.1818 -0.0896
  220loPI    C2 3506   4.507   4.831  11.831  0.1092 -0.2317 -0.1772
  220loPI    C3 3507   4.222   4.555  11.779 -0.1918  0.0815 -0.2303
  220loPI   PO4 3508   4.417   4.994  11.296  0.0030  0.3611 -0.0715
  220loPI   GL1 3509   4.728   5.052  10.946 -0.0438 -0.0552  0.0292
  220loPI   GL2 3510   4.636   5.333  10.958  0.5139 -0.1093 -0.3628
  220loPI   C1A 3511   4.650   4.932  10.538 -0.2621  0.0943 -0.4596
  220loPI   C2A 3512   4.681   4.952  10.171  0.4883  0.0677 -0.0839
  220loPI   C3A 3513   4.711   4.935   9.676 -0.0401  0.0279 -0.0468
  220loPI   C4A 3514   4.694   4.911   9.201 -0.1777  0.1031 -0.0403
  220loPI   C5A 3515   4.479   4.917   8.724 -0.0552 -0.1466 -0.2943
  220loPI   C6A 3516   4.441   4.960   8.293  0.2248 -0.1073 -0.0217
  220loPI   C1B 3517   4.493   5.390  10.522 -0.0820  0.2399  0.0673
  220loPI   C2B 3518   4.439   5.486  10.115 -0.0807  0.0381  0.2175
  220loPI   C3B 3519   4.399   5.375   9.660  0.1165  0.3039 -0.1572
  220loPI   C4B 3520   4.464   5.368   9.190  0.1574 -0.0089 -0.0349
  221loPI    C1 3521   3.599   4.783  11.420  0.1370  0.2256  0.0754
  221loPI    C2 3522   3.412   4.970  11.720  0.1258  0.0224  0.1967
  221loPI    C3 3523   3.574   4.609  11.779  0.2563  0.0470 -0.0013
  221loPI   PO4 3524   3.437   4.846  11.242  0.1929  0.2112  0.1161
  221loPI   GL1 3525   3.458   4.909  10.817 -0.0080  0.0274  0.3883
  221loPI   GL2 3526   3.749   5.045  10.701  0.1594  0.0866 -0.1285
  221loPI   C1A 3527   3.361   4.683  10.409 -0.2022  0.1736  0.2355
  221loPI   C2A 3528   3.212   4.829   9.912  0.0345  0.0808 -0.2037
  221loPI   C3A 3529   3.131   4.848   9.523 -0.0308  0.2474 -0.1773
  221loPI   C4A 3530   3.091   4.716   9.071 -0.0130  0.1244 -0.2703
  221loPI   C5A 3531   3.184   4.538   8.696 -0.2577 -0.1035  0.1854
  221loPI   C6A 3532   3.604   4.450   8.515  0.0789 -0.1379 -0.0482
  221loPI   C1B 3533   3.751   4.964  10.312  0.1474  0.2599  0.0099
  221loPI   C2B 3534   3.694   4.810   9.839  0.1283  0.0981 -0.2090
  221loPI   C3B 3535   3.704   4.820   9.369 -0.2123 -0.2397  0.1553
  221loPI   C4B 3536   3.632   4.746   8.901  0.1303  0.1783  0.1694
  222loPI    C1 3537   3.326  17.589  10.995 -0.0699 -0.1144 -0.1297
  222loPI    C2 3538   2.991  17.716  11.173  0.0373 -0.2970  0.2121
  222loPI    C3 3539   3.347  17.792  11.339  0.1657 -0.1519 -0.1202
  222loPI   PO4 3540   3.316  17.570  10.706  0.1051 -0.3550  0.1432
  222loPI   GL1 3541   3.408  17.842  10.285 -0.0939 -0.0527 -0.2473
  222loPI   GL2 3542   3.113  17.950  10.291 -0.2847  0.1916  0.0645
  222loPI   C1A 3543   3.275  17.593   9.945  0.0235 -0.3170 -0.0835
  222loPI   C2A 3544   3.396  17.349   9.635  0.3590 -0.3290  0.1525
  222loPI   C3A 3545   3.459  17.377   9.150 -0.1526 -0.0105 -0.0834
  222loPI   C4A 3546   3.789  17.392   8.762  0.1861  0.0005 -0.3440
  222loPI   C5A 3547   4.020  17.017   8.625  0.0418  0.1247 -0.0279
  222loPI   C6A 3548   3.972  16.555   8.621  0.1323  0.2180 -0.2438
  222loPI   C1B 3549   3.405  18.212   9.958  0.4536  0.1925 -0.1365
  222loPI   C2B 3550   3.612  18.412   9.673  0.1753 -0.2105  0.0044
  222loPI   C3B 3551   3.831  18.539   9.387 -0.2279 -0.0339 -0.3251
  222loPI   C4B 3552   3.977  18.737   9.045 -0.1961  0.0540  0.1684
  223loPI    C1 3553   7.846   0.449  11.362  0.2484 -0.0811  0.0695
  223loPI    C2 3554   8.054   0.719  11.153  0.0002  0.2538  0.2458
  223loPI    C3 3555   7.713   0.825  11.333 -0.2668 -0.2559  0.0601
  223loPI   PO4 3556   7.852   0.259  11.176 -0.1612 -0.0131  0.1283
  223loPI   GL1 3557   7.780   0.416  10.684  0.0837 -0.1920  0.0258
  223loPI   GL2 3558   8.187   0.379  10.696 -0.1307  0.0583  0.0806
  223loPI   C1A 3559   7.779   0.667  10.319  0.1401 -0.0107 -0.1056
  223loPI   C2A 3560   7.571   0.621   9.939  0.2385  0.0103  0.0605
  223loPI   C3A 3561   7.559   0.305   9.564 -0.0192  0.4024  0.1246
  223loPI   C4A 3562   7.579   0.330   9.167 -0.2396 -0.1225 -0.1661
  223loPI   C5A 3563   7.345   0.349   8.793 -0.3767 -0.0338  0.2389
  223loPI   C6A 3564   7.267   0.733   8.658  0.2153 -0.0941  0.1971
  223loPI   C1B 3565   8.027   0.239  10.321  0.1057 -0.2818  0.0973
  223loPI   C2B 3566   8.189   0.286   9.807  0.1292  0.0207 -0.1306
  223loPI   C3B 3567   8.044   0.364   9.426  0.0281 -0.0119  0.1827
  223loPI   C4B 3568   8.069   0.473   9.020 -0.1099 -0.0290  0.1599
  224loPI    C1 3569   0.214   7.246  10.718  0.6108 -0.1822 -0.1983
  224loPI    C2 3570   0.278   7.099  11.085 -0.1732  0.1542  0.0932
  224loPI    C3 3571   0.086   6.879  10.812  0.1065  0.0334 -0.0093
  224loPI   PO4 3572   0.435   7.333  10.609  0.1928 -0.3156 -0.2103
  224loPI   GL1 3573   0.479   7.285  10.178  0.2226 -0.0004  0.1922
  224loPI   GL2 3574   0.541   6.944  10.274  0.0059  0.1289 -0.0371
  224loPI   C1A 3575   0.762   7.089   9.892 -0.0753  0.0792 -0.3069
  224loPI   C2A 3576   0.885   6.909   9.644  0.1537  0.1486  0.1291
  224loPI   C3A 3577   0.720   6.808   9.175 -0.1380 -0.1336 -0.1688
  224loPI   C4A 3578   0.882   6.580   8.775  0.0930  0.1563 -0.1326
  224loPI   C5A 3579   1.274   6.426   8.631  0.0927  0.2143 -0.4245
  224loPI   C6A 3580   1.588   6.486   8.991 -0.2990  0.2304  0.1875
  224loPI   C1B 3581   0.824   6.619  10.105 -0.1506  0.1315 -0.1247
  224loPI   C2B 3582   1.001   6.204   9.860 -0.2014 -0.1664 -0.0238
  224loPI   C3B 3583   1.017   5.791   9.824 -0.1638 -0.3552  0.0752
  224loPI   C4B 3584   0.966   5.422  10.011 -0.2641 -0.1171  0.2513
  225loPI    C1 3585   9.705   0.045  10.802  0.0456  0.4271 -0.1393
  225loPI    C2 3586   9.605   0.213  11.151 -0.1028  0.1557 -0.0485
  225loPI    C3 3587   9.694  -0.176  11.135 -0.0594  0.1745 -0.3080
  225loPI   PO4 3588   9.709   0.151  10.676 -0.1738 -0.1853 -0.2277
  225loPI   GL1 3589   9.498   0.110  10.282 -0.1785  0.1931 -0.0197
  225loPI   GL2 3590   9.631  -0.164  10.240  0.1632  0.1565 -0.3178
  225loPI   C1A 3591   9.405   0.162   9.854 -0.3470 -0.1989 -0.3773
  225loPI   C2A 3592   9.351   0.084   9.388 -0.2283 -0.0398  0.0054
  225loPI   C3A 3593   9.469  -0.110   9.049  0.0389  0.0190 -0.1611
  225loPI   C4A 3594   9.326  -0.463   8.883 -0.2241  0.1280  0.2475
  225loPI   C5A 3595   9.126  -0.736   8.639  0.1879  0.0593  0.0131
  225loPI   C6A 3596   8.779  -0.773   8.405  0.1125 -0.1126 -0.2169
  225loPI   C1B 3597   9.410  -0.330   9.924  0.1334  0.0888 -0.0991
  225loPI   C2B 3598   9.122  -0.394   9.796  0.0822 -0.3630 -0.0962
  225loPI   C3B 3599   9.010  -0.642   9.532 -0.1058 -0.2298 -0.0962
  225loPI   C4B 3600   9.219  -0.864   9.198  0.1331 -0.0555  0.0658
  226loPI    C1 3601   2.824   6.814  11.358  0.0811 -0.0055  0.1632
  226loPI    C2 3602   2.544   7.088  11.278 -0.0031 -0.1658 -0.1047
  226loPI    C3 3603   2.598   6.961  11.653 -0.0364  0.1354  0.0050
  226loPI   PO4 3604   3.030   6.921  11.271  0.2874  0.1799 -0.2510
  226loPI   GL1 3605   3.269   7.230  11.060 -0.1669 -0.0454  0.1676
  226loPI   GL2 3606   3.414   6.981  10.970  0.1379  0.1828 -0.0204
  226loPI   C1A 3607   3.231   7.227  10.602  0.0453 -0.1620  0.1976
  226loPI   C2A 3608   3.163   7.149  10.146 -0.1512 -0.1828  0.0160
  226loPI   C3A 3609   3.298   7.048   9.726  0.2164  0.1135 -0.0975
  226loPI   C4A 3610   3.301   7.034   9.276  0.0874 -0.4677  0.2002
  226loPI   C5A 3611   3.497   7.166   8.840 -0.0612 -0.1499 -0.6423
  226loPI   C6A 3612   3.498   7.080   8.462  0.0763 -0.1544  0.0900
  226loPI   C1B 3613   3.476   6.812  10.477  0.1619  0.0208  0.0372
  226loPI   C2B 3614   3.579   6.792  10.013 -0.0093 -0.0859 -0.3110
  226loPI   C3B 3615   3.552   6.593   9.627 -0.1685 -0.1285 -0.2470
  226loPI   C4B 3616   3.513   6.576   9.239 -0.3365  0.0536  0.0475
  227loPI    C1 3617  12.011  11.639  11.019  0.4177  0.2880  0.1557
  227loPI    C2 3618  12.251  11.445  10.764  0.0790 -0.0136  0.0577
  227loPI    C3 3619  12.325  11.434  11.157  0.2591 -0.0519  0.0235
  227loPI   PO4 3620  11.772  11.602  10.950 -0.1043  0.0216  0.2164
  227loPI   GL1 3621  11.565  11.499  10.467 -0.0935  0.1984 -0.0423
  227loPI   GL2 3622  11.812  11.336  10.525 -0.1155  0.0350  0.2047
  227loPI   C1A 3623  11.229  11.285  10.256 -0.3835 -0.0167 -0.0398
  227loPI   C2A 3624  11.018  11.188   9.904  0.0451 -0.1714  0.0200
  227loPI   C3A 3625  10.606  11.174   9.694 -0.1437  0.0854  0.2101
  227loPI   C4A 3626  10.360  11.495   9.440  0.0321  0.1200  0.2626
  227loPI   C5A 3627  10.312  11.543   9.021 -0.3677  0.1008 -0.2218
  227loPI   C6A 3628  10.145  11.734   8.614 -0.0702  0.3449 -0.0573
  227loPI   C1B 3629  11.682  11.290   9.974 -0.0315 -0.1110  0.1204
  227loPI   C2B 3630  11.511  11.154   9.622 -0.1160 -0.1608  0.2597
  227loPI   C3B 3631  11.468  11.375   9.301  0.2005  0.0291  0.1560
  227loPI   C4B 3632  11.225  11.352   9.019  0.2636  0.2574 -0.0982
  228loPI    C1 3633   6.804  10.312  11.652  0.0529  0.0177 -0.1262
  228loPI    C2 3634   6.653  10.675  11.723  0.1057  0.0368 -0.1111
  228loPI    C3 3635   6.866  10.488  12.006  0.1321  0.0208 -0.1413
  228loPI   PO4 3636   6.813  10.329  11.290  0.1474  0.1939  0.2082
  228loPI   GL1 3637   7.000  10.198  10.939 -0.3394 -0.0815 -0.1906
  228loPI   GL2 3638   7.065   9.935  11.081 -0.0553 -0.0904 -0.0366
  228loPI   C1A 3639   6.818  10.107  10.595  0.1412 -0.2164 -0.0104
  228loPI   C2A 3640   6.522  10.144  10.421  0.3212 -0.1306 -0.2247
  228loPI   C3A 3641   6.405  10.154  10.027  0.0429 -0.3490  0.1029
  228loPI   C4A 3642   6.195  10.178   9.648 -0.1071  0.1238  0.0079
  228loPI   C5A 3643   6.191  10.168   9.121 -0.0780 -0.2280 -0.1310
  228loPI   C6A 3644   6.307   9.895   8.725 -0.0184 -0.0703 -0.1017
  228loPI   C1B 3645   7.400   9.935  10.771  0.0145 -0.2028 -0.1123
  228loPI   C2B 3646   7.543   9.629  10.484  0.1830  0.3549 -0.2499
  228loPI   C3B 3647   7.668   9.679  10.144  0.1938 -0.2256 -0.4205
  228loPI   C4B 3648   7.761  10.006   9.815  0.0917  0.2112  0.0642
  229loPI    C1 3649  17.620   3.478  10.856  0.0610 -0.0255 -0.1100
  229loPI    C2 3650  17.308   3.509  10.607 -0.0884 -0.2118  0.0504
  229loPI    C3 3651  17.259   3.349  10.970  0.1745 -0.1489  0.1162
  229loPI   PO4 3652  17.858   3.423  10.689  0.1775 -0.0720 -0.1621
  229loPI   GL1 3653  17.847   3.307  10.274 -0.0479 -0.3140 -0.2684
  229loPI   GL2 3654  18.011   3.020  10.167 -0.1133  0.0818 -0.1182
  229loPI   C1A 3655  17.884   3.749  10.030 -0.1685 -0.2108 -0.1160
  229loPI   C2A 3656  17.902   3.815   9.597  0.1924  0.2659 -0.0799
  229loPI   C3A 3657  17.749   3.901   9.108  0.0190  0.2496  0.2930
  229loPI   C4A 3658  17.892   4.074   8.643  0.0928  0.1197 -0.1460
  229loPI   C5A 3659  18.255   4.373   8.618 -0.0352 -0.3225  0.0499
  229loPI   C6A 3660  18.637   4.462   8.592  0.1007 -0.0689  0.1492
  229loPI   C1B 3661  18.051   3.226   9.806  0.0351 -0.0307  0.3008
  229loPI   C2B 3662  17.870   3.328   9.508  0.0088  0.0795 -0.1179
  229loPI   C3B 3663  17.895   3.419   9.123  0.2536  0.1745 -0.3113
  229loPI   C4B 3664  17.805   3.506   8.707 -0.0383 -0.0350 -0.1113
  230loPI    C1 3665   5.288   1.942  10.866  0.2475 -0.1846  0.1275
  230loPI    C2 3666   5.148   1.898  11.238  0.3392 -0.2810  0.1509
  230loPI    C3 3667   5.462   2.136  11.170  0.1851 -0.0895  0.1029
  230loPI   PO4 3668   5.117   2.007  10.737  0.2355 -0.2370  0.0235
  230loPI   GL1 3669   5.140   2.245  10.412 -0.3805  0.1586 -0.3533
  230loPI   GL2 3670   5.101   2.622  10.448  0.0579  0.0302 -0.1315
  230loPI   C1A 3671   4.973   2.166  10.040  0.2137 -0.1777 -0.2490
  230loPI   C2A 3672   5.158   2.309   9.609  0.0334  0.0201  0.0051
  230loPI   C3A 3673   5.118   2.233   9.136 -0.2030  0.1762  0.1285
  230loPI   C4A 3674   5.042   2.233   8.622  0.3170  0.0880 -0.2940
  230loPI   C5A 3675   5.059   2.381   8.231 -0.3509  0.0073  0.1686
  230loPI   C6A 3676   4.880   2.712   8.046  0.1933 -0.0868 -0.0138
  230loPI   C1B 3677   5.246   2.741  10.112 -0.0212  0.0182 -0.1445
  230loPI   C2B 3678   5.321   2.772   9.693  0.1896  0.0694  0.0485
  230loPI   C3B 3679   5.253   2.742   9.221  0.1845 -0.4057  0.1719
  230loPI   C4B 3680   5.234   2.611   8.779 -0.0484 -0.0266  0.2424
  231loPI    C1 3681   4.264   1.384  10.803  0.1521  0.3888  0.2032
  231loPI    C2 3682   4.384   1.571  11.136 -0.0341  0.1563  0.4039
  231loPI    C3 3683   4.036   1.372  11.131 -0.0726  0.2253  0.0445
  231loPI   PO4 3684   4.362   1.633  10.593 -0.3060  0.1921  0.1132
  231loPI   GL1 3685   4.390   1.654  10.201  0.0504  0.2604  0.2795
  231loPI   GL2 3686   4.554   1.891  10.034 -0.0428 -0.3291 -0.0024
  231loPI   C1A 3687   4.035   1.760  10.012 -0.3547  0.0968 -0.0466
  231loPI   C2A 3688   3.665   1.521   9.896  0.2186 -0.1761 -0.1610
  231loPI   C3A 3689   3.497   1.462   9.502 -0.0190  0.2745 -0.2360
  231loPI   C4A 3690   3.435   1.428   9.106 -0.0847  0.1610  0.0076
  231loPI   C5A 3691   3.182   1.323   8.792 -0.0764 -0.1432  0.1553
  231loPI   C6A 3692   2.984   1.015   8.549 -0.3457 -0.0944  0.0449
  231loPI   C1B 3693   4.577   2.218   9.732  0.0224  0.1056  0.3618
  231loPI   C2B 3694   4.596   2.227   9.261  0.1355 -0.1191  0.0675
  231loPI   C3B 3695   4.537   2.247   8.820  0.1793  0.1873  0.2037
  231loPI   C4B 3696   4.575   2.269   8.350  0.1410  0.0382  0.1258
  232loPI    C1 3697   6.809   7.608  11.489  0.0084 -0.2343 -0.0264
  232loPI    C2 3698   6.438   7.512  11.375  0.0436 -0.2346 -0.1416
  232loPI    C3 3699   6.607   7.324  11.685 -0.0039 -0.3261 -0.1712
  232loPI   PO4 3700   6.964   7.560  11.300 -0.1289 -0.0168  0.2315
  232loPI   GL1 3701   6.970   7.745  10.947  0.1617 -0.0737  0.1863
  232loPI   GL2 3702   7.043   8.078  10.854 -0.1123  0.1529 -0.0509
  232loPI   C1A 3703   6.944   7.473  10.619  0.2222  0.0820 -0.1994
  232loPI   C2A 3704   6.837   7.442  10.131 -0.2924  0.1179 -0.3128
  232loPI   C3A 3705   6.420   7.292   9.884 -0.0450  0.1633 -0.0388
  232loPI   C4A 3706   6.217   7.392   9.467 -0.1928 -0.0643 -0.0351
  232loPI   C5A 3707   6.380   7.309   9.113  0.4990 -0.1215 -0.2080
  232loPI   C6A 3708   6.299   7.115   8.639  0.1451 -0.2054  0.1420
  232loPI   C1B 3709   7.048   7.977  10.443 -0.0450  0.0857 -0.1813
  232loPI   C2B 3710   7.046   7.939  10.065 -0.1907  0.1100 -0.1051
  232loPI   C3B 3711   6.972   7.829   9.696 -0.1604 -0.1546  0.0521
  232loPI   C4B 3712   6.870   7.368   9.550  0.4164 -0.1731 -0.0534
  233loPI    C1 3713  16.828  10.272  10.751  0.1365 -0.0764  0.0278
  233loPI    C2 3714  17.008  10.549  10.976 -0.3092  0.0185  0.2802
  233loPI    C3 3715  17.017  10.165  11.087  0.0442 -0.0315  0.0945
  233loPI   PO4 3716  16.666  10.412  10.554 -0.0068 -0.0395  0.2583
  233loPI   GL1 3717  16.793  10.253  10.191 -0.1466  0.0629 -0.2523
  233loPI   GL2 3718  16.479  10.074  10.228 -0.1020  0.2450  0.1483
  233loPI   C1A 3719  17.101  10.369   9.872  0.2490  0.0873 -0.4966
  233loPI   C2A 3720  17.022  10.738   9.594  0.0040  0.1194 -0.2737
  233loPI   C3A 3721  17.087  10.753   9.221 -0.0718 -0.1193 -0.0722
  233loPI   C4A 3722  17.053  10.788   8.798 -0.0641 -0.0367 -0.0639
  233loPI   C5A 3723  17.013  10.463   8.453  0.3493  0.1264  0.0115
  233loPI   C6A 3724  16.714  10.257   8.415 -0.2066 -0.0386 -0.2083
  233loPI   C1B 3725  16.744   9.892   9.854  0.0075 -0.2122  0.1224
  233loPI   C2B 3726  17.028   9.999   9.468  0.0592 -0.0186  0.1096
  233loPI   C3B 3727  17.164   9.896   9.110 -0.2777 -0.3885  0.2107
  233loPI   C4B 3728  17.433   9.901   8.811 -0.2986 -0.2299  0.2168
  234loPI    C1 3729  10.147   6.576  11.405 -0.0666  0.0797 -0.1199
  234loPI    C2 3730  10.436   6.776  11.597  0.2960 -0.3262 -0.2268
  234loPI    C3 3731  10.191   6.533  11.800 -0.0547  0.1055 -0.1185
  234loPI   PO4 3732   9.964   6.614  11.278 -0.1676  0.1414 -0.1258
  234loPI   GL1 3733   9.780   6.988  10.944 -0.0454  0.1624 -0.0827
  234loPI   GL2 3734   9.606   6.686  10.982 -0.0779 -0.0067 -0.0431
  234loPI   C1A 3735  10.074   6.843  10.580 -0.1577  0.1349  0.4428
  234loPI   C2A 3736  10.040   6.905  10.128  0.3230 -0.0827  0.1542
  234loPI   C3A 3737  10.029   6.852   9.707 -0.0573  0.0381  0.0777
  234loPI   C4A 3738  10.010   6.907   9.328  0.1017 -0.2083 -0.0723
  234loPI   C5A 3739  10.184   7.001   9.033 -0.0210 -0.2532 -0.2477
  234loPI   C6A 3740  10.388   7.440   9.012 -0.1236 -0.0494 -0.2261
  234loPI   C1B 3741   9.555   6.744  10.565  0.0331  0.1422  0.1728
  234loPI   C2B 3742   9.512   6.782  10.160  0.2477  0.2418  0.1679
  234loPI   C3B 3743   9.473   6.744   9.727 -0.1689 -0.1250 -0.0165
  234loPI   C4B 3744   9.432   6.770   9.275  0.0439 -0.0354 -0.0819
  235loPI    C1 3745   5.327   0.515  11.023  0.1896 -0.0398 -0.0074
  235loPI    C2 3746   5.071   0.210  11.056  0.0539  0.0871  0.1280
  235loPI    C3 3747   5.297   0.315  11.368  0.2367  0.0072  0.0240
  235loPI   PO4 3748   5.241   0.697  10.915 -0.0612  0.1458  0.1485
  235loPI   GL1 3749   5.193   0.998  10.517  0.2038  0.0721  0.0663
  235loPI   GL2 3750   4.966   0.781  10.450  0.1812  0.1080 -0.0461
  235loPI   C1A 3751   5.216   1.283  10.199 -0.0577  0.1634 -0.2500
  235loPI   C2A 3752   5.276   1.404   9.803  0.1128 -0.1296  0.1612
  235loPI   C3A 3753   5.147   1.408   9.364 -0.1658 -0.0433 -0.0630
  235loPI   C4A 3754   5.257   1.607   8.987  0.1516 -0.0608 -0.0890
  235loPI   C5A 3755   5.486   1.785   8.754 -0.0432 -0.0095 -0.3867
  235loPI   C6A 3756   5.876   1.998   8.725 -0.4237  0.0120  0.1570
  235loPI   C1B 3757   5.018   0.788  10.074 -0.5118 -0.0534 -0.2081
  235loPI   C2B 3758   4.987   0.995   9.633  0.0523  0.0782  0.0282
  235loPI   C3B 3759   4.885   0.883   9.191  0.4113  0.0592 -0.0716
  235loPI   C4B 3760   4.619   0.900   8.818 -0.1942 -0.5902 -0.2792
  236loPI    C1 3761   9.281   7.620  11.446 -0.2818  0.0935  0.1686
  236loPI    C2 3762   9.314   7.226  11.388  0.0892  0.1189  0.1850
  236loPI    C3 3763   9.203   7.366  11.746 -0.1420  0.0288  0.1507
  236loPI   PO4 3764   9.152   7.818  11.292 -0.1035 -0.4842  0.0060
  236loPI   GL1 3765   9.153   7.685  10.896 -0.1534  0.0158 -0.0509
  236loPI   GL2 3766   9.319   7.914  10.837  0.0208 -0.1642 -0.0650
  236loPI   C1A 3767   8.875   7.752  10.629  0.2267  0.2265  0.1141
  236loPI   C2A 3768   8.932   7.598  10.221 -0.0991 -0.2511 -0.1324
  236loPI   C3A 3769   8.833   7.630   9.778 -0.0299  0.0058  0.0742
  236loPI   C4A 3770   8.912   7.588   9.310 -0.0155  0.0438 -0.1167
  236loPI   C5A 3771   8.613   7.649   8.973 -0.0897 -0.0618 -0.1441
  236loPI   C6A 3772   8.597   7.448   8.680  0.2607 -0.0248  0.1254
  236loPI   C1B 3773   9.218   7.994  10.378 -0.1925 -0.0464 -0.1194
  236loPI   C2B 3774   9.135   8.037   9.978 -0.1202 -0.1337  0.0626
  236loPI   C3B 3775   9.030   8.048   9.493  0.0959 -0.2285  0.0383
  236loPI   C4B 3776   8.571   7.979   9.337  0.2235 -0.3143 -0.3015
  237loPI    C1 3777   5.170   3.399  11.093 -0.2714 -0.1329 -0.0542
  237loPI    C2 3778   4.844   3.476  11.312 -0.0286  0.2272  0.1907
  237loPI    C3 3779   5.018   3.116  11.332 -0.2280  0.1350  0.2973
  237loPI   PO4 3780   5.112   3.428  10.915 -0.0620 -0.0436  0.0769
  237loPI   GL1 3781   4.853   3.256  10.529  0.1567  0.1646 -0.1368
  237loPI   GL2 3782   4.634   3.485  10.319 -0.0549  0.1340 -0.0141
  237loPI   C1A 3783   4.879   3.124  10.078 -0.0461 -0.1104  0.0477
  237loPI   C2A 3784   5.015   3.173   9.690 -0.1978  0.3850 -0.2939
  237loPI   C3A 3785   4.683   3.156   9.327 -0.1481  0.2982  0.1825
  237loPI   C4A 3786   4.482   3.142   9.042 -0.0218  0.2166  0.0452
  237loPI   C5A 3787   4.105   3.167   8.700  0.0976  0.0995 -0.0028
  237loPI   C6A 3788   3.616   3.186   8.652  0.0001  0.1937  0.1485
  237loPI   C1B 3789   4.646   3.664   9.960  0.0855 -0.0499 -0.0256
  237loPI   C2B 3790   4.671   3.595   9.472 -0.1350 -0.1529 -0.0729
  237loPI   C3B 3791   4.676   3.640   9.032 -0.0840  0.1420 -0.1986
  237loPI   C4B 3792   4.703   3.594   8.595 -0.0768  0.1011 -0.0704
  238loPI    C1 3793   4.559   2.464  11.031  0.1928 -0.1874 -0.0031
  238loPI    C2 3794   4.318   2.144  11.032 -0.0992  0.0274 -0.0695
  238loPI    C3 3795   4.681   2.122  11.199 -0.0981 -0.3494 -0.1129
  238loPI   PO4 3796   4.609   2.535  10.805  0.0257 -0.2663  0.1151
  238loPI   GL1 3797   4.558   2.875  10.628 -0.0958  0.1347 -0.0506
  238loPI   GL2 3798   4.290   2.743  10.493 -0.2727  0.2093  0.1561
  238loPI   C1A 3799   4.654   2.577  10.176 -0.1966 -0.1364 -0.2217
  238loPI   C2A 3800   4.832   2.667   9.748 -0.1783  0.0535  0.1298
  238loPI   C3A 3801   4.833   2.649   9.362  0.1844  0.0045 -0.2304
  238loPI   C4A 3802   4.776   2.651   8.926  0.3765  0.0342  0.4030
  238loPI   C5A 3803   4.622   2.717   8.508 -0.0859 -0.0572 -0.2697
  238loPI   C6A 3804   4.499   2.970   8.377 -0.0930  0.0560 -0.0315
  238loPI   C1B 3805   4.384   3.063  10.254 -0.0164 -0.2684  0.3669
  238loPI   C2B 3806   4.496   3.142   9.795  0.2009 -0.2757 -0.0868
  238loPI   C3B 3807   4.206   3.018   9.470  0.4508  0.0629 -0.0428
  238loPI   C4B 3808   3.884   3.148   9.154  0.1026  0.0217 -0.0787
  239loPI    C1 3809   9.713   3.226  11.037  0.0510 -0.1052 -0.0008
  239loPI    C2 3810   9.980   2.954  11.161 -0.0390 -0.2238 -0.0655
  239loPI    C3 3811   9.922   3.289  11.373  0.0004 -0.3012  0.0685
  239loPI   PO4 3812   9.821   3.305  10.787 -0.0775 -0.2037 -0.0172
  239loPI   GL1 3813   9.831   3.185  10.415 -0.0643  0.0992  0.1327
  239loPI   GL2 3814   9.514   2.968  10.479 -0.0910 -0.1476  0.2063
  239loPI   C1A 3815   9.828   3.148   9.951 -0.0495  0.0349  0.5033
  239loPI   C2A 3816   9.830   3.296   9.625  0.0516  0.0365  0.4321
  239loPI   C3A 3817   9.826   3.309   9.108  0.1913 -0.1573  0.2846
  239loPI   C4A 3818   9.701   3.298   8.730  0.2262 -0.1207  0.1354
  239loPI   C5A 3819   9.314   3.230   8.436 -0.1527  0.2627 -0.0127
  239loPI   C6A 3820   8.906   3.451   8.275 -0.1524 -0.1075  0.1243
  239loPI   C1B 3821   9.294   3.293  10.178  0.0665  0.3246  0.2134
  239loPI   C2B 3822   9.359   3.268   9.768  0.3057  0.3633  0.1554
  239loPI   C3B 3823   9.316   3.213   9.316  0.1248 -0.0780 -0.0486
  239loPI   C4B 3824   9.251   3.311   8.892  0.2084  0.0241  0.1822
  240loPI    C1 3825   9.495  12.644  11.306 -0.0117  0.0910  0.0084
  240loPI    C2 3826   9.479  12.905  11.609  0.0228  0.0066  0.0835
  240loPI    C3 3827   9.796  12.665  11.568  0.0541  0.0719 -0.0653
  240loPI   PO4 3828   9.372  12.840  11.063 -0.0333  0.0547  0.0363
  240loPI   GL1 3829   9.128  12.877  10.663  0.3178  0.1961  0.1716
  240loPI   GL2 3830   9.012  12.476  10.683 -0.1200  0.1167 -0.1041
  240loPI   C1A 3831   9.280  13.030  10.266 -0.1853  0.1201 -0.2518
  240loPI   C2A 3832   9.238  12.767   9.820  0.1452  0.2174 -0.0548
  240loPI   C3A 3833   9.303  12.719   9.413  0.0644 -0.6006  0.0770
  240loPI   C4A 3834   9.533  12.833   9.061 -0.0644  0.2555 -0.2196
  240loPI   C5A 3835   9.562  12.945   8.631  0.3207 -0.2229  0.1625
  240loPI   C6A 3836   9.873  12.877   8.266  0.0752 -0.2126 -0.1695
  240loPI   C1B 3837   8.985  12.571  10.204 -0.0305  0.1245 -0.0452
  240loPI   C2B 3838   8.908  12.260   9.820  0.1252 -0.2360  0.0388
  240loPI   C3B 3839   8.883  12.459   9.507  0.1477  0.0305 -0.3833
  240loPI   C4B 3840   9.025  12.493   9.125  0.0831  0.0290  0.0280
  241loPI    C1 3841  16.912  11.222  10.426  0.0679  0.0708  0.1861
  241loPI    C2 3842  16.946  11.001  10.758 -0.1665 -0.2509  0.0029
  241loPI    C3 3843  16.641  10.939  10.508 -0.0127  0.0129 -0.2568
  241loPI   PO4 3844  17.107  11.199  10.260  0.2016  0.1795 -0.0936
  241loPI   GL1 3845  17.218  10.926   9.962  0.4207 -0.3594  0.0555
  241loPI   GL2 3846  17.509  10.671  10.078  0.0886  0.0031  0.1081
  241loPI   C1A 3847  17.430  10.984   9.575  0.0476 -0.1111 -0.1822
  241loPI   C2A 3848  17.508  10.902   9.083  0.0111  0.2340  0.1248
  241loPI   C3A 3849  17.476  11.130   8.727  0.0360 -0.3638  0.0831
  241loPI   C4A 3850  17.478  11.341   8.371 -0.1803  0.1406 -0.2593
  241loPI   C5A 3851  17.354  11.703   8.087  0.1380  0.1606  0.2584
  241loPI   C6A 3852  17.272  12.136   8.166  0.0676 -0.1430 -0.0912
  241loPI   C1B 3853  17.546  10.375   9.647 -0.0141 -0.4468 -0.0726
  241loPI   C2B 3854  17.377  10.315   9.267 -0.0819 -0.0550 -0.3185
  241loPI   C3B 3855  17.431  10.425   8.909  0.0536  0.0763 -0.0516
  241loPI   C4B 3856  17.642  10.619   8.575  0.0014 -0.2027 -0.3593
  242loPI    C1 3857  10.148   7.440  11.428  0.1555 -0.0402 -0.0691
  242loPI    C2 3858  10.245   7.542  11.803  0.0541 -0.2559  0.0172
  242loPI    C3 3859  10.277   7.811  11.508  0.2507 -0.1208  0.1591
  242loPI   PO4 3860  10.325   7.213  11.429  0.1172  0.1690  0.1851
  242loPI   GL1 3861  10.311   6.978  11.024 -0.0578  0.0558  0.0801
  242loPI   GL2 3862  10.586   6.778  11.073  0.0102 -0.2440 -0.1113
  242loPI   C1A 3863  10.503   7.098  10.572  0.0628 -0.1505 -0.0501
  242loPI   C2A 3864  10.494   6.975  10.183  0.1374 -0.3040  0.2251
  242loPI   C3A 3865  10.523   6.883   9.811  0.1363 -0.1880 -0.2132
  242loPI   C4A 3866  10.602   7.002   9.364 -0.2485  0.0687  0.1127
  242loPI   C5A 3867  10.896   7.097   9.107  0.0434 -0.1141  0.1960
  242loPI   C6A 3868  11.372   6.992   8.782 -0.0868  0.0380  0.1521
  242loPI   C1B 3869  10.643   6.626  10.640  0.0268 -0.0060 -0.0508
  242loPI   C2B 3870  10.749   6.572  10.247  0.1277  0.1770 -0.0579
  242loPI   C3B 3871  10.815   6.507   9.784 -0.1885 -0.0469  0.2096
  242loPI   C4B 3872  10.761   6.525   9.349  0.2381  0.1803  0.4636
  243loPI    C1 3873   1.516   7.740  10.899 -0.1442 -0.0009 -0.1065
  243loPI    C2 3874   1.170   7.717  11.097 -0.1170 -0.1588 -0.0757
  243loPI    C3 3875   1.514   7.658  11.290 -0.0851 -0.2202 -0.1509
  243loPI   PO4 3876   1.448   7.663  10.664  0.2568 -0.0063 -0.0181
  243loPI   GL1 3877   1.590   7.390  10.380  0.2076  0.1651  0.2824
  243loPI   GL2 3878   1.926   7.519  10.520  0.2863 -0.4359  0.1550
  243loPI   C1A 3879   1.850   7.304  10.093  0.2121  0.1020 -0.4259
  243loPI   C2A 3880   2.007   7.410   9.695  0.0098  0.2375  0.0708
  243loPI   C3A 3881   1.951   7.361   9.270  0.0204 -0.2810 -0.2955
  243loPI   C4A 3882   2.087   7.449   8.969 -0.3638 -0.0205  0.4063
  243loPI   C5A 3883   2.149   7.452   8.545  0.1545 -0.0457 -0.0641
  243loPI   C6A 3884   2.272   7.092   8.376 -0.1985 -0.0544  0.0518
  243loPI   C1B 3885   2.080   7.724  10.301 -0.0785 -0.1355 -0.2120
  243loPI   C2B 3886   2.105   7.857   9.923  0.0087  0.2911  0.0771
  243loPI   C3B 3887   2.313   8.161   9.776  0.2356 -0.1902 -0.1593
  243loPI   C4B 3888   2.750   8.366   9.769  0.0829  0.2943  0.0569
  244loPI    C1 3889   0.883   6.444  11.059 -0.0076  0.3105 -0.2215
  244loPI    C2 3890   1.186   6.353  11.304 -0.0310  0.3033 -0.1951
  244loPI    C3 3891   0.809   6.314  11.430 -0.0441  0.2416 -0.2529
  244loPI   PO4 3892   1.001   6.355  10.780 -0.0998  0.0561  0.1660
  244loPI   GL1 3893   0.979   6.203  10.341 -0.3401 -0.5085  0.0364
  244loPI   GL2 3894   0.657   6.179  10.503  0.0333 -0.2723 -0.1052
  244loPI   C1A 3895   1.406   6.141  10.141  0.3248 -0.3337 -0.0608
  244loPI   C2A 3896   1.845   6.086  10.007  0.2964 -0.0110  0.0472
  244loPI   C3A 3897   2.047   6.476   9.857 -0.0083  0.2408 -0.0261
  244loPI   C4A 3898   2.063   6.524   9.468  0.6106  0.1032  0.0062
  244loPI   C5A 3899   2.035   6.463   9.101  0.1590  0.0077 -0.0180
  244loPI   C6A 3900   2.017   6.267   8.694  0.0067  0.1797  0.0023
  244loPI   C1B 3901   0.547   6.007  10.048 -0.0362 -0.0740 -0.0509
  244loPI   C2B 3902   0.502   5.950   9.582  0.1507  0.0884 -0.2448
  244loPI   C3B 3903   0.836   5.900   9.225 -0.2072  0.1184  0.1415
  244loPI   C4B 3904   1.241   5.915   9.397 -0.1086 -0.2180 -0.0025
  245loPI    C1 3905   9.881   9.127  11.633 -0.0448  0.1686  0.0315
  245loPI    C2 3906   9.938   9.463  11.841  0.0438  0.1175  0.0905
  245loPI    C3 3907   9.802   9.135  12.025  0.1001  0.0787  0.0636
  245loPI   PO4 3908   9.744   9.179  11.398 -0.1935  0.0574  0.0864
  245loPI   GL1 3909   9.640   9.064  10.925  0.0014 -0.1441 -0.1656
  245loPI   GL2 3910   9.829   9.323  10.894 -0.2812  0.0632 -0.1400
  245loPI   C1A 3911   9.481   8.858  10.605  0.4048  0.1681  0.0406
  245loPI   C2A 3912   9.406   8.887  10.176 -0.0928 -0.0959 -0.3877
  245loPI   C3A 3913   9.419   9.064   9.863 -0.1394 -0.1290  0.1589
  245loPI   C4A 3914   9.195   9.002   9.599  0.0622  0.2100  0.1611
  245loPI   C5A 3915   9.231   9.147   9.225 -0.0228  0.2455  0.1814
  245loPI   C6A 3916   9.006   9.320   8.856 -0.0590 -0.0366  0.0752
  245loPI   C1B 3917   9.523   9.342  10.503  0.0348 -0.2205 -0.1047
  245loPI   C2B 3918   9.341   9.423  10.200  0.1219 -0.2988  0.2004
  245loPI   C3B 3919   9.301   9.590   9.831  0.1020  0.1388 -0.0200
  245loPI   C4B 3920   9.442   9.445   9.536  0.1777  0.1819 -0.1582
  246loPI    C1 3921   3.529   3.388  10.919  0.1552 -0.3392  0.2008
  246loPI    C2 3922   3.212   3.146  10.885 -0.1332  0.0221  0.2535
  246loPI    C3 3923   3.257   3.372  11.212 -0.0758  0.3261  0.0394
  246loPI   PO4 3924   3.845   3.250  10.927 -0.0986 -0.1018  0.1718
  246loPI   GL1 3925   4.003   3.224  10.555 -0.2862 -0.0818 -0.0207
  246loPI   GL2 3926   3.728   3.463  10.400  0.0422 -0.1006  0.0344
  246loPI   C1A 3927   4.149   3.537  10.189 -0.0796  0.1057 -0.3323
  246loPI   C2A 3928   4.109   3.494   9.740 -0.2846  0.0237  0.3302
  246loPI   C3A 3929   4.208   3.510   9.290 -0.0145 -0.1764  0.1637
  246loPI   C4A 3930   3.880   3.618   8.899  0.1166 -0.1148  0.1058
  246loPI   C5A 3931   3.880   3.585   8.491 -0.0408  0.4071 -0.3476
  246loPI   C6A 3932   4.122   3.754   8.230 -0.1145  0.0389 -0.0941
  246loPI   C1B 3933   3.729   3.264  10.027  0.1759 -0.1626  0.1020
  246loPI   C2B 3934   3.695   3.140   9.641 -0.0257 -0.0433 -0.3816
  246loPI   C3B 3935   3.697   3.492   9.453  0.1654 -0.1927 -0.0909
  246loPI   C4B 3936   3.777   3.862   9.413  0.1125 -0.2078 -0.1531
  247loPI    C1 3937   9.900  10.427  11.577 -0.0787 -0.0221 -0.0336
  247loPI    C2 3938  10.088  10.740  11.741 -0.1243  0.0871 -0.1872
  247loPI    C3 3939  10.298  10.421  11.619 -0.0744  0.0704 -0.0596
  247loPI   PO4 3940   9.699  10.558  11.432  0.2666 -0.4325  0.0510
  247loPI   GL1 3941   9.462  10.705  11.044  0.1369  0.0561 -0.3453
  247loPI   GL2 3942   9.181  10.665  10.982  0.0650  0.1405  0.1148
  247loPI   C1A 3943   9.681  10.761  10.650 -0.0752 -0.0504 -0.0447
  247loPI   C2A 3944   9.725  10.905  10.266  0.4294 -0.1098  0.2797
  247loPI   C3A 3945   9.685  11.055   9.882  0.1203  0.0437 -0.1086
  247loPI   C4A 3946   9.531  10.869   9.532 -0.2714 -0.1351 -0.1189
  247loPI   C5A 3947   9.733  10.704   9.104  0.1586  0.0138  0.1008
  247loPI   C6A 3948   9.920  10.353   8.808  0.3277 -0.2602  0.0272
  247loPI   C1B 3949   9.127  10.850  10.469 -0.0054  0.2732 -0.3143
  247loPI   C2B 3950   9.039  10.844  10.044 -0.1827 -0.2061  0.4599
  247loPI   C3B 3951   8.891  10.925   9.594  0.1985 -0.1557  0.0471
  247loPI   C4B 3952   8.680  11.035   9.166 -0.4297  0.0674 -0.3164
  248loPI    C1 3953  10.012   8.384  11.539 -0.0544 -0.0924 -0.2006
  248loPI    C2 3954   9.821   8.701  11.387  0.0739  0.1370  0.1075
  248loPI    C3 3955   9.915   8.691  11.776 -0.0597 -0.3465  0.1339
  248loPI   PO4 3956  10.162   8.308  11.334 -0.3653 -0.0964  0.1138
  248loPI   GL1 3957  10.309   7.982  11.089  0.1534  0.0901 -0.1882
  248loPI   GL2 3958  10.087   7.992  10.934  0.1126  0.2164 -0.2873
  248loPI   C1A 3959  10.690   8.132  10.806  0.1763 -0.0814  0.0045
  248loPI   C2A 3960  11.109   8.110  10.801  0.0965  0.1236 -0.0796
  248loPI   C3A 3961  11.197   8.074  10.451  0.1046  0.4303  0.0561
  248loPI   C4A 3962  11.079   8.244  10.138  0.0509 -0.2372  0.3600
  248loPI   C5A 3963  11.042   8.454   9.710 -0.0512  0.0742 -0.1271
  248loPI   C6A 3964  11.290   8.361   9.289 -0.1038  0.2266  0.2305
  248loPI   C1B 3965  10.356   7.745  10.532 -0.0827  0.0083 -0.0524
  248loPI   C2B 3966  10.305   7.457  10.300  0.1705  0.2163 -0.3002
  248loPI   C3B 3967  10.246   7.319   9.877 -0.0318  0.2353 -0.4167
  248loPI   C4B 3968  10.115   7.379   9.472  0.0290  0.0766  0.1901
  249loPI    C1 3969   5.429   3.952  11.443  0.1047 -0.0751  0.1236
  249loPI    C2 3970   5.527   3.763  11.782 -0.0503 -0.1062  0.1519
  249loPI    C3 3971   5.146   3.772  11.661 -0.0361  0.1397  0.1206
  249loPI   PO4 3972   5.534   3.829  11.237 -0.1139  0.0900 -0.1057
  249loPI   GL1 3973   5.442   3.808  10.845 -0.0931  0.0720 -0.0522
  249loPI   GL2 3974   5.320   4.152  10.888  0.1542 -0.0643  0.0200
  249loPI   C1A 3975   5.674   3.644  10.452  0.3882  0.1540 -0.0476
  249loPI   C2A 3976   5.642   3.705   9.993  0.1976  0.2994 -0.1388
  249loPI   C3A 3977   5.653   3.718   9.498 -0.1547  0.2030  0.0479
  249loPI   C4A 3978   5.596   3.851   9.053  0.1352 -0.1619 -0.1132
  249loPI   C5A 3979   5.710   4.282   8.864  0.0061  0.2803 -0.1921
  249loPI   C6A 3980   5.714   4.452   8.552  0.0738 -0.1389 -0.1048
  249loPI   C1B 3981   5.334   4.093  10.392 -0.0128  0.3633 -0.1000
  249loPI   C2B 3982   5.338   4.086   9.946 -0.1646 -0.0605 -0.0626
  249loPI   C3B 3983   5.320   4.099   9.470  0.2357  0.0425 -0.3704
  249loPI   C4B 3984   5.241   4.195   9.080  0.2201  0.2091 -0.1301
  250loPI    C1 3985   1.827   0.172  11.026 -0.1624  0.0421 -0.0928
  250loPI    C2 3986   1.603  -0.158  11.049 -0.0390 -0.0380 -0.0263
  250loPI    C3 3987   1.966  -0.175  10.883  0.0695  0.0087  0.2020
  250loPI   PO4 3988   1.838   0.441  10.849  0.1747 -0.1006  0.1801
  250loPI   GL1 3989   2.040   0.564  10.417  0.0708 -0.1456  0.1266
  250loPI   GL2 3990   1.668   0.497  10.378 -0.0261  0.4606 -0.1461
  250loPI   C1A 3991   1.986   0.360  10.033 -0.2248 -0.0164  0.0867
  250loPI   C2A 3992   2.045   0.314   9.575  0.2001  0.0917  0.3273
  250loPI   C3A 3993   2.145   0.292   9.173 -0.0898 -0.1309 -0.0096
  250loPI   C4A 3994   2.425   0.407   8.777 -0.3343  0.0756  0.0626
  250loPI   C5A 3995   2.681   0.537   8.380 -0.1824  0.2178  0.1445
  250loPI   C6A 3996   2.484   0.726   7.977  0.2268  0.0739  0.2080
  250loPI   C1B 3997   1.427   0.456  10.019  0.1231 -0.4183 -0.1676
  250loPI   C2B 3998   1.358   0.435   9.588 -0.0082 -0.4152 -0.3712
  250loPI   C3B 3999   1.317   0.528   9.114 -0.1497 -0.2085  0.3540
  250loPI   C4B 4000   1.466   0.681   8.727 -0.2514  0.2937  0.2305
  251loPI    C1 4001   9.441   6.577  11.442 -0.0906 -0.2463 -0.0242
  251loPI    C2 4002   9.311   6.491  11.811  0.2053  0.1372  0.1767
  251loPI    C3 4003   9.699   6.451  11.721  0.1527  0.1510 -0.0623
  251loPI   PO4 4004   9.156   6.552  11.339 -0.0963  0.1728  0.1900
  251loPI   GL1 4005   9.147   6.319  11.051  0.6116  0.0844  0.0461
  251loPI   GL2 4006   9.337   6.314  10.801 -0.0789 -0.2938 -0.4426
  251loPI   C1A 4007   8.835   6.334  10.732 -0.0664  0.2278 -0.2459
  251loPI   C2A 4008   8.710   6.309  10.299 -0.3783 -0.4042  0.1284
  251loPI   C3A 4009   8.844   6.234   9.918  0.0097  0.1016 -0.2091
  251loPI   C4A 4010   8.678   6.284   9.458  0.1857 -0.0512 -0.0882
  251loPI   C5A 4011   8.584   6.191   9.071  0.0837 -0.0653  0.1284
  251loPI   C6A 4012   8.389   5.980   8.861 -0.0878 -0.0639 -0.1421
  251loPI   C1B 4013   9.234   6.280  10.369  0.0785 -0.0392  0.1042
  251loPI   C2B 4014   9.309   6.318   9.891  0.0959  0.0066 -0.1248
  251loPI   C3B 4015   9.230   6.324   9.488 -0.0686  0.1943 -0.1844
  251loPI   C4B 4016   9.231   6.348   8.997 -0.2388  0.0741  0.0604
  252loPI    C1 4017   1.861   6.473  11.102 -0.3212 -0.0879 -0.2400
  252loPI    C2 4018   1.849   6.873  11.099  0.1838 -0.0591  0.1691
  252loPI    C3 4019   1.642   6.669  11.374 -0.1658 -0.0904 -0.1111
  252loPI   PO4 4020   1.835   6.401  10.828 -0.1004 -0.1013  0.3209
  252loPI   GL1 4021   2.243   6.104  10.617 -0.0839  0.0564  0.2070
  252loPI   GL2 4022   2.292   6.220  10.865  0.0897  0.0992 -0.0576
  252loPI   C1A 4023   2.273   6.040  10.246 -0.1059 -0.0273  0.2776
  252loPI   C2A 4024   2.273   5.975   9.812 -0.2465  0.0287  0.0359
  252loPI   C3A 4025   2.283   6.117   9.339 -0.2756  0.1806 -0.1601
  252loPI   C4A 4026   2.461   6.175   8.861  0.1482  0.2218 -0.1869
  252loPI   C5A 4027   2.760   6.518   8.792  0.3813  0.3166  0.2479
  252loPI   C6A 4028   2.536   6.777   8.710 -0.0778  0.1968 -0.0011
  252loPI   C1B 4029   2.471   6.490  10.433  0.0334  0.0885  0.1676
  252loPI   C2B 4030   2.520   6.515  10.084  0.2472 -0.1197  0.0043
  252loPI   C3B 4031   2.555   6.583   9.715 -0.0093 -0.0438 -0.1068
  252loPI   C4B 4032   2.521   6.603   9.268 -0.1046 -0.2270 -0.0496
  253loPI    C1 4033   2.537   8.592  11.290  0.0868  0.0670  0.0289
  253loPI    C2 4034   2.477   8.877  11.564  0.1328  0.0279  0.0799
  253loPI    C3 4035   2.837   8.707  11.528  0.1771  0.1616 -0.1283
  253loPI   PO4 4036   2.439   8.684  11.061 -0.1218  0.2183 -0.1034
  253loPI   GL1 4037   2.473   8.687  10.639  0.0442  0.0866 -0.3674
  253loPI   GL2 4038   2.696   8.406  10.678 -0.0785  0.1565  0.2418
  253loPI   C1A 4039   2.456   8.996  10.420 -0.1544  0.2959  0.1587
  253loPI   C2A 4040   2.254   8.953  10.051  0.0663  0.0257  0.1852
  253loPI   C3A 4041   2.057   9.272   9.719  0.2632  0.0901 -0.0455
  253loPI   C4A 4042   1.905   9.361   9.360  0.1874  0.0729  0.2263
  253loPI   C5A 4043   1.967   9.271   8.913  0.0874  0.1585 -0.1788
  253loPI   C6A 4044   1.944   9.141   8.462  0.0965  0.0557 -0.0814
  253loPI   C1B 4045   2.895   8.294  10.338  0.0091 -0.2592 -0.1936
  253loPI   C2B 4046   3.160   8.010  10.197 -0.1873 -0.2471 -0.2992
  253loPI   C3B 4047   3.182   7.950   9.767  0.1232 -0.2107  0.2097
  253loPI   C4B 4048   3.187   8.078   9.406 -0.0958  0.1647 -0.2926
  254loPI    C1 4049   5.254   6.784  11.525  0.0553 -0.0191 -0.0007
  254loPI    C2 4050   5.179   6.579  11.860 -0.2063 -0.1139 -0.1149
  254loPI    C3 4051   5.421   6.897  11.871  0.2185 -0.4328  0.0624
  254loPI   PO4 4052   5.360   6.646  11.376 -0.1427 -0.2451 -0.3379
  254loPI   GL1 4053   5.527   6.347  11.142 -0.1526 -0.2316  0.1915
  254loPI   GL2 4054   5.816   6.104  11.098  0.0090 -0.0926  0.0630
  254loPI   C1A 4055   5.357   6.492  10.721  0.0943 -0.1038  0.1048
  254loPI   C2A 4056   5.355   6.487  10.268  0.0548 -0.2198  0.1280
  254loPI   C3A 4057   5.344   6.394   9.848  0.0135  0.1206 -0.0191
  254loPI   C4A 4058   5.293   6.364   9.483  0.2229 -0.2486 -0.0142
  254loPI   C5A 4059   5.412   6.368   9.052 -0.1091 -0.0880 -0.0043
  254loPI   C6A 4060   5.319   6.374   8.651 -0.0739 -0.1362 -0.2288
  254loPI   C1B 4061   6.004   5.948  10.783 -0.0044 -0.0624  0.1626
  254loPI   C2B 4062   6.235   6.063  10.346 -0.0163  0.1067 -0.0541
  254loPI   C3B 4063   6.256   6.047   9.863  0.0864  0.1457 -0.0317
  254loPI   C4B 4064   6.182   6.009   9.378 -0.0321  0.2804 -0.0895
  255loPI    C1 4065   8.642   5.267  11.458 -0.0255 -0.1387 -0.0506
  255loPI    C2 4066   8.401   5.586  11.455  0.1311 -0.0197 -0.0716
  255loPI    C3 4067   8.409   5.345  11.774 -0.1229 -0.1078 -0.1295
  255loPI   PO4 4068   8.647   5.258  11.181 -0.1564  0.0812 -0.0942
  255loPI   GL1 4069   8.454   5.406  10.818  0.0637  0.1256  0.1036
  255loPI   GL2 4070   8.562   5.661  10.863 -0.0993 -0.0057  0.1168
  255loPI   C1A 4071   8.406   5.271  10.350  0.0620  0.1779 -0.6038
  255loPI   C2A 4072   8.330   5.357   9.960 -0.1797  0.0719  0.0757
  255loPI   C3A 4073   8.307   5.311   9.559 -0.0191 -0.1310 -0.2637
  255loPI   C4A 4074   8.292   5.427   9.182 -0.2012  0.3555  0.2733
  255loPI   C5A 4075   8.179   5.036   8.797  0.1654 -0.4820  0.3009
  255loPI   C6A 4076   8.131   4.776   8.412 -0.5013 -0.0851 -0.4814
  255loPI   C1B 4077   8.596   5.815  10.559 -0.1922 -0.0620 -0.1132
  255loPI   C2B 4078   8.538   5.782  10.157 -0.0880 -0.1501 -0.0647
  255loPI   C3B 4079   8.572   5.757   9.742  0.0969  0.2617 -0.1771
  255loPI   C4B 4080   8.487   5.831   9.379  0.1857 -0.1602 -0.1679
  256loPI    C1 4081   2.401   0.077  10.881 -0.2701 -0.2194  0.0794
  256loPI    C2 4082   2.288   0.317  11.179 -0.0772  0.1212 -0.1153
  256loPI    C3 4083   2.582   0.053  11.236  0.2354  0.4624 -0.1114
  256loPI   PO4 4084   2.465   0.225  10.595  0.0634 -0.0581  0.0120
  256loPI   GL1 4085   2.488   0.185  10.209  0.1527 -0.1425  0.1598
  256loPI   GL2 4086   2.634  -0.055  10.253  0.1350 -0.0003  0.0395
  256loPI   C1A 4087   2.365   0.144   9.845  0.2368 -0.2045  0.0562
  256loPI   C2A 4088   2.495  -0.034   9.371  0.0401 -0.3737  0.2247
  256loPI   C3A 4089   2.612  -0.211   8.924 -0.0634  0.3258 -0.2098
  256loPI   C4A 4090   2.651  -0.415   8.563  0.1206 -0.0247  0.2702
  256loPI   C5A 4091   2.534  -0.709   8.263  0.1333 -0.0646 -0.1669
  256loPI   C6A 4092   2.490  -0.759   7.882 -0.4114  0.4449  0.0219
  256loPI   C1B 4093   2.859  -0.092   9.906  0.0630  0.2761 -0.0197
  256loPI   C2B 4094   2.945  -0.367   9.510  0.1411 -0.0817  0.0546
  256loPI   C3B 4095   3.013  -0.729   9.286 -0.1395  0.3436  0.2911
  256loPI   C4B 4096   3.154  -0.895   8.861 -0.0309  0.0741  0.1259
  257loPI    C1 4097  10.154  15.554  11.032 -0.0028 -0.1149  0.1138
  257loPI    C2 4098  10.057  15.206  11.203 -0.3342 -0.0684  0.0272
  257loPI    C3 4099  10.095  15.534  11.427 -0.1312 -0.1366  0.0942
  257loPI   PO4 4100   9.962  15.571  10.857 -0.0311  0.1066  0.4656
  257loPI   GL1 4101   9.992  15.848  10.395 -0.2024  0.2613 -0.1846
  257loPI   GL2 4102  10.221  15.647  10.409 -0.2422  0.1919  0.2460
  257loPI   C1A 4103   9.770  15.746  10.097 -0.2843  0.0580 -0.1427
  257loPI   C2A 4104   9.763  15.655   9.773 -0.3106  0.0780 -0.0716
  257loPI   C3A 4105   9.823  15.319   9.491  0.1789 -0.0914  0.1188
  257loPI   C4A 4106   9.820  15.135   9.002  0.2397 -0.0187  0.2876
  257loPI   C5A 4107   9.991  15.206   8.549 -0.4011  0.0940  0.0261
  257loPI   C6A 4108  10.413  15.354   8.378 -0.0185 -0.1631  0.0724
  257loPI   C1B 4109  10.080  15.338  10.092  0.1713 -0.0453 -0.0651
  257loPI   C2B 4110  10.239  15.182   9.740  0.1818 -0.1351  0.0823
  257loPI   C3B 4111  10.261  15.181   9.283 -0.2715  0.0925  0.1137
  257loPI   C4B 4112  10.281  15.359   8.944 -0.2918 -0.1593  0.2685
  258loPI    C1 4113   8.029   9.519  11.642 -0.2112  0.0799  0.0909
  258loPI    C2 4114   8.221   9.465  11.988  0.0163  0.0336 -0.0406
  258loPI    C3 4115   7.887   9.684  11.977  0.0401  0.0841  0.1973
  258loPI   PO4 4116   8.040   9.284  11.513  0.0786  0.1726  0.2124
  258loPI   GL1 4117   7.877   9.224  11.113 -0.1488  0.2477  0.0515
  258loPI   GL2 4118   8.240   9.069  11.026 -0.1710 -0.1015  0.0126
  258loPI   C1A 4119   7.923   9.218  10.707 -0.2968 -0.0297  0.1629
  258loPI   C2A 4120   7.888   9.057  10.251 -0.0853 -0.0841 -0.0170
  258loPI   C3A 4121   7.880   8.863   9.840 -0.1055  0.0318 -0.1280
  258loPI   C4A 4122   7.673   8.725   9.431 -0.3683 -0.1019  0.0429
  258loPI   C5A 4123   7.380   8.521   9.191  0.0669 -0.2982 -0.1937
  258loPI   C6A 4124   6.904   8.517   9.059  0.1417  0.2192  0.1206
  258loPI   C1B 4125   8.444   9.082  10.606 -0.1163  0.0308 -0.1551
  258loPI   C2B 4126   8.442   9.219  10.184 -0.0545 -0.1820  0.1442
  258loPI   C3B 4127   8.365   9.242   9.733 -0.0265  0.1993 -0.2183
  258loPI   C4B 4128   8.440   9.313   9.336  0.1052  0.0707  0.0659
  259loPI    C1 4129  11.707   0.921  10.720  0.0820  0.1333  0.1304
  259loPI    C2 4130  11.735   0.555  10.879  0.0862  0.0820  0.0123
  259loPI    C3 4131  11.743   0.877  11.116 -0.0666  0.0003  0.1299
  259loPI   PO4 4132  11.526   0.876  10.537  0.2691 -0.1213 -0.0108
  259loPI   GL1 4133  11.213   1.090  10.320  0.2927 -0.1604 -0.0656
  259loPI   GL2 4134  11.125   1.226  10.047  0.2445 -0.0128 -0.3219
  259loPI   C1A 4135  11.224   0.729   9.939  0.2134  0.2362 -0.2064
  259loPI   C2A 4136  11.255   0.597   9.494 -0.0102 -0.0115 -0.0488
  259loPI   C3A 4137  11.283   0.542   9.085  0.1028  0.0731 -0.2122
  259loPI   C4A 4138  11.242   0.194   8.866  0.1013  0.2592  0.0871
  259loPI   C5A 4139  11.241   0.017   8.488 -0.1861 -0.2062 -0.1971
  259loPI   C6A 4140  10.982   0.057   8.165  0.0133 -0.1041  0.1515
  259loPI   C1B 4141  11.126   1.167   9.670 -0.0891  0.1623 -0.3199
  259loPI   C2B 4142  11.186   1.061   9.237 -0.1034  0.1567 -0.0615
  259loPI   C3B 4143  11.171   0.955   8.715  0.1199 -0.4324 -0.2247
  259loPI   C4B 4144  11.094   0.532   8.518 -0.0042  0.2202  0.0633
  260loPI    C1 4145   1.347   4.256  11.157 -0.0731 -0.1957  0.1097
  260loPI    C2 4146   0.985   4.357  11.021  0.0668  0.1683 -0.0036
  260loPI    C3 4147   1.037   4.276  11.409 -0.0396  0.6244  0.1113
  260loPI   PO4 4148   1.449   4.337  10.834  0.1731 -0.2456 -0.1204
  260loPI   GL1 4149   1.349   4.479  10.433  0.1721 -0.2343  0.0698
  260loPI   GL2 4150   1.121   4.737  10.524 -0.2333  0.2231  0.1657
  260loPI   C1A 4151   1.654   4.659  10.085  0.2058 -0.1059 -0.0027
  260loPI   C2A 4152   1.533   4.704   9.690 -0.2132 -0.2377 -0.2991
  260loPI   C3A 4153   1.317   4.907   9.394 -0.6182  0.1155  0.1012
  260loPI   C4A 4154   0.905   4.874   9.234  0.1886  0.0682 -0.2579
  260loPI   C5A 4155   0.751   4.870   8.853 -0.0446 -0.1382 -0.0196
  260loPI   C6A 4156   0.482   4.981   8.669  0.1433 -0.0355 -0.1722
  260loPI   C1B 4157   1.308   5.068  10.293  0.1125 -0.0653  0.0742
  260loPI   C2B 4158   1.315   5.152   9.843 -0.1920 -0.2080  0.0403
  260loPI   C3B 4159   0.874   4.927   9.709  0.1485  0.0914 -0.1485
  260loPI   C4B 4160   0.445   4.994   9.799  0.4642 -0.0674  0.0662
  261loPI    C1 4161   0.594  13.724  11.054 -0.0996  0.0527  0.1602
  261loPI    C2 4162   0.249  13.711  11.255 -0.0505 -0.1243  0.2347
  261loPI    C3 4163   0.483  13.388  11.239 -0.0476 -0.1094 -0.0984
  261loPI   PO4 4164   0.634  13.854  10.788  0.2115 -0.0175  0.0464
  261loPI   GL1 4165   0.619  13.999  10.381  0.2209 -0.0237  0.0822
  261loPI   GL2 4166   0.736  13.905  10.070  0.1663 -0.2001  0.1302
  261loPI   C1A 4167   0.445  14.331  10.089  0.1061 -0.0741  0.0823
  261loPI   C2A 4168   0.502  14.332   9.667 -0.0076  0.1476 -0.2497
  261loPI   C3A 4169   0.580  14.297   9.196 -0.0281 -0.1910 -0.0783
  261loPI   C4A 4170   0.461  14.110   8.902 -0.2419  0.0372 -0.0843
  261loPI   C5A 4171   0.609  14.042   8.507  0.0417  0.0319  0.0493
  261loPI   C6A 4172   0.555  14.274   8.144  0.0423  0.2576 -0.1053
  261loPI   C1B 4173   1.017  13.853   9.625  0.0218  0.1974  0.1271
  261loPI   C2B 4174   1.096  14.155   9.182  0.1791  0.1341  0.0487
  261loPI   C3B 4175   0.966  14.275   8.741 -0.1885 -0.0050  0.1984
  261loPI   C4B 4176   0.566  14.537   8.667  0.1600  0.1381  0.2251
  262loPI    C1 4177  11.289   9.098  11.082 -0.0403 -0.2962 -0.1006
  262loPI    C2 4178  11.679   9.171  11.130 -0.1002 -0.0472  0.0279
  262loPI    C3 4179  11.453   9.078  11.447 -0.1633 -0.1016 -0.0329
  262loPI   PO4 4180  11.225   9.336  11.002 -0.1889  0.0198  0.2140
  262loPI   GL1 4181  10.812   9.503  10.637 -0.0694  0.1438  0.3495
  262loPI   GL2 4182  10.960   9.168  10.629  0.0730  0.0142 -0.0008
  262loPI   C1A 4183  10.687   9.382  10.307 -0.0092 -0.5309 -0.0160
  262loPI   C2A 4184  10.749   8.999  10.036 -0.2674 -0.1802 -0.1032
  262loPI   C3A 4185  10.944   8.994   9.645 -0.0803  0.1859  0.0077
  262loPI   C4A 4186  11.064   8.833   9.257 -0.2267  0.0876  0.0872
  262loPI   C5A 4187  11.362   8.849   8.887 -0.1423 -0.2451 -0.0132
  262loPI   C6A 4188  11.485   9.091   8.529  0.2891  0.1316 -0.0121
  262loPI   C1B 4189  11.160   9.383  10.314  0.1848 -0.1973  0.0127
  262loPI   C2B 4190  11.182   9.544   9.919 -0.1855 -0.0790  0.1454
  262loPI   C3B 4191  10.822   9.599   9.673  0.0544 -0.1653  0.0379
  262loPI   C4B 4192  10.496   9.838   9.453 -0.1074  0.2186  0.2573
  263loPI    C1 4193  10.679  12.546  11.260 -0.0541  0.1484  0.0799
  263loPI    C2 4194  10.434  12.283  11.436  0.0783  0.0865  0.1739
  263loPI    C3 4195  10.392  12.675  11.507 -0.1984  0.1035 -0.0627
  263loPI   PO4 4196  10.609  12.545  11.062 -0.0922  0.1852 -0.3226
  263loPI   GL1 4197  10.524  12.569  10.646  0.1381 -0.0885 -0.0410
  263loPI   GL2 4198  10.158  12.753  10.779  0.0938 -0.0028  0.1393
  263loPI   C1A 4199  10.625  12.459  10.299 -0.1468  0.0610 -0.2204
  263loPI   C2A 4200  10.709  12.500   9.878 -0.0341 -0.0416 -0.1464
  263loPI   C3A 4201  11.031  12.628   9.589 -0.0614  0.1480 -0.1791
  263loPI   C4A 4202  11.046  12.696   9.231  0.6101  0.1033  0.2302
  263loPI   C5A 4203  10.994  12.607   8.857 -0.0611  0.1525  0.1270
  263loPI   C6A 4204  11.103  12.249   8.614 -0.2576 -0.0545 -0.2962
  263loPI   C1B 4205  10.054  12.274  10.623 -0.3602 -0.1561  0.1986
  263loPI   C2B 4206   9.749  12.114  10.280 -0.0937  0.1586 -0.0239
  263loPI   C3B 4207   9.903  12.042   9.865 -0.3028  0.3005  0.0409
  263loPI   C4B 4208   9.677  11.904   9.529  0.0660 -0.3869  0.1854
  264loPI    C1 4209   5.923  14.161  11.040  0.0593  0.1648  0.1503
  264loPI    C2 4210   6.126  13.870  11.226 -0.1438 -0.0621  0.0229
  264loPI    C3 4211   5.787  14.011  11.386 -0.0446  0.1080  0.0856
  264loPI   PO4 4212   6.040  14.295  10.986 -0.0014 -0.2842 -0.0874
  264loPI   GL1 4213   6.104  14.661  10.701  0.0387 -0.2338  0.0735
  264loPI   GL2 4214   5.993  14.438  10.492  0.1809 -0.2319 -0.1153
  264loPI   C1A 4215   5.771  14.932  10.431 -0.2890 -0.0432 -0.0597
  264loPI   C2A 4216   5.643  14.932  10.024  0.0000  0.1518  0.3714
  264loPI   C3A 4217   5.827  15.022   9.545 -0.1708 -0.1483  0.0873
  264loPI   C4A 4218   5.732  14.841   9.125  0.0340  0.1063  0.4950
  264loPI   C5A 4219   5.932  14.653   8.750 -0.0549 -0.0754  0.1313
  264loPI   C6A 4220   6.257  14.413   8.624 -0.0335 -0.3034  0.0050
  264loPI   C1B 4221   6.105  14.637  10.137  0.0342 -0.2497  0.3482
  264loPI   C2B 4222   6.368  14.820   9.789  0.2584 -0.2845 -0.0279
  264loPI   C3B 4223   6.445  15.058   9.462  0.2390 -0.1258  0.1331
  264loPI   C4B 4224   6.341  14.946   9.093  0.0567  0.0546  0.2776
  265loPI    C1 4225   2.188   1.282  11.035 -0.0861  0.0434 -0.0700
  265loPI    C2 4226   2.034   1.215  11.398  0.0401  0.1136 -0.0028
  265loPI    C3 4227   1.912   1.530  11.184  0.0567  0.1430  0.0311
  265loPI   PO4 4228   2.364   1.188  10.971  0.1846  0.4403  0.1589
  265loPI   GL1 4229   2.266   1.070  10.474  0.3362 -0.1608  0.0534
  265loPI   GL2 4230   2.070   1.316  10.513 -0.0230  0.4561 -0.1379
  265loPI   C1A 4231   2.407   0.722  10.104 -0.1249  0.2333 -0.0003
  265loPI   C2A 4232   2.524   0.571   9.629 -0.3268  0.3330 -0.0727
  265loPI   C3A 4233   2.685   0.689   9.199  0.2844  0.1543 -0.1448
  265loPI   C4A 4234   2.477   0.890   8.873  0.1385  0.0664 -0.3276
  265loPI   C5A 4235   2.464   1.043   8.375 -0.3521  0.1506 -0.1708
  265loPI   C6A 4236   2.628   1.200   8.015 -0.2370  0.4203  0.0292
  265loPI   C1B 4237   1.890   1.092  10.106  0.0150  0.0797 -0.0383
  265loPI   C2B 4238   2.072   0.816   9.737 -0.1324  0.1153  0.2863
  265loPI   C3B 4239   2.211   0.864   9.333  0.1036 -0.2348  0.3656
  265loPI   C4B 4240   1.937   1.135   9.105 -0.2376 -0.3317  0.2934
  266loPI    C1 4241  10.416   1.205  10.711  0.0536  0.0835 -0.0634
  266loPI    C2 4242  10.793   1.082  10.768  0.1297  0.2678 -0.1588
  266loPI    C3 4243  10.533   1.079  11.072  0.1935  0.0927 -0.1048
  266loPI   PO4 4244  10.423   1.441  10.585 -0.3049 -0.0932 -0.0589
  266loPI   GL1 4245  10.175   1.571  10.272  0.1065 -0.1322 -0.1046
  266loPI   GL2 4246  10.222   1.886  10.254  0.2131 -0.0045 -0.4049
  266loPI   C1A 4247  10.004   1.457   9.923 -0.2859 -0.1102  0.0179
  266loPI   C2A 4248   9.927   1.291   9.429  0.1849  0.2174 -0.0473
  266loPI   C3A 4249   9.886   1.064   8.976 -0.2538  0.2887 -0.1037
  266loPI   C4A 4250  10.035   0.940   8.543 -0.2969  0.2251 -0.2286
  266loPI   C5A 4251  10.180   0.623   8.254  0.2819 -0.0053  0.0216
  266loPI   C6A 4252  10.053   0.529   7.855 -0.2916  0.2853 -0.3614
  266loPI   C1B 4253  10.317   1.824   9.785 -0.1807  0.3592  0.0582
  266loPI   C2B 4254  10.212   1.709   9.401 -0.1600 -0.2785 -0.2814
  266loPI   C3B 4255  10.107   1.619   8.972  0.0369 -0.1388  0.0795
  266loPI   C4B 4256  10.175   1.480   8.538 -0.0311  0.0244 -0.1998
  267loPI    C1 4257  17.491  11.193  10.680  0.0407  0.1117 -0.0006
  267loPI    C2 4258  17.467  10.834  10.854  0.0404  0.0404 -0.1459
  267loPI    C3 4259  17.635  11.140  11.049  0.1969 -0.0814 -0.0878
  267loPI   PO4 4260  17.597  11.036  10.372 -0.0156 -0.0386  0.1762
  267loPI   GL1 4261  17.792  11.051  10.036  0.2613 -0.1009 -0.1380
  267loPI   GL2 4262  17.757  11.310   9.813  0.0523  0.0846 -0.0138
  267loPI   C1A 4263  18.136  11.077   9.862 -0.1649 -0.5227  0.1422
  267loPI   C2A 4264  18.316  10.965   9.428  0.1095  0.1572  0.2749
  267loPI   C3A 4265  18.426  10.902   9.022 -0.1785  0.3324 -0.0994
  267loPI   C4A 4266  18.513  11.027   8.611 -0.2355 -0.2919  0.1899
  267loPI   C5A 4267  18.384  11.160   8.224  0.1200  0.1519 -0.5296
  267loPI   C6A 4268  18.364  10.887   7.851 -0.0572  0.0581  0.3276
  267loPI   C1B 4269  17.956  11.236   9.368 -0.1985 -0.0155 -0.2757
  267loPI   C2B 4270  17.894  11.232   8.960 -0.0362  0.4136 -0.2546
  267loPI   C3B 4271  17.989  11.165   8.656  0.2132  0.1040  0.2068
  267loPI   C4B 4272  17.908  11.053   8.316  0.3085 -0.0828  0.2691
  268loPI    C1 4273   8.832   7.782  11.923 -0.3690  0.3125  0.2348
  268loPI    C2 4274   8.757   7.435  12.107 -0.1814  0.2500  0.1958
  268loPI    C3 4275   8.811   7.767  12.323  0.3489  0.1188  0.2806
  268loPI   PO4 4276   8.828   7.728  11.704  0.4058 -0.1057 -0.0158
  268loPI   GL1 4277   8.660   7.832  11.339  0.0000 -0.0655  0.1804
  268loPI   GL2 4278   8.794   7.976  11.016  0.0645  0.5097  0.3240
  268loPI   C1A 4279   8.485   7.557  10.941 -0.0856  0.0302  0.1824
  268loPI   C2A 4280   8.448   7.610  10.463  0.3146  0.0413 -0.1581
  268loPI   C3A 4281   8.483   7.764  10.111  0.0362 -0.0206  0.0416
  268loPI   C4A 4282   8.388   7.753   9.849  0.0212  0.1595  0.1154
  268loPI   C5A 4283   8.354   7.574   9.489  0.3243 -0.1269 -0.0438
  268loPI   C6A 4284   8.298   7.265   9.121  0.3425  0.0466 -0.1421
  268loPI   C1B 4285   8.851   8.215  10.676 -0.0078  0.2036  0.0544
  268loPI   C2B 4286   8.772   8.153  10.269 -0.0283  0.0945  0.4707
  268loPI   C3B 4287   8.588   8.185   9.857  0.0130  0.0508 -0.2204
  268loPI   C4B 4288   8.682   8.404   9.473  0.0669 -0.4225 -0.0927
  269loPI    C1 4289   9.752   5.643  11.695  0.1740 -0.1896  0.1077
  269loPI    C2 4290   9.542   5.964  11.807  0.0432 -0.2530  0.0469
  269loPI    C3 4291   9.624   5.676  12.073  0.0035 -0.2553  0.0567
  269loPI   PO4 4292   9.595   5.657  11.426 -0.3438  0.1780  0.3699
  269loPI   GL1 4293   9.407   5.804  11.000  0.0276  0.1650  0.0910
  269loPI   GL2 4294   9.708   5.820  10.907  0.0735  0.0266  0.0085
  269loPI   C1A 4295   9.055   5.739  10.800  0.1466  0.0255  0.1139
  269loPI   C2A 4296   9.031   5.829  10.300 -0.0199  0.1785  0.0192
  269loPI   C3A 4297   9.063   5.795   9.865 -0.0891 -0.0793 -0.1223
  269loPI   C4A 4298   8.989   5.884   9.482 -0.2407 -0.3002  0.1063
  269loPI   C5A 4299   9.016   5.815   9.057  0.1608 -0.1226  0.1647
  269loPI   C6A 4300   9.333   5.909   8.743  0.0319  0.1001 -0.1948
  269loPI   C1B 4301   9.566   5.792  10.448  0.3039  0.0279 -0.1462
  269loPI   C2B 4302   9.644   5.942   9.994 -0.0083  0.0513 -0.2448
  269loPI   C3B 4303   9.505   5.905   9.616 -0.3407 -0.0507 -0.3343
  269loPI   C4B 4304   9.511   5.960   9.223 -0.3697 -0.2302 -0.1184
  270loPI    C1 4305   3.666   0.714  11.035 -0.0430 -0.0613 -0.0101
  270loPI    C2 4306   3.285   0.658  10.928 -0.0516 -0.2498  0.1147
  270loPI    C3 4307   3.386   0.660  11.315  0.0915 -0.3157  0.0782
  270loPI   PO4 4308   3.761   0.544  10.863 -0.1513 -0.1827 -0.1645
  270loPI   GL1 4309   3.782   0.252  10.523  0.1503  0.0407 -0.2967
  270loPI   GL2 4310   3.983   0.494  10.303 -0.1699  0.0566  0.0210
  270loPI   C1A 4311   3.896  -0.003  10.176  0.3462  0.5186  0.3763
  270loPI   C2A 4312   3.684  -0.103   9.786  0.0716 -0.0561  0.0109
  270loPI   C3A 4313   3.394  -0.110   9.497 -0.3480  0.2039  0.1084
  270loPI   C4A 4314   3.153  -0.157   9.135 -0.2613 -0.0003 -0.1613
  270loPI   C5A 4315   3.207  -0.371   8.785 -0.1975  0.2537 -0.1198
  270loPI   C6A 4316   3.107  -0.567   8.432  0.3158  0.3570  0.0485
  270loPI   C1B 4317   4.105   0.670   9.824  0.0273 -0.2743 -0.0165
  270loPI   C2B 4318   4.060   1.011   9.575  0.2334 -0.1083  0.1993
  270loPI   C3B 4319   3.987   1.328   9.299 -0.2826 -0.3323  0.2690
  270loPI   C4B 4320   4.321   1.607   9.149 -0.3541 -0.0160 -0.2572
  271loPI    C1 4321   8.162  16.279  11.178  0.1530 -0.0162  0.1580
  271loPI    C2 4322   8.439  16.538  11.051  0.0359  0.1354  0.2091
  271loPI    C3 4323   8.455  16.395  11.424  0.2476 -0.1322  0.1013
  271loPI   PO4 4324   8.114  16.156  10.914  0.1976  0.0070 -0.0800
  271loPI   GL1 4325   8.430  16.233  10.599 -0.1245  0.2075  0.3729
  271loPI   GL2 4326   8.659  16.112  10.490  0.1820  0.2435  0.0576
  271loPI   C1A 4327   8.309  16.420  10.116 -0.2627  0.0762  0.0176
  271loPI   C2A 4328   8.492  16.277   9.746  0.0666  0.3967  0.0783
  271loPI   C3A 4329   8.615  16.378   9.326 -0.1017  0.3476  0.1336
  271loPI   C4A 4330   8.749  16.274   8.937 -0.0599  0.0664 -0.1227
  271loPI   C5A 4331   9.094  16.159   8.610 -0.0726  0.3618  0.0983
  271loPI   C6A 4332   9.047  15.771   8.315  0.1306  0.0637  0.0584
  271loPI   C1B 4333   8.731  15.973  10.069  0.0911 -0.0359 -0.3611
  271loPI   C2B 4334   8.717  15.818   9.560 -0.0250 -0.2112  0.2810
  271loPI   C3B 4335   8.615  15.763   9.136 -0.1004 -0.2950  0.1627
  271loPI   C4B 4336   8.615  15.881   8.639 -0.3308  0.0543 -0.1414
  272loPI    C1 4337   1.385   5.294  11.063  0.1679  0.1528  0.1910
  272loPI    C2 4338   1.437   5.512  11.395  0.3036 -0.0348  0.2945
  272loPI    C3 4339   1.255   5.156  11.415  0.0138  0.0995  0.1142
  272loPI   PO4 4340   1.276   5.550  10.945  0.0154 -0.0497 -0.2001
  272loPI   GL1 4341   1.265   5.546  10.573 -0.0296 -0.1568 -0.0034
  272loPI   GL2 4342   1.608   5.375  10.553 -0.1363 -0.2914  0.1171
  272loPI   C1A 4343   1.429   5.629  10.173  0.0658  0.0224 -0.0952
  272loPI   C2A 4344   1.476   5.614   9.737 -0.0106  0.0277  0.0088
  272loPI   C3A 4345   1.563   5.532   9.400  0.1218 -0.0758 -0.0174
  272loPI   C4A 4346   1.639   5.549   8.957  0.0212  0.1407 -0.1286
  272loPI   C5A 4347   1.763   5.307   8.611 -0.2328 -0.0358 -0.0103
  272loPI   C6A 4348   1.463   5.180   8.237  0.0668  0.1324  0.2826
  272loPI   C1B 4349   1.755   5.210  10.098  0.0391  0.0014 -0.0033
  272loPI   C2B 4350   1.793   5.165   9.660  0.1991 -0.2177 -0.1487
  272loPI   C3B 4351   1.893   5.135   9.188 -0.2895  0.0219 -0.0426
  272loPI   C4B 4352   1.980   4.839   8.812 -0.1754  0.0472 -0.1947
  273loPI    C1 4353   9.233   9.262  11.452  0.1533  0.1085 -0.0317
  273loPI    C2 4354   9.010   9.528  11.650  0.1845  0.0414  0.0948
  273loPI    C3 4355   9.399   9.493  11.733  0.1728 -0.0688  0.1042
  273loPI   PO4 4356   9.209   9.289  11.175  0.1759  0.1866 -0.1191
  273loPI   GL1 4357   9.153   9.516  10.923 -0.0570  0.0642  0.0492
  273loPI   GL2 4358   8.823   9.435  10.798  0.0241  0.1128  0.0615
  273loPI   C1A 4359   9.392   9.772  10.708  0.1045  0.1768  0.0855
  273loPI   C2A 4360   9.480   9.906  10.284  0.1076  0.2348  0.2313
  273loPI   C3A 4361   9.503  10.053   9.908  0.0390  0.2282  0.3776
  273loPI   C4A 4362   9.380   9.943   9.457 -0.2058 -0.2084 -0.0342
  273loPI   C5A 4363   9.279   9.817   8.982  0.0450  0.0784  0.0187
  273loPI   C6A 4364   9.347  10.088   8.576  0.6589 -0.0399  0.1190
  273loPI   C1B 4365   8.777   9.482  10.370 -0.0183  0.0603 -0.0396
  273loPI   C2B 4366   8.871   9.336   9.935  0.0347  0.1180 -0.0752
  273loPI   C3B 4367   8.909   9.534   9.418 -0.0392  0.1307 -0.2056
  273loPI   C4B 4368   8.792   9.756   9.116  0.2314 -0.1178 -0.3834
  274loPI    C1 4369   5.359   2.837  11.183 -0.0698  0.1447 -0.0528
  274loPI    C2 4370   5.583   2.596  11.411 -0.0002  0.2605  0.0021
  274loPI    C3 4371   5.304   2.828  11.579 -0.3649 -0.0962 -0.0960
  274loPI   PO4 4372   5.484   2.965  11.074  0.2197  0.1408 -0.1206
  274loPI   GL1 4373   5.411   3.100  10.719  0.0297 -0.1530 -0.0438
  274loPI   GL2 4374   5.603   2.881  10.595 -0.0208  0.0097  0.1215
  274loPI   C1A 4375   5.463   3.237  10.313  0.2247  0.0735  0.3795
  274loPI   C2A 4376   5.493   3.168   9.851  0.1105 -0.0271 -0.0041
  274loPI   C3A 4377   5.448   3.259   9.453  0.3582 -0.3059  0.3537
  274loPI   C4A 4378   5.164   3.203   9.081 -0.0678 -0.3146 -0.2148
  274loPI   C5A 4379   4.965   3.109   8.756  0.2568  0.1480  0.0963
  274loPI   C6A 4380   4.908   3.252   8.355  0.0389 -0.2119  0.1902
  274loPI   C1B 4381   5.786   2.699  10.140 -0.1087 -0.0502 -0.2691
  274loPI   C2B 4382   5.798   2.670   9.765 -0.3476 -0.3408  0.1432
  274loPI   C3B 4383   5.763   2.844   9.406  0.0239 -0.0593  0.1853
  274loPI   C4B 4384   5.669   2.880   8.926 -0.2093 -0.0870  0.0069
  275loPI    C1 4385   9.707   7.645  11.932  0.0419 -0.0595  0.0657
  275loPI    C2 4386   9.925   7.431  12.190 -0.2241 -0.3081  0.0906
  275loPI    C3 4387   9.936   7.831  12.202  0.2009 -0.3151  0.1100
  275loPI   PO4 4388   9.717   7.466  11.674 -0.0708 -0.1012  0.2242
  275loPI   GL1 4389   9.677   7.454  11.152  0.3696  0.0690  0.0108
  275loPI   GL2 4390   9.780   7.647  10.963  0.0872  0.2236  0.0633
  275loPI   C1A 4391   9.362   7.273  10.838 -0.1089 -0.0151 -0.0688
  275loPI   C2A 4392   9.290   7.152  10.436  0.0204 -0.0736 -0.0769
  275loPI   C3A 4393   9.222   7.188  10.034  0.0136 -0.2940 -0.1574
  275loPI   C4A 4394   9.164   7.183   9.627  0.0083 -0.1191 -0.2947
  275loPI   C5A 4395   9.360   7.285   9.212 -0.1141  0.1653  0.0225
  275loPI   C6A 4396   9.620   7.508   9.055 -0.2306  0.0808 -0.1715
  275loPI   C1B 4397   9.687   7.709  10.512 -0.1487  0.3009 -0.0843
  275loPI   C2B 4398   9.474   7.634  10.244 -0.2937 -0.2044  0.1542
  275loPI   C3B 4399   9.337   7.626   9.819  0.0067 -0.2289  0.2431
  275loPI   C4B 4400   9.447   7.767   9.446  0.3767 -0.0070 -0.2066
  276loPI    C1 4401   7.645  10.501  11.595 -0.0510  0.0958 -0.1113
  276loPI    C2 4402   7.338  10.322  11.413 -0.1942  0.2671 -0.0408
  276loPI    C3 4403   7.335  10.369  11.810  0.0685 -0.0105 -0.0024
  276loPI   PO4 4404   7.890  10.378  11.507  0.0460 -0.1351 -0.1973
  276loPI   GL1 4405   8.153  10.379  11.147  0.2054 -0.0401 -0.2822
  276loPI   GL2 4406   8.292  10.159  10.968 -0.2679  0.0942  0.1158
  276loPI   C1A 4407   7.874  10.461  10.799 -0.4943 -0.1411 -0.1606
  276loPI   C2A 4408   7.847  10.680  10.386 -0.1251  0.0531  0.0059
  276loPI   C3A 4409   7.635  10.777   9.981 -0.0127  0.0406  0.3526
  276loPI   C4A 4410   7.579  11.113   9.576  0.0148  0.2119  0.0414
  276loPI   C5A 4411   7.712  11.366   9.253 -0.1245 -0.0678  0.0605
  276loPI   C6A 4412   7.625  11.724   9.077 -0.1512 -0.0371  0.1151
  276loPI   C1B 4413   8.306  10.259  10.604  0.1211 -0.0461  0.2834
  276loPI   C2B 4414   8.514   9.981  10.262  0.0043  0.0725  0.2836
  276loPI   C3B 4415   8.581   9.723   9.972  0.3120 -0.1392  0.2559
  276loPI   C4B 4416   8.481   9.736   9.569 -0.0039 -0.0079  0.0678
  277loPI    C1 4417   3.271  11.546  11.480 -0.0716  0.1727  0.0298
  277loPI    C2 4418   3.518  11.843  11.580  0.0648  0.0512  0.0575
  277loPI    C3 4419   3.314  11.649  11.864  0.1607 -0.0413  0.0637
  277loPI   PO4 4420   3.298  11.569  11.267  0.1622  0.0222 -0.1511
  277loPI   GL1 4421   3.434  11.565  10.892 -0.1239 -0.2024 -0.1855
  277loPI   GL2 4422   3.259  11.631  10.744  0.0744 -0.1986 -0.0486
  277loPI   C1A 4423   3.608  11.507  10.439 -0.3268 -0.0634  0.0243
  277loPI   C2A 4424   3.694  11.667  10.064  0.0034 -0.1603  0.1262
  277loPI   C3A 4425   3.622  11.679   9.684  0.1774  0.2040 -0.0085
  277loPI   C4A 4426   3.486  11.646   9.255  0.0699  0.0158  0.3626
  277loPI   C5A 4427   3.074  11.590   9.099  0.0243 -0.2308  0.2219
  277loPI   C6A 4428   2.819  11.826   8.848  0.0540 -0.0906  0.0985
  277loPI   C1B 4429   2.836  11.624  10.369 -0.1422  0.0505 -0.0597
  277loPI   C2B 4430   2.495  11.576  10.130 -0.0909 -0.0116 -0.1070
  277loPI   C3B 4431   2.250  11.596   9.749 -0.0589  0.0633 -0.0789
  277loPI   C4B 4432   2.044  11.525   9.392 -0.0178  0.0258 -0.3085
  278loPI    C1 4433   8.903   3.347  11.219  0.0220 -0.1583  0.1381
  278loPI    C2 4434   9.285   3.416  11.315  0.0079 -0.1261  0.1716
  278loPI    C3 4435   9.053   3.201  11.560  0.0606 -0.3222  0.0521
  278loPI   PO4 4436   8.869   3.478  11.012  0.0176  0.3911 -0.0914
  278loPI   GL1 4437   8.903   3.541  10.568 -0.0815  0.1615  0.0058
  278loPI   GL2 4438   8.741   3.252  10.391  0.2922 -0.1271  0.0371
  278loPI   C1A 4439   8.979   3.670  10.161  0.0934  0.1141  0.0497
  278loPI   C2A 4440   8.935   3.620   9.699  0.0794 -0.3778  0.0078
  278loPI   C3A 4441   8.948   3.687   9.277  0.0351  0.0269  0.1944
  278loPI   C4A 4442   8.922   3.667   8.830 -0.0712  0.0350  0.2908
  278loPI   C5A 4443   9.296   3.764   8.580  0.1047  0.0554  0.1485
  278loPI   C6A 4444   9.512   3.618   8.198 -0.0158  0.1728  0.1112
  278loPI   C1B 4445   8.777   3.236   9.949 -0.1920  0.0695  0.0287
  278loPI   C2B 4446   8.781   3.208   9.505 -0.0917  0.3004  0.2532
  278loPI   C3B 4447   8.783   3.265   9.119  0.0033 -0.1228 -0.1546
  278loPI   C4B 4448   8.622   3.232   8.650  0.2322  0.1643  0.1439
  279loPI    C1 4449   5.205  15.423  11.215  0.1104 -0.2253 -0.0311
  279loPI    C2 4450   5.474  15.575  11.469  0.0366 -0.0422 -0.0608
  279loPI    C3 4451   5.505  15.195  11.349 -0.0454 -0.1956  0.3836
  279loPI   PO4 4452   5.197  15.525  11.041 -0.2545 -0.0495 -0.0553
  279loPI   GL1 4453   5.475  15.671  10.736 -0.1626 -0.1756 -0.0357
  279loPI   GL2 4454   5.553  15.248  10.781  0.1623 -0.1914  0.1387
  279loPI   C1A 4455   5.269  15.798  10.279 -0.0963  0.0449  0.0826
  279loPI   C2A 4456   5.196  16.026   9.931 -0.4019  0.3489  0.1924
  279loPI   C3A 4457   5.068  16.202   9.489  0.1951  0.1481  0.1733
  279loPI   C4A 4458   4.828  16.039   9.084  0.1261  0.1357 -0.0998
  279loPI   C5A 4459   4.915  15.648   8.757  0.0486  0.0998  0.4732
  279loPI   C6A 4460   4.810  15.256   8.668 -0.1762  0.0875  0.0179
  279loPI   C1B 4461   5.356  15.305  10.309 -0.2283 -0.1113 -0.1460
  279loPI   C2B 4462   5.305  15.508   9.848  0.0637 -0.1033  0.1321
  279loPI   C3B 4463   4.844  15.590   9.656 -0.1589  0.1234  0.0877
  279loPI   C4B 4464   4.739  15.429   9.229  0.1160  0.0095 -0.0062
  280loPI    C1 4465   4.840   6.499  11.602 -0.0637 -0.3453 -0.0864
  280loPI    C2 4466   5.118   6.219  11.538  0.1332 -0.2038  0.1337
  280loPI    C3 4467   4.901   6.211  11.873 -0.1952 -0.3654 -0.0777
  280loPI   PO4 4468   4.670   6.451  11.434  0.0262 -0.3534  0.2220
  280loPI   GL1 4469   4.516   6.365  11.057  0.0166 -0.0014  0.2216
  280loPI   GL2 4470   4.216   6.401  10.915 -0.1129 -0.0155 -0.0659
  280loPI   C1A 4471   4.781   6.400  10.679 -0.1082  0.0635  0.0290
  280loPI   C2A 4472   4.821   6.477  10.339 -0.1527 -0.1096  0.2188
  280loPI   C3A 4473   4.835   6.362   9.932 -0.0365 -0.3103 -0.0449
  280loPI   C4A 4474   4.811   6.320   9.381  0.3022 -0.2074 -0.0114
  280loPI   C5A 4475   4.848   6.257   8.990 -0.0336 -0.0031 -0.1105
  280loPI   C6A 4476   4.973   5.978   8.678  0.1810 -0.0701  0.0668
  280loPI   C1B 4477   4.316   6.460  10.513  0.5478 -0.5628  0.1676
  280loPI   C2B 4478   4.283   6.344  10.079 -0.1633  0.1247  0.4244
  280loPI   C3B 4479   4.347   6.257   9.674  0.3182 -0.2580 -0.3592
  280loPI   C4B 4480   4.317   6.209   9.268  0.2912  0.0071 -0.0915
  281loPI    C1 4481   9.769   4.586  11.098 -0.1239 -0.0487 -0.0258
  281loPI    C2 4482   9.458   4.649  11.342 -0.0762  0.2042 -0.0280
  281loPI    C3 4483   9.487   4.852  10.999  0.0687  0.1495 -0.0488
  281loPI   PO4 4484   9.793   4.273  11.076  0.4958 -0.2757  0.2584
  281loPI   GL1 4485   9.692   4.089  10.729 -0.1347 -0.1840 -0.1609
  281loPI   GL2 4486   9.722   3.800  10.676 -0.0344 -0.0952  0.1446
  281loPI   C1A 4487   9.791   4.093  10.257  0.5569  0.0411 -0.2241
  281loPI   C2A 4488   9.715   4.152   9.886 -0.3960 -0.3799  0.3259
  281loPI   C3A 4489   9.753   4.128   9.580  0.1516 -0.0522  0.0309
  281loPI   C4A 4490   9.722   4.269   9.100  0.0957 -0.1590 -0.1619
  281loPI   C5A 4491   9.556   4.232   8.703  0.0114  0.1712  0.1715
  281loPI   C6A 4492   9.147   4.225   8.562 -0.1188  0.1884 -0.0119
  281loPI   C1B 4493   9.511   3.667  10.349 -0.0635  0.0060  0.1814
  281loPI   C2B 4494   9.484   3.736   9.896 -0.0245  0.1590 -0.2173
  281loPI   C3B 4495   9.433   3.677   9.467  0.1979 -0.1511  0.0191
  281loPI   C4B 4496   9.557   3.770   9.015  0.1248  0.3762  0.1431
  282loPI    C1 4497   0.841   4.910  11.148 -0.0717 -0.2783 -0.0527
  282loPI    C2 4498   0.644   4.625  11.348 -0.1447 -0.1181  0.1070
  282loPI    C3 4499   0.987   4.769  11.493 -0.0023 -0.2667 -0.0773
  282loPI   PO4 4500   0.766   4.768  10.841 -0.1472 -0.0059  0.1615
  282loPI   GL1 4501   0.533   4.419  10.690  0.0705  0.0474 -0.0820
  282loPI   GL2 4502   0.880   4.280  10.507 -0.2739  0.0518  0.0857
  282loPI   C1A 4503   0.469   4.457  10.310  0.1681  0.2979  0.2083
  282loPI   C2A 4504   0.608   4.519   9.882  0.1099 -0.2011 -0.2295
  282loPI   C3A 4505   0.551   4.589   9.466 -0.1373 -0.2312 -0.3706
  282loPI   C4A 4506   0.446   5.000   9.247 -0.0538  0.0944  0.0757
  282loPI   C5A 4507   0.673   5.323   9.105  0.1002  0.1930 -0.0109
  282loPI   C6A 4508   0.759   5.571   8.772 -0.0113  0.2633 -0.0540
  282loPI   C1B 4509   0.865   4.172  10.036  0.2971  0.0484  0.2245
  282loPI   C2B 4510   0.727   4.038   9.658  0.1786  0.0572  0.0966
  282loPI   C3B 4511   0.745   3.883   9.279 -0.1034 -0.2130  0.1461
  282loPI   C4B 4512   0.810   3.640   8.908  0.1920 -0.1063  0.0723
  283loPI    C1 4513   1.793   5.687  11.142 -0.2604  0.0729 -0.4271
  283loPI    C2 4514   1.998   6.021  11.221  0.0529 -0.2114  0.0082
  283loPI    C3 4515   1.600   6.016  11.264  0.0534  0.0815  0.0721
  283loPI   PO4 4516   1.892   5.629  10.879  0.0057  0.0477 -0.1129
  283loPI   GL1 4517   2.210   5.514  10.523  0.1319 -0.1786 -0.1701
  283loPI   GL2 4518   2.618   5.670  10.445  0.2653  0.0767  0.1788
  283loPI   C1A 4519   2.049   5.593  10.104 -0.2474  0.0023 -0.0861
  283loPI   C2A 4520   2.047   5.560   9.622  0.1868 -0.1482 -0.1982
  283loPI   C3A 4521   2.066   5.612   9.266 -0.3188  0.0476  0.1312
  283loPI   C4A 4522   2.043   5.798   8.834  0.2554 -0.1502  0.0996
  283loPI   C5A 4523   2.276   5.593   8.477  0.1643 -0.1667  0.1934
  283loPI   C6A 4524   1.920   5.476   8.183  0.3783  0.2550 -0.1437
  283loPI   C1B 4525   2.647   5.747  10.018 -0.0873  0.2182 -0.0808
  283loPI   C2B 4526   2.655   5.699   9.609 -0.1030  0.2266 -0.0159
  283loPI   C3B 4527   2.616   5.644   9.133  0.0308 -0.0066  0.3388
  283loPI   C4B 4528   2.684   5.677   8.715  0.2827 -0.1296  0.4369
  284loPI    C1 4529   7.591  11.304  11.425 -0.1315 -0.1167  0.0865
  284loPI    C2 4530   7.727  11.675  11.488 -0.2016 -0.0600 -0.0905
  284loPI    C3 4531   7.568  11.467  11.790  0.1635 -0.0816  0.0919
  284loPI   PO4 4532   7.646  11.164  11.269  0.0605 -0.0385  0.0763
  284loPI   GL1 4533   7.981  11.217  10.903 -0.1486  0.1980  0.1522
  284loPI   GL2 4534   8.003  10.969  10.894 -0.0935  0.0562 -0.1245
  284loPI   C1A 4535   7.737  11.289  10.484 -0.1085  0.1396  0.0814
  284loPI   C2A 4536   7.430  11.263  10.113 -0.1054  0.1591 -0.0261
  284loPI   C3A 4537   7.232  11.349   9.818 -0.0689  0.1761 -0.1401
  284loPI   C4A 4538   7.200  11.673   9.576  0.2649  0.0735 -0.0842
  284loPI   C5A 4539   7.271  12.062   9.307  0.1200  0.0134  0.2705
  284loPI   C6A 4540   7.144  12.359   8.956 -0.0334  0.2467  0.0063
  284loPI   C1B 4541   8.371  10.869  10.656  0.0084 -0.0703 -0.1223
  284loPI   C2B 4542   8.365  10.685  10.272 -0.1195 -0.0123  0.2347
  284loPI   C3B 4543   8.511  10.711   9.798 -0.0748  0.1716  0.1510
  284loPI   C4B 4544   8.481  10.647   9.353  0.2532  0.1176  0.3479
  285loPI    C1 4545   3.793   1.645  10.760 -0.0701 -0.1293  0.2079
  285loPI    C2 4546   3.877   1.498  10.398 -0.0694 -0.0455  0.1737
  285loPI    C3 4547   3.510   1.633  10.479  0.0050  0.1980  0.1131
  285loPI   PO4 4548   3.952   1.821  10.838 -0.2902  0.0549 -0.1616
  285loPI   GL1 4549   4.003   1.999  10.437 -0.3443  0.0454  0.2661
  285loPI   GL2 4550   3.798   1.994  10.348  0.0726  0.3235 -0.0763
  285loPI   C1A 4551   4.176   2.280  10.065 -0.0604 -0.2504 -0.0156
  285loPI   C2A 4552   4.092   2.215   9.703  0.1620 -0.0582  0.0218
  285loPI   C3A 4553   3.926   2.318   9.364  0.1863 -0.0117 -0.0297
  285loPI   C4A 4554   4.168   2.081   9.073 -0.1088 -0.0330  0.2032
  285loPI   C5A 4555   4.175   1.909   8.654 -0.1319  0.0701  0.0798
  285loPI   C6A 4556   3.750   1.835   8.351 -0.0416  0.1984  0.1469
  285loPI   C1B 4557   3.694   2.273  10.042  0.2740  0.0410  0.0960
  285loPI   C2B 4558   3.636   2.011   9.733 -0.1571 -0.0749  0.0844
  285loPI   C3B 4559   3.881   1.776   9.377 -0.1653  0.1039  0.0787
  285loPI   C4B 4560   3.837   1.697   8.905  0.2923  0.2883  0.1658
  286loPI    C1 4561   2.811   0.779  11.238  0.2188  0.0320 -0.0468
  286loPI    C2 4562   2.776   1.086  11.492 -0.0804  0.0995 -0.1652
  286loPI    C3 4563   2.450   0.885  11.374  0.0966 -0.1691 -0.2067
  286loPI   PO4 4564   2.826   0.886  11.004  0.0001 -0.1609  0.1062
  286loPI   GL1 4565   2.922   0.753  10.579 -0.1148  0.0992 -0.1738
  286loPI   GL2 4566   2.879   0.434  10.451  0.3266  0.1051  0.0135
  286loPI   C1A 4567   2.798   0.931  10.227 -0.2098  0.2558  0.1238
  286loPI   C2A 4568   2.856   0.924   9.815 -0.2041  0.0378 -0.0608
  286loPI   C3A 4569   3.080   0.740   9.519 -0.3682 -0.1820 -0.0284
  286loPI   C4A 4570   3.331   0.458   9.241  0.1183  0.2762  0.4033
  286loPI   C5A 4571   3.635   0.115   9.100 -0.1158 -0.3088 -0.3572
  286loPI   C6A 4572   3.369   0.103   8.750 -0.1230  0.0460 -0.1926
  286loPI   C1B 4573   2.866   0.456  10.048  0.0350 -0.1920 -0.2631
  286loPI   C2B 4574   3.014   0.257   9.573  0.0850  0.0802  0.3618
  286loPI   C3B 4575   2.874   0.258   9.112 -0.0710  0.0091 -0.0290
  286loPI   C4B 4576   2.822   0.115   8.639  0.1131  0.0269 -0.3243
  287loPI    C1 4577   0.701   3.898  10.788  0.3381 -0.0679  0.0136
  287loPI    C2 4578   0.484   3.677  11.041  0.2079 -0.0018 -0.0394
  287loPI    C3 4579   0.785   3.902  11.179 -0.0497  0.2648  0.1001
  287loPI   PO4 4580   0.814   3.723  10.607  0.0041  0.0429 -0.1401
  287loPI   GL1 4581   1.120   3.820  10.297  0.0163  0.1339  0.1657
  287loPI   GL2 4582   1.112   3.426  10.293  0.0039 -0.2065 -0.0143
  287loPI   C1A 4583   0.852   3.691   9.972 -0.2438 -0.2263  0.2276
  287loPI   C2A 4584   0.876   3.499   9.590  0.1521 -0.1821  0.0330
  287loPI   C3A 4585   0.896   3.269   9.204 -0.2562  0.1631  0.0925
  287loPI   C4A 4586   0.829   2.929   8.917  0.1737 -0.3845  0.1740
  287loPI   C5A 4587   0.680   2.587   8.655 -0.2447 -0.4015  0.2086
  287loPI   C6A 4588   0.386   2.298   8.543  0.2242  0.2337  0.2248
  287loPI   C1B 4589   1.399   3.633   9.964 -0.1290  0.0586  0.1454
  287loPI   C2B 4590   1.273   3.745   9.603  0.2947  0.2532 -0.0756
  287loPI   C3B 4591   1.282   3.822   9.173  0.1780  0.3058 -0.0135
  287loPI   C4B 4592   1.277   3.739   8.677  0.0082 -0.0860 -0.0529
  288loPI    C1 4593  10.108  11.580  11.715 -0.2250  0.2078 -0.0971
  288loPI    C2 4594  10.049  11.273  11.964  0.1323  0.0179 -0.2394
  288loPI    C3 4595  10.148  11.633  12.109 -0.2171  0.0523 -0.0765
  288loPI   PO4 4596   9.973  11.498  11.378 -0.1365  0.2705  0.1001
  288loPI   GL1 4597  10.057  11.697  10.940  0.1788  0.3172  0.0210
  288loPI   GL2 4598   9.841  11.955  10.954  0.0466  0.1901 -0.0139
  288loPI   C1A 4599  10.074  11.798  10.516 -0.2441  0.1481  0.1056
  288loPI   C2A 4600  10.378  12.037  10.225 -0.0895 -0.0440  0.3992
  288loPI   C3A 4601  10.408  12.044   9.855 -0.1789 -0.1594  0.1785
  288loPI   C4A 4602  10.163  11.928   9.378  0.2446 -0.0864  0.1845
  288loPI   C5A 4603   9.907  12.012   9.042 -0.0408  0.4209  0.1786
  288loPI   C6A 4604   9.402  11.760   9.103  0.0593 -0.0095 -0.4000
  288loPI   C1B 4605   9.639  11.701  10.738 -0.4069  0.2773 -0.3746
  288loPI   C2B 4606   9.358  11.724  10.415 -0.0562 -0.0207 -0.1183
  288loPI   C3B 4607   9.243  12.035  10.102 -0.0021 -0.1048 -0.3136
  288loPI   C4B 4608   9.374  12.284   9.749 -0.1121 -0.2074  0.2944
  289loPI    C1 4609   6.909  14.688  10.839 -0.0208 -0.2111  0.2143
  289loPI    C2 4610   6.625  14.969  10.819  0.0680 -0.1248  0.1563
  289loPI    C3 4611   6.559  14.633  11.025 -0.0159 -0.0347  0.2779
  289loPI   PO4 4612   7.056  14.808  10.591 -0.1083  0.0010  0.1092
  289loPI   GL1 4613   7.307  15.031  10.399 -0.2767 -0.0674  0.0699
  289loPI   GL2 4614   7.232  14.966  10.087 -0.0647  0.3458 -0.2102
  289loPI   C1A 4615   7.581  15.291  10.190 -0.1311 -0.0395 -0.0278
  289loPI   C2A 4616   7.720  15.666   9.996  0.0618  0.3037 -0.1251
  289loPI   C3A 4617   7.730  15.834   9.608  0.0213 -0.0360 -0.2449
  289loPI   C4A 4618   7.683  15.916   9.182  0.1829 -0.2738  0.0680
  289loPI   C5A 4619   7.788  16.004   8.810  0.0118  0.0982  0.0633
  289loPI   C6A 4620   8.169  15.832   8.584  0.1088  0.1085 -0.1007
  289loPI   C1B 4621   7.044  15.061   9.643 -0.1245 -0.0114  0.1384
  289loPI   C2B 4622   6.908  15.203   9.232 -0.0330 -0.1223 -0.2047
  289loPI   C3B 4623   6.714  15.569   9.000  0.0852  0.6378  0.0316
  289loPI   C4B 4624   6.350  15.753   8.851  0.1365  0.3127  0.1385
  290loPI    C1 4625  17.671   8.558  10.865 -0.1636  0.1565 -0.3325
  290loPI    C2 4626  18.038   8.639  10.729 -0.0176 -0.0142 -0.0494
  290loPI    C3 4627  17.823   8.926  10.905  0.0998  0.0126  0.0522
  290loPI   PO4 4628  17.525   8.393  10.708  0.0304 -0.1041 -0.0415
  290loPI   GL1 4629  17.481   8.525  10.230  0.0318 -0.0121 -0.0644
  290loPI   GL2 4630  17.703   8.703  10.323  0.1252 -0.0657 -0.0738
  290loPI   C1A 4631  17.603   8.519   9.782  0.1653 -0.3191  0.0881
  290loPI   C2A 4632  17.847   8.509   9.437  0.1551  0.1423 -0.0604
  290loPI   C3A 4633  17.794   8.519   9.097  0.1023  0.5283 -0.0880
  290loPI   C4A 4634  17.938   8.686   8.600 -0.0367  0.0771  0.1164
  290loPI   C5A 4635  18.343   8.945   8.534  0.1706 -0.2994 -0.5407
  290loPI   C6A 4636  18.538   9.307   8.387 -0.2920  0.0353 -0.0472
  290loPI   C1B 4637  18.068   8.553  10.054 -0.1184  0.1841  0.0047
  290loPI   C2B 4638  18.345   8.435   9.641  0.0479 -0.1026 -0.0664
  290loPI   C3B 4639  18.312   8.409   9.183 -0.0830 -0.0823 -0.0251
  290loPI   C4B 4640  18.215   8.314   8.777 -0.0282 -0.1317 -0.3124
  291loPI    C1 4641  10.925   9.505  11.617 -0.0177 -0.0937 -0.0675
  291loPI    C2 4642  11.157   9.244  11.812  0.0036 -0.2025 -0.2370
  291loPI    C3 4643  11.214   9.637  11.860 -0.1663 -0.2244  0.1847
  291loPI   PO4 4644  10.918   9.430  11.408 -0.0072 -0.0225  0.1740
  291loPI   GL1 4645  10.636   9.312  11.070  0.1321 -0.1922 -0.2489
  291loPI   GL2 4646  10.612   8.992  10.985  0.2094  0.1572  0.0271
  291loPI   C1A 4647  10.348   9.295  10.750 -0.0197  0.3156 -0.1260
  291loPI   C2A 4648  10.200   9.204  10.326  0.0190 -0.1794 -0.0653
  291loPI   C3A 4649   9.842   9.063  10.018  0.0451 -0.0407 -0.1719
  291loPI   C4A 4650   9.903   9.222   9.666 -0.0388 -0.0504 -0.0926
  291loPI   C5A 4651   9.798   9.191   9.255  0.0360 -0.0382  0.0573
  291loPI   C6A 4652   9.543   9.396   8.934 -0.0046  0.2146 -0.0891
  291loPI   C1B 4653  10.523   8.897  10.528  0.0663  0.1463  0.0077
  291loPI   C2B 4654  10.284   8.695  10.101 -0.1901  0.0280 -0.2132
  291loPI   C3B 4655  10.173   8.512   9.667 -0.2055 -0.2214 -0.2308
  291loPI   C4B 4656  10.008   8.325   9.437  0.1753 -0.1704 -0.0578
  292loPI    C1 4657   2.726  14.474  10.971  0.0200 -0.2707 -0.0184
  292loPI    C2 4658   3.123  14.504  11.014  0.0134 -0.1642 -0.0305
  292loPI    C3 4659   2.880  14.721  11.245 -0.0283  0.1556 -0.3649
  292loPI   PO4 4660   2.694  14.267  10.780  0.2091  0.3863 -0.0455
  292loPI   GL1 4661   2.980  14.002  10.526  0.0512 -0.2526  0.0113
  292loPI   GL2 4662   3.141  14.286  10.542  0.0948  0.5451  0.1136
  292loPI   C1A 4663   3.155  13.751  10.229 -0.1347  0.0321 -0.0656
  292loPI   C2A 4664   3.191  13.772   9.782 -0.2293 -0.2031 -0.2338
  292loPI   C3A 4665   3.105  13.872   9.433  0.3507  0.3864  0.2290
  292loPI   C4A 4666   2.986  13.708   9.104 -0.1745  0.0148  0.0631
  292loPI   C5A 4667   2.920  13.389   8.916 -0.2030 -0.2859 -0.1130
  292loPI   C6A 4668   2.902  13.297   8.396  0.1391  0.1038 -0.3383
  292loPI   C1B 4669   2.998  14.304  10.088 -0.0099 -0.0492 -0.2139
  292loPI   C2B 4670   3.092  14.271   9.680 -0.3297  0.0191 -0.1799
  292loPI   C3B 4671   3.177  14.358   9.360 -0.1985  0.0581  0.0976
  292loPI   C4B 4672   3.246  14.132   8.932 -0.0545 -0.2755 -0.3630
  293loPI    C1 4673   7.052  17.911  11.219 -0.0387 -0.0392 -0.0628
  293loPI    C2 4674   7.421  17.947  11.368 -0.0279 -0.1065 -0.0731
  293loPI    C3 4675   7.117  17.851  11.609 -0.0026 -0.2604 -0.1015
  293loPI   PO4 4676   7.103  17.836  10.980  0.0545  0.5048  0.1025
  293loPI   GL1 4677   7.103  17.905  10.605 -0.0017  0.1279  0.0662
  293loPI   GL2 4678   6.870  17.656  10.540  0.2029  0.0106 -0.2481
  293loPI   C1A 4679   7.206  17.803  10.162  0.0718 -0.0471 -0.1209
  293loPI   C2A 4680   7.251  17.786   9.762  0.1994  0.1937  0.0675
  293loPI   C3A 4681   7.069  17.741   9.441 -0.0924 -0.0665 -0.0885
  293loPI   C4A 4682   7.066  17.649   8.992 -0.2341 -0.1831 -0.0644
  293loPI   C5A 4683   7.005  17.828   8.622  0.0288 -0.1454 -0.0977
  293loPI   C6A 4684   7.205  18.216   8.302 -0.0868  0.1235 -0.0363
  293loPI   C1B 4685   6.597  17.736  10.141 -0.1483  0.1942 -0.0648
  293loPI   C2B 4686   6.654  17.990   9.691  0.0823 -0.0781 -0.3548
  293loPI   C3B 4687   6.584  18.210   9.318  0.0711 -0.0181 -0.0881
  293loPI   C4B 4688   6.419  18.174   9.025 -0.3042  0.1056 -0.0998
  294loPI    C1 4689   1.322  16.462  10.443 -0.2310 -0.0020 -0.1098
  294loPI    C2 4690   1.333  16.391  10.836 -0.0606  0.0429 -0.1059
  294loPI    C3 4691   1.476  16.735  10.691 -0.2263  0.0743 -0.1962
  294loPI   PO4 4692   1.168  16.203  10.409 -0.0765 -0.0515  0.4525
  294loPI   GL1 4693   0.992  15.935  10.043  0.0713 -0.1275  0.3375
  294loPI   GL2 4694   0.858  16.124   9.982 -0.4692 -0.1267  0.0976
  294loPI   C1A 4695   1.368  15.882   9.795  0.2205 -0.1346 -0.0761
  294loPI   C2A 4696   1.668  15.883   9.402 -0.0913 -0.2503  0.0081
  294loPI   C3A 4697   1.703  16.009   8.958  0.1498 -0.0707 -0.0708
  294loPI   C4A 4698   1.391  16.150   8.577  0.0899 -0.0783  0.0266
  294loPI   C5A 4699   0.881  16.122   8.407  0.0052  0.0900 -0.2226
  294loPI   C6A 4700   0.472  16.090   8.280  0.0735  0.0750 -0.0906
  294loPI   C1B 4701   1.078  16.136   9.484 -0.0830  0.4004  0.2758
  294loPI   C2B 4702   1.064  16.203   9.034 -0.2511  0.0814  0.0207
  294loPI   C3B 4703   1.007  16.532   8.770 -0.1033  0.1098  0.0461
  294loPI   C4B 4704   0.775  16.878   8.567 -0.0433  0.0850 -0.1012
  295loPI    C1 4705  17.805   9.508  11.016 -0.0327  0.0762  0.2226
  295loPI    C2 4706  17.470   9.311  10.924  0.0826 -0.0615  0.0931
  295loPI    C3 4707  17.673   9.216  11.255 -0.0633  0.0956  0.2296
  295loPI   PO4 4708  17.952   9.431  10.783 -0.1457  0.1695  0.0256
  295loPI   GL1 4709  18.221   9.568  10.512 -0.1139  0.1901  0.2612
  295loPI   GL2 4710  18.476   9.369  10.316  0.0598  0.0953 -0.0576
  295loPI   C1A 4711  18.304   9.787  10.028 -0.2278  0.2279 -0.0699
  295loPI   C2A 4712  18.199   9.729   9.654 -0.1373  0.1472 -0.0990
  295loPI   C3A 4713  17.958   9.485   9.308  0.1464 -0.0182 -0.2858
  295loPI   C4A 4714  17.787   9.572   8.995 -0.0614 -0.0773 -0.0155
  295loPI   C5A 4715  17.777   9.631   8.598 -0.0620 -0.1814  0.2388
  295loPI   C6A 4716  17.998   9.401   8.240  0.2182  0.0496  0.0862
  295loPI   C1B 4717  18.324   9.308   9.861 -0.2433 -0.2341  0.0035
  295loPI   C2B 4718  18.482   9.260   9.435  0.1172 -0.0102  0.1368
  295loPI   C3B 4719  18.397   9.267   8.984 -0.2120  0.1577 -0.0438
  295loPI   C4B 4720  18.225   9.455   8.682  0.1640 -0.1921  0.1433
  296loPI    C1 4721   9.422   8.357  11.698  0.1591 -0.2380  0.2868
  296loPI    C2 4722   9.711   8.178  11.909  0.2984 -0.0269  0.2792
  296loPI    C3 4723   9.533   8.506  12.052  0.2766  0.0204  0.1442
  296loPI   PO4 4724   9.472   8.363  11.471  0.0707 -0.2191 -0.1588
  296loPI   GL1 4725   9.683   8.283  11.062 -0.0564  0.3496 -0.1655
  296loPI   GL2 4726   9.661   8.523  10.939  0.0438 -0.0190 -0.0102
  296loPI   C1A 4727   9.718   8.190  10.533  0.2985 -0.0820  0.0484
  296loPI   C2A 4728   9.606   8.101  10.077 -0.2118 -0.2931 -0.0294
  296loPI   C3A 4729   9.586   8.173   9.658 -0.2630 -0.0332  0.1731
  296loPI   C4A 4730   9.457   8.275   9.198 -0.0888 -0.0042 -0.0275
  296loPI   C5A 4731   9.133   7.942   8.970  0.1697 -0.1634  0.2545
  296loPI   C6A 4732   9.156   7.554   8.816 -0.1432  0.1373 -0.0922
  296loPI   C1B 4733   9.267   8.437  10.659 -0.2005  0.1652  0.2804
  296loPI   C2B 4734   9.185   8.482  10.183 -0.1704  0.0551  0.0929
  296loPI   C3B 4735   9.229   8.532   9.679  0.2573  0.0423 -0.0448
  296loPI   C4B 4736   9.094   8.557   9.202  0.2589  0.0104 -0.0159
  297loPI    C1 4737   5.655   0.943  11.131 -0.0561  0.1628  0.1099
  297loPI    C2 4738   5.332   0.887  11.361 -0.1736  0.2508 -0.0316
  297loPI    C3 4739   5.651   1.080  11.507 -0.2117  0.2253  0.0863
  297loPI   PO4 4740   5.578   1.063  10.938  0.1386  0.2088 -0.1664
  297loPI   GL1 4741   5.672   1.180  10.479 -0.0126 -0.0826 -0.1046
  297loPI   GL2 4742   5.973   1.146  10.656  0.2183  0.2474 -0.1665
  297loPI   C1A 4743   5.729   1.402  10.088  0.1512 -0.1566  0.3998
  297loPI   C2A 4744   5.819   1.741   9.756  0.0559  0.0455 -0.3095
  297loPI   C3A 4745   5.993   1.933   9.329 -0.2815 -0.2585  0.0185
  297loPI   C4A 4746   6.260   2.140   9.119  0.0997  0.0969  0.1306
  297loPI   C5A 4747   6.546   2.348   8.817 -0.2914  0.6139 -0.0361
  297loPI   C6A 4748   6.774   2.507   8.442  0.0153  0.2509 -0.1435
  297loPI   C1B 4749   6.043   0.839  10.400  0.1734  0.0905  0.0810
  297loPI   C2B 4750   6.043   0.879   9.967  0.1195 -0.0012  0.0262
  297loPI   C3B 4751   5.871   1.076   9.518 -0.0752  0.0171  0.1548
  297loPI   C4B 4752   6.011   1.017   9.070 -0.3480  0.1568 -0.1390
  298loPI    C1 4753   9.485   3.907  11.415  0.1284  0.0979 -0.0872
  298loPI    C2 4754   9.881   3.909  11.358  0.1162  0.0223 -0.1763
  298loPI    C3 4755   9.643   3.712  11.104  0.0124  0.1523 -0.1807
  298loPI   PO4 4756   9.331   4.130  11.357  0.1137 -0.1861 -0.0634
  298loPI   GL1 4757   9.269   4.337  11.000  0.0197 -0.0708  0.4268
  298loPI   GL2 4758   9.044   4.558  10.964  0.0769 -0.3351  0.2324
  298loPI   C1A 4759   9.520   4.533  10.569 -0.0235 -0.3450  0.1540
  298loPI   C2A 4760   9.496   4.564  10.220  0.2076  0.0512  0.0692
  298loPI   C3A 4761   9.482   4.561   9.755 -0.1360  0.1092 -0.1968
  298loPI   C4A 4762   9.417   4.550   9.394  0.1672 -0.2362  0.1983
  298loPI   C5A 4763   9.385   4.608   8.974 -0.3512 -0.0423 -0.0856
  298loPI   C6A 4764   9.280   4.671   8.566 -0.1255  0.2013 -0.0156
  298loPI   C1B 4765   9.005   4.462  10.563  0.0704 -0.0467 -0.0861
  298loPI   C2B 4766   8.969   4.500   9.950  0.1956 -0.1853  0.3231
  298loPI   C3B 4767   8.894   4.470   9.489  0.0084  0.1213  0.2022
  298loPI   C4B 4768   8.875   4.533   9.057  0.0065 -0.2971 -0.1385
  299loPI    C1 4769   5.381  10.361  11.109 -0.1104  0.1631  0.1493
  299loPI    C2 4770   5.646  10.452  11.394  0.0343  0.0135  0.0640
  299loPI    C3 4771   5.334  10.217  11.479  0.1593 -0.1543  0.0651
  299loPI   PO4 4772   5.437  10.501  10.924 -0.0411 -0.1857 -0.0209
  299loPI   GL1 4773   5.654  10.533  10.587 -0.0565 -0.0997 -0.1708
  299loPI   GL2 4774   5.882  10.294  10.438  0.1435  0.3902 -0.4291
  299loPI   C1A 4775   5.824  10.848  10.370 -0.1114  0.2318  0.0313
  299loPI   C2A 4776   5.905  11.005   9.953 -0.3366 -0.0055 -0.4788
  299loPI   C3A 4777   5.801  11.029   9.488  0.1943 -0.0290  0.1835
  299loPI   C4A 4778   5.959  11.094   9.110 -0.3305 -0.2152  0.1278
  299loPI   C5A 4779   5.857  11.122   8.719  0.1297  0.2231 -0.0939
  299loPI   C6A 4780   5.792  11.348   8.345  0.1231  0.3637  0.0668
  299loPI   C1B 4781   5.863  10.232  10.109 -0.0227 -0.0269 -0.1219
  299loPI   C2B 4782   5.755  10.330   9.760 -0.3565 -0.0506 -0.1490
  299loPI   C3B 4783   5.831  10.387   9.339 -0.1789 -0.4498  0.0737
  299loPI   C4B 4784   5.903  10.630   9.002  0.1206  0.0638 -0.0182
  300loPI    C1 4785   7.875   3.206  11.323 -0.2035  0.1332  0.0218
  300loPI    C2 4786   8.097   3.446  11.554 -0.0089 -0.1801  0.1671
  300loPI    C3 4787   7.962   3.098  11.698  0.1033 -0.3741 -0.1848
  300loPI   PO4 4788   7.776   3.372  11.155  0.0253  0.0212  0.0418
  300loPI   GL1 4789   7.599   3.329  10.782  0.4455 -0.2016 -0.2211
  300loPI   GL2 4790   7.383   3.499  10.762  0.1715 -0.0779 -0.0491
  300loPI   C1A 4791   7.836   3.188  10.401  0.0740 -0.2193 -0.2064
  300loPI   C2A 4792   7.870   2.950   9.943  0.1494 -0.0978  0.1578
  300loPI   C3A 4793   7.815   3.077   9.567  0.1256  0.1502 -0.3246
  300loPI   C4A 4794   7.774   3.085   9.153  0.1896  0.0077 -0.2392
  300loPI   C5A 4795   7.523   3.094   8.746 -0.3127 -0.0193  0.2911
  300loPI   C6A 4796   7.086   2.914   8.601  0.1247 -0.4455  0.1783
  300loPI   C1B 4797   7.469   3.508  10.238  0.1180 -0.1535  0.1337
  300loPI   C2B 4798   7.491   3.373   9.805 -0.0579 -0.2265  0.0927
  300loPI   C3B 4799   7.401   3.518   9.367  0.1002  0.1346 -0.0516
  300loPI   C4B 4800   7.373   3.564   8.938 -0.1968 -0.1148 -0.1776
  301loPI    C1 4801   5.624   8.513  11.798 -0.0522  0.1976  0.0899
  301loPI    C2 4802   5.399   8.473  11.469 -0.1149 -0.2362  0.1791
  301loPI    C3 4803   5.239   8.622  11.804 -0.1065  0.0092  0.0768
  301loPI   PO4 4804   5.891   8.552  11.664 -0.1778 -0.4277  0.1292
  301loPI   GL1 4805   6.025   8.570  11.254 -0.0028  0.1069  0.1814
  301loPI   GL2 4806   5.757   8.707  11.180  0.0949  0.0150  0.1996
  301loPI   C1A 4807   6.085   8.497  10.841 -0.1373  0.0372  0.1447
  301loPI   C2A 4808   6.130   8.369  10.416 -0.1263  0.0039 -0.1576
  301loPI   C3A 4809   6.224   8.280   9.988  0.4168 -0.1023 -0.1706
  301loPI   C4A 4810   6.290   8.276   9.555 -0.1239 -0.0907 -0.0057
  301loPI   C5A 4811   6.502   8.258   9.136 -0.1693 -0.1164 -0.1437
  301loPI   C6A 4812   6.622   8.011   8.790  0.1721  0.0783 -0.2435
  301loPI   C1B 4813   5.634   8.697  10.683 -0.4090 -0.0294  0.0583
  301loPI   C2B 4814   5.394   8.663  10.273 -0.1485  0.1584 -0.2281
  301loPI   C3B 4815   5.467   8.644   9.841 -0.0746 -0.0981 -0.1287
  301loPI   C4B 4816   5.401   8.660   9.434  0.0701 -0.0788 -0.0227
  302loPI    C1 4817   6.390  17.178  11.223  0.0776  0.1536 -0.1620
  302loPI    C2 4818   6.170  16.981  11.492  0.2333  0.1043 -0.0698
  302loPI    C3 4819   6.113  17.373  11.437  0.0712  0.0770 -0.1003
  302loPI   PO4 4820   6.437  16.955  11.068 -0.0266 -0.0662 -0.0586
  302loPI   GL1 4821   6.238  16.760  10.713  0.1379 -0.1439 -0.0677
  302loPI   GL2 4822   5.953  16.876  10.476  0.0250 -0.0368  0.1956
  302loPI   C1A 4823   6.521  16.645  10.338  0.3633  0.1115 -0.1591
  302loPI   C2A 4824   6.844  16.810  10.133 -0.0013  0.2643 -0.0582
  302loPI   C3A 4825   6.825  16.806   9.726  0.0389  0.1014 -0.2915
  302loPI   C4A 4826   6.778  16.754   9.342  0.1340 -0.0415 -0.2048
  302loPI   C5A 4827   6.789  16.761   8.932 -0.3052  0.0688  0.1742
  302loPI   C6A 4828   7.009  16.477   8.748  0.0394  0.0620 -0.3544
  302loPI   C1B 4829   6.165  16.850  10.030 -0.2454  0.1224 -0.1593
  302loPI   C2B 4830   6.256  16.852   9.579 -0.1455 -0.4449 -0.1712
  302loPI   C3B 4831   6.308  16.740   9.156  0.1192  0.0817  0.1484
  302loPI   C4B 4832   6.103  16.810   8.842 -0.1971 -0.1689  0.1536
  303loPI    C1 4833   2.997  11.157  11.464 -0.0761  0.1106 -0.0894
  303loPI    C2 4834   3.279  11.095  11.741  0.0361  0.0260 -0.2210
  303loPI    C3 4835   2.942  11.288  11.838  0.0543 -0.0430 -0.0151
  303loPI   PO4 4836   3.071  11.064  11.288  0.1390  0.0744  0.3167
  303loPI   GL1 4837   3.108  11.142  10.885  0.1181 -0.0832 -0.1626
  303loPI   GL2 4838   2.901  11.159  10.552 -0.2658 -0.1738 -0.1456
  303loPI   C1A 4839   3.385  11.005  10.502 -0.2703 -0.2341 -0.5052
  303loPI   C2A 4840   3.201  10.854  10.209 -0.0673  0.0448 -0.0357
  303loPI   C3A 4841   3.132  10.863   9.748 -0.2452  0.0133 -0.1534
  303loPI   C4A 4842   3.214  10.703   9.427  0.1287 -0.0192  0.2560
  303loPI   C5A 4843   3.240  10.695   8.913  0.1244 -0.1525  0.1981
  303loPI   C6A 4844   3.225  10.375   8.622  0.0902 -0.0621 -0.0793
  303loPI   C1B 4845   2.845  11.113  10.079 -0.0124 -0.0339 -0.0810
  303loPI   C2B 4846   2.655  11.252   9.727 -0.1949  0.0134  0.0331
  303loPI   C3B 4847   2.450  11.266   9.330 -0.0791  0.0308 -0.4306
  303loPI   C4B 4848   2.341  11.092   8.942 -0.2061  0.0982  0.1246
  304loPI    C1 4849   8.001   3.971  11.713  0.2635 -0.0737 -0.0895
  304loPI    C2 4850   7.822   3.697  11.944 -0.1847  0.2986  0.0200
  304loPI    C3 4851   8.026   3.998  12.111  0.1934  0.1142 -0.0969
  304loPI   PO4 4852   8.091   3.953  11.465  0.4276 -0.0170  0.3138
  304loPI   GL1 4853   8.217   4.098  11.013  0.1524 -0.0155 -0.3489
  304loPI   GL2 4854   7.886   3.821  10.970  0.0399 -0.2176  0.0536
  304loPI   C1A 4855   8.231   4.063  10.591 -0.0563  0.5932  0.4719
  304loPI   C2A 4856   8.243   4.010  10.164 -0.1231 -0.0208  0.1207
  304loPI   C3A 4857   8.171   3.987   9.735 -0.0133  0.1545 -0.0548
  304loPI   C4A 4858   8.155   4.061   9.262  0.4987  0.1641 -0.2438
  304loPI   C5A 4859   8.170   4.064   8.810  0.0661  0.2940 -0.0875
  304loPI   C6A 4860   8.273   3.664   8.506  0.1728  0.2652 -0.3213
  304loPI   C1B 4861   7.611   3.952  10.724  0.1578  0.1016  0.2984
  304loPI   C2B 4862   7.634   4.045  10.233  0.3939 -0.1654 -0.0069
  304loPI   C3B 4863   7.674   3.862   9.833  0.3938  0.3293  0.1181
  304loPI   C4B 4864   7.673   4.011   9.447 -0.2100  0.1806  0.2654
  305loPI    C1 4865   6.976   9.572  11.627  0.1008 -0.0053 -0.1607
  305loPI    C2 4866   7.177   9.917  11.611  0.0329  0.0444  0.0327
  305loPI    C3 4867   6.873   9.875  11.867 -0.0007 -0.1375 -0.0361
  305loPI   PO4 4868   7.047   9.428  11.349 -0.0251  0.0042  0.1696
  305loPI   GL1 4869   6.940   9.397  10.950  0.0206  0.2204 -0.0855
  305loPI   GL2 4870   6.856   9.123  10.870  0.0590  0.0497  0.2917
  305loPI   C1A 4871   7.026   9.657  10.598  0.0233 -0.2317  0.0504
  305loPI   C2A 4872   7.260   9.931  10.244  0.2570  0.1275  0.0270
  305loPI   C3A 4873   7.342   9.751   9.829  0.0380  0.0242  0.0695
  305loPI   C4A 4874   7.503   9.472   9.472 -0.0736  0.1343 -0.1009
  305loPI   C5A 4875   7.856   9.176   9.459 -0.3112  0.0362  0.2610
  305loPI   C6A 4876   8.100   8.977   8.981  0.0466  0.1635  0.0810
  305loPI   C1B 4877   6.920   9.089  10.529 -0.0767 -0.1988 -0.0738
  305loPI   C2B 4878   7.019   8.822  10.217  0.1032  0.1397 -0.0658
  305loPI   C3B 4879   7.420   8.860   9.965  0.1026  0.3083  0.0377
  305loPI   C4B 4880   7.595   9.251   9.941 -0.1065  0.2014  0.2344
  306loPI    C1 4881   8.677  12.373  11.635  0.1003 -0.0140 -0.0810
  306loPI    C2 4882   8.739  12.259  12.013 -0.1014 -0.2590 -0.1196
  306loPI    C3 4883   8.721  12.648  11.922  0.0318 -0.1979  0.1080
  306loPI   PO4 4884   8.845  12.068  11.498  0.1709  0.2855  0.0358
  306loPI   GL1 4885   8.851  11.900  11.068  0.1130  0.2866 -0.0503
  306loPI   GL2 4886   9.031  11.977  10.710  0.1276 -0.2953  0.0869
  306loPI   C1A 4887   8.526  11.713  10.894 -0.3670 -0.3957  0.0399
  306loPI   C2A 4888   8.337  11.343  10.542 -0.3288 -0.1395  0.1261
  306loPI   C3A 4889   8.185  11.121  10.238 -0.0541  0.2264 -0.1983
  306loPI   C4A 4890   8.091  11.023   9.888 -0.0164 -0.2665  0.0272
  306loPI   C5A 4891   7.982  10.735   9.545  0.4601  0.1149 -0.0363
  306loPI   C6A 4892   8.038  10.656   9.113 -0.0892 -0.1621 -0.2036
  306loPI   C1B 4893   8.592  12.227  10.597 -0.0961  0.4821  0.0568
  306loPI   C2B 4894   8.268  12.170  10.398  0.0619 -0.1916 -0.2069
  306loPI   C3B 4895   8.138  11.819  10.440 -0.1599  0.1406  0.2930
  306loPI   C4B 4896   8.029  11.664  10.744  0.0691  0.1201  0.0441
  307loPI    C1 4897  10.909   6.477  11.413 -0.0161  0.0860  0.2789
  307loPI    C2 4898  10.930   6.148  11.639 -0.0535  0.0683  0.2567
  307loPI    C3 4899  10.574   6.298  11.537 -0.0386 -0.0330  0.0504
  307loPI   PO4 4900  11.043   6.676  11.444  0.0590  0.2034  0.0543
  307loPI   GL1 4901  11.249   6.818  11.025  0.1739 -0.1011  0.2305
  307loPI   GL2 4902  11.055   6.566  10.901 -0.1102 -0.0521 -0.0682
  307loPI   C1A 4903  11.615   6.783  10.735  0.1077 -0.2835 -0.1328
  307loPI   C2A 4904  11.649   6.881  10.290 -0.0606 -0.0864 -0.1258
  307loPI   C3A 4905  11.639   7.049   9.983  0.0480 -0.1449 -0.0648
  307loPI   C4A 4906  11.542   7.005   9.497 -0.0600  0.3604  0.1105
  307loPI   C5A 4907  11.477   7.242   9.203 -0.0007  0.0569 -0.1165
  307loPI   C6A 4908  11.696   7.636   9.235  0.1479 -0.0214 -0.0214
  307loPI   C1B 4909  11.219   6.520  10.455  0.0059 -0.1081  0.0945
  307loPI   C2B 4910  11.362   6.496  10.017 -0.2083  0.0026  0.2333
  307loPI   C3B 4911  11.423   6.552   9.566 -0.1325  0.1244 -0.0820
  307loPI   C4B 4912  11.645   6.611   9.170  0.1332  0.1926  0.0117
  308loPI    C1 4913  16.711   4.151  11.199 -0.0517  0.1522  0.0440
  308loPI    C2 4914  16.818   4.362  11.521  0.0556  0.0591  0.0695
  308loPI    C3 4915  16.448   4.397  11.374  0.0111  0.1145  0.1930
  308loPI   PO4 4916  16.951   4.132  11.062  0.0387  0.1544 -0.0499
  308loPI   GL1 4917  17.250   4.126  10.664 -0.0858  0.1707 -0.0954
  308loPI   GL2 4918  17.004   4.095  10.426  0.1192  0.0412 -0.0973
  308loPI   C1A 4919  17.309   4.469  10.247  0.4288  0.2263 -0.3134
  308loPI   C2A 4920  17.227   4.445   9.886  0.0146  0.1980  0.0635
  308loPI   C3A 4921  17.199   4.491   9.431 -0.0105 -0.1623  0.0042
  308loPI   C4A 4922  17.177   4.640   8.927 -0.1515 -0.3229 -0.3325
  308loPI   C5A 4923  17.056   4.388   8.626 -0.1645  0.0500 -0.0498
  308loPI   C6A 4924  16.633   4.168   8.606  0.1756  0.0009  0.2542
  308loPI   C1B 4925  17.287   3.951  10.034 -0.3696 -0.2404  0.0085
  308loPI   C2B 4926  17.391   3.971   9.595  0.0905  0.2597  0.4068
  308loPI   C3B 4927  17.317   4.145   9.163 -0.0273  0.3902  0.0441
  308loPI   C4B 4928  17.406   4.045   8.713  0.0067 -0.4362 -0.0798
  309loPI    C1 4929   8.624  15.142  11.475 -0.0388 -0.2025 -0.0243
  309loPI    C2 4930   8.292  15.010  11.295 -0.1448  0.1313 -0.0796
  309loPI    C3 4931   8.285  15.103  11.685 -0.0383 -0.1375 -0.0114
  309loPI   PO4 4932   8.791  15.094  11.255 -0.1557  0.1935  0.2670
  309loPI   GL1 4933   9.016  15.061  10.925 -0.3547  0.0521 -0.0303
  309loPI   GL2 4934   9.224  15.197  10.742 -0.1750 -0.1107 -0.1444
  309loPI   C1A 4935   8.998  14.765  10.643  0.1071 -0.2035 -0.1977
  309loPI   C2A 4936   8.904  14.541  10.329  0.0288 -0.3081  0.0289
  309loPI   C3A 4937   8.676  14.527  10.008 -0.0961 -0.0103 -0.0017
  309loPI   C4A 4938   8.702  14.345   9.593  0.0469 -0.0490  0.3051
  309loPI   C5A 4939   8.476  14.277   9.129  0.0493 -0.1105  0.0347
  309loPI   C6A 4940   8.297  14.207   8.752  0.2278 -0.1749 -0.1156
  309loPI   C1B 4941   9.049  15.253  10.304  0.1080 -0.0926 -0.2048
  309loPI   C2B 4942   8.926  14.975  10.019 -0.0780  0.0468  0.0666
  309loPI   C3B 4943   8.940  14.775   9.630 -0.1264 -0.2338 -0.0146
  309loPI   C4B 4944   8.697  14.788   9.224 -0.2646  0.1448  0.1843
  310loPI    C1 4945   5.300  12.590  11.169  0.2175 -0.0282 -0.1937
  310loPI    C2 4946   5.428  12.383  11.487 -0.0955 -0.1263 -0.1284
  310loPI    C3 4947   5.248  12.737  11.538 -0.2879 -0.2148 -0.1836
  310loPI   PO4 4948   5.464  12.516  10.948 -0.0834  0.1210 -0.1001
  310loPI   GL1 4949   5.590  12.722  10.581  0.1465  0.2309 -0.1050
  310loPI   GL2 4950   5.896  12.860  10.580  0.3822  0.1689 -0.2473
  310loPI   C1A 4951   5.370  12.643  10.302 -0.0469  0.3132  0.1308
  310loPI   C2A 4952   5.320  12.702   9.913  0.0993 -0.2830  0.1223
  310loPI   C3A 4953   5.302  12.714   9.471 -0.0884  0.0972 -0.0071
  310loPI   C4A 4954   5.058  12.722   9.146  0.0534 -0.2226 -0.3157
  310loPI   C5A 4955   4.807  13.066   8.925 -0.0553 -0.1244  0.0236
  310loPI   C6A 4956   4.676  13.170   8.547 -0.0684 -0.3855 -0.0384
  310loPI   C1B 4957   5.685  12.999  10.194  0.2602  0.1523  0.0336
  310loPI   C2B 4958   5.696  12.977   9.767 -0.1647  0.0307 -0.1200
  310loPI   C3B 4959   5.626  13.103   9.271 -0.2796  0.2931 -0.3378
  310loPI   C4B 4960   5.595  13.426   8.995 -0.0641 -0.1681  0.2675
  311loPI    C1 4961   2.015   9.376  10.840 -0.1296  0.0605 -0.0915
  311loPI    C2 4962   2.344   9.151  10.870  0.0004  0.2834  0.2027
  311loPI    C3 4963   2.056   9.123  11.147 -0.2059  0.1301 -0.0234
  311loPI   PO4 4964   2.107   9.586  10.715  0.0533  0.0019  0.2535
  311loPI   GL1 4965   2.429   9.456  10.498 -0.2443 -0.2785  0.0627
  311loPI   GL2 4966   2.436   9.645  10.205  0.1480 -0.1740  0.1890
  311loPI   C1A 4967   2.777   9.306  10.195 -0.1498 -0.0804 -0.1488
  311loPI   C2A 4968   2.976   9.281   9.818 -0.2379 -0.0798  0.4245
  311loPI   C3A 4969   3.129   9.195   9.404  0.0588  0.1288 -0.0624
  311loPI   C4A 4970   3.025   8.886   9.051  0.0347 -0.2798 -0.1889
  311loPI   C5A 4971   2.742   8.837   8.749 -0.3108  0.0195  0.2716
  311loPI   C6A 4972   2.254   8.762   8.767  0.1076 -0.0040  0.0290
  311loPI   C1B 4973   2.521   9.519   9.770  0.1711  0.0952 -0.4949
  311loPI   C2B 4974   2.475   9.240   9.440  0.1430  0.0143  0.1884
  311loPI   C3B 4975   2.487   9.094   9.043  0.0917 -0.0177 -0.0725
  311loPI   C4B 4976   2.408   9.117   8.491  0.0906  0.0286 -0.1404
  312loPI    C1 4977  17.345  15.468  10.763  0.0493  0.2939 -0.0360
  312loPI    C2 4978  17.044  15.481  10.501  0.0796  0.1886 -0.0765
  312loPI    C3 4979  17.028  15.702  10.834 -0.3081 -0.2435  0.2038
  312loPI   PO4 4980  17.609  15.487  10.574  0.1589  0.0604  0.0374
  312loPI   GL1 4981  17.667  15.250  10.259 -0.0412  0.0941  0.2369
  312loPI   GL2 4982  17.366  15.182  10.198 -0.1472  0.1801 -0.0491
  312loPI   C1A 4983  17.698  15.559   9.889 -0.1674  0.0619  0.0911
  312loPI   C2A 4984  17.889  15.506   9.462  0.0446  0.2097 -0.1618
  312loPI   C3A 4985  18.061  15.803   9.171  0.0467 -0.2466 -0.2224
  312loPI   C4A 4986  18.353  15.697   8.838  0.0963 -0.1690  0.0253
  312loPI   C5A 4987  18.400  15.511   8.495 -0.2728  0.1279  0.4416
  312loPI   C6A 4988  18.486  15.003   8.548  0.2597  0.1589 -0.2377
  312loPI   C1B 4989  17.473  15.141   9.768 -0.0727  0.0511  0.1314
  312loPI   C2B 4990  17.594  14.796   9.523 -0.0806  0.1096 -0.2456
  312loPI   C3B 4991  17.669  14.627   9.112  0.3907 -0.0635  0.0582
  312loPI   C4B 4992  17.502  14.435   8.740 -0.1273 -0.1818 -0.1445
  313loPI    C1 4993   8.599   4.796  11.690  0.0056 -0.0520 -0.2924
  313loPI    C2 4994   8.278   4.829  11.926  0.1126  0.0522 -0.1595
  313loPI    C3 4995   8.614   4.666  12.067  0.0958 -0.1268 -0.3216
  313loPI   PO4 4996   8.554   4.710  11.501  0.0451  0.2428 -0.0278
  313loPI   GL1 4997   8.427   4.603  11.037  0.1587  0.3538 -0.3059
  313loPI   GL2 4998   8.573   4.898  10.890 -0.2282 -0.0224 -0.4077
  313loPI   C1A 4999   8.504   4.485  10.597 -0.0697  0.0555  0.1203
  313loPI   C2A 5000   8.434   4.451  10.150  0.2709 -0.1424  0.2197
  313loPI   C3A 5001   8.395   4.442   9.713 -0.2744  0.1603  0.0198
  313loPI   C4A 5002   8.371   4.498   9.236  0.1083  0.4659  0.2528
  313loPI   C5A 5003   8.452   4.535   8.839 -0.1468 -0.2070  0.1213
  313loPI   C6A 5004   8.782   4.544   8.525 -0.3113  0.1076 -0.1191
  313loPI   C1B 5005   8.737   4.864  10.423  0.0837 -0.0227 -0.0601
  313loPI   C2B 5006   8.642   4.930  10.020  0.1401 -0.1719  0.0592
  313loPI   C3B 5007   8.581   4.886   9.521  0.2477 -0.1892  0.1255
  313loPI   C4B 5008   8.554   4.968   9.090  0.0794  0.3056  0.1413
  314loPI    C1 5009  12.425   8.701  11.261  0.0312  0.1893  0.0510
  314loPI    C2 5010  12.679   8.591  11.550  0.0223  0.2356  0.0767
  314loPI    C3 5011  12.786   8.872  11.286  0.0137  0.2246  0.0615
  314loPI   PO4 5012  12.276   8.471  11.082 -0.0148 -0.0995 -0.2268
  314loPI   GL1 5013  12.076   8.499  10.644  0.1586  0.1421  0.0212
  314loPI   GL2 5014  11.860   8.214  10.724  0.0552  0.0362  0.2182
  314loPI   C1A 5015  11.969   8.793  10.349  0.4453  0.1495  0.0414
  314loPI   C2A 5016  11.993   9.070   9.970 -0.1015  0.0423 -0.0654
  314loPI   C3A 5017  11.943   8.963   9.606  0.4252 -0.2799 -0.0130
  314loPI   C4A 5018  11.841   9.129   9.161 -0.2660 -0.0332 -0.1908
  314loPI   C5A 5019  11.562   9.365   8.899  0.1507  0.1719  0.2873
  314loPI   C6A 5020  11.489   9.692   8.514 -0.0916 -0.0606  0.2033
  314loPI   C1B 5021  12.014   8.104  10.371 -0.3789 -0.2648  0.0777
  314loPI   C2B 5022  12.052   8.007   9.963  0.0383  0.2612  0.1547
  314loPI   C3B 5023  11.941   7.819   9.599  0.2185  0.1242  0.0460
  314loPI   C4B 5024  12.159   7.726   9.155 -0.0352  0.2959 -0.0145
  315loPI    C1 5025   6.023   6.903  11.729 -0.1672 -0.1912  0.2392
  315loPI    C2 5026   5.873   7.219  11.923 -0.0082 -0.0372  0.1153
  315loPI    C3 5027   5.952   6.881  12.122  0.1930  0.1324  0.3286
  315loPI   PO4 5028   6.225   7.055  11.531  0.2998 -0.0168 -0.2871
  315loPI   GL1 5029   5.968   7.235  11.133 -0.0044 -0.3486  0.0386
  315loPI   GL2 5030   6.226   7.083  11.052 -0.0576 -0.1141  0.0210
  315loPI   C1A 5031   5.943   7.476  10.691 -0.2776 -0.1220  0.1246
  315loPI   C2A 5032   5.779   7.408  10.238 -0.0815 -0.0985 -0.1310
  315loPI   C3A 5033   5.798   7.295   9.822 -0.0097  0.2120 -0.0866
  315loPI   C4A 5034   5.732   7.297   9.455  0.3011  0.1838  0.0471
  315loPI   C5A 5035   5.861   7.415   9.047 -0.1289 -0.2793  0.0638
  315loPI   C6A 5036   6.123   7.695   8.985 -0.0143 -0.0559  0.1204
  315loPI   C1B 5037   6.562   7.136  10.801  0.1485 -0.3087  0.1492
  315loPI   C2B 5038   6.666   7.013  10.391  0.2303 -0.0702  0.2488
  315loPI   C3B 5039   6.743   6.923   9.936  0.2871 -0.3681  0.1134
  315loPI   C4B 5040   6.595   6.979   9.457  0.1080 -0.0967 -0.3050
  316loPI    C1 5041   6.568   4.923  11.257 -0.0635 -0.2207 -0.0455
  316loPI    C2 5042   6.462   5.009  11.632 -0.0300 -0.0812 -0.0675
  316loPI    C3 5043   6.291   5.203  11.327  0.0137 -0.1250 -0.1198
  316loPI   PO4 5044   6.622   4.667  11.233 -0.0372  0.2573 -0.1302
  316loPI   GL1 5045   6.929   4.440  11.040 -0.2535  0.2869  0.0846
  316loPI   GL2 5046   7.143   4.373  11.059  0.0984 -0.2027  0.1266
  316loPI   C1A 5047   6.841   4.371  10.534 -0.3516  0.1207  0.0913
  316loPI   C2A 5048   6.851   4.322  10.158 -0.2595  0.1909  0.4568
  316loPI   C3A 5049   6.775   4.330   9.766 -0.3203 -0.2733 -0.0459
  316loPI   C4A 5050   6.826   4.399   9.291 -0.2774 -0.1000 -0.2807
  316loPI   C5A 5051   7.163   4.449   8.911  0.1606  0.1096  0.0537
  316loPI   C6A 5052   7.524   4.184   8.837 -0.1414  0.0028 -0.0330
  316loPI   C1B 5053   7.361   4.392  10.719 -0.1605  0.0717  0.0436
  316loPI   C2B 5054   7.359   4.398  10.281  0.2437  0.0310 -0.1075
  316loPI   C3B 5055   7.417   4.289   9.822  0.4139 -0.3169 -0.0868
  316loPI   C4B 5056   7.329   4.347   9.460  0.1511 -0.0739 -0.2287
  317loPI    C1 5057  11.748   8.689  11.333  0.1449  0.0378  0.0175
  317loPI    C2 5058  12.007   8.981  11.423 -0.1227  0.2366  0.1584
  317loPI    C3 5059  11.804   8.796  11.714 -0.0510 -0.0038  0.0589
  317loPI   PO4 5060  11.745   8.638  11.051  0.0893 -0.2220 -0.2902
  317loPI   GL1 5061  11.445   8.746  10.744 -0.0654 -0.1987 -0.0180
  317loPI   GL2 5062  11.179   8.738  10.737 -0.1086 -0.1882  0.1829
  317loPI   C1A 5063  11.509   8.478  10.464  0.1270  0.1200 -0.0896
  317loPI   C2A 5064  11.581   8.255  10.108 -0.1079 -0.1842  0.3009
  317loPI   C3A 5065  11.448   8.174   9.746 -0.0255 -0.0917 -0.4537
  317loPI   C4A 5066  11.327   7.913   9.485  0.2175  0.0296  0.2384
  317loPI   C5A 5067  11.130   7.571   9.343  0.1341  0.1097  0.1536
  317loPI   C6A 5068  10.810   7.504   9.440  0.0583  0.3020 -0.1273
  317loPI   C1B 5069  10.942   8.505  10.554 -0.1082  0.1761 -0.1924
  317loPI   C2B 5070  10.669   8.429  10.346 -0.0906  0.2267  0.1052
  317loPI   C3B 5071  10.611   8.285   9.810 -0.2534  0.0285 -0.4407
  317loPI   C4B 5072  10.869   8.107   9.481 -0.1336  0.6901 -0.0740
  318loPI    C1 5073   1.592  15.454  10.805 -0.0957 -0.0260 -0.0615
  318loPI    C2 5074   1.867  15.386  11.087 -0.1876  0.0124  0.0379
  318loPI    C3 5075   1.541  15.156  11.067 -0.0616 -0.1487 -0.1934
  318loPI   PO4 5076   1.831  15.567  10.610 -0.0598 -0.0827 -0.4293
  318loPI   GL1 5077   2.268  15.530  10.324  0.1639 -0.1383 -0.2653
  318loPI   GL2 5078   1.995  15.761  10.191 -0.2533  0.2590  0.3701
  318loPI   C1A 5079   2.205  15.429   9.952  0.0562 -0.1116 -0.1253
  318loPI   C2A 5080   2.384  15.288   9.634 -0.2295 -0.1485  0.2758
  318loPI   C3A 5081   2.457  15.220   9.280 -0.3138 -0.0085 -0.2280
  318loPI   C4A 5082   2.826  14.852   9.136 -0.2204  0.4132  0.1189
  318loPI   C5A 5083   3.162  14.610   8.966  0.1450 -0.1542 -0.0326
  318loPI   C6A 5084   3.439  14.544   8.681 -0.0704 -0.0233 -0.1933
  318loPI   C1B 5085   1.807  15.690   9.789 -0.0320  0.1450 -0.1784
  318loPI   C2B 5086   1.439  15.427   9.481  0.1843 -0.1105 -0.0734
  318loPI   C3B 5087   1.156  15.597   9.166 -0.3732  0.0143 -0.0806
  318loPI   C4B 5088   0.927  15.808   8.815  0.0289 -0.1631  0.2241
  319loPI    C1 5089   0.388   0.841  10.548  0.1105 -0.2064 -0.0803
  319loPI    C2 5090   0.353   0.590  10.857  0.1217 -0.2448 -0.1103
  319loPI    C3 5091   0.045   0.646  10.609  0.0163  0.0026  0.0722
  319loPI   PO4 5092   0.614   0.725  10.421  0.3780 -0.0648 -0.2964
  319loPI   GL1 5093   0.568   0.403  10.062 -0.2254  0.0033 -0.2285
  319loPI   GL2 5094   0.573   0.703   9.809  0.1150 -0.2004  0.4520
  319loPI   C1A 5095   0.974   0.272   9.929  0.2266 -0.1030 -0.1450
  319loPI   C2A 5096   1.095   0.037   9.529 -0.0938 -0.0010 -0.1096
  319loPI   C3A 5097   1.295  -0.051   9.121  0.2791 -0.1050  0.3397
  319loPI   C4A 5098   1.346  -0.198   8.763  0.0838  0.1613 -0.1218
  319loPI   C5A 5099   1.651  -0.213   8.501 -0.2650  0.1995  0.2705
  319loPI   C6A 5100   1.893  -0.086   8.094 -0.2509  0.0244  0.0518
  319loPI   C1B 5101   0.482   0.825   9.407 -0.0701  0.0041 -0.2317
  319loPI   C2B 5102   0.608   1.022   9.115 -0.2234  0.0335  0.0964
  319loPI   C3B 5103   0.876   1.292   9.090 -0.0725 -0.1437 -0.0765
  319loPI   C4B 5104   1.167   1.629   8.899  0.3956  0.1674  0.0913
  320loPI    C1 5105   7.218   6.736  11.713  0.0268 -0.0126 -0.0612
  320loPI    C2 5106   7.462   6.947  11.950  0.1935  0.0527 -0.2877
  320loPI    C3 5107   7.415   6.554  12.010  0.0264  0.1164  0.0190
  320loPI   PO4 5108   7.033   6.779  11.411 -0.0512  0.1060  0.0168
  320loPI   GL1 5109   6.881   6.781  10.919  0.0496  0.0269 -0.2041
  320loPI   GL2 5110   6.803   6.566  10.708 -0.3961 -0.4747  0.0528
  320loPI   C1A 5111   7.118   7.011  10.612 -0.0495  0.2519  0.0718
  320loPI   C2A 5112   7.192   7.044  10.075  0.0112  0.1680  0.0644
  320loPI   C3A 5113   7.168   7.005   9.687 -0.0458  0.0604  0.0661
  320loPI   C4A 5114   7.016   7.044   9.174 -0.0416 -0.3230 -0.3430
  320loPI   C5A 5115   7.298   7.067   8.910  0.0528  0.3823 -0.0935
  320loPI   C6A 5116   7.662   7.109   8.678 -0.1607 -0.2808 -0.2108
  320loPI   C1B 5117   6.883   6.542  10.308  0.2287 -0.0670  0.1118
  320loPI   C2B 5118   7.021   6.504   9.907  0.2067 -0.0787  0.3601
  320loPI   C3B 5119   6.958   6.632   9.456  0.0500 -0.1070 -0.0078
  320loPI   C4B 5120   6.998   6.580   9.108 -0.3072  0.0515  0.0830
  321loPI    C1 5121   9.255  10.806  11.566 -0.0964 -0.0049 -0.1118
  321loPI    C2 5122   8.916  10.803  11.354 -0.0285  0.0296 -0.2227
  321loPI    C3 5123   8.925  10.640  11.720 -0.2508  0.3227 -0.0822
  321loPI   PO4 5124   9.357  11.094  11.405  0.1895  0.0069 -0.1134
  321loPI   GL1 5125   9.193  11.137  11.006  0.2548 -0.2541 -0.2895
  321loPI   GL2 5126   9.267  11.533  10.970 -0.2380  0.0034 -0.0867
  321loPI   C1A 5127   9.481  11.256  10.557  0.3029  0.0044 -0.1124
  321loPI   C2A 5128   9.202  11.246  10.210  0.0006  0.0370 -0.0777
  321loPI   C3A 5129   9.011  11.588  10.025 -0.0928 -0.0056 -0.0380
  321loPI   C4A 5130   9.159  11.850   9.609 -0.0074 -0.0147  0.0705
  321loPI   C5A 5131   8.954  11.975   9.216 -0.0758 -0.1717  0.3562
  321loPI   C6A 5132   8.956  11.840   8.721  0.1519 -0.0641  0.0171
  321loPI   C1B 5133   8.969  11.502  10.672 -0.1464  0.0455  0.2535
  321loPI   C2B 5134   8.687  11.747  10.404  0.3058  0.0192  0.0430
  321loPI   C3B 5135   8.675  11.942  10.090 -0.0770  0.2671  0.0755
  321loPI   C4B 5136   8.615  11.731   9.738  0.1449  0.0016  0.0866
  322loPI    C1 5137  16.938  12.728  10.562 -0.2322  0.4152  0.2343
  322loPI    C2 5138  17.326  12.715  10.660 -0.1568  0.3802 -0.0608
  322loPI    C3 5139  17.051  12.573  10.913  0.0974 -0.4958 -0.2406
  322loPI   PO4 5140  16.967  12.722  10.297  0.0164 -0.3340 -0.1377
  322loPI   GL1 5141  17.085  12.662   9.848 -0.0805 -0.0876 -0.1616
  322loPI   GL2 5142  17.028  12.494   9.613 -0.2172 -0.0216  0.1525
  322loPI   C1A 5143  17.519  12.599   9.738  0.0445  0.1520  0.0543
  322loPI   C2A 5144  17.799  12.402   9.518 -0.0005  0.1007  0.1157
  322loPI   C3A 5145  18.124  12.395   9.226 -0.0015  0.0021  0.0030
  322loPI   C4A 5146  18.292  12.473   8.834 -0.0803  0.0582  0.3102
  322loPI   C5A 5147  18.387  12.783   8.517 -0.2075  0.1339 -0.0074
  322loPI   C6A 5148  18.243  12.919   8.128  0.1398 -0.0444 -0.2154
  322loPI   C1B 5149  17.059  12.501   9.270 -0.3139  0.0475  0.0084
  322loPI   C2B 5150  17.077  12.617   8.881  0.0940  0.3632 -0.0252
  322loPI   C3B 5151  17.405  12.497   8.684 -0.0585 -0.2444 -0.0453
  322loPI   C4B 5152  17.791  12.337   8.896  0.1495  0.0755  0.1685
  323loPI    C1 5153   2.644  12.196  10.848  0.0356 -0.0051 -0.2118
  323loPI    C2 5154   2.274  12.089  10.740 -0.0519  0.0369  0.0405
  323loPI    C3 5155   2.578  11.832  10.698 -0.1106 -0.0014 -0.1572
  323loPI   PO4 5156   2.650  12.430  10.768 -0.1965  0.3244  0.4926
  323loPI   GL1 5157   2.519  12.381  10.397 -0.1030 -0.3400  0.2697
  323loPI   GL2 5158   2.191  12.370  10.344 -0.0779 -0.0977  0.0927
  323loPI   C1A 5159   2.783  12.059  10.223 -0.2806 -0.0374  0.0930
  323loPI   C2A 5160   2.934  11.847   9.867  0.2140  0.0071 -0.0577
  323loPI   C3A 5161   2.732  11.833   9.455 -0.0574  0.2199  0.3038
  323loPI   C4A 5162   2.414  11.777   9.214 -0.0226 -0.2088  0.0416
  323loPI   C5A 5163   2.218  11.922   8.868 -0.0177  0.0752 -0.0377
  323loPI   C6A 5164   2.045  12.173   8.458  0.0684  0.3497 -0.2949
  323loPI   C1B 5165   1.920  12.372   9.992 -0.2021 -0.3639  0.0337
  323loPI   C2B 5166   2.007  12.537   9.551  0.1592  0.1844 -0.2359
  323loPI   C3B 5167   1.895  12.736   9.259 -0.0214 -0.1271 -0.1199
  323loPI   C4B 5168   2.061  12.948   8.904  0.0120  0.0073 -0.2276
  324loPI    C1 5169   4.294  15.980  11.143 -0.0898  0.0178  0.2406
  324loPI    C2 5170   4.551  16.134  11.407  0.0415  0.2124  0.0027
  324loPI    C3 5171   4.160  16.214  11.438 -0.0068 -0.1508  0.4138
  324loPI   PO4 5172   4.350  16.052  10.894 -0.1572  0.1265 -0.0576
  324loPI   GL1 5173   4.541  15.930  10.577 -0.0800  0.2074  0.0003
  324loPI   GL2 5174   4.354  15.782  10.414  0.0463  0.2098  0.0192
  324loPI   C1A 5175   4.982  16.216  10.313 -0.2069  0.3468 -0.1559
  324loPI   C2A 5176   4.969  16.546   9.978  0.1296  0.0207  0.1066
  324loPI   C3A 5177   4.761  16.666   9.636  0.0363  0.0559 -0.0096
  324loPI   C4A 5178   4.678  16.507   9.231  0.2531 -0.1755  0.1654
  324loPI   C5A 5179   4.858  16.574   8.906 -0.1764 -0.0721 -0.2509
  324loPI   C6A 5180   5.162  16.888   8.689  0.2713  0.1711 -0.2464
  324loPI   C1B 5181   4.257  15.485  10.109 -0.1476 -0.0408  0.2022
  324loPI   C2B 5182   4.334  15.407   9.692 -0.0813  0.0730  0.1327
  324loPI   C3B 5183   4.386  15.105   9.344  0.0337  0.2254 -0.0304
  324loPI   C4B 5184   4.321  15.245   8.932 -0.0731  0.1721 -0.0251
  325loPI    C1 5185   8.972   1.012  11.024  0.1330  0.0962  0.0296
  325loPI    C2 5186   9.197   1.011  11.355  0.0496 -0.2168  0.0880
  325loPI    C3 5187   9.073   0.665  11.195  0.1123 -0.0701 -0.2883
  325loPI   PO4 5188   8.913   1.219  10.897  0.0953 -0.2041 -0.1075
  325loPI   GL1 5189   8.767   1.292  10.443 -0.1562 -0.3265  0.1221
  325loPI   GL2 5190   8.554   1.034  10.548 -0.0851 -0.1297 -0.2454
  325loPI   C1A 5191   8.807   1.435   9.990  0.1859 -0.0078  0.2289
  325loPI   C2A 5192   9.018   1.394   9.641  0.3277  0.1153  0.3787
  325loPI   C3A 5193   8.959   1.337   9.213 -0.1645  0.0723 -0.1853
  325loPI   C4A 5194   9.074   1.489   8.888  0.0047 -0.0981  0.0011
  325loPI   C5A 5195   9.186   1.509   8.417  0.2022  0.1125 -0.1616
  325loPI   C6A 5196   9.371   1.677   8.058 -0.3374  0.2310  0.1033
  325loPI   C1B 5197   8.677   0.891  10.063  0.4532 -0.2339 -0.2982
  325loPI   C2B 5198   8.782   0.931   9.618  0.2291  0.0269  0.0808
  325loPI   C3B 5199   8.430   0.935   9.249  0.0964 -0.1119  0.0166
  325loPI   C4B 5200   8.317   0.892   8.829  0.1426  0.1313 -0.1820
  326loPI    C1 5201   7.196   7.775  11.849  0.4119 -0.0144  0.0973
  326loPI    C2 5202   7.116   8.160  11.922 -0.1541 -0.0980 -0.0395
  326loPI    C3 5203   7.173   7.907  12.226  0.2145  0.0878  0.0509
  326loPI   PO4 5204   7.375   7.809  11.641  0.1082  0.1560 -0.1602
  326loPI   GL1 5205   7.567   7.418  11.384  0.1415 -0.1153  0.1932
  326loPI   GL2 5206   7.468   7.721  11.157 -0.0671  0.4014 -0.0785
  326loPI   C1A 5207   7.934   7.417  11.194 -0.1188 -0.0764 -0.0040
  326loPI   C2A 5208   8.024   7.544  10.703 -0.0508  0.1101  0.1775
  326loPI   C3A 5209   7.879   7.562  10.267 -0.0595 -0.2765  0.2289
  326loPI   C4A 5210   7.888   7.644   9.860 -0.1808 -0.0942 -0.1345
  326loPI   C5A 5211   7.833   7.712   9.458  0.2285  0.2934 -0.0153
  326loPI   C6A 5212   7.722   7.429   9.037 -0.1748  0.0423  0.1320
  326loPI   C1B 5213   7.433   7.646  10.714  0.0852 -0.3947  0.0071
  326loPI   C2B 5214   7.391   7.451  10.375  0.0543 -0.1097  0.0072
  326loPI   C3B 5215   7.290   7.509   9.908  0.1300  0.0806  0.1043
  326loPI   C4B 5216   7.293   7.511   9.391 -0.0848 -0.1730 -0.0068
  327loPI    C1 5217   7.325   0.559  11.164  0.1359  0.1268  0.0913
  327loPI    C2 5218   6.994   0.418  11.339 -0.1330  0.3047 -0.2595
  327loPI    C3 5219   7.338   0.433  11.543 -0.3377  0.1158  0.1098
  327loPI   PO4 5220   7.346   0.459  10.878  0.1529  0.0175 -0.0361
  327loPI   GL1 5221   7.171   0.407  10.448  0.2908 -0.1291 -0.1204
  327loPI   GL2 5222   7.271   0.753  10.437 -0.0416 -0.1782  0.0615
  327loPI   C1A 5223   7.514   0.204  10.226  0.2734 -0.0594 -0.6463
  327loPI   C2A 5224   7.734  -0.022   9.921  0.1927  0.2550  0.0363
  327loPI   C3A 5225   7.918  -0.081   9.458  0.0176 -0.0167  0.0696
  327loPI   C4A 5226   7.975  -0.058   8.991  0.1621  0.0221 -0.1364
  327loPI   C5A 5227   7.960  -0.186   8.566  0.1719  0.1860  0.1246
  327loPI   C6A 5228   8.010  -0.598   8.492  0.0761  0.3320 -0.1290
  327loPI   C1B 5229   7.042   0.716  10.032 -0.2634 -0.0681 -0.0627
  327loPI   C2B 5230   6.741   0.569   9.838  0.1487 -0.2758  0.2186
  327loPI   C3B 5231   6.775   0.688   9.438  0.2472 -0.1951 -0.5051
  327loPI   C4B 5232   7.016   0.717   9.144 -0.0327 -0.1114 -0.3176
  328loPI    C1 5233  17.064   5.532  10.698 -0.0113  0.0682  0.0147
  328loPI    C2 5234  16.836   5.848  10.791 -0.1110  0.0262 -0.0847
  328loPI    C3 5235  16.692   5.560  10.553  0.0746  0.0396 -0.2152
  328loPI   PO4 5236  17.299   5.585  10.627  0.1290  0.1429  0.1504
  328loPI   GL1 5237  17.586   5.412  10.294  0.0249 -0.0952  0.1144
  328loPI   GL2 5238  17.587   5.752  10.263  0.1891  0.0122  0.0353
  328loPI   C1A 5239  17.930   5.222  10.192  0.1096  0.1797 -0.1808
  328loPI   C2A 5240  17.962   5.140   9.702 -0.0271 -0.1913  0.2810
  328loPI   C3A 5241  17.936   5.115   9.246  0.0259 -0.0423 -0.0759
  328loPI   C4A 5242  18.129   5.274   8.930 -0.0161 -0.0378 -0.0755
  328loPI   C5A 5243  18.297   5.494   8.564 -0.0239  0.1204 -0.1680
  328loPI   C6A 5244  18.279   5.691   8.169  0.0000  0.0274 -0.1900
  328loPI   C1B 5245  17.784   5.573   9.863  0.0796 -0.4263 -0.0470
  328loPI   C2B 5246  18.133   5.517   9.494 -0.0955  0.0801 -0.2140
  328loPI   C3B 5247  18.343   5.673   9.166 -0.0229 -0.1496  0.2702
  328loPI   C4B 5248  18.368   5.967   8.858  0.0368 -0.1913  0.2464
  329loPI    C1 5249   3.788  17.346  11.026  0.3064  0.0262  0.0057
  329loPI    C2 5250   3.825  17.060  11.304  0.0657 -0.0040  0.0091
  329loPI    C3 5251   3.512  17.309  11.314  0.1079  0.0582 -0.1779
  329loPI   PO4 5252   4.016  17.269  10.824 -0.0184 -0.0740 -0.2223
  329loPI   GL1 5253   3.959  17.105  10.402  0.0608  0.0325 -0.1350
  329loPI   GL2 5254   3.626  17.263  10.497  0.2316 -0.0984  0.0962
  329loPI   C1A 5255   4.096  16.994  10.110 -0.0952 -0.0267 -0.0770
  329loPI   C2A 5256   4.230  16.860   9.711  0.1771  0.1511  0.3422
  329loPI   C3A 5257   4.432  16.982   9.333 -0.1123  0.1775 -0.0946
  329loPI   C4A 5258   4.338  16.780   8.954  0.2474  0.1967 -0.0224
  329loPI   C5A 5259   4.451  16.663   8.585  0.1188 -0.1458 -0.0633
  329loPI   C6A 5260   4.835  16.626   8.298  0.0426  0.3562 -0.1222
  329loPI   C1B 5261   3.752  17.446  10.055  0.0243 -0.4699 -0.1270
  329loPI   C2B 5262   3.846  17.449   9.553 -0.0437  0.1967  0.1404
  329loPI   C3B 5263   4.018  17.242   9.190  0.1306  0.2664  0.2988
  329loPI   C4B 5264   4.376  17.333   8.910  0.1645  0.4253  0.1472
  330loPI    C1 5265   2.873  17.339  10.800  0.0038 -0.2615 -0.1400
  330loPI    C2 5266   2.870  16.971  10.957  0.0407 -0.1958  0.0155
  330loPI    C3 5267   2.794  17.288  11.189  0.3418 -0.0769 -0.0433
  330loPI   PO4 5268   2.649  17.334  10.653 -0.1963 -0.0430 -0.3085
  330loPI   GL1 5269   2.521  17.444  10.180  0.0526 -0.0740 -0.0694
  330loPI   GL2 5270   2.475  17.127  10.046 -0.2110  0.0190  0.0476
  330loPI   C1A 5271   2.507  17.573   9.802  0.1501 -0.2166 -0.0640
  330loPI   C2A 5272   2.467  17.459   9.352 -0.1256  0.3138 -0.2102
  330loPI   C3A 5273   2.612  17.261   8.998 -0.1550 -0.1126  0.1109
  330loPI   C4A 5274   2.692  17.007   8.666 -0.1263  0.2700 -0.0309
  330loPI   C5A 5275   2.934  16.752   8.603  0.0253  0.0699  0.0792
  330loPI   C6A 5276   3.082  16.209   8.435  0.0775  0.0962 -0.2619
  330loPI   C1B 5277   2.575  17.058   9.670 -0.1904 -0.1091 -0.0290
  330loPI   C2B 5278   2.401  16.960   9.371  0.1319  0.1488 -0.2442
  330loPI   C3B 5279   2.342  16.853   8.956  0.0979  0.0090 -0.1515
  330loPI   C4B 5280   2.482  16.607   8.636 -0.1055  0.2547 -0.1117
  331loPI    C1 5281   1.400   9.151  10.938 -0.1962 -0.2059  0.2492
  331loPI    C2 5282   1.472   9.440  11.204  0.0599  0.1324 -0.1754
  331loPI    C3 5283   1.157   9.468  10.960 -0.2316 -0.2257  0.1484
  331loPI   PO4 5284   1.652   9.092  10.887 -0.0169  0.0763  0.5927
  331loPI   GL1 5285   1.934   8.999  10.509  0.0570  0.4024 -0.3687
  331loPI   GL2 5286   1.969   9.283  10.303 -0.3168  0.0391  0.0292
  331loPI   C1A 5287   1.774   8.864  10.025  0.3452  0.0651 -0.0695
  331loPI   C2A 5288   1.732   8.892   9.583 -0.1647 -0.1404  0.1657
  331loPI   C3A 5289   1.349   8.895   9.361  0.0803 -0.3648  0.1044
  331loPI   C4A 5290   1.153   8.826   8.953  0.3445  0.0851 -0.0740
  331loPI   C5A 5291   0.946   8.901   8.580 -0.0370 -0.0322  0.1916
  331loPI   C6A 5292   0.817   8.742   8.222 -0.0039 -0.2584  0.0507
  331loPI   C1B 5293   1.625   9.366   9.965  0.0965  0.0037 -0.1505
  331loPI   C2B 5294   1.430   9.376   9.531  0.1948  0.2554 -0.0655
  331loPI   C3B 5295   1.506   9.288   9.080  0.0217 -0.4863 -0.1871
  331loPI   C4B 5296   1.448   9.238   8.654 -0.1714 -0.2836  0.0776
  332loPI    C1 5297  11.851  17.007  10.661  0.0371 -0.0004 -0.1001
  332loPI    C2 5298  12.084  16.935  10.979 -0.0805  0.0016 -0.0126
  332loPI    C3 5299  11.739  17.133  11.024 -0.2175 -0.2135 -0.1020
  332loPI   PO4 5300  11.841  16.843  10.531  0.3544  0.0098  0.2018
  332loPI   GL1 5301  11.976  16.628  10.308 -0.1068  0.0775  0.0994
  332loPI   GL2 5302  11.748  16.361  10.410 -0.0610 -0.2780  0.0460
  332loPI   C1A 5303  11.783  16.781   9.785  0.1533 -0.1756  0.1209
  332loPI   C2A 5304  11.660  16.800   9.282  0.4588  0.2157 -0.2085
  332loPI   C3A 5305  11.812  16.669   8.983  0.0745 -0.0845 -0.0430
  332loPI   C4A 5306  11.859  16.660   8.582 -0.1629 -0.1598 -0.0834
  332loPI   C5A 5307  12.266  16.665   8.452 -0.1809  0.2046  0.0973
  332loPI   C6A 5308  12.594  16.386   8.414 -0.1627  0.3129  0.0959
  332loPI   C1B 5309  11.485  16.382  10.050  0.1648 -0.2644  0.0460
  332loPI   C2B 5310  11.459  16.448   9.632  0.1620 -0.0214 -0.0810
  332loPI   C3B 5311  11.358  16.373   9.255 -0.1892 -0.0791  0.0080
  332loPI   C4B 5312  11.344  16.525   8.889  0.0738 -0.1867  0.3003
  333loPI    C1 5313   5.678   9.033  11.579 -0.3021 -0.2981  0.1641
  333loPI    C2 5314   5.544   9.317  11.828 -0.2606 -0.1260 -0.0079
  333loPI    C3 5315   5.714   8.986  11.975 -0.4366 -0.1271  0.1981
  333loPI   PO4 5316   5.443   9.088  11.335  0.1900  0.0967  0.0041
  333loPI   GL1 5317   5.414   9.377  11.047 -0.3568  0.1442  0.0129
  333loPI   GL2 5318   5.669   9.131  10.856  0.0885 -0.2001  0.3211
  333loPI   C1A 5319   5.344   9.537  10.612 -0.2243 -0.1484 -0.2754
  333loPI   C2A 5320   5.362   9.540  10.197  0.2109  0.0743  0.0971
  333loPI   C3A 5321   5.411   9.499   9.730  0.1236  0.0218 -0.1416
  333loPI   C4A 5322   5.476   9.495   9.296 -0.0624 -0.1730  0.3242
  333loPI   C5A 5323   5.289   9.298   8.863 -0.2039 -0.0741 -0.0397
  333loPI   C6A 5324   5.330   8.906   8.599 -0.0033 -0.3364 -0.0901
  333loPI   C1B 5325   5.586   9.140  10.394 -0.0343 -0.0607 -0.2557
  333loPI   C2B 5326   5.624   9.089   9.951 -0.2564 -0.0607  0.2081
  333loPI   C3B 5327   5.652   9.054   9.532  0.0916  0.0353 -0.1083
  333loPI   C4B 5328   5.645   8.933   9.071  0.1256  0.0536  0.1989
  334loPI    C1 5329  10.542  15.694  11.301 -0.4261 -0.2267 -0.0694
  334loPI    C2 5330  10.510  15.971  11.587  0.2840  0.0510 -0.2369
  334loPI    C3 5331  10.576  15.589  11.685  0.0372  0.0597 -0.0245
  334loPI   PO4 5332  10.643  15.812  11.084  0.1494 -0.0912 -0.3063
  334loPI   GL1 5333  10.725  15.737  10.691 -0.0212 -0.2167  0.0394
  334loPI   GL2 5334  10.499  16.024  10.426 -0.3383 -0.0668 -0.0812
  334loPI   C1A 5335  10.891  15.750  10.240 -0.1159 -0.0601 -0.0194
  334loPI   C2A 5336  10.829  15.694   9.833 -0.1317 -0.2728 -0.5041
  334loPI   C3A 5337  10.701  15.457   9.518 -0.2724 -0.1326  0.1942
  334loPI   C4A 5338  10.802  15.174   9.206 -0.0803 -0.0005  0.0904
  334loPI   C5A 5339  10.730  14.900   8.984 -0.1239  0.1136 -0.1458
  334loPI   C6A 5340  10.469  14.945   8.647  0.0780  0.3395  0.1741
  334loPI   C1B 5341  10.314  15.998  10.042 -0.0664  0.2043 -0.2774
  334loPI   C2B 5342  10.260  15.709   9.842  0.0959 -0.3118 -0.3081
  334loPI   C3B 5343  10.158  15.662   9.413 -0.2074 -0.0568 -0.3222
  334loPI   C4B 5344   9.839  15.618   9.077  0.2341  0.0220 -0.0239
  335loPI    C1 5345   8.387   7.935  11.775 -0.1000  0.1492 -0.2203
  335loPI    C2 5346   8.482   8.096  12.129 -0.0845 -0.1668 -0.0778
  335loPI    C3 5347   8.110   7.963  12.063 -0.0633 -0.1914 -0.1482
  335loPI   PO4 5348   8.429   8.091  11.643 -0.0220  0.2892  0.3819
  335loPI   GL1 5349   8.552   8.324  11.286 -0.1700 -0.0398 -0.0043
  335loPI   GL2 5350   8.277   8.553  11.409 -0.2680 -0.0574 -0.1019
  335loPI   C1A 5351   8.369   8.199  10.897  0.1754 -0.0653 -0.0268
  335loPI   C2A 5352   8.259   8.121  10.530 -0.2943 -0.1763 -0.0447
  335loPI   C3A 5353   8.112   8.117  10.131 -0.2493 -0.2083  0.2442
  335loPI   C4A 5354   8.087   8.159   9.724 -0.1394  0.0768  0.3928
  335loPI   C5A 5355   8.152   8.219   9.237 -0.1949  0.0495 -0.4198
  335loPI   C6A 5356   7.998   8.370   8.903 -0.0364  0.2354  0.0013
  335loPI   C1B 5357   8.035   8.577  11.025 -0.0788  0.1496 -0.0324
  335loPI   C2B 5358   7.929   8.485  10.640  0.0801 -0.0925  0.0408
  335loPI   C3B 5359   7.743   8.488  10.221 -0.2592  0.0290 -0.1447
  335loPI   C4B 5360   7.709   8.384   9.870  0.0507 -0.1861 -0.0414
  336loPI    C1 5361  11.040   0.227  10.776 -0.1737 -0.0614  0.0128
  336loPI    C2 5362  10.813   0.524  10.919  0.0641  0.1593 -0.0603
  336loPI    C3 5363  10.998   0.275  11.171 -0.0196  0.1618  0.0040
  336loPI   PO4 5364  11.274   0.228  10.621  0.1418 -0.0889 -0.1184
  336loPI   GL1 5365  11.320   0.049  10.183 -0.0905  0.0609 -0.0211
  336loPI   GL2 5366  11.027   0.219  10.234  0.0791  0.1689  0.2036
  336loPI   C1A 5367  11.272   0.099   9.772  0.1083 -0.1636 -0.0453
  336loPI   C2A 5368  11.115   0.024   9.311  0.0706 -0.0218 -0.0829
  336loPI   C3A 5369  10.908  -0.124   8.955  0.0043  0.0102  0.0491
  336loPI   C4A 5370  10.594  -0.110   8.586 -0.2762  0.2066 -0.2451
  336loPI   C5A 5371  10.258  -0.495   8.485  0.0244 -0.0672  0.1504
  336loPI   C6A 5372  10.038  -0.535   8.081  0.2229 -0.2977 -0.0377
  336loPI   C1B 5373  10.847   0.329   9.842 -0.2652 -0.0636 -0.2047
  336loPI   C2B 5374  10.579   0.415   9.496 -0.0281 -0.0311  0.0473
  336loPI   C3B 5375  10.744   0.366   9.111 -0.0366 -0.1686 -0.1078
  336loPI   C4B 5376  10.747   0.317   8.755  0.0696 -0.1480 -0.2946
  337loPI    C1 5377   9.131  15.587  11.104  0.1400  0.1815 -0.0050
  337loPI    C2 5378   9.209  15.974  11.039 -0.0415  0.2171 -0.0179
  337loPI    C3 5379   9.310  15.805  11.388  0.1394  0.2471 -0.0545
  337loPI   PO4 5380   8.849  15.566  11.063 -0.0076  0.3139 -0.3208
  337loPI   GL1 5381   8.549  15.305  10.744  0.0869 -0.1281 -0.1355
  337loPI   GL2 5382   8.424  15.068  10.853 -0.0888 -0.1265  0.1331
  337loPI   C1A 5383   8.605  15.459  10.351  0.1044  0.3013 -0.2398
  337loPI   C2A 5384   8.740  15.446   9.874 -0.0286  0.2664 -0.0465
  337loPI   C3A 5385   8.812  15.259   9.498  0.0165 -0.4062  0.2022
  337loPI   C4A 5386   8.765  15.242   9.053 -0.1891 -0.0095 -0.2681
  337loPI   C5A 5387   8.473  15.441   8.794 -0.1122 -0.4307  0.0734
  337loPI   C6A 5388   8.174  15.261   8.515  0.0262 -0.1949 -0.1002
  337loPI   C1B 5389   8.538  14.937  10.361  0.0713 -0.1099  0.0610
  337loPI   C2B 5390   8.420  15.069   9.954 -0.1913 -0.4583 -0.1509
  337loPI   C3B 5391   8.401  14.815   9.610 -0.1428 -0.0172  0.0562
  337loPI   C4B 5392   8.218  14.580   9.379  0.1556 -0.1531  0.1260
  338loPI    C1 5393   1.118  17.143  10.637  0.0546  0.2591  0.0055
  338loPI    C2 5394   0.825  17.135  10.910  0.0276 -0.1969 -0.0294
  338loPI    C3 5395   1.188  16.992  11.001  0.1738  0.1402 -0.0661
  338loPI   PO4 5396   1.022  16.931  10.420  0.2090 -0.0008 -0.1395
  338loPI   GL1 5397   1.153  16.856  10.076  0.0923  0.0501 -0.1521
  338loPI   GL2 5398   1.137  17.225  10.059  0.0737 -0.1337 -0.1549
  338loPI   C1A 5399   1.087  16.562   9.712  0.3087  0.1111  0.2761
  338loPI   C2A 5400   0.942  16.576   9.318  0.2094 -0.1823 -0.2190
  338loPI   C3A 5401   0.750  16.991   9.212  0.0114  0.1360  0.1116
  338loPI   C4A 5402   0.657  17.248   8.829 -0.0425  0.1987 -0.4352
  338loPI   C5A 5403   0.806  17.347   8.355  0.2294  0.0258 -0.1379
  338loPI   C6A 5404   0.907  17.109   8.016  0.2352  0.0210 -0.1039
  338loPI   C1B 5405   0.953  17.045   9.694  0.0440  0.0376 -0.1256
  338loPI   C2B 5406   0.465  16.863   9.631 -0.0781  0.0663 -0.0382
  338loPI   C3B 5407   0.265  17.028   9.322 -0.1157  0.0463  0.5038
  338loPI   C4B 5408   0.225  17.422   9.099 -0.0807 -0.2691 -0.1200
  339loPI    C1 5409   4.305  11.084  11.377 -0.2981  0.0524  0.1301
  339loPI    C2 5410   4.286  10.748  11.593 -0.0513 -0.0599 -0.0187
  339loPI    C3 5411   4.448  10.742  11.228 -0.0693  0.2166 -0.0337
  339loPI   PO4 5412   4.089  11.159  11.261  0.1530 -0.1477 -0.2127
  339loPI   GL1 5413   4.020  11.324  10.768  0.1970  0.0427  0.2125
  339loPI   GL2 5414   3.761  11.165  10.803 -0.3951  0.1151 -0.1773
  339loPI   C1A 5415   4.106  11.518  10.349 -0.0620 -0.0422 -0.1694
  339loPI   C2A 5416   4.007  11.274   9.899  0.1172  0.3837 -0.1686
  339loPI   C3A 5417   4.189  10.944   9.582 -0.3806 -0.1400  0.1299
  339loPI   C4A 5418   4.603  10.944   9.441 -0.2166 -0.2131 -0.1786
  339loPI   C5A 5419   4.764  10.584   9.122 -0.1329  0.3335  0.0841
  339loPI   C6A 5420   5.030  10.819   8.769 -0.1295  0.1381  0.1479
  339loPI   C1B 5421   3.789  10.729  10.622 -0.1572 -0.1777  0.1916
  339loPI   C2B 5422   3.916  10.391  10.339 -0.2770 -0.1335 -0.1724
  339loPI   C3B 5423   3.986  10.370  10.027 -0.1263  0.0054  0.0019
  339loPI   C4B 5424   4.187  10.224   9.620 -0.3711  0.3193  0.0192
  340loPI    C1 5425   2.763  13.338  11.133 -0.0332  0.1707  0.0825
  340loPI    C2 5426   2.441  13.128  11.024  0.2292 -0.2297  0.0563
  340loPI    C3 5427   2.498  13.220  11.409  0.0161 -0.0360  0.0436
  340loPI   PO4 5428   2.858  13.312  10.946 -0.3414  0.2178  0.0390
  340loPI   GL1 5429   2.833  13.389  10.492 -0.1941 -0.0631  0.0813
  340loPI   GL2 5430   3.156  13.491  10.618 -0.0016 -0.0162  0.0025
  340loPI   C1A 5431   2.881  13.393   9.933 -0.0168  0.0161 -0.0583
  340loPI   C2A 5432   2.630  13.389   9.606  0.1912  0.1552 -0.0993
  340loPI   C3A 5433   2.557  13.301   9.204 -0.3721 -0.0780  0.0204
  340loPI   C4A 5434   2.469  13.232   8.680 -0.0757  0.3921 -0.3868
  340loPI   C5A 5435   2.336  13.232   8.223  0.0614 -0.3398 -0.2567
  340loPI   C6A 5436   2.152  13.551   8.005 -0.3451 -0.2037 -0.2220
  340loPI   C1B 5437   3.285  13.256  10.215  0.1734 -0.4320  0.1305
  340loPI   C2B 5438   3.362  13.185   9.789 -0.5036  0.0907  0.2215
  340loPI   C3B 5439   3.386  13.424   9.391 -0.1202  0.2344 -0.2684
  340loPI   C4B 5440   3.387  13.288   9.008  0.0838  0.0900 -0.2519
  341loPI    C1 5441   4.527   7.783  11.584  0.0264 -0.1272 -0.1225
  341loPI    C2 5442   4.502   8.110  11.814  0.1416 -0.0894 -0.1627
  341loPI    C3 5443   4.813   7.860  11.854  0.0338 -0.2155 -0.1050
  341loPI   PO4 5444   4.548   7.957  11.321  0.0834 -0.3580  0.4517
  341loPI   GL1 5445   4.571   7.933  10.869 -0.0435  0.2805 -0.0376
  341loPI   GL2 5446   4.480   7.704  10.770 -0.0401  0.1733 -0.5575
  341loPI   C1A 5447   4.649   8.261  10.517 -0.1553  0.1210  0.1404
  341loPI   C2A 5448   4.642   8.233  10.069 -0.1117 -0.1397  0.0199
  341loPI   C3A 5449   4.649   8.113   9.624 -0.2640  0.2818 -0.1748
  341loPI   C4A 5450   4.610   8.105   9.103 -0.2878 -0.1234 -0.1306
  341loPI   C5A 5451   4.770   8.002   8.658  0.2529 -0.1281  0.1194
  341loPI   C6A 5452   4.686   8.148   8.274 -0.0138 -0.0431 -0.1254
  341loPI   C1B 5453   4.512   7.770  10.361 -0.1648  0.2609  0.0501
  341loPI   C2B 5454   4.377   7.744   9.946 -0.3245 -0.4212 -0.0537
  341loPI   C3B 5455   4.473   7.590   9.454 -0.2323  0.2897  0.1646
  341loPI   C4B 5456   4.462   7.650   9.008 -0.2299  0.0127  0.0023
  342loPI    C1 5457  11.563   2.345  10.448 -0.0835  0.2081 -0.1205
  342loPI    C2 5458  11.759   2.585  10.702 -0.2294 -0.0979  0.2921
  342loPI    C3 5459  11.963   2.355  10.446 -0.0779  0.1460  0.1904
  342loPI   PO4 5460  11.315   2.465  10.429  0.1540 -0.1976  0.0676
  342loPI   GL1 5461  10.834   2.722  10.307 -0.1163  0.3500  0.1864
  342loPI   GL2 5462  10.504   2.727  10.304  0.1262 -0.3066  0.1200
  342loPI   C1A 5463  10.810   3.003   9.982  0.0225 -0.0109  0.1018
  342loPI   C2A 5464  10.713   3.043   9.531 -0.2337  0.1634  0.0086
  342loPI   C3A 5465  10.711   2.970   9.038 -0.0942 -0.3577 -0.0895
  342loPI   C4A 5466  11.067   3.006   8.852 -0.0829 -0.2208  0.0026
  342loPI   C5A 5467  11.155   3.464   8.810  0.1873 -0.1154  0.2347
  342loPI   C6A 5468  10.929   3.868   8.854  0.1815 -0.0610 -0.0525
  342loPI   C1B 5469  10.344   2.723   9.883  0.1638  0.1010  0.0124
  342loPI   C2B 5470  10.203   2.821   9.445  0.2292  0.3759 -0.0254
  342loPI   C3B 5471  10.162   2.914   9.008 -0.0175 -0.0120  0.3330
  342loPI   C4B 5472  10.259   3.087   8.576  0.1315 -0.2817  0.0844
  343loPI    C1 5473   3.445   6.393  11.778 -0.2474 -0.0558  0.0765
  343loPI    C2 5474   3.156   6.662  11.712 -0.2195  0.0281  0.2871
  343loPI    C3 5475   3.116   6.394  12.006 -0.0260  0.1248  0.4039
  343loPI   PO4 5476   3.607   6.486  11.606  0.2016  0.0517  0.0928
  343loPI   GL1 5477   3.728   6.648  11.187  0.0577  0.3283 -0.0162
  343loPI   GL2 5478   3.925   6.881  10.962 -0.1334 -0.3188 -0.2196
  343loPI   C1A 5479   3.732   6.469  10.817  0.1270 -0.0926 -0.0743
  343loPI   C2A 5480   3.863   6.468  10.352  0.1436 -0.0439  0.3619
  343loPI   C3A 5481   3.786   6.310   9.905  0.1216 -0.0899 -0.2106
  343loPI   C4A 5482   3.788   6.142   9.495 -0.2089 -0.2395 -0.1737
  343loPI   C5A 5483   3.890   6.207   9.077 -0.0148 -0.1500  0.0026
  343loPI   C6A 5484   4.154   6.534   8.861 -0.1714  0.0352 -0.4568
  343loPI   C1B 5485   3.969   6.896  10.604 -0.1018  0.2231  0.0174
  343loPI   C2B 5486   4.082   6.892  10.235  0.5319  0.4425  0.1620
  343loPI   C3B 5487   4.033   6.764   9.811  0.1406  0.0811  0.2011
  343loPI   C4B 5488   4.070   6.604   9.368 -0.0868 -0.2896 -0.0774
  344loPI    C1 5489   4.615   0.161  11.310  0.1476  0.0528 -0.0184
  344loPI    C2 5490   4.277  -0.008  11.440  0.0671  0.0684 -0.2046
  344loPI    C3 5491   4.383   0.355  11.571  0.1115 -0.0183  0.0024
  344loPI   PO4 5492   4.578   0.024  11.031 -0.1403 -0.3051  0.3587
  344loPI   GL1 5493   4.798  -0.010  10.604  0.4205 -0.0136  0.1097
  344loPI   GL2 5494   4.833   0.356  10.667  0.0645  0.0497  0.0418
  344loPI   C1A 5495   4.728  -0.151  10.114 -0.0233  0.0487 -0.1160
  344loPI   C2A 5496   4.700  -0.085   9.711  0.0658  0.1110 -0.1404
  344loPI   C3A 5497   4.562   0.016   9.281 -0.0306 -0.0175 -0.0647
  344loPI   C4A 5498   4.509  -0.006   8.876  0.1654  0.1129  0.0016
  344loPI   C5A 5499   4.493   0.199   8.448  0.1542  0.0163 -0.2187
  344loPI   C6A 5500   4.342   0.558   8.239  0.0761 -0.2083  0.0556
  344loPI   C1B 5501   4.854   0.306  10.176  0.0233  0.1002  0.1237
  344loPI   C2B 5502   4.919   0.417   9.726 -0.0508 -0.0559 -0.1889
  344loPI   C3B 5503   5.033   0.187   9.319 -0.1755 -0.0537 -0.0005
  344loPI   C4B 5504   4.983   0.087   8.870  0.2111 -0.1455  0.0038
  345loPI    C1 5505   4.296  15.473  11.188  0.0205  0.0133  0.0331
  345loPI    C2 5506   3.933  15.611  11.286 -0.0061 -0.0302 -0.0040
  345loPI    C3 5507   4.047  15.246  11.403  0.0174 -0.0250 -0.0108
  345loPI   PO4 5508   4.310  15.475  10.883 -0.0415  0.3162 -0.1747
  345loPI   GL1 5509   4.532  15.328  10.505 -0.1499  0.1075  0.2046
  345loPI   GL2 5510   4.817  15.486  10.520  0.0316 -0.2013 -0.0266
  345loPI   C1A 5511   4.673  15.137  10.140  0.0999 -0.0509 -0.1564
  345loPI   C2A 5512   4.688  14.674   9.965  0.1595  0.0642  0.1851
  345loPI   C3A 5513   4.584  14.316   9.840 -0.0318  0.0643 -0.3339
  345loPI   C4A 5514   4.610  13.984   9.558 -0.0340  0.0661 -0.1659
  345loPI   C5A 5515   4.628  13.947   9.076 -0.0495 -0.1679  0.0274
  345loPI   C6A 5516   4.358  14.146   8.806 -0.6101 -0.1237 -0.2925
  345loPI   C1B 5517   4.773  15.779  10.101  0.0854  0.1165 -0.5287
  345loPI   C2B 5518   4.728  16.041   9.868 -0.0191  0.2043  0.4770
  345loPI   C3B 5519   4.507  16.231   9.596 -0.0724 -0.1271  0.0512
  345loPI   C4B 5520   4.222  16.222   9.316  0.1174 -0.0771 -0.1039
  346loPI    C1 5521   1.855  14.687  10.943 -0.0794  0.0785  0.1030
  346loPI    C2 5522   2.203  14.565  11.097  0.1158  0.1144 -0.2981
  346loPI    C3 5523   2.095  14.949  11.126 -0.0505  0.0419  0.1176
  346loPI   PO4 5524   1.811  14.632  10.737 -0.1914  0.0418  0.1239
  346loPI   GL1 5525   1.870  14.701  10.326 -0.3161 -0.0005 -0.1800
  346loPI   GL2 5526   1.943  14.378  10.312  0.2457 -0.0728 -0.1152
  346loPI   C1A 5527   1.990  14.785   9.966  0.2842 -0.2100 -0.0718
  346loPI   C2A 5528   1.935  14.690   9.604  0.0824  0.2853  0.1434
  346loPI   C3A 5529   1.865  14.643   9.144  0.1306  0.0822  0.1874
  346loPI   C4A 5530   1.857  14.486   8.688  0.0805  0.1132  0.0424
  346loPI   C5A 5531   1.861  14.043   8.666 -0.0603  0.0839 -0.0171
  346loPI   C6A 5532   1.708  13.662   8.349 -0.1178  0.1594 -0.0133
  346loPI   C1B 5533   1.694  14.352   9.962  0.0853 -0.1427 -0.0105
  346loPI   C2B 5534   1.531  14.368   9.494  0.0260 -0.3359 -0.1783
  346loPI   C3B 5535   1.578  14.189   9.051 -0.2205 -0.1476 -0.1528
  346loPI   C4B 5536   1.385  13.988   8.671 -0.2134 -0.2656 -0.1889
  347loPI    C1 5537   2.424  10.611  10.922  0.0913  0.0091 -0.0518
  347loPI    C2 5538   2.448  10.874  10.621 -0.1239  0.0222 -0.0586
  347loPI    C3 5539   2.631  10.950  10.968 -0.2152  0.1996 -0.0479
  347loPI   PO4 5540   2.517  10.437  10.867  0.1079  0.3209 -0.1406
  347loPI   GL1 5541   2.569  10.457  10.341  0.4949  0.2190  0.2416
  347loPI   GL2 5542   2.459  10.157  10.257 -0.1138  0.1067  0.2698
  347loPI   C1A 5543   2.898  10.461  10.148 -0.1155 -0.0361 -0.0024
  347loPI   C2A 5544   2.942  10.377   9.832 -0.1354  0.1025 -0.0780
  347loPI   C3A 5545   3.013  10.134   9.482  0.0459 -0.3145  0.0210
  347loPI   C4A 5546   3.201   9.913   9.078  0.0718  0.3709 -0.2550
  347loPI   C5A 5547   3.275   9.827   8.672 -0.3052  0.0843  0.0805
  347loPI   C6A 5548   3.245   9.559   8.283 -0.1642  0.0528 -0.0990
  347loPI   C1B 5549   2.465  10.084   9.759  0.0489 -0.0683 -0.3424
  347loPI   C2B 5550   2.492  10.290   9.420 -0.0498  0.2274  0.0714
  347loPI   C3B 5551   2.534  10.628   9.054  0.1313 -0.1195 -0.3065
  347loPI   C4B 5552   2.800  10.823   8.694 -0.1088 -0.0424 -0.1173
  348loPI    C1 5553   2.402   3.375  11.062 -0.1691 -0.2387 -0.0423
  348loPI    C2 5554   2.737   3.201  11.192 -0.1873 -0.2580 -0.0212
  348loPI    C3 5555   2.499   3.394  11.449  0.1731  0.3784 -0.1450
  348loPI   PO4 5556   2.354   3.197  10.868 -0.0516  0.2888  0.1249
  348loPI   GL1 5557   2.056   3.448  10.515 -0.2584 -0.0792  0.3585
  348loPI   GL2 5558   2.394   3.441  10.376  0.1546  0.3692  0.1244
  348loPI   C1A 5559   1.840   3.694  10.180 -0.2743  0.2016  0.0646
  348loPI   C2A 5560   1.815   3.798   9.685 -0.3324  0.2123 -0.1918
  348loPI   C3A 5561   1.941   3.799   9.173  0.3659  0.1846  0.1408
  348loPI   C4A 5562   2.280   3.857   8.915  0.1421 -0.2532 -0.2476
  348loPI   C5A 5563   2.387   3.831   8.494 -0.0331  0.0765  0.0565
  348loPI   C6A 5564   2.400   3.953   8.002 -0.2816  0.1211 -0.1477
  348loPI   C1B 5565   2.190   3.293  10.046 -0.4385  0.0405  0.0451
  348loPI   C2B 5566   1.890   3.273   9.743  0.0930 -0.0795 -0.1131
  348loPI   C3B 5567   1.730   3.320   9.348 -0.1757 -0.0641 -0.0125
  348loPI   C4B 5568   1.581   3.473   8.915 -0.3539 -0.2236 -0.1792
  349loPI    C1 5569   0.249   2.406  10.647 -0.0148  0.1069 -0.0977
  349loPI    C2 5570  -0.108   2.261  10.756 -0.0826  0.2469 -0.1316
  349loPI    C3 5571   0.206   2.225  11.001 -0.0900  0.0121 -0.1547
  349loPI   PO4 5572   0.241   2.286  10.388  0.1888  0.1447 -0.1969
  349loPI   GL1 5573   0.321   2.310  10.016  0.1580 -0.0513  0.0994
  349loPI   GL2 5574   0.513   1.965   9.948  0.1404  0.0548  0.0052
  349loPI   C1A 5575   0.286   2.370   9.551 -0.0942  0.1535  0.0273
  349loPI   C2A 5576  -0.026   2.323   9.277  0.1500 -0.2107 -0.2073
  349loPI   C3A 5577   0.005   2.426   8.784  0.2781  0.0140 -0.0193
  349loPI   C4A 5578   0.070   2.539   8.283 -0.2102 -0.5657 -0.0973
  349loPI   C5A 5579  -0.012   2.350   7.926  0.2475 -0.0029  0.2061
  349loPI   C6A 5580  -0.040   2.184   7.424  0.0160 -0.0587 -0.0666
  349loPI   C1B 5581   0.202   1.868   9.554  0.1717  0.0312 -0.1304
  349loPI   C2B 5582   0.056   1.823   9.153  0.1042  0.3345  0.2770
  349loPI   C3B 5583   0.179   1.832   8.739 -0.2876 -0.0627 -0.1918
  349loPI   C4B 5584   0.069   1.538   8.465 -0.3699  0.0068 -0.0210
  350loPI    C1 5585   0.559   5.666  10.919 -0.0618  0.0676 -0.1648
  350loPI    C2 5586   0.895   5.875  10.863 -0.0132  0.0433  0.0300
  350loPI    C3 5587   0.664   5.948  11.182 -0.1380 -0.0129 -0.0468
  350loPI   PO4 5588   0.391   5.676  10.665 -0.1852  0.0191  0.0607
  350loPI   GL1 5589   0.215   5.677  10.301 -0.1980  0.1180 -0.1474
  350loPI   GL2 5590   0.153   6.030  10.389 -0.1966  0.0295 -0.0929
  350loPI   C1A 5591   0.401   5.559   9.933 -0.1198  0.0004  0.0882
  350loPI   C2A 5592   0.697   5.451   9.592 -0.2652 -0.0691  0.0848
  350loPI   C3A 5593   1.079   5.416   9.495 -0.0041 -0.3295  0.0170
  350loPI   C4A 5594   1.127   5.475   9.079  0.0945 -0.1014  0.1064
  350loPI   C5A 5595   1.329   5.134   8.901 -0.1789  0.1000  0.0894
  350loPI   C6A 5596   1.074   5.077   8.560 -0.2347 -0.1018 -0.0381
  350loPI   C1B 5597   0.015   6.101   9.991 -0.1141 -0.1591  0.3636
  350loPI   C2B 5598  -0.155   6.377   9.687 -0.0069 -0.1550  0.2261
  350loPI   C3B 5599  -0.200   6.492   9.185 -0.3532 -0.0370  0.0773
  350loPI   C4B 5600  -0.152   6.778   8.788 -0.1857  0.2423 -0.0348
  351loPI    C1 5601   3.900  11.643  11.259  0.1131  0.1955 -0.1784
  351loPI    C2 5602   4.024  11.932  11.506 -0.1502  0.0261  0.1619
  351loPI    C3 5603   4.231  11.591  11.478  0.0841  0.1869 -0.1365
  351loPI   PO4 5604   3.880  11.729  11.048  0.0667 -0.0002  0.1242
  351loPI   GL1 5605   3.887  11.878  10.649 -0.2095 -0.1316 -0.1519
  351loPI   GL2 5606   3.612  12.012  10.641 -0.0329  0.2087 -0.1834
  351loPI   C1A 5607   4.420  11.901  10.497  0.0416  0.4233  0.3031
  351loPI   C2A 5608   4.589  12.009  10.141 -0.3312  0.2174  0.3475
  351loPI   C3A 5609   4.728  11.932   9.749 -0.3870  0.0517 -0.3857
  351loPI   C4A 5610   4.777  11.810   9.359 -0.1002 -0.0655 -0.0760
  351loPI   C5A 5611   4.899  11.396   9.209 -0.0297 -0.0510  0.1670
  351loPI   C6A 5612   5.032  11.005   9.218 -0.0061  0.0752 -0.0526
  351loPI   C1B 5613   3.603  12.291  10.373  0.2990  0.1543 -0.0312
  351loPI   C2B 5614   3.578  12.157   9.921 -0.0063 -0.4364  0.0471
  351loPI   C3B 5615   3.692  12.179   9.435 -0.3426 -0.0508 -0.1389
  351loPI   C4B 5616   3.686  12.300   9.040 -0.1421  0.3041 -0.1071
  352loPI    C1 5617   5.936   5.584  11.723  0.0464  0.0229 -0.2612
  352loPI    C2 5618   6.303   5.459  11.823 -0.0555  0.0634  0.1830
  352loPI    C3 5619   6.154   5.794  11.985 -0.3773 -0.0782  0.1871
  352loPI   PO4 5620   5.831   5.535  11.487  0.3605  0.3134 -0.0346
  352loPI   GL1 5621   5.736   5.573  10.974  0.1788  0.0591 -0.0299
  352loPI   GL2 5622   5.997   5.358  10.974  0.0944  0.2266  0.0017
  352loPI   C1A 5623   5.905   5.539  10.526 -0.0534  0.4425  0.0737
  352loPI   C2A 5624   5.924   5.500  10.100 -0.0205 -0.2724  0.0019
  352loPI   C3A 5625   5.975   5.580   9.677  0.2154 -0.1649  0.2928
  352loPI   C4A 5626   5.908   5.523   9.293 -0.1824  0.2044  0.0270
  352loPI   C5A 5627   6.025   5.805   8.916 -0.0092 -0.0500  0.2722
  352loPI   C6A 5628   6.362   6.139   8.932  0.1153  0.4934  0.3205
  352loPI   C1B 5629   5.903   5.081  10.643 -0.1384  0.0673  0.1263
  352loPI   C2B 5630   5.776   5.075  10.270  0.1111 -0.1098  0.3546
  352loPI   C3B 5631   5.725   5.094   9.791  0.1901  0.1971  0.2052
  352loPI   C4B 5632   5.725   5.101   9.363 -0.2927 -0.0278 -0.1372
  353loPI    C1 5633   3.852  16.335  11.082  0.1523  0.1251  0.0738
  353loPI    C2 5634   3.504  16.532  11.094  0.0173 -0.0975 -0.1028
  353loPI    C3 5635   3.769  16.574  11.391 -0.1314  0.1243  0.0006
  353loPI   PO4 5636   3.941  16.384  10.807 -0.1821  0.4143 -0.1632
  353loPI   GL1 5637   4.063  16.280  10.491  0.3863 -0.3109  0.1578
  353loPI   GL2 5638   4.013  16.574  10.364  0.1336  0.1475  0.3426
  353loPI   C1A 5639   3.998  15.943  10.189  0.3207 -0.0701 -0.0994
  353loPI   C2A 5640   4.242  15.881   9.810  0.1145  0.1262 -0.1752
  353loPI   C3A 5641   4.464  15.819   9.411  0.0588 -0.0802 -0.2662
  353loPI   C4A 5642   4.342  15.794   9.016 -0.0799 -0.1512 -0.0531
  353loPI   C5A 5643   4.348  15.722   8.679  0.2500  0.1483 -0.1466
  353loPI   C6A 5644   4.566  15.814   8.322 -0.2083  0.0817 -0.0053
  353loPI   C1B 5645   3.690  16.697  10.092  0.0717  0.4190 -0.1313
  353loPI   C2B 5646   3.513  16.922   9.768  0.2964  0.1084  0.0228
  353loPI   C3B 5647   3.532  16.919   9.309 -0.0879  0.1186  0.0545
  353loPI   C4B 5648   3.644  16.942   8.932  0.2885  0.3342 -0.0796
  354loPI    C1 5649   6.325   3.405  11.558 -0.1283 -0.1979  0.1595
  354loPI    C2 5650   5.962   3.570  11.585 -0.0735 -0.1017  0.3243
  354loPI    C3 5651   6.287   3.786  11.673  0.0497 -0.0836 -0.1473
  354loPI   PO4 5652   6.265   3.291  11.203 -0.2248  0.1972  0.0698
  354loPI   GL1 5653   6.431   3.444  10.925 -0.3512  0.0275  0.1438
  354loPI   GL2 5654   6.471   3.376  10.632  0.2144  0.0796  0.1410
  354loPI   C1A 5655   6.198   3.748  10.619 -0.2136 -0.0372 -0.0939
  354loPI   C2A 5656   6.096   3.684  10.173  0.0612 -0.0328  0.2207
  354loPI   C3A 5657   6.095   3.796   9.636  0.1335  0.0875 -0.2310
  354loPI   C4A 5658   6.116   3.903   9.293 -0.3101  0.2810 -0.1321
  354loPI   C5A 5659   6.039   3.676   8.884 -0.2087  0.3745  0.0389
  354loPI   C6A 5660   6.025   3.365   8.517  0.1327 -0.3281  0.0276
  354loPI   C1B 5661   6.472   3.279  10.284  0.2710  0.0016  0.2531
  354loPI   C2B 5662   6.400   3.405   9.830  0.2062 -0.2285  0.1733
  354loPI   C3B 5663   6.454   3.359   9.334  0.0048  0.0437 -0.0564
  354loPI   C4B 5664   6.408   3.281   8.875  0.4403 -0.0215 -0.0044
  355loPI    C1 5665   9.059  17.403  10.915 -0.1131  0.0824  0.0461
  355loPI    C2 5666   9.089  17.203  11.260 -0.2402  0.0922  0.0631
  355loPI    C3 5667   9.270  17.557  11.218  0.1173 -0.0963 -0.0208
  355loPI   PO4 5668   9.082  17.262  10.742 -0.2266 -0.0695  0.0447
  355loPI   GL1 5669   9.163  17.128  10.338  0.0886  0.4728  0.1332
  355loPI   GL2 5670   9.282  16.864  10.483  0.0396  0.0655  0.0414
  355loPI   C1A 5671   8.977  16.995   9.942  0.1063  0.2190 -0.0785
  355loPI   C2A 5672   8.797  16.688   9.603 -0.0047 -0.0939  0.0525
  355loPI   C3A 5673   8.777  16.886   9.163  0.0033  0.0138 -0.3654
  355loPI   C4A 5674   8.890  16.824   8.784  0.0812  0.0295  0.2298
  355loPI   C5A 5675   8.801  16.505   8.453 -0.1501  0.0238  0.0134
  355loPI   C6A 5676   8.754  16.279   8.017  0.2235  0.0139 -0.2667
  355loPI   C1B 5677   9.644  16.901  10.210  0.0536 -0.1492 -0.0926
  355loPI   C2B 5678   9.856  16.735   9.852  0.1382 -0.3266  0.0672
  355loPI   C3B 5679  10.037  16.647   9.476  0.0422 -0.1414  0.0606
  355loPI   C4B 5680  10.373  16.473   9.223 -0.3012  0.1387  0.0118
  356loPI    C1 5681   1.084  14.079  10.709 -0.2445 -0.3190 -0.1881
  356loPI    C2 5682   0.964  14.095  11.090  0.1878 -0.1004 -0.0550
  356loPI    C3 5683   1.263  13.851  10.984  0.0842 -0.1439 -0.2512
  356loPI   PO4 5684   0.967  14.260  10.557 -0.0150 -0.2280 -0.1638
  356loPI   GL1 5685   0.952  14.616  10.239 -0.1097 -0.0254 -0.1179
  356loPI   GL2 5686   1.261  14.878  10.161  0.3032 -0.0450  0.1746
  356loPI   C1A 5687   1.183  14.549   9.819 -0.1015  0.3280 -0.0605
  356loPI   C2A 5688   0.944  14.523   9.478 -0.1056  0.0794  0.1226
  356loPI   C3A 5689   0.808  14.723   9.096 -0.3506  0.2652  0.0701
  356loPI   C4A 5690   0.938  14.822   8.726  0.1119  0.2247  0.0781
  356loPI   C5A 5691   1.008  14.733   8.347  0.1985 -0.0505  0.3232
  356loPI   C6A 5692   1.174  14.649   7.985 -0.1672  0.1527  0.2516
  356loPI   C1B 5693   1.373  15.016   9.805  0.2406 -0.1414  0.0442
  356loPI   C2B 5694   1.427  14.855   9.414  0.0721  0.0512 -0.0294
  356loPI   C3B 5695   1.295  14.581   9.036 -0.0725  0.0144  0.0266
  356loPI   C4B 5696   1.356  14.485   8.615  0.0239  0.3107  0.0672
  357loPI    C1 5697  10.584   2.707  10.818  0.0133  0.1061  0.0180
  357loPI    C2 5698  10.455   2.820  11.179 -0.0033  0.1862 -0.0127
  357loPI    C3 5699  10.571   2.443  11.117 -0.2110  0.1159  0.0187
  357loPI   PO4 5700  10.728   3.002  10.732  0.3160 -0.1131  0.0039
  357loPI   GL1 5701  10.657   3.239  10.352 -0.0741  0.2073  0.1224
  357loPI   GL2 5702  10.895   3.330  10.379 -0.0427  0.2912 -0.2576
  357loPI   C1A 5703  10.338   3.260  10.072  0.0458  0.1394  0.2667
  357loPI   C2A 5704  10.341   3.296   9.650  0.0727  0.1058  0.1060
  357loPI   C3A 5705  10.238   3.355   9.370  0.0603  0.0750  0.2655
  357loPI   C4A 5706  10.324   3.373   8.988  0.2746 -0.1088  0.0114
  357loPI   C5A 5707  10.532   3.532   8.540  0.0917  0.1506 -0.0922
  357loPI   C6A 5708  10.853   3.526   8.186 -0.1616  0.1599  0.3556
  357loPI   C1B 5709  10.666   3.677  10.122 -0.1181 -0.2573  0.2670
  357loPI   C2B 5710  10.712   4.105   9.861 -0.1496 -0.4958 -0.3070
  357loPI   C3B 5711  10.769   4.339   9.535  0.0063  0.2557  0.1085
  357loPI   C4B 5712  10.649   4.346   9.179  0.2665 -0.1730  0.0953
  358loPI    C1 5713   6.657   1.283  11.421 -0.1370  0.0762  0.0958
  358loPI    C2 5714   6.891   1.592  11.324  0.0404 -0.0394  0.1493
  358loPI    C3 5715   6.994   1.351  11.626 -0.0774 -0.1727  0.0840
  358loPI   PO4 5716   6.647   1.207  11.129 -0.0486  0.0660 -0.0147
  358loPI   GL1 5717   6.482   1.087  10.718 -0.1726 -0.1458  0.0998
  358loPI   GL2 5718   6.742   1.241  10.618  0.2233  0.1509 -0.0124
  358loPI   C1A 5719   6.535   1.007  10.248 -0.2162 -0.0385 -0.0244
  358loPI   C2A 5720   6.558   1.013   9.851 -0.1572 -0.0921  0.1002
  358loPI   C3A 5721   6.532   1.130   9.389 -0.1107 -0.0769 -0.1149
  358loPI   C4A 5722   6.443   1.175   8.919  0.0752 -0.4197 -0.0184
  358loPI   C5A 5723   6.293   0.954   8.570  0.0106  0.2462 -0.1042
  358loPI   C6A 5724   5.949   0.686   8.451  0.5098  0.0024  0.0380
  358loPI   C1B 5725   7.015   1.204  10.268  0.0320 -0.0150  0.0601
  358loPI   C2B 5726   7.374   1.110   9.986  0.1783 -0.6814 -0.1997
  358loPI   C3B 5727   7.621   1.219   9.633 -0.1875 -0.1408  0.0015
  358loPI   C4B 5728   8.002   1.255   9.418 -0.0044 -0.0537  0.2667
  359loPI    C1 5729  10.180  16.442  11.048  0.0417 -0.3300 -0.0255
  359loPI    C2 5730   9.810  16.563  11.142  0.1572  0.0799 -0.0796
  359loPI    C3 5731  10.089  16.530  11.428  0.0926 -0.1928 -0.0448
  359loPI   PO4 5732  10.319  16.633  10.853  0.2749  0.3024  0.1444
  359loPI   GL1 5733  10.171  16.718  10.398  0.1800 -0.0178 -0.2163
  359loPI   GL2 5734  10.142  16.368  10.411  0.3730 -0.1470 -0.2247
  359loPI   C1A 5735  10.331  16.595  10.017 -0.1094  0.1888 -0.1286
  359loPI   C2A 5736  10.474  16.258   9.679  0.1710 -0.0254 -0.0459
  359loPI   C3A 5737  10.582  16.037   9.284  0.0755  0.2275 -0.0013
  359loPI   C4A 5738  10.644  15.667   9.019  0.1276 -0.1160  0.1721
  359loPI   C5A 5739  10.779  15.513   8.725 -0.1160  0.2013  0.1703
  359loPI   C6A 5740  10.876  15.348   8.345  0.2589 -0.1281  0.2145
  359loPI   C1B 5741   9.885  16.256  10.048 -0.1735 -0.1453 -0.3202
  359loPI   C2B 5742  10.056  16.167   9.534 -0.2809 -0.0427 -0.1414
  359loPI   C3B 5743  10.124  16.073   9.010  0.0947  0.1586 -0.1606
  359loPI   C4B 5744  10.212  15.748   8.636  0.0014  0.2625  0.1087
  360loPI    C1 5745   7.066  11.865  11.267 -0.0445 -0.1242 -0.0288
  360loPI    C2 5746   6.893  11.708  11.591  0.1939 -0.3685 -0.0160
  360loPI    C3 5747   7.274  11.829  11.607  0.0513  0.1065 -0.0607
  360loPI   PO4 5748   6.919  11.986  11.208 -0.1708  0.0119  0.2694
  360loPI   GL1 5749   6.861  11.940  10.769  0.1681  0.1775 -0.1639
  360loPI   GL2 5750   6.847  11.707  10.813  0.1957  0.0008  0.1034
  360loPI   C1A 5751   6.832  11.985  10.335  0.1963  0.0315  0.0633
  360loPI   C2A 5752   6.743  11.786  10.008 -0.0985  0.1916 -0.3151
  360loPI   C3A 5753   6.685  11.471   9.729  0.2540 -0.1469 -0.3099
  360loPI   C4A 5754   6.851  11.284   9.440 -0.1177  0.0493  0.1784
  360loPI   C5A 5755   7.112  11.526   9.119 -0.4163 -0.0439  0.1105
  360loPI   C6A 5756   7.322  11.374   8.788 -0.3054 -0.0888 -0.2571
  360loPI   C1B 5757   7.151  11.589  10.460  0.0485 -0.0784  0.0838
  360loPI   C2B 5758   7.292  11.779  10.045  0.1290  0.0412  0.1138
  360loPI   C3B 5759   7.573  11.951   9.822  0.1857  0.0176  0.1661
  360loPI   C4B 5760   7.828  12.029   9.513 -0.1083 -0.3479  0.1094
  361loPI    C1 5761   1.424  14.912  10.670 -0.0202 -0.0655 -0.0932
  361loPI    C2 5762   1.155  15.200  10.740 -0.1008 -0.1997  0.1626
  361loPI    C3 5763   1.034  14.833  10.636  0.0000 -0.1581 -0.1120
  361loPI   PO4 5764   1.518  14.997  10.523 -0.0122 -0.2074  0.1310
  361loPI   GL1 5765   1.491  15.281  10.291  0.2453  0.0099  0.3258
  361loPI   GL2 5766   1.775  15.210  10.153  0.2917 -0.0756 -0.3158
  361loPI   C1A 5767   1.161  15.428   9.934  0.1375 -0.3264  0.1794
  361loPI   C2A 5768   0.895  15.646   9.644  0.1392 -0.0282 -0.3145
  361loPI   C3A 5769   0.665  15.520   9.252 -0.3137 -0.0091  0.0477
  361loPI   C4A 5770   0.739  15.273   8.913 -0.0463  0.0044 -0.0146
  361loPI   C5A 5771   0.911  15.363   8.562 -0.2410 -0.1776 -0.0635
  361loPI   C6A 5772   1.287  15.231   8.509 -0.0098  0.0465  0.2647
  361loPI   C1B 5773   1.843  15.214   9.679  0.0306  0.1920  0.0577
  361loPI   C2B 5774   1.875  15.235   9.279  0.0404  0.0566  0.2777
  361loPI   C3B 5775   1.687  15.439   8.982  0.1190  0.0827  0.1148
  361loPI   C4B 5776   1.410  15.658   8.746  0.0335  0.2371 -0.2504
  362loPI    C1 5777  10.280   4.310  11.400 -0.1294 -0.0183 -0.0514
  362loPI    C2 5778  10.233   4.053  11.703  0.0483 -0.0638 -0.0614
  362loPI    C3 5779  10.414   4.404  11.765 -0.1402  0.0347 -0.0610
  362loPI   PO4 5780  10.312   4.249  11.230  0.1700  0.1221 -0.1142
  362loPI   GL1 5781  10.312   4.528  10.912  0.2372  0.0863 -0.1388
  362loPI   GL2 5782  10.134   4.243  10.740  0.2503 -0.4876  0.0704
  362loPI   C1A 5783  10.567   4.637  10.478  0.0375  0.0592 -0.2092
  362loPI   C2A 5784  10.500   4.767  10.023 -0.0671 -0.2165 -0.1509
  362loPI   C3A 5785  10.438   4.744   9.541 -0.0130  0.1711  0.1866
  362loPI   C4A 5786  10.489   4.792   9.014  0.1562  0.2638 -0.5165
  362loPI   C5A 5787  10.350   4.799   8.681  0.0802  0.1594 -0.0832
  362loPI   C6A 5788  10.632   4.873   8.328 -0.1677  0.0180  0.0737
  362loPI   C1B 5789  10.028   4.491  10.392 -0.1501  0.0475  0.1859
  362loPI   C2B 5790   9.996   4.577   9.978 -0.1871 -0.1215  0.0083
  362loPI   C3B 5791   9.951   4.643   9.550  0.0802  0.0293  0.2014
  362loPI   C4B 5792   9.928   4.701   9.091 -0.3416 -0.0422 -0.1744
  363loPI    C1 5793   3.852   5.260  11.493 -0.0797 -0.0158 -0.3028
  363loPI    C2 5794   3.743   5.642  11.447 -0.1644 -0.0130 -0.0894
  363loPI    C3 5795   4.004   5.542  11.732 -0.0322 -0.0962 -0.2379
  363loPI   PO4 5796   3.928   5.202  11.239 -0.1767  0.3554  0.2282
  363loPI   GL1 5797   4.093   5.347  10.915 -0.1379  0.3751  0.0597
  363loPI   GL2 5798   4.255   5.068  10.810 -0.0377 -0.1055 -0.0529
  363loPI   C1A 5799   3.944   5.507  10.532 -0.1421  0.0364  0.0180
  363loPI   C2A 5800   3.934   5.450  10.068  0.2471 -0.0442  0.0317
  363loPI   C3A 5801   3.865   5.349   9.641  0.2184 -0.1094  0.2300
  363loPI   C4A 5802   3.953   5.335   9.235  0.1934  0.1169 -0.1455
  363loPI   C5A 5803   3.803   5.196   8.774 -0.0389  0.1828  0.3095
  363loPI   C6A 5804   4.001   5.039   8.405 -0.1486  0.1474 -0.0244
  363loPI   C1B 5805   4.231   5.017  10.360  0.0471 -0.2746 -0.0481
  363loPI   C2B 5806   4.227   4.914   9.931  0.2575 -0.1095  0.0450
  363loPI   C3B 5807   4.209   4.877   9.491  0.1840  0.2108  0.0854
  363loPI   C4B 5808   4.186   4.867   9.123 -0.0110 -0.2189  0.0757
  364loPI    C1 5809   3.361  14.853  11.282  0.3010  0.2704  0.1232
  364loPI    C2 5810   3.159  14.910  11.622 -0.0560  0.1014 -0.0545
  364loPI    C3 5811   3.269  14.541  11.515  0.2858  0.1839  0.0028
  364loPI   PO4 5812   3.188  15.082  11.117 -0.0364 -0.0566 -0.0296
  364loPI   GL1 5813   3.323  15.215  10.700  0.0503  0.2577 -0.2092
  364loPI   GL2 5814   3.159  15.555  10.563 -0.1615 -0.1667 -0.0801
  364loPI   C1A 5815   3.548  15.175  10.304 -0.0090  0.1313 -0.1573
  364loPI   C2A 5816   3.968  15.075   9.960  0.0173  0.4183  0.0967
  364loPI   C3A 5817   4.383  14.971   9.808  0.0813  0.3768 -0.0083
  364loPI   C4A 5818   4.765  15.032   9.588 -0.1785  0.0031  0.2263
  364loPI   C5A 5819   5.152  15.262   9.433 -0.1330 -0.1709  0.0738
  364loPI   C6A 5820   5.255  15.678   9.307  0.4345  0.0833 -0.1884
  364loPI   C1B 5821   3.324  15.560  10.144 -0.1575  0.0423 -0.0875
  364loPI   C2B 5822   3.707  15.500  10.007 -0.2443  0.0589  0.1604
  364loPI   C3B 5823   3.875  15.624   9.559  0.1323 -0.1667 -0.0037
  364loPI   C4B 5824   4.018  15.475   9.266 -0.3745 -0.3287  0.2825
  365loPI    C1 5825   1.390   3.011  11.183  0.0025  0.1283 -0.0719
  365loPI    C2 5826   1.656   3.113  11.464 -0.1441  0.1136  0.0741
  365loPI    C3 5827   1.372   2.844  11.546 -0.0171 -0.1012 -0.1769
  365loPI   PO4 5828   1.518   2.966  11.024 -0.1566  0.0222  0.1006
  365loPI   GL1 5829   1.625   3.088  10.583 -0.3886 -0.1861 -0.0655
  365loPI   GL2 5830   1.347   2.964  10.466  0.0057  0.1358  0.0440
  365loPI   C1A 5831   1.813   2.876  10.203  0.2720 -0.0302  0.2520
  365loPI   C2A 5832   1.828   2.756   9.823 -0.1382 -0.0371  0.1521
  365loPI   C3A 5833   1.634   2.799   9.414 -0.1596 -0.1353  0.1924
  365loPI   C4A 5834   1.733   2.568   9.017 -0.0545 -0.3336  0.1052
  365loPI   C5A 5835   1.627   2.438   8.652 -0.1855  0.3024  0.1514
  365loPI   C6A 5836   1.569   2.185   8.377  0.0105 -0.4992  0.1238
  365loPI   C1B 5837   1.451   3.149   9.982 -0.1264  0.0772 -0.2514
  365loPI   C2B 5838   1.277   3.242   9.593 -0.0790  0.0041  0.0349
  365loPI   C3B 5839   1.382   3.064   9.072 -0.1051 -0.0480 -0.2705
  365loPI   C4B 5840   1.183   3.229   8.689  0.0651  0.1763  0.2807
  366loPI    C1 5841   5.489  16.357  11.172 -0.1308 -0.0817  0.0725
  366loPI    C2 5842   5.426  15.963  11.149  0.0523 -0.1070 -0.0087
  366loPI    C3 5843   5.525  16.130  11.499  0.1320 -0.1571 -0.0072
  366loPI   PO4 5844   5.298  16.472  11.042 -0.1878 -0.2052 -0.0660
  366loPI   GL1 5845   5.234  16.568  10.578  0.1415 -0.0176 -0.0497
  366loPI   GL2 5846   5.493  16.769  10.561  0.1382 -0.1056 -0.0414
  366loPI   C1A 5847   5.410  16.374  10.155 -0.0780 -0.3401 -0.3294
  366loPI   C2A 5848   5.425  16.457   9.719 -0.0184  0.4433 -0.2965
  366loPI   C3A 5849   5.540  16.581   9.295  0.1497 -0.0380 -0.1477
  366loPI   C4A 5850   5.465  16.614   8.908  0.0039  0.2180  0.1493
  366loPI   C5A 5851   5.745  16.520   8.530  0.1593  0.1131  0.0420
  366loPI   C6A 5852   5.864  16.369   8.201  0.0900  0.3073  0.1507
  366loPI   C1B 5853   5.689  16.886  10.066  0.0328  0.1942 -0.0072
  366loPI   C2B 5854   5.774  16.917   9.700  0.1447  0.0222  0.1624
  366loPI   C3B 5855   5.866  16.947   9.309 -0.0293  0.0113  0.1828
  366loPI   C4B 5856   5.660  17.086   8.889 -0.0538  0.0876  0.1653
  367loPI    C1 5857   1.014  17.697  10.553 -0.0716 -0.1392 -0.2032
  367loPI    C2 5858   1.199  17.600  10.895  0.0836  0.0358 -0.2362
  367loPI    C3 5859   0.982  17.935  10.873 -0.1861 -0.1352 -0.2172
  367loPI   PO4 5860   1.162  17.582  10.379  0.0134 -0.1182 -0.0963
  367loPI   GL1 5861   1.418  17.691  10.063  0.5567 -0.2182  0.0322
  367loPI   GL2 5862   1.524  17.918  10.172 -0.0965 -0.0723  0.0871
  367loPI   C1A 5863   1.634  17.415   9.782  0.0259 -0.6114 -0.0305
  367loPI   C2A 5864   1.681  17.502   9.317  0.0338  0.2342  0.2226
  367loPI   C3A 5865   1.709  17.390   8.837 -0.2217 -0.0381 -0.2871
  367loPI   C4A 5866   1.752  17.218   8.438  0.0541  0.3455  0.0915
  367loPI   C5A 5867   1.943  17.345   8.096 -0.0963  0.3902  0.1248
  367loPI   C6A 5868   2.099  17.339   7.700 -0.0059 -0.1499 -0.1253
  367loPI   C1B 5869   1.621  17.976   9.696  0.2266 -0.0939 -0.0944
  367loPI   C2B 5870   1.692  18.016   9.337 -0.3049  0.0445  0.5097
  367loPI   C3B 5871   1.725  18.159   8.895 -0.1726  0.1101  0.2249
  367loPI   C4B 5872   1.917  18.247   8.470 -0.1731 -0.0929 -0.1550
  368loPI    C1 5873   1.166   2.251  11.008 -0.0527  0.0803 -0.1991
  368loPI    C2 5874   1.543   2.121  10.971 -0.1160 -0.0706 -0.3270
  368loPI    C3 5875   1.466   2.455  11.177  0.0460 -0.2540  0.0397
  368loPI   PO4 5876   1.081   2.249  10.748 -0.0879  0.0154  0.3404
  368loPI   GL1 5877   1.099   2.437  10.383 -0.0252 -0.0469  0.1898
  368loPI   GL2 5878   0.867   2.248  10.317  0.1551  0.0696  0.1244
  368loPI   C1A 5879   1.237   2.660  10.028 -0.0486 -0.0770 -0.2238
  368loPI   C2A 5880   1.086   2.643   9.629 -0.1197  0.2033  0.1800
  368loPI   C3A 5881   1.100   2.652   9.286  0.0759  0.2530 -0.1639
  368loPI   C4A 5882   1.214   2.628   8.876  0.1167  0.1335 -0.1070
  368loPI   C5A 5883   1.148   2.342   8.531 -0.0142 -0.4084 -0.2928
  368loPI   C6A 5884   1.094   2.240   8.141 -0.0703 -0.0758 -0.1990
  368loPI   C1B 5885   1.141   2.076   9.964 -0.0361  0.1816  0.5443
  368loPI   C2B 5886   1.340   1.791   9.616  0.0079  0.0590  0.0905
  368loPI   C3B 5887   1.302   1.387   9.481  0.0029 -0.1919  0.0654
  368loPI   C4B 5888   1.443   1.169   9.064 -0.1651 -0.0891  0.1941
  369loPI    C1 5889   8.310   3.053  11.290 -0.1854 -0.2089 -0.0190
  369loPI    C2 5890   8.687   2.940  11.361 -0.1050 -0.0070 -0.1162
  369loPI    C3 5891   8.397   2.844  11.619  0.0136 -0.1582 -0.0381
  369loPI   PO4 5892   8.393   3.214  11.117 -0.0302  0.0358  0.1009
  369loPI   GL1 5893   8.146   3.381  10.760  0.0873 -0.0074  0.3046
  369loPI   GL2 5894   8.421   3.544  10.758 -0.1745  0.0136 -0.0413
  369loPI   C1A 5895   7.901   3.668  10.481 -0.2055 -0.0796  0.0452
  369loPI   C2A 5896   7.971   3.574  10.016  0.3130 -0.1375 -0.1402
  369loPI   C3A 5897   7.904   3.551   9.504 -0.1835 -0.0121  0.1366
  369loPI   C4A 5898   7.923   3.665   9.031 -0.0824  0.3632  0.1211
  369loPI   C5A 5899   7.809   3.560   8.582 -0.0703  0.4314  0.0981
  369loPI   C6A 5900   7.364   3.432   8.346  0.0752  0.1225 -0.0983
  369loPI   C1B 5901   8.362   3.585  10.337 -0.1837  0.0828 -0.0554
  369loPI   C2B 5902   8.491   3.626   9.881 -0.1104  0.1418 -0.3264
  369loPI   C3B 5903   8.461   3.588   9.527 -0.0903  0.0623  0.0030
  369loPI   C4B 5904   8.447   3.634   9.009  0.2835  0.0587  0.0514
  370loPI    C1 5905   4.141  14.455  11.272 -0.0814 -0.1863  0.1742
  370loPI    C2 5906   3.920  14.196  11.062 -0.1089  0.3601 -0.5060
  370loPI    C3 5907   3.754  14.530  11.206  0.0325  0.2391 -0.0447
  370loPI   PO4 5908   4.401  14.419  11.129 -0.1321  0.1208 -0.2408
  370loPI   GL1 5909   4.660  14.390  10.747  0.0493  0.1007 -0.0084
  370loPI   GL2 5910   4.413  14.061  10.704  0.2609 -0.2424 -0.3589
  370loPI   C1A 5911   4.998  14.224  10.460  0.2324 -0.0004 -0.0326
  370loPI   C2A 5912   5.046  14.303   9.995  0.0223  0.1723 -0.0357
  370loPI   C3A 5913   4.990  14.261   9.571  0.1201 -0.1875  0.0482
  370loPI   C4A 5914   5.046  14.147   9.192 -0.3004 -0.0742  0.0081
  370loPI   C5A 5915   4.816  14.333   8.842 -0.1035  0.0058 -0.1974
  370loPI   C6A 5916   4.636  14.427   8.466  0.0504  0.4489 -0.0709
  370loPI   C1B 5917   4.379  14.001  10.190 -0.0678 -0.0390  0.1359
  370loPI   C2B 5918   4.755  13.796   9.970  0.1054 -0.3401  0.0089
  370loPI   C3B 5919   5.090  13.721   9.649  0.0655 -0.1363  0.1735
  370loPI   C4B 5920   5.368  13.742   9.271 -0.1300 -0.1465  0.0949
  371loPI    C1 5921   6.860   2.565  11.390 -0.0331  0.2338 -0.0927
  371loPI    C2 5922   7.060   2.643  11.727 -0.2117  0.2342  0.0139
  371loPI    C3 5923   6.679   2.521  11.744 -0.0974 -0.1638 -0.1701
  371loPI   PO4 5924   6.961   2.704  11.127 -0.1605 -0.0956  0.0625
  371loPI   GL1 5925   7.176   2.621  10.713 -0.1227  0.1744  0.2457
  371loPI   GL2 5926   7.218   2.280  10.779  0.0234 -0.0092  0.1557
  371loPI   C1A 5927   7.177   2.549  10.315  0.0509  0.0172 -0.0203
  371loPI   C2A 5928   7.151   2.583   9.810 -0.1073  0.2150  0.1678
  371loPI   C3A 5929   7.097   2.583   9.354 -0.0170 -0.1175  0.0311
  371loPI   C4A 5930   7.093   2.514   8.956 -0.0399 -0.1263  0.0583
  371loPI   C5A 5931   6.966   2.088   8.702 -0.2216  0.0252  0.3416
  371loPI   C6A 5932   6.624   1.847   8.496  0.0783  0.1202  0.0645
  371loPI   C1B 5933   6.928   2.025  10.505  0.0973  0.1825  0.3986
  371loPI   C2B 5934   6.957   1.962  10.012 -0.2392  0.1464  0.1078
  371loPI   C3B 5935   6.999   2.029   9.557  0.1854 -0.3879  0.1146
  371loPI   C4B 5936   6.873   2.123   9.162 -0.1517  0.1166 -0.1749
  372loPI    C1 5937   9.561  10.033  11.092  0.0928 -0.1399 -0.0933
  372loPI    C2 5938   9.661   9.656  11.183 -0.1389 -0.1417  0.1656
  372loPI    C3 5939   9.315   9.809  11.314  0.0241  0.2119  0.1951
  372loPI   PO4 5940   9.773  10.194  11.089  0.0895  0.0383  0.1449
  372loPI   GL1 5941  10.084  10.198  10.713 -0.2789 -0.1389  0.0815
  372loPI   GL2 5942   9.760  10.360  10.395 -0.0580 -0.0814  0.0474
  372loPI   C1A 5943   9.902   9.751  10.571 -0.1917 -0.1748  0.1467
  372loPI   C2A 5944   9.856   9.578  10.101 -0.2714 -0.0645 -0.0789
  372loPI   C3A 5945  10.301   9.491   9.914  0.0492 -0.3405 -0.0352
  372loPI   C4A 5946  10.394   9.194   9.583  0.1070 -0.2561  0.0020
  372loPI   C5A 5947  10.577   8.723   9.552 -0.0156  0.1461 -0.1237
  372loPI   C6A 5948  10.487   8.333   9.298 -0.0583 -0.1547 -0.0505
  372loPI   C1B 5949   9.701  10.512   9.958 -0.1011 -0.2226 -0.0866
  372loPI   C2B 5950   9.660  10.390   9.494  0.0757 -0.0722 -0.0915
  372loPI   C3B 5951   9.475  10.271   9.028  0.1954  0.0344  0.0968
  372loPI   C4B 5952   8.978  10.216   8.873 -0.2286  0.2113 -0.1751
  373loPI    C1 5953   5.831   4.705  11.536  0.0842  0.0049  0.1104
  373loPI    C2 5954   5.900   5.068  11.690 -0.0631  0.0852 -0.0095
  373loPI    C3 5955   5.788   4.766  11.928 -0.1566  0.1739  0.0596
  373loPI   PO4 5956   6.060   4.745  11.362 -0.2589  0.0143 -0.0376
  373loPI   GL1 5957   6.081   4.795  11.037 -0.1022 -0.1581 -0.2504
  373loPI   GL2 5958   6.364   5.032  10.815  0.1240  0.1086  0.2007
  373loPI   C1A 5959   6.027   4.549  10.614 -0.1153 -0.0640  0.0747
  373loPI   C2A 5960   6.029   4.636  10.248 -0.1488 -0.2048  0.1470
  373loPI   C3A 5961   6.040   4.707   9.719 -0.0787  0.0506 -0.0100
  373loPI   C4A 5962   5.984   4.713   9.261  0.1985  0.1485 -0.2371
  373loPI   C5A 5963   6.164   4.551   8.858 -0.3252  0.0336 -0.3345
  373loPI   C6A 5964   6.226   4.436   8.450 -0.0403 -0.0447 -0.2249
  373loPI   C1B 5965   6.330   5.177  10.344 -0.2086  0.0176 -0.0753
  373loPI   C2B 5966   6.220   5.129   9.981 -0.0690 -0.2181 -0.0362
  373loPI   C3B 5967   6.178   5.147   9.580 -0.1376  0.3577 -0.0610
  373loPI   C4B 5968   6.139   5.104   9.063  0.3552 -0.5017  0.0457
  374loPI    C1 5969   4.824  13.486  11.284 -0.0815 -0.0443 -0.1611
  374loPI    C2 5970   4.872  13.110  11.154 -0.0892 -0.0596 -0.1203
  374loPI    C3 5971   4.562  13.203  11.388  0.1124 -0.1070  0.1699
  374loPI   PO4 5972   4.848  13.598  11.112  0.2062 -0.2647 -0.1431
  374loPI   GL1 5973   5.161  13.531  10.885 -0.2155  0.0349 -0.0998
  374loPI   GL2 5974   4.916  13.343  10.695  0.1617 -0.1022 -0.2871
  374loPI   C1A 5975   5.279  13.959  10.756 -0.2098 -0.1004  0.0495
  374loPI   C2A 5976   5.648  14.110  10.505 -0.1410  0.4060  0.1452
  374loPI   C3A 5977   5.841  14.059  10.156 -0.4123 -0.4504  0.0842
  374loPI   C4A 5978   6.013  14.004   9.729  0.0923 -0.0944 -0.0548
  374loPI   C5A 5979   6.318  13.926   9.487 -0.0838 -0.0042 -0.0175
  374loPI   C6A 5980   6.758  14.087   9.408  0.3768 -0.0371  0.0900
  374loPI   C1B 5981   5.025  13.684  10.428  0.0151 -0.0710  0.1527
  374loPI   C2B 5982   5.346  13.867  10.171 -0.2786 -0.0023 -0.1502
  374loPI   C3B 5983   5.514  13.985   9.708  0.0202  0.3003 -0.1291
  374loPI   C4B 5984   5.525  14.185   9.367  0.1437  0.1019 -0.2688
  375loPI    C1 5985   2.005  16.524  10.493  0.1407  0.1394 -0.1799
  375loPI    C2 5986   2.308  16.601  10.243  0.2256 -0.1489 -0.1683
  375loPI    C3 5987   2.247  16.228  10.377  0.0257 -0.0444  0.0396
  375loPI   PO4 5988   1.804  16.587  10.395 -0.1858 -0.1064  0.4612
  375loPI   GL1 5989   1.593  16.380  10.010  0.2142 -0.1734  0.0284
  375loPI   GL2 5990   1.867  16.248  10.017  0.1226 -0.0161  0.1811
  375loPI   C1A 5991   1.527  16.499   9.564 -0.1688  0.0207 -0.1191
  375loPI   C2A 5992   1.416  16.469   9.245 -0.1569  0.2751  0.0619
  375loPI   C3A 5993   1.517  16.516   8.940 -0.1079 -0.1393 -0.1652
  375loPI   C4A 5994   1.399  16.817   8.591 -0.0869  0.0805  0.1036
  375loPI   C5A 5995   1.065  16.618   8.229 -0.0101 -0.4628  0.2709
  375loPI   C6A 5996   0.697  16.467   8.011  0.0750  0.0082 -0.4120
  375loPI   C1B 5997   1.968  16.233   9.631  0.0504 -0.1160  0.1971
  375loPI   C2B 5998   2.097  16.135   9.222  0.2937 -0.1456 -0.1413
  375loPI   C3B 5999   2.516  16.197   9.019 -0.0700 -0.0798 -0.1142
  375loPI   C4B 6000   2.916  16.314   8.856 -0.1558  0.0658 -0.2887
  376loPI    C1 6001   4.331   8.929  11.506 -0.2382  0.0299  0.4031
  376loPI    C2 6002   4.234   8.679  11.802  0.0663  0.0516  0.5247
  376loPI    C3 6003   4.379   9.042  11.887  0.1063  0.0771  0.3490
  376loPI   PO4 6004   4.245   8.951  11.183 -0.4272 -0.1027 -0.0451
  376loPI   GL1 6005   4.500   9.027  10.919  0.1405 -0.0385  0.1102
  376loPI   GL2 6006   4.348   9.218  10.699 -0.0412 -0.0262  0.3002
  376loPI   C1A 6007   4.674   8.682  10.710  0.0473  0.0261  0.0412
  376loPI   C2A 6008   4.893   8.623  10.318 -0.0957 -0.0776 -0.1485
  376loPI   C3A 6009   4.964   8.622   9.918  0.1026 -0.0775 -0.1651
  376loPI   C4A 6010   4.961   8.557   9.540  0.3063  0.2536  0.2592
  376loPI   C5A 6011   5.052   8.377   9.098  0.1523 -0.1085 -0.5753
  376loPI   C6A 6012   5.260   8.043   8.959 -0.2755  0.0542 -0.0601
  376loPI   C1B 6013   4.567   9.071  10.313 -0.3333 -0.0651  0.0647
  376loPI   C2B 6014   4.631   9.052   9.895 -0.2356 -0.5098  0.1864
  376loPI   C3B 6015   4.459   9.077   9.454 -0.0886 -0.1704  0.1971
  376loPI   C4B 6016   4.524   9.057   8.971  0.1230 -0.1669  0.2342
  377loPI    C1 6017   3.297  13.732  11.001 -0.0099  0.1078 -0.0941
  377loPI    C2 6018   3.655  13.597  11.119 -0.0582  0.1068  0.0540
  377loPI    C3 6019   3.331  13.365  11.157 -0.1117  0.1944  0.1359
  377loPI   PO4 6020   3.273  13.965  10.925 -0.2218  0.0416  0.0567
  377loPI   GL1 6021   3.584  14.067  10.573  0.0376 -0.0744  0.1002
  377loPI   GL2 6022   3.869  14.053  10.294 -0.0909  0.0616  0.2473
  377loPI   C1A 6023   3.675  13.636  10.223  0.3029 -0.0700  0.2527
  377loPI   C2A 6024   3.766  13.631   9.761 -0.1069 -0.2644  0.0696
  377loPI   C3A 6025   3.872  13.428   9.491  0.1609 -0.2039  0.0645
  377loPI   C4A 6026   3.882  13.249   9.174  0.0031 -0.4076 -0.2018
  377loPI   C5A 6027   3.833  13.265   8.684  0.1929  0.1353 -0.1167
  377loPI   C6A 6028   3.727  13.208   8.235 -0.0960  0.0708 -0.3581
  377loPI   C1B 6029   3.514  14.080   9.995 -0.0071 -0.1048 -0.2313
  377loPI   C2B 6030   3.592  14.101   9.634 -0.0818  0.2111 -0.1957
  377loPI   C3B 6031   3.607  13.991   9.215 -0.1287  0.0701 -0.0809
  377loPI   C4B 6032   3.634  13.746   8.926  0.3090 -0.0747 -0.1604
  378loPI    C1 6033   2.757   5.492  11.145 -0.0915  0.1096  0.0395
  378loPI    C2 6034   2.807   5.756  11.441 -0.2725  0.1333  0.0499
  378loPI    C3 6035   2.670   5.389  11.522  0.2043 -0.0474  0.0681
  378loPI   PO4 6036   2.930   5.499  10.940  0.1140 -0.1509  0.1510
  378loPI   GL1 6037   3.177   5.561  10.709  0.1941  0.0636  0.1297
  378loPI   GL2 6038   3.382   5.387  10.563 -0.2297  0.0365  0.1816
  378loPI   C1A 6039   3.175   5.806  10.365  0.0239 -0.1241 -0.2623
  378loPI   C2A 6040   3.146   5.736   9.903 -0.0227  0.2724  0.1271
  378loPI   C3A 6041   3.129   5.706   9.429  0.0197 -0.2174  0.0254
  378loPI   C4A 6042   3.118   5.600   9.021 -0.1916 -0.1131 -0.2490
  378loPI   C5A 6043   3.207   5.817   8.699  0.1063 -0.2037 -0.1362
  378loPI   C6A 6044   3.001   6.101   8.531 -0.1604  0.2445  0.1733
  378loPI   C1B 6045   3.431   5.329  10.079  0.1457 -0.1244  0.3145
  378loPI   C2B 6046   3.403   5.256   9.668 -0.0159 -0.1423 -0.3941
  378loPI   C3B 6047   3.407   5.198   9.153  0.2177 -0.2754  0.0163
  378loPI   C4B 6048   3.261   5.167   8.759 -0.2370  0.0833 -0.1322
  379loPI    C1 6049   6.689  14.134  11.187 -0.1742 -0.2002 -0.1181
  379loPI    C2 6050   6.957  13.852  11.095 -0.0093 -0.0239 -0.1842
  379loPI    C3 6051   6.772  13.843  11.449  0.0994 -0.1349 -0.1295
  379loPI   PO4 6052   6.534  14.135  10.953 -0.2869 -0.0401  0.0325
  379loPI   GL1 6053   6.474  14.337  10.598  0.1096 -0.1665 -0.0197
  379loPI   GL2 6054   6.612  14.561  10.465  0.1547  0.0557 -0.0558
  379loPI   C1A 6055   6.395  14.217  10.147 -0.1113  0.0673 -0.3518
  379loPI   C2A 6056   6.415  14.328   9.788 -0.0516 -0.0468  0.1501
  379loPI   C3A 6057   6.378  14.458   9.404 -0.2794 -0.1034  0.3784
  379loPI   C4A 6058   6.074  14.332   9.131  0.1985 -0.2559  0.0397
  379loPI   C5A 6059   5.790  14.209   8.930 -0.1654  0.0019 -0.0442
  379loPI   C6A 6060   5.597  13.881   8.835  0.2453 -0.1870 -0.1966
  379loPI   C1B 6061   6.827  14.680  10.017  0.0918 -0.0676  0.1999
  379loPI   C2B 6062   6.820  14.625   9.672  0.2903 -0.1431  0.3103
  379loPI   C3B 6063   6.878  14.544   9.228 -0.0085  0.1949 -0.0998
  379loPI   C4B 6064   6.868  14.525   8.763 -0.2065  0.0408 -0.2509
  380loPI    C1 6065   8.573  13.598  11.522  0.0815  0.2541  0.0004
  380loPI    C2 6066   8.274  13.863  11.537 -0.0134  0.1483 -0.0114
  380loPI    C3 6067   8.624  13.948  11.710 -0.1091  0.1980  0.1609
  380loPI   PO4 6068   8.641  13.438  11.285 -0.2373 -0.1152 -0.0378
  380loPI   GL1 6069   8.629  13.532  10.846 -0.1658 -0.0729  0.1291
  380loPI   GL2 6070   8.733  13.769  10.638 -0.0128  0.0802 -0.2718
  380loPI   C1A 6071   8.413  13.496  10.325 -0.2544 -0.0558  0.0327
  380loPI   C2A 6072   8.277  13.184  10.125 -0.1717 -0.2079  0.3186
  380loPI   C3A 6073   8.331  12.957   9.889 -0.1116 -0.4277 -0.0921
  380loPI   C4A 6074   8.428  12.693   9.518 -0.1507 -0.2154  0.0863
  380loPI   C5A 6075   8.484  12.639   9.042 -0.3583  0.1475  0.1084
  380loPI   C6A 6076   8.169  12.474   8.763 -0.1296  0.4659 -0.3702
  380loPI   C1B 6077   8.838  13.627  10.181 -0.0729  0.1224 -0.0866
  380loPI   C2B 6078   8.611  13.413   9.815 -0.4072 -0.0493  0.1265
  380loPI   C3B 6079   8.404  13.211   9.467  0.0657 -0.1385  0.2615
  380loPI   C4B 6080   8.097  12.990   9.292 -0.0213 -0.1017 -0.2183
  381loPI    C1 6081  11.058  14.759  10.853  0.1331 -0.0188  0.0058
  381loPI    C2 6082  10.919  14.785  11.227  0.0896  0.1567 -0.0217
  381loPI    C3 6083  11.304  14.860  11.151  0.1221  0.0175  0.0026
  381loPI   PO4 6084  10.930  14.903  10.690 -0.1981  0.0905  0.0785
  381loPI   GL1 6085  10.718  14.690  10.338 -0.0420 -0.1596 -0.0667
  381loPI   GL2 6086  11.056  14.822  10.213  0.1744  0.1166 -0.1436
  381loPI   C1A 6087  10.742  14.530   9.899  0.2755  0.0225  0.1285
  381loPI   C2A 6088  10.585  14.265   9.604  0.0482  0.1659 -0.2263
  381loPI   C3A 6089  10.533  14.141   9.190  0.0357 -0.0307  0.0982
  381loPI   C4A 6090  10.447  14.166   8.766 -0.3135  0.0191 -0.0659
  381loPI   C5A 6091  10.569  14.475   8.655  0.1768 -0.1426  0.3584
  381loPI   C6A 6092  10.913  14.661   8.277  0.2837 -0.3390  0.2998
  381loPI   C1B 6093  11.269  14.629   9.786  0.1947  0.0842  0.1210
  381loPI   C2B 6094  11.392  14.595   9.353  0.2814 -0.2361 -0.0404
  381loPI   C3B 6095  11.602  14.352   8.983 -0.1663 -0.2066 -0.2663
  381loPI   C4B 6096  11.750  14.531   8.578 -0.1959 -0.1746 -0.3421
  382loPI    C1 6097   0.488  10.954  10.824  0.0415  0.0619  0.0537
  382loPI    C2 6098   0.174  11.124  11.004 -0.0030 -0.0331  0.0668
  382loPI    C3 6099   0.399  10.858  11.201 -0.0515 -0.1373 -0.0175
  382loPI   PO4 6100   0.564  11.145  10.627 -0.2621  0.0119 -0.1124
  382loPI   GL1 6101   0.594  11.347  10.142 -0.1419 -0.0156 -0.2122
  382loPI   GL2 6102   0.652  11.724  10.179  0.0010  0.1103  0.1989
  382loPI   C1A 6103   0.688  11.187   9.719  0.0595  0.0323 -0.1466
  382loPI   C2A 6104   0.822  11.091   9.373 -0.2140  0.0416  0.0607
  382loPI   C3A 6105   0.871  11.361   8.917  0.2536 -0.2450 -0.0093
  382loPI   C4A 6106   0.959  11.390   8.466 -0.1716 -0.0655  0.2199
  382loPI   C5A 6107   0.646  11.624   8.208 -0.0354 -0.1087 -0.3326
  382loPI   C6A 6108   0.677  11.806   7.852 -0.0494  0.0538  0.2948
  382loPI   C1B 6109   0.677  11.762   9.730 -0.0657  0.2628  0.0979
  382loPI   C2B 6110   0.838  11.640   9.416 -0.2971  0.1779  0.2098
  382loPI   C3B 6111   0.936  11.814   8.997  0.1277 -0.2871  0.1975
  382loPI   C4B 6112   1.142  12.149   8.763  0.1534  0.0520  0.1562
  383loPI    C1 6113   6.943  13.390  11.347 -0.0490  0.1005  0.0602
  383loPI    C2 6114   6.974  13.080  11.599  0.0463  0.0121 -0.0589
  383loPI    C3 6115   6.804  13.421  11.720 -0.1978 -0.1379  0.0268
  383loPI   PO4 6116   6.950  13.238  11.089  0.3049  0.1941 -0.2009
  383loPI   GL1 6117   6.835  13.412  10.663 -0.1045 -0.1033  0.1323
  383loPI   GL2 6118   6.480  13.304  10.652  0.0211 -0.1597 -0.1900
  383loPI   C1A 6119   6.917  13.408  10.185 -0.2629 -0.1116  0.0894
  383loPI   C2A 6120   6.861  13.519   9.740  0.2215 -0.1281 -0.0150
  383loPI   C3A 6121   6.774  13.598   9.361 -0.1582  0.1121 -0.0839
  383loPI   C4A 6122   6.694  13.727   9.003  0.1881  0.0297 -0.1855
  383loPI   C5A 6123   6.565  14.106   8.825 -0.0407 -0.1180 -0.4965
  383loPI   C6A 6124   6.724  14.220   8.383 -0.1972 -0.0022 -0.0905
  383loPI   C1B 6125   6.229  13.163  10.331  0.1004  0.1054  0.0812
  383loPI   C2B 6126   6.116  13.301  10.012  0.1499 -0.0419  0.0598
  383loPI   C3B 6127   6.159  13.362   9.502  0.0179 -0.4650 -0.1058
  383loPI   C4B 6128   6.112  13.397   9.106 -0.1888  0.0362  0.1506
  384loPI    C1 6129   7.808  14.819  11.392  0.4349 -0.1747 -0.3621
  384loPI    C2 6130   7.801  14.420  11.404  0.1543 -0.1639  0.0208
  384loPI    C3 6131   8.044  14.623  11.647  0.0945 -0.0962  0.0243
  384loPI   PO4 6132   7.854  14.879  11.120  0.1620 -0.1583 -0.0062
  384loPI   GL1 6133   7.959  14.897  10.717 -0.2946  0.0145 -0.2511
  384loPI   GL2 6134   7.775  14.755  10.578  0.0999  0.0042 -0.5465
  384loPI   C1A 6135   8.109  15.179  10.382 -0.2028  0.0892 -0.2034
  384loPI   C2A 6136   8.050  15.379  10.151  0.0659  0.0642  0.0076
  384loPI   C3A 6137   7.969  15.206   9.689 -0.1498 -0.3198  0.0224
  384loPI   C4A 6138   7.869  14.929   9.373  0.2560  0.0914  0.2442
  384loPI   C5A 6139   7.810  15.116   8.983  0.0797  0.0335 -0.1407
  384loPI   C6A 6140   7.654  15.374   8.604 -0.4204  0.0159 -0.0988
  384loPI   C1B 6141   7.693  14.809  10.122 -0.0625  0.4016  0.1342
  384loPI   C2B 6142   7.594  14.922   9.766 -0.3464  0.3291 -0.0917
  384loPI   C3B 6143   7.405  14.852   9.297  0.0650 -0.1424 -0.1495
  384loPI   C4B 6144   7.289  14.782   8.915  0.1016  0.1025 -0.1807
  385loPI    C1 6145   3.714   7.927  11.398  0.0764  0.0628 -0.2556
  385loPI    C2 6146   3.628   7.639  11.133 -0.0277 -0.1994  0.0573
  385loPI    C3 6147   3.441   7.648  11.487  0.1484  0.1149  0.1462
  385loPI   PO4 6148   3.703   8.194  11.182  0.0290  0.2498 -0.4626
  385loPI   GL1 6149   3.674   8.343  10.826 -0.0301  0.2409 -0.2707
  385loPI   GL2 6150   3.557   8.091  10.743 -0.0872  0.0224  0.0966
  385loPI   C1A 6151   3.733   8.578  10.445 -0.1173  0.0120 -0.2171
  385loPI   C2A 6152   3.837   8.515  10.020  0.0194 -0.0729 -0.0532
  385loPI   C3A 6153   3.726   8.503   9.573 -0.0965  0.1938 -0.1151
  385loPI   C4A 6154   3.588   8.547   9.130  0.1258 -0.1825  0.2850
  385loPI   C5A 6155   3.403   8.363   8.773 -0.2733 -0.1111  0.0583
  385loPI   C6A 6156   3.440   8.454   8.249 -0.1067  0.1748 -0.3129
  385loPI   C1B 6157   3.648   8.068  10.334  0.0566  0.2105 -0.1968
  385loPI   C2B 6158   3.637   8.048   9.925  0.0219  0.0654 -0.1056
  385loPI   C3B 6159   3.688   7.997   9.521  0.1968  0.0823  0.0130
  385loPI   C4B 6160   3.703   8.090   9.121  0.0708 -0.0362 -0.0824
  386loPI    C1 6161   9.974   0.596  10.473 -0.2015  0.0831 -0.1202
  386loPI    C2 6162   9.928   0.517  10.862  0.0141 -0.1201 -0.1338
  386loPI    C3 6163   9.993   0.893  10.740  0.0303 -0.0676  0.0337
  386loPI   PO4 6164   9.936   0.394  10.290  0.1371 -0.0314 -0.2128
  386loPI   GL1 6165   9.892   0.161   9.975  0.3829  0.0326  0.0850
  386loPI   GL2 6166   9.875   0.528   9.747  0.0933 -0.0782 -0.2006
  386loPI   C1A 6167   9.713  -0.154   9.605 -0.0326 -0.3062 -0.0181
  386loPI   C2A 6168   9.485  -0.516   9.414 -0.2275 -0.3264 -0.0104
  386loPI   C3A 6169   9.689  -0.906   9.273  0.1053 -0.0570  0.0344
  386loPI   C4A 6170   9.926  -1.302   8.969 -0.0614  0.0580 -0.1242
  386loPI   C5A 6171  10.154  -1.484   8.758 -0.2298  0.0842  0.1253
  386loPI   C6A 6172  10.522  -1.781   8.770  0.1488  0.1232 -0.2533
  386loPI   C1B 6173   9.619   0.592   9.316 -0.2540 -0.1770  0.0904
  386loPI   C2B 6174   9.308   0.371   9.012  0.1456 -0.3383 -0.1386
  386loPI   C3B 6175   9.349   0.026   8.601  0.0254 -0.0330 -0.1751
  386loPI   C4B 6176   9.213  -0.274   8.316  0.1520 -0.3094 -0.0901
  387loPI    C1 6177   5.370  11.320  11.400 -0.0129  0.1093  0.0698
  387loPI    C2 6178   5.663  11.457  11.165 -0.0519  0.1213  0.0280
  387loPI    C3 6179   5.731  11.394  11.554  0.0739 -0.1026 -0.0288
  387loPI   PO4 6180   5.145  11.354  11.201 -0.0386 -0.1788 -0.1136
  387loPI   GL1 6181   5.166  11.232  10.717 -0.2790 -0.2040 -0.2333
  387loPI   GL2 6182   5.313  10.961  10.713 -0.1146  0.0985  0.0611
  387loPI   C1A 6183   4.942  11.105  10.279 -0.4255  0.1038 -0.2550
  387loPI   C2A 6184   4.778  10.776  10.093  0.2166  0.1325 -0.3057
  387loPI   C3A 6185   5.042  10.449   9.823 -0.2081  0.0738 -0.1663
  387loPI   C4A 6186   5.009  10.251   9.426 -0.1129 -0.2734 -0.0982
  387loPI   C5A 6187   4.964  10.082   9.058 -0.2410 -0.1057 -0.0030
  387loPI   C6A 6188   5.117  10.223   8.640  0.0396  0.1436  0.2409
  387loPI   C1B 6189   5.420  11.176  10.262  0.2709  0.1568 -0.0750
  387loPI   C2B 6190   5.454  11.233   9.807 -0.1006  0.1973 -0.3241
  387loPI   C3B 6191   5.379  11.282   9.443 -0.0841  0.2027 -0.0020
  387loPI   C4B 6192   5.506  10.973   9.025  0.2085 -0.3924  0.1382
  388loPI    C1 6193   9.726   2.654  10.780  0.2563  0.0297  0.0451
  388loPI    C2 6194   9.597   2.481  11.117 -0.0281  0.1034 -0.0225
  388loPI    C3 6195   9.480   2.339  10.762  0.2145  0.0693 -0.0911
  388loPI   PO4 6196   9.960   2.649  10.749 -0.1255  0.0187  0.3435
  388loPI   GL1 6197   9.961   2.725  10.231  0.2418  0.0395  0.1635
  388loPI   GL2 6198  10.038   2.406  10.160  0.3241  0.0189  0.3611
  388loPI   C1A 6199   9.628   2.746   9.792  0.3897  0.0281 -0.1623
  388loPI   C2A 6200   9.715   2.837   9.379  0.0297 -0.1714  0.1528
  388loPI   C3A 6201   9.694   2.867   8.944 -0.2067 -0.1776 -0.0013
  388loPI   C4A 6202   9.594   2.799   8.483  0.1277  0.0485 -0.0014
  388loPI   C5A 6203   9.864   2.432   8.214 -0.1360  0.0779  0.2280
  388loPI   C6A 6204   9.912   2.128   7.825  0.0899  0.3911 -0.0931
  388loPI   C1B 6205   9.561   2.358  10.118 -0.0194 -0.0681 -0.0176
  388loPI   C2B 6206   9.421   2.289   9.763 -0.0995  0.2665  0.0503
  388loPI   C3B 6207   9.446   2.367   9.342 -0.3272  0.1308  0.3816
  388loPI   C4B 6208   9.459   2.435   8.880 -0.0939  0.1278  0.3409
  389loPI    C1 6209  17.662   1.041  10.587 -0.0792 -0.0387 -0.0683
  389loPI    C2 6210  17.552   1.110  10.965 -0.1231 -0.1453 -0.0611
  389loPI    C3 6211  17.404   1.336  10.670  0.1910  0.1765  0.0205
  389loPI   PO4 6212  17.672   0.856  10.360  0.1061 -0.1331  0.0033
  389loPI   GL1 6213  17.569   0.867   9.910  0.1786  0.1610 -0.0254
  389loPI   GL2 6214  17.801   1.061   9.925 -0.3193  0.0097 -0.0121
  389loPI   C1A 6215  17.589   0.917   9.432  0.1938  0.0672  0.1325
  389loPI   C2A 6216  17.593   0.733   8.975  0.1664  0.0501 -0.0418
  389loPI   C3A 6217  17.628   0.884   8.509 -0.0219  0.0645  0.0723
  389loPI   C4A 6218  17.874   1.056   8.227 -0.0362 -0.0583 -0.0145
  389loPI   C5A 6219  17.982   1.028   7.918  0.1773  0.1089  0.0001
  389loPI   C6A 6220  18.357   0.842   7.725  0.2079  0.1399  0.2640
  389loPI   C1B 6221  18.019   0.999   9.627  0.0868  0.0773 -0.0918
  389loPI   C2B 6222  18.064   0.915   9.125 -0.4865 -0.2063 -0.0365
  389loPI   C3B 6223  18.141   1.049   8.632  0.2221  0.1649  0.2250
  389loPI   C4B 6224  18.325   1.213   8.231 -0.3385 -0.1445  0.3354
  390loPI    C1 6225   6.892   3.053  11.529  0.1509  0.1093 -0.0840
  390loPI    C2 6226   6.664   3.086  11.856 -0.0510  0.2565 -0.2372
  390loPI    C3 6227   7.040   3.223  11.859 -0.0221  0.1756 -0.0395
  390loPI   PO4 6228   6.800   3.179  11.346  0.2069  0.5312 -0.3192
  390loPI   GL1 6229   6.939   3.415  10.898 -0.0213 -0.0896 -0.2942
  390loPI   GL2 6230   6.850   3.084  10.839  0.0779 -0.2947  0.1674
  390loPI   C1A 6231   6.968   3.530  10.469 -0.0524  0.0622  0.1402
  390loPI   C2A 6232   6.948   3.365  10.021 -0.1423 -0.0497 -0.0928
  390loPI   C3A 6233   6.929   3.444   9.584  0.0373  0.3900  0.1467
  390loPI   C4A 6234   6.954   3.472   9.129  0.1273 -0.0478 -0.3161
  390loPI   C5A 6235   6.955   3.420   8.701  0.0253 -0.0439 -0.0165
  390loPI   C6A 6236   6.532   3.353   8.427 -0.1581 -0.0500 -0.0822
  390loPI   C1B 6237   7.171   3.072  10.457 -0.4096  0.0875  0.0673
  390loPI   C2B 6238   7.412   2.980  10.125 -0.0308 -0.1245  0.0640
  390loPI   C3B 6239   7.323   2.984   9.620  0.1087  0.1657 -0.0936
  390loPI   C4B 6240   7.265   3.089   9.148 -0.0287 -0.1827  0.0489
  391PSPI    C1 6241   5.023  17.408   5.749  0.0825  0.0728 -0.0281
  391PSPI    C2 6242   4.823  17.434   5.403 -0.0077 -0.0940  0.0102
  391PSPI    C3 6243   5.142  17.194   5.432  0.0071 -0.0708  0.0399
  391PSPI   PO4 6244   4.911  17.351   5.952  0.2050 -0.1782 -0.0517
  391PSPI   GL1 6245   4.813  17.239   6.331  0.1331 -0.1610 -0.0945
  391PSPI   GL2 6246   4.816  17.047   6.604  0.3278  0.1775  0.2036
  391PSPI   C1A 6247   4.584  17.512   6.769  0.0491 -0.1039  0.2280
  391PSPI   C2A 6248   4.461  17.549   7.151 -0.0754 -0.1380 -0.0059
  391PSPI   C3A 6249   4.391  17.398   7.518 -0.3452 -0.0548  0.1781
  391PSPI   C4A 6250   4.613  17.465   7.861 -0.1731  0.2330  0.0657
  391PSPI   C1B 6251   4.820  16.966   6.962 -0.1516  0.1701 -0.1143
  391PSPI   C2B 6252   4.973  16.770   7.334  0.1989  0.0957  0.1851
  391PSPI   C3B 6253   4.839  16.962   7.721 -0.2601 -0.1151  0.0816
  391PSPI   C4B 6254   4.877  17.191   8.136 -0.2834  0.1296 -0.0000
  392PSPI    C1 6255   4.307  11.894   6.611  0.0663 -0.0438  0.1605
  392PSPI    C2 6256   4.674  12.007   6.497 -0.0504  0.0791 -0.1032
  392PSPI    C3 6257   4.382  11.973   6.226 -0.2101 -0.1181  0.0893
  392PSPI   PO4 6258   4.322  11.630   6.808  0.0219  0.0187 -0.1612
  392PSPI   GL1 6259   4.453  11.566   7.127  0.1505 -0.2367  0.1826
  392PSPI   GL2 6260   4.788  11.535   7.109  0.0099 -0.0000 -0.1324
  392PSPI   C1A 6261   4.285  11.567   7.515 -0.1431 -0.0823  0.0793
  392PSPI   C2A 6262   4.319  11.440   7.876 -0.3265  0.0271  0.1740
  392PSPI   C3A 6263   4.503  11.399   8.245  0.2013  0.1901  0.0525
  392PSPI   C4A 6264   4.852  11.277   8.428  0.0112 -0.1096 -0.0281
  392PSPI   C1B 6265   4.835  11.319   7.465 -0.2056 -0.0569  0.3599
  392PSPI   C2B 6266   4.780  11.045   7.943 -0.1040  0.0621  0.2092
  392PSPI   C3B 6267   4.765  10.745   8.356 -0.0180 -0.4219 -0.2625
  392PSPI   C4B 6268   4.464  10.576   8.717 -0.1128  0.2874  0.1293
  393PSPI    C1 6269   3.659   0.459   6.013 -0.2922  0.1352  0.0440
  393PSPI    C2 6270   3.391   0.645   5.780 -0.0505  0.0862 -0.2806
  393PSPI    C3 6271   3.783   0.692   5.712  0.0192 -0.1995 -0.0942
  393PSPI   PO4 6272   3.495   0.199   6.106 -0.0832  0.0639 -0.2019
  393PSPI   GL1 6273   3.355   0.017   6.446  0.2137 -0.0202  0.1129
  393PSPI   GL2 6274   3.713  -0.058   6.584 -0.0730 -0.4451  0.1864
  393PSPI   C1A 6275   3.122  -0.211   6.676 -0.1754  0.1379 -0.2350
  393PSPI   C2A 6276   3.051  -0.565   6.880 -0.0143 -0.0747  0.0761
  393PSPI   C3A 6277   2.893  -0.873   7.154 -0.0662  0.1145  0.2989
  393PSPI   C4A 6278   2.818  -0.928   7.512  0.2474  0.3185  0.0022
  393PSPI   C1B 6279   3.699  -0.042   6.942 -0.0067 -0.0216 -0.0057
  393PSPI   C2B 6280   4.141  -0.052   7.121  0.1546  0.2659  0.2846
  393PSPI   C3B 6281   4.157   0.013   7.518  0.0002 -0.0429  0.2115
  393PSPI   C4B 6282   3.997   0.224   7.722 -0.2381  0.0840 -0.0339
  394PSPI    C1 6283   9.933   6.499   6.874  0.0550 -0.2829 -0.0659
  394PSPI    C2 6284   9.868   6.415   6.488  0.0249  0.0277 -0.1317
  394PSPI    C3 6285  10.206   6.600   6.598  0.1456 -0.2781  0.0248
  394PSPI   PO4 6286   9.881   6.274   6.947  0.1400 -0.1033 -0.3892
  394PSPI   GL1 6287   9.820   6.169   7.382  0.0193  0.0095 -0.3437
  394PSPI   GL2 6288  10.127   5.993   7.318  0.0246 -0.2072 -0.0011
  394PSPI   C1A 6289   9.907   6.212   7.766 -0.2243  0.4114 -0.0174
  394PSPI   C2A 6290  10.085   6.212   8.149  0.3498 -0.0210  0.0265
  394PSPI   C3A 6291  10.221   6.127   8.544 -0.0491  0.0875  0.1841
  394PSPI   C4A 6292  10.469   6.054   8.978  0.0864 -0.0757 -0.1019
  394PSPI   C1B 6293  10.045   5.680   7.460  0.0583  0.2200 -0.1368
  394PSPI   C2B 6294   9.975   5.552   7.904  0.1339  0.1249  0.3924
  394PSPI   C3B 6295   9.681   5.778   8.166 -0.0459  0.1719  0.0557
  394PSPI   C4B 6296   9.549   6.229   8.162 -0.0401  0.0497 -0.2802
  395PSPI    C1 6297   3.995   0.001   6.218  0.2860  0.1883 -0.2015
  395PSPI    C2 6298   4.297  -0.252   6.286  0.0879  0.0009 -0.0044
  395PSPI    C3 6299   4.050  -0.314   5.978  0.1061  0.0178 -0.0224
  395PSPI   PO4 6300   4.141   0.294   6.432  0.1747 -0.0758  0.2055
  395PSPI   GL1 6301   4.058   0.484   6.836 -0.1168  0.0480 -0.2754
  395PSPI   GL2 6302   3.694   0.511   6.977  0.0902 -0.1699  0.0574
  395PSPI   C1A 6303   4.267   0.449   7.210  0.1723 -0.1964  0.1523
  395PSPI   C2A 6304   4.227   0.615   7.646 -0.0456 -0.2575 -0.1220
  395PSPI   C3A 6305   3.856   0.612   8.024 -0.3120  0.0901 -0.0249
  395PSPI   C4A 6306   3.667   0.314   8.162 -0.1711  0.1546 -0.2005
  395PSPI   C1B 6307   3.737   0.345   7.315  0.1895  0.2179  0.2109
  395PSPI   C2B 6308   3.480   0.433   7.694 -0.3185  0.3268 -0.5359
  395PSPI   C3B 6309   3.262   0.633   7.897 -0.3265  0.3247  0.0081
  395PSPI   C4B 6310   3.000   0.774   8.056  0.0622  0.3148 -0.1685
  396PSPI    C1 6311   4.846   5.841   6.472  0.2593 -0.1630 -0.0030
  396PSPI    C2 6312   4.698   6.176   6.313 -0.0370 -0.0404  0.5081
  396PSPI    C3 6313   5.092   6.138   6.366  0.0402  0.0349  0.0334
  396PSPI   PO4 6314   4.604   5.766   6.615 -0.1167 -0.0285  0.0309
  396PSPI   GL1 6315   4.306   6.005   6.842 -0.1249 -0.1611  0.0940
  396PSPI   GL2 6316   4.163   5.721   6.956  0.0676  0.0098  0.1395
  396PSPI   C1A 6317   4.560   6.162   7.196 -0.0362  0.2629 -0.2133
  396PSPI   C2A 6318   4.494   6.305   7.510 -0.1966  0.1178 -0.0169
  396PSPI   C3A 6319   4.672   6.307   7.834 -0.1534  0.0254 -0.0712
  396PSPI   C4A 6320   4.861   6.328   8.231 -0.1607 -0.0526 -0.1122
  396PSPI   C1B 6321   4.066   5.982   7.385  0.1208  0.0447 -0.1727
  396PSPI   C2B 6322   4.113   6.090   7.788 -0.0954  0.0663 -0.0965
  396PSPI   C3B 6323   4.251   6.094   8.209 -0.0117 -0.0507 -0.0968
  396PSPI   C4B 6324   4.442   6.129   8.651 -0.0861 -0.1087 -0.1051
  397PSPI    C1 6325   5.653   4.834   6.237 -0.1637 -0.1723  0.0054
  397PSPI    C2 6326   6.013   5.008   6.216 -0.1415 -0.2199 -0.0111
  397PSPI    C3 6327   5.925   4.701   5.975 -0.1954 -0.2043 -0.0113
  397PSPI   PO4 6328   5.533   4.799   6.543 -0.0002 -0.3868  0.1501
  397PSPI   GL1 6329   5.696   4.569   6.939  0.0379  0.0726 -0.0052
  397PSPI   GL2 6330   5.939   4.653   7.191 -0.2793 -0.0376  0.0755
  397PSPI   C1A 6331   5.406   4.380   7.206 -0.1708  0.0642 -0.1688
  397PSPI   C2A 6332   5.290   4.190   7.554  0.1278 -0.0737  0.2368
  397PSPI   C3A 6333   5.360   4.013   7.979 -0.0893  0.0120 -0.1527
  397PSPI   C4A 6334   5.316   3.666   8.193  0.1543  0.0601  0.4029
  397PSPI   C1B 6335   5.534   4.855   7.282 -0.1064 -0.1908 -0.1873
  397PSPI   C2B 6336   5.515   4.948   7.758  0.3087 -0.3060 -0.0412
  397PSPI   C3B 6337   5.610   4.906   8.241 -0.0766 -0.1388  0.4535
  397PSPI   C4B 6338   5.389   5.035   8.562 -0.2832 -0.4659  0.2621
  398PSPI    C1 6339   4.894  14.863   6.229 -0.1742  0.0311 -0.2938
  398PSPI    C2 6340   4.749  14.491   6.249 -0.0692 -0.0014 -0.1200
  398PSPI    C3 6341   5.129  14.563   6.351 -0.0967  0.1576 -0.1285
  398PSPI   PO4 6342   4.616  14.958   6.442  0.3803 -0.0491  0.4662
  398PSPI   GL1 6343   4.529  15.165   6.879  0.1004  0.1295  0.1610
  398PSPI   GL2 6344   4.211  15.070   6.731  0.4009  0.0035  0.0786
  398PSPI   C1A 6345   4.531  15.271   7.334  0.4352  0.2330 -0.1604
  398PSPI   C2A 6346   4.434  15.416   7.767  0.0468 -0.2279  0.1531
  398PSPI   C3A 6347   4.268  15.443   8.149  0.2568 -0.3879 -0.0598
  398PSPI   C4A 6348   4.123  15.167   8.442  0.1187  0.4127  0.0413
  398PSPI   C1B 6349   4.068  14.923   7.082 -0.1196 -0.3906  0.2413
  398PSPI   C2B 6350   4.157  15.004   7.533  0.1070 -0.1363 -0.2649
  398PSPI   C3B 6351   4.524  14.886   7.795 -0.2457 -0.1208 -0.0616
  398PSPI   C4B 6352   4.676  14.949   8.263 -0.0058 -0.1260 -0.1906
  399PSPI    C1 6353   6.393   6.332   6.299  0.2359 -0.1439 -0.1030
  399PSPI    C2 6354   6.425   6.692   6.128  0.1565 -0.1348 -0.0991
  399PSPI    C3 6355   6.454   6.362   5.905  0.2096 -0.1257 -0.1058
  399PSPI   PO4 6356   6.330   6.407   6.586 -0.0127  0.2666 -0.0306
  399PSPI   GL1 6357   6.308   6.197   6.963  0.0380  0.1726 -0.2050
  399PSPI   GL2 6358   6.014   6.042   7.133 -0.0956 -0.4158 -0.1652
  399PSPI   C1A 6359   6.544   6.058   7.391 -0.1450  0.0367  0.0521
  399PSPI   C2A 6360   6.486   5.871   7.767  0.2094  0.0153 -0.0247
  399PSPI   C3A 6361   6.375   6.051   8.082  0.2258  0.0293  0.2639
  399PSPI   C4A 6362   6.006   5.939   8.396 -0.1042  0.0531  0.1234
  399PSPI   C1B 6363   5.979   5.906   7.593 -0.1316 -0.3308 -0.4095
  399PSPI   C2B 6364   6.104   5.662   7.970 -0.1682  0.1606  0.0731
  399PSPI   C3B 6365   6.078   5.149   8.153 -0.1093 -0.1202  0.3191
  399PSPI   C4B 6366   6.261   4.923   8.451  0.0810 -0.1001  0.2894
  400PSPI    C1 6367   6.777   4.342   5.987 -0.1616  0.1577  0.0401
  400PSPI    C2 6368   7.120   4.399   5.789 -0.1134  0.0279  0.0847
  400PSPI    C3 6369   6.873   4.707   5.856 -0.0793  0.0928 -0.0829
  400PSPI   PO4 6370   6.950   4.069   6.208  0.0207  0.1379 -0.2106
  400PSPI   GL1 6371   6.944   3.912   6.636 -0.2498 -0.0105 -0.2370
  400PSPI   GL2 6372   7.129   3.810   6.765 -0.0501  0.3687 -0.1725
  400PSPI   C1A 6373   6.803   4.146   7.040  0.4006 -0.0380  0.0413
  400PSPI   C2A 6374   6.666   4.421   7.435 -0.0788 -0.1469 -0.0951
  400PSPI   C3A 6375   6.672   4.272   7.875 -0.1966  0.1636  0.0150
  400PSPI   C4A 6376   6.620   4.139   8.327  0.0616  0.0223 -0.2820
  400PSPI   C1B 6377   7.295   3.965   7.101 -0.2697  0.3372  0.0581
  400PSPI   C2B 6378   7.507   4.010   7.552  0.1726 -0.1699 -0.1863
  400PSPI   C3B 6379   7.783   3.752   7.831 -0.5382 -0.1746 -0.2179
  400PSPI   C4B 6380   7.908   3.836   8.128 -0.0053  0.1726 -0.1525
  401PSPI    C1 6381   0.798   6.302   6.106  0.2842 -0.1135 -0.0970
  401PSPI    C2 6382   0.911   5.928   6.020  0.0851 -0.2207  0.0982
  401PSPI    C3 6383   0.541   6.050   5.931  0.1602 -0.0585  0.0042
  401PSPI   PO4 6384   0.907   6.329   6.438 -0.0036 -0.1699 -0.2645
  401PSPI   GL1 6385   1.116   6.599   6.797 -0.0770  0.3355  0.2317
  401PSPI   GL2 6386   1.330   6.637   6.921  0.0364  0.3520  0.2314
  401PSPI   C1A 6387   0.892   6.562   7.147  0.1136  0.2457 -0.1669
  401PSPI   C2A 6388   0.755   6.259   7.434 -0.0433  0.0353 -0.0064
  401PSPI   C3A 6389   0.822   5.876   7.556 -0.0656 -0.0576  0.1271
  401PSPI   C4A 6390   0.792   5.636   8.028  0.0402  0.1478 -0.0733
  401PSPI   C1B 6391   1.378   6.675   7.304  0.1870  0.0682  0.2359
  401PSPI   C2B 6392   1.516   6.675   7.671  0.0716 -0.0988 -0.0219
  401PSPI   C3B 6393   1.709   6.795   8.033 -0.1782  0.3843 -0.3621
  401PSPI   C4B 6394   1.815   7.122   8.201  0.3974  0.1585  0.0133
  402POPI    C1 6395   6.678  14.434   6.246  0.0839  0.0876 -0.1807
  402POPI    C2 6396   7.047  14.565   6.162  0.1208  0.1212  0.0283
  402POPI    C3 6397   6.733  14.712   5.963  0.2243  0.0485 -0.1929
  402POPI   PO4 6398   6.629  14.549   6.524 -0.4355  0.3027  0.3087
  402POPI   GL1 6399   6.733  14.642   6.986 -0.0504 -0.2243 -0.2342
  402POPI   GL2 6400   6.556  14.418   7.191  0.1750 -0.1894  0.0186
  402POPI   C1A 6401   6.978  14.757   7.464 -0.3625  0.2763 -0.1570
  402POPI   D2A 6402   6.875  14.992   7.831 -0.0442  0.0956 -0.2364
  402POPI   C3A 6403   6.956  14.815   8.228 -0.1259  0.1053  0.0786
  402POPI   C4A 6404   7.197  14.720   8.441  0.0392 -0.1582 -0.0247
  402POPI   C1B 6405   6.555  14.616   7.650  0.0411 -0.1599  0.1864
  402POPI   C2B 6406   6.504  14.769   8.135  0.2994 -0.2794 -0.1270
  402POPI   C3B 6407   6.556  14.829   8.553 -0.2221  0.1849  0.0679
  402POPI   C4B 6408   6.883  15.071   8.735  0.0350  0.0801  0.0297
  403POPI    C1 6409  11.194   4.701   6.333  0.1596  0.0773 -0.1369
  403POPI    C2 6410  11.279   5.090   6.370  0.1213  0.0817 -0.0943
  403POPI    C3 6411  11.529   4.848   6.172  0.1495  0.1261 -0.1130
  403POPI   PO4 6412  11.016   4.683   6.505 -0.1970 -0.1717  0.3001
  403POPI   GL1 6413  10.769   4.352   6.608 -0.0368  0.0858 -0.0387
  403POPI   GL2 6414  10.603   4.396   6.454 -0.3766 -0.1738  0.0043
  403POPI   C1A 6415  10.726   4.303   7.060 -0.2068 -0.2065  0.0410
  403POPI   D2A 6416  10.438   4.518   7.432 -0.2911 -0.3083 -0.2712
  403POPI   C3A 6417  10.346   4.228   7.863 -0.2341 -0.0315  0.0750
  403POPI   C4A 6418  10.041   4.084   8.180  0.0686  0.0102  0.4989
  403POPI   C1B 6419  10.414   4.041   6.744 -0.1077  0.3471  0.2337
  403POPI   C2B 6420  10.308   3.628   6.895 -0.2321  0.0431  0.0238
  403POPI   C3B 6421  10.409   3.262   7.085  0.2352  0.0787 -0.4030
  403POPI   C4B 6422  10.553   2.846   7.201  0.0332 -0.1210 -0.1727
  404POPI    C1 6423   5.730   2.640   6.250 -0.0914  0.0287  0.0885
  404POPI    C2 6424   5.459   2.708   6.536  0.0189  0.3357  0.1247
  404POPI    C3 6425   5.471   2.942   6.212  0.0993  0.1858  0.0179
  404POPI   PO4 6426   5.995   2.586   6.540  0.2992  0.1446  0.2081
  404POPI   GL1 6427   6.109   2.534   7.065 -0.0961 -0.3427 -0.2782
  404POPI   GL2 6428   6.186   2.250   7.059  0.4119  0.1778 -0.3707
  404POPI   C1A 6429   6.105   2.409   7.552  0.0004  0.2210 -0.0644
  404POPI   D2A 6430   6.088   2.183   7.820 -0.0137  0.1737  0.1472
  404POPI   C3A 6431   5.808   2.376   8.191  0.0906 -0.1563  0.1108
  404POPI   C4A 6432   5.488   2.452   8.419  0.2458 -0.2187 -0.0549
  404POPI   C1B 6433   6.137   1.987   7.317  0.1588  0.0786  0.0950
  404POPI   C2B 6434   5.922   1.744   7.388 -0.3872 -0.2226 -0.0917
  404POPI   C3B 6435   5.811   1.530   7.783 -0.2634  0.0531 -0.0114
  404POPI   C4B 6436   5.790   1.058   7.952  0.0737  0.2146  0.0312
  405POPI    C1 6437   1.879  14.055   6.007  0.0630  0.0367  0.1961
  405POPI    C2 6438   1.678  14.386   6.104  0.0038 -0.0246  0.2843
  405POPI    C3 6439   1.628  14.220   5.744  0.0554  0.0782  0.2292
  405POPI   PO4 6440   1.900  13.800   6.207 -0.0242  0.0163 -0.1516
  405POPI   GL1 6441   1.889  13.787   6.681 -0.0307  0.0322 -0.1319
  405POPI   GL2 6442   2.185  13.905   6.823  0.3127  0.2162  0.0511
  405POPI   C1A 6443   1.580  13.939   6.978  0.1972  0.0089 -0.4763
  405POPI   D2A 6444   1.483  13.837   7.310 -0.2156  0.1120 -0.1523
  405POPI   C3A 6445   1.142  13.689   7.568 -0.3664  0.0082 -0.2436
  405POPI   C4A 6446   1.083  13.365   7.800 -0.2552 -0.0859 -0.1289
  405POPI   C1B 6447   2.350  13.927   7.408  0.3713 -0.1732  0.4949
  405POPI   C2B 6448   2.509  14.056   7.890 -0.1131  0.0798 -0.0082
  405POPI   C3B 6449   2.628  14.170   8.258 -0.3695 -0.1195  0.1199
  405POPI   C4B 6450   3.035  14.204   8.510  0.2369 -0.0729 -0.2864
  406POPI    C1 6451   1.975   4.119   6.356 -0.0925  0.1119  0.0726
  406POPI    C2 6452   2.229   4.281   6.619 -0.0826  0.0637  0.0929
  406POPI    C3 6453   2.046   4.512   6.348  0.0015  0.0948  0.0625
  406POPI   PO4 6454   1.846   3.965   6.495 -0.1481 -0.0722  0.0026
  406POPI   GL1 6455   1.835   3.765   6.929 -0.0108 -0.3562 -0.1608
  406POPI   GL2 6456   2.051   3.943   6.971  0.3115 -0.0618  0.3853
  406POPI   C1A 6457   1.670   3.482   7.202  0.0138 -0.1857 -0.1532
  406POPI   D2A 6458   1.501   3.317   7.484 -0.1077  0.1995  0.2062
  406POPI   C3A 6459   1.412   3.518   7.911  0.0177  0.2527  0.0407
  406POPI   C4A 6460   1.410   3.876   8.229  0.0656 -0.1840  0.3997
  406POPI   C1B 6461   2.004   3.798   7.434  0.1979  0.0499  0.0016
  406POPI   C2B 6462   1.964   3.534   7.740 -0.0458 -0.0540  0.0341
  406POPI   C3B 6463   1.835   3.190   8.004  0.6110  0.0197 -0.0865
  406POPI   C4B 6464   1.674   2.808   8.190  0.3783 -0.0008 -0.1183
  407POPI    C1 6465   4.872  15.587   6.676  0.0456 -0.3441  0.1351
  407POPI    C2 6466   4.905  15.365   6.344  0.0798  0.0310 -0.1183
  407POPI    C3 6467   4.545  15.486   6.470  0.0380 -0.3615  0.1557
  407POPI   PO4 6468   5.009  15.395   6.851  0.2101 -0.4096  0.2156
  407POPI   GL1 6469   5.108  15.362   7.277 -0.0370  0.1458 -0.1029
  407POPI   GL2 6470   5.393  15.369   7.227 -0.1974 -0.0187  0.0007
  407POPI   C1A 6471   4.906  15.256   7.705 -0.1370 -0.0731  0.0517
  407POPI   D2A 6472   5.001  14.881   7.830  0.2951  0.2312 -0.2486
  407POPI   C3A 6473   4.860  14.474   8.053  0.3126  0.0578 -0.0232
  407POPI   C4A 6474   4.618  14.094   8.110  0.1744  0.0212 -0.1639
  407POPI   C1B 6475   5.457  15.483   7.775  0.2719  0.0164  0.0997
  407POPI   C2B 6476   5.509  15.497   8.144 -0.1951 -0.1264 -0.1856
  407POPI   C3B 6477   5.620  15.409   8.572 -0.1744  0.0324  0.0266
  407POPI   C4B 6478   5.377  15.528   8.771 -0.0910  0.2043 -0.0932
  408POPI    C1 6479  17.625  17.414   6.015 -0.1383 -0.1170  0.0225
  408POPI    C2 6480  17.585  17.321   5.628  0.0630 -0.2246  0.0266
  408POPI    C3 6481  17.264  17.426   5.842 -0.0079  0.1253 -0.2417
  408POPI   PO4 6482  17.791  17.236   6.189 -0.0890 -0.0129  0.1588
  408POPI   GL1 6483  17.846  17.275   6.568 -0.2771  0.0356  0.1842
  408POPI   GL2 6484  18.083  17.110   6.765 -0.2835 -0.2540  0.3182
  408POPI   C1A 6485  18.000  17.704   6.725  0.1017  0.3841 -0.0752
  408POPI   D2A 6486  18.272  17.649   7.078  0.0283 -0.0363 -0.0584
  408POPI   C3A 6487  18.615  17.884   7.376 -0.0188  0.0788  0.0802
  408POPI   C4A 6488  18.983  17.925   7.665  0.0706 -0.1866  0.4434
  408POPI   C1B 6489  18.209  17.158   7.156 -0.3222 -0.0452 -0.3181
  408POPI   C2B 6490  18.316  17.228   7.588 -0.0219 -0.0542  0.0694
  408POPI   C3B 6491  18.405  17.421   7.994  0.1057 -0.0263 -0.1741
  408POPI   C4B 6492  18.585  17.778   8.096 -0.1737  0.0229 -0.1072
  409POPI    C1 6493   7.001  16.077   5.959  0.0856  0.2258 -0.0615
  409POPI    C2 6494   6.701  16.286   5.796 -0.0217  0.0654 -0.0728
  409POPI    C3 6495   6.952  16.080   5.562  0.1671  0.2896 -0.0711
  409POPI   PO4 6496   6.875  16.097   6.273  0.1171  0.3933  0.0114
  409POPI   GL1 6497   6.610  15.954   6.581 -0.1144  0.2244  0.0829
  409POPI   GL2 6498   6.591  16.159   6.860 -0.2729  0.0792 -0.2815
  409POPI   C1A 6499   6.712  15.642   6.908 -0.3279 -0.1694  0.1759
  409POPI   D2A 6500   6.722  15.619   7.347  0.0087 -0.1099  0.2630
  409POPI   C3A 6501   6.760  15.967   7.565  0.3087 -0.3202 -0.1304
  409POPI   C4A 6502   6.717  16.307   7.846 -0.0579 -0.2920  0.0177
  409POPI   C1B 6503   6.392  16.024   7.273 -0.0217 -0.2677  0.2150
  409POPI   C2B 6504   6.279  16.000   7.614  0.1617  0.4153 -0.2733
  409POPI   C3B 6505   6.212  16.193   7.931 -0.1682 -0.2046  0.4699
  409POPI   C4B 6506   6.215  16.118   8.369  0.1594  0.3664  0.2273
  410POPI    C1 6507   5.678  14.633   6.568  0.1686  0.0135 -0.1619
  410POPI    C2 6508   5.602  14.476   6.208 -0.0006  0.1607 -0.1917
  410POPI    C3 6509   5.734  14.853   6.239  0.1793  0.0920 -0.1079
  410POPI   PO4 6510   5.472  14.616   6.753  0.0893  0.0135 -0.0621
  410POPI   GL1 6511   5.595  14.777   7.160 -0.2528 -0.1089  0.0990
  410POPI   GL2 6512   5.929  15.016   6.933 -0.0893  0.1159 -0.4591
  410POPI   C1A 6513   5.446  14.975   7.554  0.0121  0.0522 -0.1421
  410POPI   D2A 6514   5.540  15.050   7.985  0.2769  0.0037 -0.1586
  410POPI   C3A 6515   5.670  14.959   8.336 -0.4760  0.0376  0.3463
  410POPI   C4A 6516   5.523  14.925   8.674  0.0861 -0.0152 -0.0687
  410POPI   C1B 6517   5.846  15.239   7.357 -0.2479 -0.1486  0.1023
  410POPI   C2B 6518   5.885  15.231   7.685 -0.0276 -0.1464 -0.4196
  410POPI   C3B 6519   6.019  15.273   8.007  0.0226  0.0742 -0.0175
  410POPI   C4B 6520   6.162  15.104   8.433 -0.1397 -0.3043  0.1064
  411POPI    C1 6521   7.770  15.843   6.359  0.2366  0.0130  0.0550
  411POPI    C2 6522   7.955  15.863   6.005  0.1427  0.3347  0.0206
  411POPI    C3 6523   7.567  15.955   6.033  0.1298  0.2317  0.1939
  411POPI   PO4 6524   7.869  15.685   6.440 -0.2035  0.0667 -0.0382
  411POPI   GL1 6525   7.804  15.437   6.785 -0.0736  0.0300  0.0067
  411POPI   GL2 6526   7.714  15.175   6.880 -0.1809 -0.0235  0.0994
  411POPI   C1A 6527   8.097  15.568   7.083 -0.2813  0.1764 -0.0373
  411POPI   D2A 6528   8.311  15.668   7.432 -0.3276  0.0550 -0.1440
  411POPI   C3A 6529   8.227  15.852   7.879  0.0245 -0.0173 -0.1546
  411POPI   C4A 6530   8.491  15.574   8.232  0.3655  0.0850  0.2448
  411POPI   C1B 6531   7.582  15.395   7.349  0.0114  0.2785 -0.1963
  411POPI   C2B 6532   7.806  15.610   7.729 -0.0275  0.2472  0.2214
  411POPI   C3B 6533   7.680  15.967   7.872 -0.2142 -0.0754  0.1122
  411POPI   C4B 6534   7.873  16.094   8.227  0.0498  0.1206  0.0089
  412POPI    C1 6535   0.994   3.701   6.328  0.1332  0.1786  0.2679
  412POPI    C2 6536   1.278   3.955   6.203  0.1728  0.1289  0.2568
  412POPI    C3 6537   1.258   3.586   6.050 -0.1776  0.2805 -0.0766
  412POPI   PO4 6538   0.861   3.874   6.543  0.3503  0.1274  0.2990
  412POPI   GL1 6539   0.916   4.142   6.970  0.0978 -0.0891 -0.1457
  412POPI   GL2 6540   0.807   3.759   7.026  0.3146 -0.2708  0.0230
  412POPI   C1A 6541   1.027   4.154   7.413  0.1082 -0.0860  0.1118
  412POPI   D2A 6542   1.250   4.296   7.924 -0.0575  0.1841  0.3104
  412POPI   C3A 6543   0.961   4.620   8.135 -0.1940  0.0638  0.0162
  412POPI   C4A 6544   0.973   5.088   8.057  0.0372  0.0850  0.0192
  412POPI   C1B 6545   0.530   3.901   7.419 -0.0877  0.0676  0.2170
  412POPI   C2B 6546   0.421   3.818   7.801 -0.3270 -0.2164  0.4470
  412POPI   C3B 6547   0.584   3.720   8.087  0.0284 -0.0209  0.1123
  412POPI   C4B 6548   0.768   3.545   8.431 -0.1297  0.0962 -0.0611
  413POPI    C1 6549   8.748   8.076   6.674  0.0889 -0.1365  0.0034
  413POPI    C2 6550   8.961   8.310   6.918  0.0359 -0.0601 -0.0231
  413POPI    C3 6551   9.091   8.237   6.546  0.0377 -0.0495 -0.0245
  413POPI   PO4 6552   8.691   7.860   6.812  0.1382 -0.3617 -0.2400
  413POPI   GL1 6553   8.880   7.806   7.225 -0.0336 -0.0101  0.1143
  413POPI   GL2 6554   8.689   8.059   7.272 -0.1962  0.1420 -0.0641
  413POPI   C1A 6555   8.878   7.656   7.665 -0.1376 -0.1410 -0.0719
  413POPI   D2A 6556   8.855   7.720   8.109 -0.0677  0.1365  0.1158
  413POPI   C3A 6557   9.057   7.498   8.312 -0.0974  0.0206 -0.0570
  413POPI   C4A 6558   8.978   7.146   8.544  0.3462 -0.3637 -0.1826
  413POPI   C1B 6559   8.593   8.093   7.626  0.0368  0.1190 -0.2479
  413POPI   C2B 6560   8.428   7.996   8.067 -0.3381 -0.2800  0.0503
  413POPI   C3B 6561   8.276   7.690   8.371  0.2212 -0.1709  0.1439
  413POPI   C4B 6562   8.102   7.356   8.630  0.0597  0.1441 -0.1926
  414POPI    C1 6563   7.564   4.411   6.103  0.0314 -0.1371 -0.0231
  414POPI    C2 6564   7.945   4.534   6.086 -0.0355  0.0605 -0.1228
  414POPI    C3 6565   7.861   4.152   6.169  0.1839  0.0185 -0.0902
  414POPI   PO4 6566   7.413   4.536   6.229  0.0470  0.2336 -0.3066
  414POPI   GL1 6567   7.364   4.645   6.700 -0.1272 -0.2998  0.0844
  414POPI   GL2 6568   7.344   4.306   6.706 -0.1368  0.0471  0.2224
  414POPI   C1A 6569   7.380   4.949   7.025  0.1241 -0.0454  0.1610
  414POPI   D2A 6570   7.538   4.849   7.379 -0.0304  0.2015 -0.0493
  414POPI   C3A 6571   7.732   5.175   7.603  0.0064 -0.1388 -0.0183
  414POPI   C4A 6572   7.820   5.288   8.060 -0.0350 -0.1494  0.0610
  414POPI   C1B 6573   7.163   4.466   7.110 -0.0755  0.0669 -0.0978
  414POPI   C2B 6574   7.132   4.354   7.511 -0.0069  0.1367  0.2282
  414POPI   C3B 6575   7.431   4.492   7.787 -0.2952 -0.0330  0.0645
  414POPI   C4B 6576   7.622   4.204   8.041  0.1174  0.1410 -0.2834
  415POPI    C1 6577  10.710   6.913   7.237 -0.1361 -0.0219  0.1456
  415POPI    C2 6578  10.786   6.815   6.857  0.0888  0.1053  0.1557
  415POPI    C3 6579  11.087   6.854   7.117 -0.0451  0.2464  0.2914
  415POPI   PO4 6580  10.540   6.730   7.274 -0.0557  0.4459 -0.1214
  415POPI   GL1 6581  10.449   6.499   7.461 -0.2238  0.0179  0.0906
  415POPI   GL2 6582  10.545   6.182   7.635 -0.1490  0.2619 -0.1616
  415POPI   C1A 6583  10.349   6.561   7.944 -0.0363 -0.1760  0.0188
  415POPI   D2A 6584  10.446   6.550   8.381 -0.1192  0.0430 -0.2975
  415POPI   C3A 6585  10.895   6.708   8.434 -0.0382 -0.1251  0.2516
  415POPI   C4A 6586  11.361   6.846   8.252 -0.2971  0.1124 -0.3291
  415POPI   C1B 6587  10.320   5.879   7.819 -0.0986 -0.1674  0.0495
  415POPI   C2B 6588  10.341   5.646   8.221 -0.0361 -0.0721  0.2952
  415POPI   C3B 6589  10.681   5.747   8.596  0.0858  0.0832  0.4202
  415POPI   C4B 6590  10.804   6.208   8.673  0.1823 -0.0475  0.1506
  416POPI    C1 6591   6.030   7.493   6.539 -0.2202 -0.0659  0.2124
  416POPI    C2 6592   6.022   7.531   6.141 -0.1821  0.0184  0.2193
  416POPI    C3 6593   6.213   7.803   6.364 -0.0755 -0.1092  0.2851
  416POPI   PO4 6594   5.900   7.298   6.598 -0.0609  0.2169  0.2520
  416POPI   GL1 6595   5.873   7.114   6.971  0.2099 -0.1891  0.2949
  416POPI   GL2 6596   5.715   7.391   7.101 -0.2656 -0.1744  0.1241
  416POPI   C1A 6597   5.844   6.990   7.420  0.2681  0.1420 -0.0314
  416POPI   D2A 6598   5.657   6.737   7.709  0.1660  0.1544 -0.0060
  416POPI   C3A 6599   5.538   6.828   8.204  0.1808 -0.0666 -0.2446
  416POPI   C4A 6600   5.478   6.841   8.588 -0.2228 -0.5300 -0.2123
  416POPI   C1B 6601   5.392   7.274   7.345 -0.2220 -0.1857  0.0281
  416POPI   C2B 6602   5.233   7.520   7.592 -0.1741 -0.0510 -0.2035
  416POPI   C3B 6603   5.127   7.713   7.911  0.1716 -0.1231  0.0519
  416POPI   C4B 6604   4.911   7.671   8.253  0.1743 -0.0702 -0.0145
  417POPI    C1 6605   7.526  14.350   6.208  0.2083  0.0191 -0.0564
  417POPI    C2 6606   7.530  14.013   5.992 -0.3778 -0.0252 -0.0146
  417POPI    C3 6607   7.616  14.363   5.819 -0.0303 -0.1581 -0.1198
  417POPI   PO4 6608   7.597  14.228   6.459 -0.1917 -0.0135  0.0705
  417POPI   GL1 6609   7.509  14.159   6.892 -0.1618  0.1033  0.1346
  417POPI   GL2 6610   7.582  14.502   7.028  0.0459  0.0924  0.2143
  417POPI   C1A 6611   7.586  13.932   7.236  0.0125  0.3695  0.0758
  417POPI   D2A 6612   7.854  13.992   7.567 -0.0282  0.0336 -0.4223
  417POPI   C3A 6613   7.896  13.685   7.883  0.0188 -0.2244  0.0356
  417POPI   C4A 6614   7.918  13.596   8.352 -0.0002  0.2565 -0.4325
  417POPI   C1B 6615   7.602  14.435   7.512 -0.2375  0.0085  0.0651
  417POPI   C2B 6616   7.736  14.398   7.827  0.0408 -0.1541  0.0663
  417POPI   C3B 6617   7.663  14.596   8.225  0.1990 -0.0180 -0.0226
  417POPI   C4B 6618   7.698  14.885   8.533 -0.1393  0.3543  0.0543
  418POPI    C1 6619   0.291   7.342   6.527 -0.0377 -0.0068  0.0264
  418POPI    C2 6620   0.229   7.166   6.173  0.1024 -0.1648  0.0792
  418POPI    C3 6621   0.281   7.562   6.194  0.1289 -0.1595 -0.0808
  418POPI   PO4 6622   0.384   7.202   6.678  0.0095 -0.3284 -0.1254
  418POPI   GL1 6623   0.456   7.205   7.110 -0.2569 -0.0360  0.1212
  418POPI   GL2 6624   0.773   7.079   7.103  0.1788  0.0431  0.0691
  418POPI   C1A 6625   0.580   7.301   7.573 -0.1354  0.1925  0.3122
  418POPI   D2A 6626   0.750   7.024   7.888  0.1322  0.0181 -0.1250
  418POPI   C3A 6627   0.718   7.097   8.332  0.0428 -0.4104 -0.1226
  418POPI   C4A 6628   0.745   7.076   8.772  0.0606  0.0577  0.0503
  418POPI   C1B 6629   0.985   6.996   7.464 -0.0018  0.2307  0.0706
  418POPI   C2B 6630   1.051   6.659   7.747  0.0389 -0.1326 -0.0843
  418POPI   C3B 6631   0.895   6.451   8.032  0.2115  0.1024  0.0562
  418POPI   C4B 6632   0.629   6.119   7.979  0.2648 -0.3827 -0.0426
  419POPI    C1 6633   6.639   2.269   6.159 -0.2833  0.5109 -0.0740
  419POPI    C2 6634   6.440   1.935   6.066  0.0029  0.3528 -0.1292
  419POPI    C3 6635   6.571   2.178   5.776  0.0456  0.3637 -0.1010
  419POPI   PO4 6636   6.772   2.229   6.313  0.0641 -0.2160  0.0963
  419POPI   GL1 6637   6.926   2.506   6.721  0.1518 -0.1771  0.1497
  419POPI   GL2 6638   6.633   2.568   6.734  0.0179  0.0823  0.0494
  419POPI   C1A 6639   7.067   2.396   7.206 -0.0518  0.1162  0.0574
  419POPI   D2A 6640   7.074   2.424   7.637  0.3272 -0.0854 -0.0388
  419POPI   C3A 6641   6.870   2.620   7.975  0.0406  0.0354 -0.0896
  419POPI   C4A 6642   6.579   2.936   8.191 -0.2212 -0.1194  0.1946
  419POPI   C1B 6643   6.663   2.681   7.117  0.0198  0.1562 -0.1346
  419POPI   C2B 6644   6.707   2.757   7.479 -0.0363  0.2173 -0.2591
  419POPI   C3B 6645   6.399   2.880   7.665  0.1350 -0.1415 -0.0131
  419POPI   C4B 6646   6.231   2.689   7.979 -0.0051 -0.0045  0.0791
  420POPI    C1 6647   4.078  10.960   6.228  0.1488 -0.1695  0.0739
  420POPI    C2 6648   4.473  10.900   6.225  0.1853  0.0578  0.1376
  420POPI    C3 6649   4.306  11.141   5.954  0.1029  0.0382  0.1706
  420POPI   PO4 6650   4.062  10.910   6.530 -0.1092 -0.1132 -0.0127
  420POPI   GL1 6651   3.824  10.991   6.937  0.0329 -0.0578  0.1911
  420POPI   GL2 6652   3.746  10.596   6.957 -0.0373 -0.0318 -0.3473
  420POPI   C1A 6653   3.676  10.969   7.354  0.2611 -0.2134  0.1106
  420POPI   D2A 6654   3.819  10.642   7.521  0.0992 -0.4083 -0.0092
  420POPI   C3A 6655   4.026  10.658   7.872 -0.0351 -0.0399  0.1299
  420POPI   C4A 6656   4.405  10.721   8.027 -0.0316  0.3236 -0.2077
  420POPI   C1B 6657   3.713  10.224   7.223  0.1011  0.2089  0.1770
  420POPI   C2B 6658   3.366  10.221   7.596 -0.2997  0.0308  0.1522
  420POPI   C3B 6659   3.027  10.321   7.864  0.1157 -0.0212 -0.1560
  420POPI   C4B 6660   3.007  10.514   8.193  0.1312  0.0855 -0.1574
  421POPI    C1 6661  10.486  16.990   6.022 -0.2229  0.0084 -0.0436
  421POPI    C2 6662  10.787  17.163   5.821 -0.0387 -0.3670 -0.0995
  421POPI    C3 6663  10.417  17.165   5.669 -0.0623  0.0675 -0.0467
  421POPI   PO4 6664  10.628  16.771   6.164  0.0493 -0.0856  0.0421
  421POPI   GL1 6665  10.685  16.598   6.470  0.0437  0.1625 -0.3038
  421POPI   GL2 6666  10.678  16.292   6.566 -0.3778 -0.3230 -0.0517
  421POPI   C1A 6667  10.745  16.795   6.877 -0.0603  0.2713  0.0396
  421POPI   D2A 6668  10.886  16.643   7.302  0.0733  0.2683  0.1443
  421POPI   C3A 6669  11.086  16.753   7.627 -0.0462 -0.0188 -0.0077
  421POPI   C4A 6670  11.180  16.655   8.057  0.3172 -0.0649  0.1158
  421POPI   C1B 6671  11.073  16.265   6.893 -0.0448  0.1863 -0.0658
  421POPI   C2B 6672  11.251  16.216   7.329 -0.1187  0.1198 -0.1899
  421POPI   C3B 6673  11.552  15.950   7.523 -0.1260  0.0292 -0.0495
  421POPI   C4B 6674  11.532  15.666   7.861  0.3123 -0.7048  0.0027
  422POPI    C1 6675   2.805  12.192   6.429  0.2599 -0.0616 -0.1983
  422POPI    C2 6676   2.719  11.807   6.363 -0.1565 -0.0083  0.0011
  422POPI    C3 6677   2.751  12.061   6.055 -0.2099 -0.1349 -0.1099
  422POPI   PO4 6678   2.988  12.137   6.570 -0.1524  0.0030 -0.0893
  422POPI   GL1 6679   2.923  12.188   6.944 -0.0711  0.1008 -0.2181
  422POPI   GL2 6680   2.712  12.516   6.961 -0.0315  0.1057 -0.3810
  422POPI   C1A 6681   2.916  12.232   7.385 -0.0442 -0.4442  0.0099
  422POPI   D2A 6682   2.838  11.849   7.571 -0.0108 -0.2115 -0.2524
  422POPI   C3A 6683   2.619  11.793   7.950  0.0120  0.0261  0.1896
  422POPI   C4A 6684   2.342  11.753   8.246  0.0660 -0.0845 -0.2137
  422POPI   C1B 6685   2.373  12.416   7.314 -0.0285 -0.2447  0.1329
  422POPI   C2B 6686   2.433  12.300   7.690  0.1112  0.1516 -0.0647
  422POPI   C3B 6687   2.436  12.259   8.139  0.1793 -0.0001  0.0125
  422POPI   C4B 6688   2.505  12.162   8.556 -0.3100  0.1410  0.1570
  423POPI    C1 6689   1.263   7.035   6.222  0.0555  0.0784  0.0953
  423POPI    C2 6690   0.926   6.832   6.149 -0.0235  0.2131  0.0810
  423POPI    C3 6691   1.149   6.967   5.845 -0.0104  0.2125  0.0903
  423POPI   PO4 6692   1.336   6.927   6.451  0.1401 -0.0127  0.0283
  423POPI   GL1 6693   1.386   7.228   6.730 -0.2344  0.0964 -0.1096
  423POPI   GL2 6694   1.235   7.135   7.026 -0.2718  0.1494  0.0019
  423POPI   C1A 6695   1.823   7.347   6.918  0.0871 -0.0876  0.1525
  423POPI   D2A 6696   2.030   7.358   7.316 -0.3522  0.1879 -0.0009
  423POPI   C3A 6697   2.421   7.148   7.456 -0.2453 -0.0504 -0.0674
  423POPI   C4A 6698   2.718   6.976   7.636 -0.3508 -0.2066  0.1207
  423POPI   C1B 6699   1.521   7.193   7.372  0.0590  0.0679  0.0155
  423POPI   C2B 6700   1.780   7.170   7.705 -0.2094  0.0734  0.1119
  423POPI   C3B 6701   2.174   7.323   7.941  0.0769  0.2037 -0.0995
  423POPI   C4B 6702   2.384   7.736   8.136  0.0686 -0.0428  0.0179
  424POPI    C1 6703   8.583  14.518   6.206  0.2960 -0.0412  0.0327
  424POPI    C2 6704   8.856  14.265   6.059  0.2939  0.0742 -0.1733
  424POPI    C3 6705   8.536  14.364   5.840 -0.0077 -0.1964  0.1339
  424POPI   PO4 6706   8.446  14.406   6.415 -0.2639 -0.0462 -0.0141
  424POPI   GL1 6707   8.445  14.383   6.871  0.1754 -0.1292 -0.1860
  424POPI   GL2 6708   8.288  14.599   6.920 -0.0557  0.1769 -0.1034
  424POPI   C1A 6709   8.579  14.130   7.204  0.2531 -0.3070  0.3341
  424POPI   D2A 6710   8.439  14.205   7.592  0.0514 -0.0802 -0.2030
  424POPI   C3A 6711   8.307  14.003   7.863 -0.0607  0.3032  0.0795
  424POPI   C4A 6712   8.405  14.011   8.279  0.2507 -0.0010  0.1535
  424POPI   C1B 6713   8.081  14.971   7.165 -0.3316 -0.0241 -0.0950
  424POPI   C2B 6714   8.051  15.210   7.445 -0.3055 -0.2804  0.2267
  424POPI   C3B 6715   8.189  15.348   7.870  0.1540  0.1893  0.1442
  424POPI   C4B 6716   7.977  15.527   8.176 -0.0107 -0.1334  0.2200
  425POPI    C1 6717   5.193   9.006   6.307  0.1009 -0.0606  0.0792
  425POPI    C2 6718   5.503   9.216   6.165  0.0923 -0.0735  0.0411
  425POPI    C3 6719   5.142   9.386   6.192  0.0799 -0.0909 -0.0126
  425POPI   PO4 6720   5.349   8.845   6.545  0.1077 -0.1697  0.1753
  425POPI   GL1 6721   5.338   8.827   6.897 -0.0604  0.0897  0.4067
  425POPI   GL2 6722   5.173   8.656   7.037 -0.1565  0.0095 -0.3206
  425POPI   C1A 6723   5.653   8.703   7.175 -0.0158  0.1730  0.1068
  425POPI   D2A 6724   5.743   8.800   7.620 -0.2091  0.0514  0.3570
  425POPI   C3A 6725   6.028   8.629   7.763 -0.0489 -0.2644  0.1063
  425POPI   C4A 6726   6.293   8.402   7.557  0.0258  0.0002 -0.0304
  425POPI   C1B 6727   5.114   8.555   7.443  0.0760  0.1126 -0.1524
  425POPI   C2B 6728   5.177   8.710   7.828  0.0088 -0.1323  0.0070
  425POPI   C3B 6729   5.179   8.597   8.263  0.0603  0.0825 -0.1459
  425POPI   C4B 6730   5.139   8.363   8.601 -0.0883 -0.2580  0.3767
  426POPI    C1 6731   8.818   1.429   5.981 -0.2665  0.2442  0.0369
  426POPI    C2 6732   8.829   1.331   6.369  0.0741  0.1919  0.0175
  426POPI    C3 6733   8.908   1.055   6.091  0.0112  0.2734 -0.0824
  426POPI   PO4 6734   8.948   1.741   6.055 -0.2649 -0.0035  0.0531
  426POPI   GL1 6735   8.892   2.072   6.389 -0.0935  0.0693 -0.2346
  426POPI   GL2 6736   8.744   1.771   6.505  0.0880  0.0316 -0.1035
  426POPI   C1A 6737   9.014   2.087   6.834  0.0248  0.1717 -0.1227
  426POPI   D2A 6738   9.106   2.139   7.137 -0.2153 -0.2640  0.0108
  426POPI   C3A 6739   9.100   2.460   7.465  0.2135  0.0294  0.2466
  426POPI   C4A 6740   8.718   2.621   7.671  0.2189 -0.0913 -0.3167
  426POPI   C1B 6741   8.649   1.760   6.917  0.1517 -0.0811  0.2554
  426POPI   C2B 6742   8.780   1.813   7.304  0.4058  0.3722  0.0767
  426POPI   C3B 6743   8.920   2.012   7.607 -0.0448 -0.1583  0.1549
  426POPI   C4B 6744   9.215   2.120   7.895  0.0190 -0.0109 -0.0531
  427POPI    C1 6745   1.474   3.005   6.247  0.0944 -0.3003 -0.0109
  427POPI    C2 6746   1.687   3.210   5.978 -0.0736 -0.0388  0.0520
  427POPI    C3 6747   1.622   2.819   5.926  0.2948 -0.0906 -0.0423
  427POPI   PO4 6748   1.275   3.100   6.247  0.0752 -0.2478 -0.2418
  427POPI   GL1 6749   1.106   3.312   6.638 -0.3934 -0.0511 -0.0550
  427POPI   GL2 6750   1.248   3.557   6.758  0.0575 -0.2626 -0.4115
  427POPI   C1A 6751   0.956   2.979   6.899 -0.1106  0.1144  0.5191
  427POPI   D2A 6752   0.896   3.019   7.205  0.0413 -0.3214 -0.2458
  427POPI   C3A 6753   1.016   3.084   7.510 -0.1494  0.0986  0.0720
  427POPI   C4A 6754   0.935   3.325   8.020  0.3011  0.2820  0.0393
  427POPI   C1B 6755   1.183   3.422   7.132 -0.3084 -0.0198  0.1982
  427POPI   C2B 6756   1.022   3.566   7.526  0.1069  0.3875  0.1120
  427POPI   C3B 6757   1.036   3.856   7.872 -0.1578 -0.1481  0.0840
  427POPI   C4B 6758   0.933   4.042   8.302  0.2451 -0.1656  0.0637
  428POPI    C1 6759   1.745   7.686   6.094 -0.1458  0.1182 -0.0240
  428POPI    C2 6760   1.446   7.469   5.940 -0.0112  0.0082 -0.1332
  428POPI    C3 6761   1.803   7.475   5.759  0.0664  0.1034  0.0204
  428POPI   PO4 6762   1.550   7.833   6.300  0.3090  0.0419  0.1712
  428POPI   GL1 6763   1.442   7.715   6.741  0.0915  0.1532  0.0145
  428POPI   GL2 6764   1.482   8.081   6.708  0.0497  0.1192 -0.3336
  428POPI   C1A 6765   1.462   7.632   7.072 -0.1555 -0.0847 -0.1273
  428POPI   D2A 6766   1.472   7.727   7.474 -0.0959  0.0825 -0.1270
  428POPI   C3A 6767   1.830   7.699   7.787  0.0826 -0.0581 -0.2786
  428POPI   C4A 6768   1.860   7.728   8.220  0.1528  0.2788 -0.0289
  428POPI   C1B 6769   1.669   8.037   7.146  0.0007 -0.0086  0.0599
  428POPI   C2B 6770   1.817   8.174   7.566 -0.1637  0.0771 -0.0588
  428POPI   C3B 6771   1.652   8.276   7.963 -0.0386  0.1500  0.1303
  428POPI   C4B 6772   1.581   8.115   8.451 -0.1579  0.2815  0.0649
  429POPS   CNO 6773   1.284   5.269   6.530  0.2802  0.4718  0.0826
  429POPS   PO4 6774   0.918   5.337   6.413 -0.0206 -0.4645  0.0024
  429POPS   GL1 6775   0.560   5.171   6.528  0.1880  0.2100 -0.0400
  429POPS   GL2 6776   0.274   5.284   6.401  0.5678 -0.0516  0.1692
  429POPS   C1A 6777   0.467   4.934   6.782  0.0208 -0.2663 -0.2073
  429POPS   D2A 6778   0.516   4.790   7.145 -0.1090  0.3515  0.2562
  429POPS   C3A 6779   0.577   4.442   7.369 -0.2435  0.1896 -0.0652
  429POPS   C4A 6780   0.724   4.270   7.790  0.2449 -0.0704  0.1141
  429POPS   C1B 6781   0.260   5.421   6.843 -0.1201 -0.1437  0.0605
  429POPS   C2B 6782   0.263   5.221   7.265 -0.3201 -0.2196 -0.0237
  429POPS   C3B 6783   0.276   5.180   7.604  0.2953  0.1187 -0.1187
  429POPS   C4B 6784   0.421   5.203   8.023  0.2358  0.1759  0.0455
  430POPS   CNO 6785   7.409   1.262   6.612  0.0872  0.1808  0.0963
  430POPS   PO4 6786   7.726   1.459   6.313  0.1070 -0.1783 -0.1612
  430POPS   GL1 6787   7.869   1.242   6.732  0.0111  0.0134  0.1560
  430POPS   GL2 6788   7.817   1.025   7.010 -0.0190 -0.0050  0.0296
  430POPS   C1A 6789   8.108   1.387   6.978  0.3267 -0.2348  0.2046
  430POPS   D2A 6790   8.178   1.392   7.413  0.1502  0.1614 -0.0827
  430POPS   C3A 6791   8.139   1.274   7.855 -0.0082  0.2928  0.1380
  430POPS   C4A 6792   8.453   1.367   8.168  0.1747 -0.1168 -0.1508
  430POPS   C1B 6793   7.808   1.135   7.459  0.0041 -0.3854  0.4046
  430POPS   C2B 6794   7.688   1.075   7.901  0.0496 -0.1319  0.0212
  430POPS   C3B 6795   7.791   1.257   8.284 -0.1273  0.0910 -0.2477
  430POPS   C4B 6796   7.637   1.591   8.515  0.2121 -0.0050 -0.1475
  431POPS   CNO 6797   7.997   2.841   5.837  0.2100  0.2274 -0.2220
  431POPS   PO4 6798   8.309   3.047   6.061 -0.0852 -0.4839  0.0779
  431POPS   GL1 6799   8.508   2.880   6.374  0.1934 -0.0946 -0.2316
  431POPS   GL2 6800   8.724   2.647   6.369 -0.0178  0.1653  0.2174
  431POPS   C1A 6801   8.592   2.960   6.846 -0.0422  0.1121  0.0809
  431POPS   D2A 6802   8.707   2.950   7.278 -0.0355  0.0626 -0.0670
  431POPS   C3A 6803   8.954   3.072   7.513 -0.1346  0.0963 -0.1797
  431POPS   C4A 6804   9.200   3.170   7.919  0.2088  0.3033  0.0854
  431POPS   C1B 6805   8.994   2.568   6.665  0.0871  0.1287  0.3468
  431POPS   C2B 6806   9.146   2.707   7.073 -0.0604 -0.1040  0.1873
  431POPS   C3B 6807   9.435   2.838   7.418  0.1086 -0.1457  0.2063
  431POPS   C4B 6808   9.544   3.157   7.558  0.0622  0.1135  0.1452
  432POPS   CNO 6809   3.858  17.197   5.961  0.1503 -0.1976 -0.2142
  432POPS   PO4 6810   3.481  17.106   6.065 -0.1502  0.0590  0.3063
  432POPS   GL1 6811   3.712  17.275   6.390  0.1898 -0.2511  0.2675
  432POPS   GL2 6812   3.922  17.452   6.394 -0.1287  0.1486 -0.0203
  432POPS   C1A 6813   3.545  17.479   6.729 -0.1525  0.2801  0.0644
  432POPS   D2A 6814   3.356  17.659   7.142 -0.0442 -0.1721  0.0101
  432POPS   C3A 6815   3.289  17.545   7.550  0.0412 -0.1092  0.0311
  432POPS   C4A 6816   3.484  17.455   7.925 -0.6851  0.2198 -0.1389
  432POPS   C1B 6817   4.072  17.535   6.790  0.1977 -0.4951  0.4754
  432POPS   C2B 6818   3.900  17.535   7.270  0.0177 -0.0071  0.0107
  432POPS   C3B 6819   3.688  17.843   7.528 -0.2703  0.1036  0.1079
  432POPS   C4B 6820   3.437  17.982   7.882 -0.0433 -0.0977  0.1906
  433POPS   CNO 6821  10.760   5.102   6.486  0.1473 -0.2836  0.3775
  433POPS   PO4 6822  10.960   5.499   6.594  0.0692 -0.2658 -0.1055
  433POPS   GL1 6823  10.669   5.343   6.952  0.2838 -0.0362 -0.2574
  433POPS   GL2 6824  10.370   5.166   6.826  0.0378 -0.0114 -0.0067
  433POPS   C1A 6825  10.766   5.071   7.219 -0.0873 -0.0858 -0.0285
  433POPS   D2A 6826  10.563   4.920   7.587 -0.0128 -0.0682 -0.0124
  433POPS   C3A 6827  10.402   4.731   7.894 -0.0441 -0.3139 -0.1424
  433POPS   C4A 6828  10.181   4.575   8.296  0.1727 -0.2164  0.1458
  433POPS   C1B 6829  10.253   4.904   7.200 -0.1597 -0.1029  0.0798
  433POPS   C2B 6830  10.026   4.847   7.645 -0.0183 -0.0126  0.0995
  433POPS   C3B 6831   9.828   4.843   8.080 -0.1590  0.2697  0.1772
  433POPS   C4B 6832   9.795   4.730   8.570 -0.0682 -0.0997 -0.1008
  434POPS   CNO 6833   3.898   8.145   6.490 -0.0315 -0.1692  0.0791
  434POPS   PO4 6834   3.875   8.622   6.538  0.2447  0.2990  0.0395
  434POPS   GL1 6835   3.967   8.433   6.984  0.0814 -0.2178 -0.3385
  434POPS   GL2 6836   4.232   8.292   7.096 -0.2063 -0.2862  0.0874
  434POPS   C1A 6837   3.756   8.350   7.257 -0.1663  0.0393  0.0254
  434POPS   D2A 6838   3.625   8.298   7.703  0.0194 -0.0003  0.1255
  434POPS   C3A 6839   3.716   8.065   8.036  0.0546  0.2042 -0.1496
  434POPS   C4A 6840   3.630   7.662   8.144 -0.0544 -0.0954  0.1323
  434POPS   C1B 6841   4.535   8.266   7.394  0.2076  0.0683  0.0863
  434POPS   C2B 6842   4.822   8.304   7.785 -0.1320  0.0664 -0.1139
  434POPS   C3B 6843   5.163   8.144   8.134  0.1709  0.2942 -0.1878
  434POPS   C4B 6844   5.337   7.816   8.461  0.0508  0.0749 -0.0824
  435POPS   CNO 6845   4.744  12.287   6.048  0.0348 -0.5666 -0.0194
  435POPS   PO4 6846   5.140  12.230   6.362  0.0582  0.0338 -0.1369
  435POPS   GL1 6847   5.166  12.188   6.792  0.2221 -0.2063 -0.1627
  435POPS   GL2 6848   5.488  12.366   6.864  0.0122  0.0051 -0.0994
  435POPS   C1A 6849   5.243  11.880   7.148  0.0770 -0.0114  0.3742
  435POPS   D2A 6850   5.149  11.705   7.563 -0.0717  0.0045 -0.2692
  435POPS   C3A 6851   5.282  11.932   7.956 -0.0421 -0.1841 -0.1133
  435POPS   C4A 6852   5.368  12.399   8.263  0.0946  0.0573 -0.1560
  435POPS   C1B 6853   5.446  12.333   7.290 -0.0030 -0.1724  0.0944
  435POPS   C2B 6854   5.482  12.363   7.746  0.0107 -0.1069  0.1388
  435POPS   C3B 6855   5.768  12.558   8.089  0.1105  0.0632 -0.0656
  435POPS   C4B 6856   5.890  12.605   8.586 -0.1134  0.3475  0.2446
  436POPS   CNO 6857   9.531   8.876   7.136 -0.1881  0.2679 -0.1057
  436POPS   PO4 6858   9.144   8.809   6.899  0.0698 -0.1728  0.0477
  436POPS   GL1 6859   9.072   8.716   7.232  0.0343  0.1405  0.0710
  436POPS   GL2 6860   8.838   8.578   7.382  0.0815  0.0515  0.1587
  436POPS   C1A 6861   9.122   8.789   7.700 -0.1668 -0.1413  0.0020
  436POPS   D2A 6862   8.983   8.842   8.095 -0.2682 -0.0645 -0.1008
  436POPS   C3A 6863   9.076   9.006   8.449  0.2397  0.0449  0.1737
  436POPS   C4A 6864   9.325   8.969   8.767 -0.2156  0.0502  0.1658
  436POPS   C1B 6865   8.614   8.622   7.713  0.1133  0.1736 -0.3665
  436POPS   C2B 6866   8.343   8.477   8.087  0.0449 -0.0213  0.0189
  436POPS   C3B 6867   8.252   8.275   8.446 -0.0954 -0.1202  0.1996
  436POPS   C4B 6868   8.314   8.060   8.765 -0.1943 -0.0379  0.3877
  437POPS   CNO 6869   6.719   6.499   6.980  0.3297 -0.3429 -0.1446
  437POPS   PO4 6870   7.150   6.523   6.742  0.1289 -0.0304 -0.0638
  437POPS   GL1 6871   7.174   6.207   6.985 -0.0315 -0.1833  0.0963
  437POPS   GL2 6872   6.870   5.957   7.070  0.3599  0.3032 -0.0516
  437POPS   C1A 6873   6.998   6.243   7.446 -0.2022  0.1765  0.3123
  437POPS   D2A 6874   6.888   6.312   7.900 -0.0536 -0.1099 -0.1655
  437POPS   C3A 6875   6.750   6.390   8.286 -0.0179  0.1189 -0.2045
  437POPS   C4A 6876   6.805   6.280   8.712 -0.2818  0.0531 -0.1064
  437POPS   C1B 6877   6.916   5.736   7.527 -0.2477  0.2220 -0.0329
  437POPS   C2B 6878   6.958   5.806   7.982 -0.2969 -0.0472 -0.1428
  437POPS   C3B 6879   6.898   5.886   8.411 -0.1330 -0.1101 -0.0357
  437POPS   C4B 6880   6.900   5.772   8.897  0.1813 -0.0444  0.1727
  438POPS   CNO 6881   7.279   5.039   6.329  0.1672 -0.0471  0.0542
  438POPS   PO4 6882   6.889   5.148   6.545 -0.1475 -0.1928 -0.1094
  438POPS   GL1 6883   6.592   4.745   6.681 -0.2825 -0.0224 -0.2783
  438POPS   GL2 6884   6.759   4.716   6.903  0.1056 -0.1316  0.1306
  438POPS   C1A 6885   6.372   4.440   7.066 -0.1206 -0.0344  0.0881
  438POPS   D2A 6886   6.213   4.381   7.556  0.3888 -0.0539  0.1976
  438POPS   C3A 6887   5.744   4.395   7.603 -0.1161  0.2430 -0.0575
  438POPS   C4A 6888   5.367   4.473   7.969  0.0769  0.1898 -0.0213
  438POPS   C1B 6889   6.848   4.900   7.188  0.0164  0.1657 -0.3363
  438POPS   C2B 6890   6.962   4.893   7.649  0.0908  0.5638  0.0480
  438POPS   C3B 6891   7.005   4.607   8.035 -0.0791 -0.1693 -0.3366
  438POPS   C4B 6892   7.260   4.441   8.387  0.0749  0.3441 -0.2324
  439POPS   CNO 6893  17.550   9.551   6.499  0.1506  0.1279  0.0764
  439POPS   PO4 6894  17.866   9.770   6.162  0.0652  0.1477  0.4591
  439POPS   GL1 6895  18.109   9.863   6.446  0.0680  0.0042  0.0730
  439POPS   GL2 6896  17.973   9.760   6.731  0.2811 -0.0780 -0.1533
  439POPS   C1A 6897  18.405   9.934   6.747  0.0803  0.0371 -0.0761
  439POPS   D2A 6898  18.845   9.895   6.785 -0.0112 -0.2517 -0.1371
  439POPS   C3A 6899  19.158  10.103   6.978 -0.1458  0.1343 -0.0439
  439POPS   C4A 6900  19.260  10.140   7.356 -0.0145  0.2274  0.1536
  439POPS   C1B 6901  18.158   9.757   7.140  0.1079  0.1738  0.0497
  439POPS   C2B 6902  18.366   9.764   7.437  0.2106  0.2305  0.0822
  439POPS   C3B 6903  18.577   9.986   7.659 -0.0201 -0.0401 -0.2070
  439POPS   C4B 6904  19.020  10.151   7.773  0.0284 -0.2907  0.1179
  440POPS   CNO 6905   2.256  16.334   6.181  0.2310  0.0742 -0.3509
  440POPS   PO4 6906   1.825  16.317   6.108 -0.1170  0.0888 -0.6393
  440POPS   GL1 6907   1.908  16.161   6.553  0.0532 -0.1494  0.0955
  440POPS   GL2 6908   2.197  15.994   6.727  0.2296  0.1380  0.3641
  440POPS   C1A 6909   1.822  16.344   6.880  0.1396 -0.0101  0.4664
  440POPS   D2A 6910   1.903  16.680   7.072 -0.0760  0.0393 -0.3372
  440POPS   C3A 6911   1.582  16.607   7.477  0.0743 -0.0516 -0.0026
  440POPS   C4A 6912   1.498  16.393   7.874  0.2549  0.2404  0.0148
  440POPS   C1B 6913   1.897  15.846   7.020  0.0215 -0.0153 -0.0257
  440POPS   C2B 6914   1.666  15.892   7.335  0.3885 -0.1096 -0.2497
  440POPS   C3B 6915   1.651  15.812   7.752  0.0925  0.0353  0.0430
  440POPS   C4B 6916   1.575  15.916   8.195  0.1928  0.1524 -0.2010
  441POPS   CNO 6917   1.428  11.168   6.135 -0.0170  0.0267 -0.0748
  441POPS   PO4 6918   1.399  11.115   6.600  0.1508  0.3161  0.2138
  441POPS   GL1 6919   1.348  11.427   6.878 -0.2272 -0.4221  0.0068
  441POPS   GL2 6920   1.110  11.588   6.674 -0.1574  0.3301 -0.1862
  441POPS   C1A 6921   1.254  11.664   7.247 -0.3563  0.0377  0.1184
  441POPS   D2A 6922   1.103  11.773   7.617 -0.0982  0.1339  0.2293
  441POPS   C3A 6923   1.139  11.712   8.002 -0.1486  0.0130  0.1842
  441POPS   C4A 6924   1.297  11.726   8.484  0.0110  0.0448  0.2302
  441POPS   C1B 6925   0.877  11.383   7.089 -0.0397  0.0786  0.0518
  441POPS   C2B 6926   0.704  11.457   7.398  0.1170  0.1485 -0.2960
  441POPS   C3B 6927   0.718  11.231   7.801 -0.0932 -0.0276  0.0216
  441POPS   C4B 6928   0.802  10.918   8.144 -0.2473  0.0616 -0.0252
  442POPS   CNO 6929   2.141   1.159   6.029  0.0379 -0.1000  0.1935
  442POPS   PO4 6930   1.753   1.049   6.174  0.0775 -0.1076 -0.2396
  442POPS   GL1 6931   1.998   0.859   6.482 -0.0230 -0.4101 -0.0759
  442POPS   GL2 6932   2.041   0.566   6.577  0.0554  0.0511  0.1448
  442POPS   C1A 6933   2.047   0.920   6.877  0.0790 -0.0190 -0.0770
  442POPS   D2A 6934   2.033   1.077   7.280 -0.2471 -0.1063 -0.1389
  442POPS   C3A 6935   1.936   0.985   7.687  0.2127 -0.2340  0.1766
  442POPS   C4A 6936   2.106   0.995   8.042 -0.0354 -0.1740 -0.1900
  442POPS   C1B 6937   1.916   0.402   6.969 -0.3871  0.1269  0.2092
  442POPS   C2B 6938   1.739   0.646   7.309 -0.2086 -0.0413  0.3359
  442POPS   C3B 6939   1.580   0.593   7.764 -0.0572 -0.2695 -0.0486
  442POPS   C4B 6940   1.610   0.701   8.215 -0.1681 -0.0208 -0.0468
  443POPS   CNO 6941  16.802  17.405   6.193  0.1346 -0.2804 -0.1286
  443POPS   PO4 6942  16.884  17.404   6.570 -0.0971  0.0990 -0.2637
  443POPS   GL1 6943  17.224  17.414   6.882  0.0393 -0.2258  0.0307
  443POPS   GL2 6944  17.385  17.111   6.924 -0.0124 -0.0943  0.2831
  443POPS   C1A 6945  17.657  17.510   7.033 -0.2533 -0.1259  0.0622
  443POPS   D2A 6946  17.918  17.482   7.359 -0.1677 -0.1562  0.1105
  443POPS   C3A 6947  17.655  17.702   7.687 -0.0782 -0.1945 -0.0844
  443POPS   C4A 6948  17.380  17.761   8.037 -0.3415 -0.0232  0.2788
  443POPS   C1B 6949  17.604  17.151   7.385  0.0282  0.0914  0.0397
  443POPS   C2B 6950  17.842  17.277   7.814  0.0079  0.0230 -0.2754
  443POPS   C3B 6951  17.790  16.997   8.151  0.1694  0.1122 -0.1211
  443POPS   C4B 6952  17.945  16.696   8.531 -0.0944 -0.0764  0.2479
  444POPS   CNO 6953   2.780   5.053   6.505  0.0086 -0.5209  0.1634
  444POPS   PO4 6954   3.151   4.942   6.341  0.2524  0.0659  0.2734
  444POPS   GL1 6955   3.338   5.031   6.777  0.0807  0.3764 -0.1268
  444POPS   GL2 6956   3.318   4.754   6.894 -0.0915  0.1531 -0.2248
  444POPS   C1A 6957   3.489   5.177   7.165  0.2281  0.0871  0.0123
  444POPS   D2A 6958   3.658   5.547   7.295 -0.1013  0.0993  0.0778
  444POPS   C3A 6959   3.716   5.754   7.682 -0.0838 -0.1254 -0.3011
  444POPS   C4A 6960   3.820   5.842   8.122  0.2171  0.1948 -0.0284
  444POPS   C1B 6961   3.337   4.509   7.258  0.1306 -0.1717 -0.3167
  444POPS   C2B 6962   3.442   4.518   7.707  0.3931 -0.1876 -0.0287
  444POPS   C3B 6963   3.306   4.396   8.089 -0.1627 -0.0714  0.0151
  444POPS   C4B 6964   3.136   4.070   8.422 -0.3706 -0.3367  0.0446
  445POPS   CNO 6965   7.045   7.603   6.714  0.1327  0.0243 -0.0323
  445POPS   PO4 6966   7.306   7.429   6.960  0.0455 -0.0931  0.0823
  445POPS   GL1 6967   7.267   7.478   7.316 -0.0507 -0.0531 -0.2222
  445POPS   GL2 6968   7.186   7.776   7.491  0.6010  0.2616 -0.3097
  445POPS   C1A 6969   7.430   7.434   7.744 -0.1349 -0.4186 -0.0146
  445POPS   D2A 6970   7.562   7.093   8.112 -0.0930  0.4348 -0.0422
  445POPS   C3A 6971   7.568   6.766   8.266  0.0467 -0.0749 -0.2387
  445POPS   C4A 6972   7.919   6.534   8.494 -0.1784 -0.1808  0.0022
  445POPS   C1B 6973   7.056   7.824   7.977  0.3384  0.0043 -0.0273
  445POPS   C2B 6974   6.844   8.085   8.267  0.2430 -0.1545 -0.0506
  445POPS   C3B 6975   6.722   8.441   8.520 -0.4220  0.0131 -0.0260
  445POPS   C4B 6976   6.454   8.637   8.828  0.2377  0.1405 -0.0332
  446POPS   CNO 6977   3.827   5.163   6.850  0.1215  0.1626  0.3487
  446POPS   PO4 6978   3.757   4.800   6.580  0.0338  0.2187 -0.1657
  446POPS   GL1 6979   3.733   4.552   7.026 -0.1182 -0.0000  0.4149
  446POPS   GL2 6980   4.046   4.375   6.960  0.1797  0.2250 -0.1004
  446POPS   C1A 6981   3.908   4.356   7.473  0.1353  0.1948  0.2585
  446POPS   D2A 6982   3.897   4.179   7.963  0.0885 -0.1857  0.3046
  446POPS   C3A 6983   4.113   4.468   8.250  0.1568  0.2239  0.0664
  446POPS   C4A 6984   4.091   4.561   8.632  0.1040  0.1008 -0.1329
  446POPS   C1B 6985   4.361   4.445   7.241  0.0361  0.3171 -0.0638
  446POPS   C2B 6986   4.278   4.456   7.694 -0.4086 -0.3096 -0.2641
  446POPS   C3B 6987   4.515   4.514   7.987 -0.0222 -0.2257  0.1064
  446POPS   C4B 6988   4.715   4.470   8.527 -0.0230 -0.1410  0.0251
  447POPS   CNO 6989   5.351  17.063   5.955  0.1034 -0.1158 -0.0540
  447POPS   PO4 6990   5.653  17.087   6.290 -0.0146  0.0310 -0.0219
  447POPS   GL1 6991   6.049  17.318   6.653  0.2996 -0.1968  0.2049
  447POPS   GL2 6992   5.724  17.487   6.814 -0.0474 -0.4051 -0.2272
  447POPS   C1A 6993   6.257  17.586   6.793 -0.1651 -0.1627  0.3368
  447POPS   D2A 6994   6.280  17.980   6.893  0.5014  0.3337 -0.0767
  447POPS   C3A 6995   6.281  18.027   7.327 -0.1552  0.0953  0.3506
  447POPS   C4A 6996   6.637  18.046   7.529  0.1587 -0.0639  0.0980
  447POPS   C1B 6997   5.910  17.617   7.144 -0.0541  0.2592 -0.1803
  447POPS   C2B 6998   5.916  17.639   7.585 -0.0929  0.0347  0.0676
  447POPS   C3B 6999   5.777  17.531   7.936  0.1231  0.3482  0.1412
  447POPS   C4B 7000   5.698  17.446   8.333  0.0281 -0.1047  0.1287
  448POPS   CNO 7001   1.630   1.518   6.402 -0.0670  0.5548 -0.0439
  448POPS   PO4 7002   1.467   1.826   6.155 -0.0711  0.0170 -0.0018
  448POPS   GL1 7003   1.223   1.672   6.598  0.1191 -0.2222  0.0936
  448POPS   GL2 7004   0.981   1.869   6.607  0.2421  0.0113 -0.0605
  448POPS   C1A 7005   1.199   1.674   7.080  0.0227  0.2767  0.1068
  448POPS   D2A 7006   1.283   1.477   7.557 -0.1227 -0.4044  0.0797
  448POPS   C3A 7007   1.106   1.539   7.906  0.1716 -0.4923 -0.0391
  448POPS   C4A 7008   0.825   1.583   8.239 -0.2551 -0.3319  0.2977
  448POPS   C1B 7009   0.815   1.955   6.989  0.0964 -0.1328 -0.2675
  448POPS   C2B 7010   0.685   1.642   7.367 -0.0573  0.0922 -0.0265
  448POPS   C3B 7011   0.467   1.251   7.420  0.3004 -0.1170 -0.0300
  448POPS   C4B 7012   0.068   1.139   7.399 -0.0529  0.0005  0.4430
  449POPS   CNO 7013   6.330  15.577   6.335 -0.0681 -0.1866  0.0054
  449POPS   PO4 7014   6.059  15.213   6.462  0.1459 -0.0005  0.0281
  449POPS   GL1 7015   6.301  15.443   6.827  0.3460 -0.1410  0.1710
  449POPS   GL2 7016   6.180  15.806   6.856 -0.2148 -0.0661 -0.2399
  449POPS   C1A 7017   6.349  15.365   7.147 -0.1847 -0.4551  0.1943
  449POPS   D2A 7018   6.309  15.522   7.656  0.0258  0.0983  0.0735
  449POPS   C3A 7019   6.461  15.735   7.986  0.3212  0.1994 -0.1166
  449POPS   C4A 7020   6.574  15.609   8.444 -0.1893  0.1494  0.1145
  449POPS   C1B 7021   5.969  15.743   7.262  0.0625  0.1417 -0.1555
  449POPS   C2B 7022   5.864  15.697   7.521 -0.1700  0.3009 -0.0851
  449POPS   C3B 7023   5.937  15.749   8.000  0.1741 -0.1297  0.4815
  449POPS   C4B 7024   6.088  15.647   8.458  0.0565  0.2473 -0.1963
  450POPS   CNO 7025  10.377  15.369   6.799 -0.0690  0.0556 -0.3135
  450POPS   PO4 7026  10.438  14.909   6.750 -0.0952  0.1471 -0.0391
  450POPS   GL1 7027  10.508  14.906   7.182  0.1305 -0.0569  0.1006
  450POPS   GL2 7028  10.462  14.653   7.254 -0.0971 -0.0561  0.2994
  450POPS   C1A 7029  10.820  14.875   7.487  0.3156 -0.0614 -0.3645
  450POPS   D2A 7030  11.142  14.659   7.624 -0.1247  0.0695 -0.0391
  450POPS   C3A 7031  11.353  14.606   7.882  0.2988 -0.0387 -0.0693
  450POPS   C4A 7032  11.399  14.797   8.273  0.0978  0.1810 -0.3817
  450POPS   C1B 7033  10.242  14.461   7.528 -0.0889  0.3047  0.0318
  450POPS   C2B 7034  10.009  14.378   7.882  0.5511 -0.3996 -0.3478
  450POPS   C3B 7035   9.751  14.112   8.076 -0.2375  0.0684 -0.0149
  450POPS   C4B 7036   9.362  13.855   8.277  0.2530  0.1259  0.0030
  451POPS   CNO 7037   2.691  17.375   5.718  0.0524  0.0531  0.0267
  451POPS   PO4 7038   2.464  17.699   6.103 -0.1999 -0.3546  0.4537
  451POPS   GL1 7039   2.531  17.904   6.494 -0.0200 -0.3208 -0.3087
  451POPS   GL2 7040   2.815  18.153   6.457  0.4061 -0.1192  0.4550
  451POPS   C1A 7041   2.716  17.889   6.883  0.0065  0.1456 -0.3236
  451POPS   D2A 7042   2.531  18.064   7.292 -0.0298 -0.1594  0.2359
  451POPS   C3A 7043   2.332  17.928   7.662 -0.1355  0.0374  0.0832
  451POPS   C4A 7044   2.353  17.678   8.033  0.1041 -0.0005  0.0798
  451POPS   C1B 7045   2.536  18.375   6.780  0.1376 -0.1357  0.0529
  451POPS   C2B 7046   2.316  18.557   7.197 -0.1686  0.1413  0.3432
  451POPS   C3B 7047   2.148  18.499   7.499  0.0315  0.0674 -0.0412
  451POPS   C4B 7048   2.036  18.368   7.984  0.0239  0.0407 -0.0885
  452POPS   CNO 7049  10.657   1.270   6.061  0.2336  0.4074  0.0942
  452POPS   PO4 7050  10.907   0.912   6.337 -0.1131  0.1315 -0.0397
  452POPS   GL1 7051  10.641   1.210   6.647 -0.0601 -0.1447  0.2371
  452POPS   GL2 7052  10.310   1.233   6.722  0.1180 -0.2903 -0.1374
  452POPS   C1A 7053  10.599   1.349   7.207  0.1109 -0.0553 -0.2108
  452POPS   D2A 7054  10.496   1.579   7.523 -0.1864 -0.0703  0.1182
  452POPS   C3A 7055  10.311   1.616   7.873  0.1131  0.1423 -0.0248
  452POPS   C4A 7056  10.573   1.647   8.260 -0.0142  0.0604 -0.4023
  452POPS   C1B 7057  10.135   1.377   7.106 -0.1207  0.3005  0.2989
  452POPS   C2B 7058   9.965   1.512   7.498  0.2787 -0.1425 -0.0649
  452POPS   C3B 7059   9.818   1.487   7.944  0.1295 -0.0393 -0.1194
  452POPS   C4B 7060   9.688   1.417   8.443 -0.3297  0.0548 -0.5040
  453POPS   CNO 7061   1.168  15.801   5.762  0.1745 -0.1145  0.1288
  453POPS   PO4 7062   1.278  15.679   6.129 -0.1479 -0.2952 -0.2298
  453POPS   GL1 7063   1.260  15.623   6.598 -0.1223  0.0273 -0.1677
  453POPS   GL2 7064   1.603  15.508   6.716  0.0348  0.0159  0.1561
  453POPS   C1A 7065   1.279  15.583   7.050 -0.0200  0.0599 -0.1152
  453POPS   D2A 7066   1.256  15.566   7.443  0.1872 -0.3815 -0.0062
  453POPS   C3A 7067   1.161  15.592   7.814 -0.1273  0.0698  0.0802
  453POPS   C4A 7068   1.111  15.730   8.192 -0.3639 -0.0917 -0.2439
  453POPS   C1B 7069   1.601  15.151   6.996  0.2342  0.0666  0.3285
  453POPS   C2B 7070   1.338  14.991   7.247 -0.1046 -0.1563  0.0910
  453POPS   C3B 7071   1.216  15.065   7.587  0.1841 -0.0111 -0.0277
  453POPS   C4B 7072   1.115  15.148   8.025  0.1357  0.2588  0.0177
  454POPS   CNO 7073   5.496   3.438   6.245  0.0802 -0.0724 -0.0685
  454POPS   PO4 7074   5.632   3.873   6.312  0.0953  0.3328  0.0064
  454POPS   GL1 7075   5.318   3.743   6.652 -0.0477  0.2579  0.1122
  454POPS   GL2 7076   5.381   3.944   6.845 -0.2046 -0.1269 -0.0521
  454POPS   C1A 7077   5.071   3.463   6.939 -0.1943  0.0496  0.0230
  454POPS   D2A 7078   4.955   3.246   7.287  0.1971  0.1082  0.1130
  454POPS   C3A 7079   4.876   2.821   7.519 -0.1420 -0.0660  0.3962
  454POPS   C4A 7080   5.104   2.419   7.641  0.1050  0.2233  0.3107
  454POPS   C1B 7081   5.164   3.970   7.079  0.0965 -0.3118 -0.1497
  454POPS   C2B 7082   5.132   3.730   7.390  0.2897  0.0773  0.2247
  454POPS   C3B 7083   5.019   3.650   7.773 -0.2101  0.1184  0.2752
  454POPS   C4B 7084   4.765   3.749   8.118  0.2227 -0.1118 -0.2126
  455POPS   CNO 7085   4.716   8.467   6.162  0.0915  0.1328 -0.3836
  455POPS   PO4 7086   4.799   8.758   6.439 -0.0284  0.0322 -0.0072
  455POPS   GL1 7087   4.707   9.064   6.796  0.0160 -0.1421  0.0502
  455POPS   GL2 7088   4.978   9.265   6.721  0.2412  0.0939  0.3537
  455POPS   C1A 7089   4.956   9.060   7.197  0.0504  0.1230 -0.1777
  455POPS   D2A 7090   4.923   9.061   7.659  0.1293 -0.0599  0.1144
  455POPS   C3A 7091   5.007   9.100   8.104 -0.1448  0.1395  0.0730
  455POPS   C4A 7092   5.286   9.328   8.325  0.0474  0.1969  0.1682
  455POPS   C1B 7093   4.972   9.555   7.020  0.0166 -0.1402 -0.1761
  455POPS   C2B 7094   5.146   9.520   7.441  0.0352 -0.0264 -0.0778
  455POPS   C3B 7095   5.102   9.569   7.888 -0.0632 -0.0273  0.0956
  455POPS   C4B 7096   4.977   9.938   8.210 -0.0360 -0.1070 -0.2183
  456POPS   CNO 7097   5.828  10.667   6.433  0.1727 -0.0133  0.1531
  456POPS   PO4 7098   5.870  11.077   6.657  0.0770  0.0277 -0.2116
  456POPS   GL1 7099   5.905  11.176   7.036  0.0130  0.1223  0.2886
  456POPS   GL2 7100   6.193  11.191   7.265  0.1670  0.1284  0.1210
  456POPS   C1A 7101   5.773  11.271   7.517 -0.1356 -0.1423  0.1300
  456POPS   D2A 7102   5.468  11.420   7.910 -0.1587 -0.3149  0.3343
  456POPS   C3A 7103   5.339  11.532   8.342  0.0957  0.1812 -0.0684
  456POPS   C4A 7104   5.502  11.820   8.550 -0.1201 -0.4813 -0.0982
  456POPS   C1B 7105   6.220  11.042   7.605 -0.2304 -0.1459 -0.2306
  456POPS   C2B 7106   6.036  11.352   7.920  0.1076  0.1313 -0.0503
  456POPS   C3B 7107   5.746  11.764   8.135 -0.0855 -0.0710  0.1507
  456POPS   C4B 7108   5.827  12.123   8.351  0.0298  0.2932  0.1238
  457POPS   CNO 7109   1.137  12.378   6.005 -0.3088  0.0873  0.2945
  457POPS   PO4 7110   1.483  12.622   5.974  0.2589 -0.0884  0.0004
  457POPS   GL1 7111   1.334  12.577   6.433 -0.0263 -0.0966  0.0586
  457POPS   GL2 7112   1.390  12.884   6.403  0.0932 -0.1423  0.2876
  457POPS   C1A 7113   1.353  12.556   6.937  0.1668 -0.2653 -0.0604
  457POPS   D2A 7114   1.337  12.848   7.241  0.1176  0.1948  0.0060
  457POPS   C3A 7115   1.301  12.908   7.720 -0.2199 -0.3194 -0.4500
  457POPS   C4A 7116   1.688  12.696   7.947  0.1316  0.3918  0.0902
  457POPS   C1B 7117   1.381  13.094   6.747  0.2920 -0.0547 -0.1305
  457POPS   C2B 7118   1.674  13.398   6.966 -0.0033  0.2854 -0.1963
  457POPS   C3B 7119   1.922  13.649   7.193 -0.0984 -0.1754 -0.1751
  457POPS   C4B 7120   2.125  13.521   7.450  0.1154  0.1422  0.2907
  458POPS   CNO 7121   2.760  10.412   6.669 -0.0489  0.0254  0.0048
  458POPS   PO4 7122   3.162  10.569   6.644  0.1174  0.1908 -0.1392
  458POPS   GL1 7123   3.278  10.314   7.046 -0.0040  0.1080  0.0035
  458POPS   GL2 7124   3.287  10.557   7.244  0.0272  0.1942  0.1259
  458POPS   C1A 7125   2.915  10.116   7.298 -0.2021 -0.0891 -0.2285
  458POPS   D2A 7126   2.775   9.874   7.725  0.0872 -0.1674  0.1139
  458POPS   C3A 7127   2.903   9.945   8.275 -0.2230 -0.0550  0.0821
  458POPS   C4A 7128   2.754   9.703   8.662 -0.0436 -0.1795  0.2044
  458POPS   C1B 7129   3.309  10.707   7.665  0.0426  0.0261  0.0205
  458POPS   C2B 7130   3.461  10.977   7.936 -0.0908 -0.5319  0.2080
  458POPS   C3B 7131   3.458  11.052   8.397  0.1826 -0.1973  0.0689
  458POPS   C4B 7132   3.780  11.092   8.753  0.0675 -0.1766 -0.1746
  459POPS   CNO 7133   9.961  12.074   7.060  0.0501 -0.2166 -0.2134
  459POPS   PO4 7134  10.432  12.274   6.949 -0.1455 -0.0430  0.0768
  459POPS   GL1 7135  10.809  12.442   7.297 -0.0323  0.3371 -0.1518
  459POPS   GL2 7136  10.887  12.168   7.407 -0.1707  0.1292 -0.1303
  459POPS   C1A 7137  10.972  12.616   7.710  0.1676 -0.0803  0.3551
  459POPS   D2A 7138  11.308  12.743   7.953 -0.1241 -0.1090 -0.2614
  459POPS   C3A 7139  11.245  13.028   8.240 -0.0561 -0.0538  0.2826
  459POPS   C4A 7140  11.254  13.260   8.661 -0.1926  0.0699  0.1167
  459POPS   C1B 7141  10.751  12.149   7.791  0.1803  0.0672  0.0781
  459POPS   C2B 7142  10.725  11.998   8.239  0.0373 -0.1632  0.1302
  459POPS   C3B 7143  10.798  11.542   8.456  0.1939 -0.0857  0.1489
  459POPS   C4B 7144  10.556  11.333   8.663 -0.2435 -0.0403  0.0220
  460POPS   CNO 7145   6.148  10.704   6.842 -0.2323  0.1553  0.0518
  460POPS   PO4 7146   6.416  10.417   6.977 -0.0334  0.1279  0.0336
  460POPS   GL1 7147   6.493  10.028   7.313 -0.2945  0.0952 -0.0110
  460POPS   GL2 7148   6.797   9.799   7.253  0.0105  0.2284 -0.1031
  460POPS   C1A 7149   6.511  10.019   7.821  0.1148  0.2438 -0.1625
  460POPS   D2A 7150   6.503   9.944   8.250 -0.0103  0.2789 -0.0513
  460POPS   C3A 7151   6.586   9.520   8.536  0.0961 -0.0110  0.0702
  460POPS   C4A 7152   6.880   9.536   8.787 -0.0564 -0.3519  0.1518
  460POPS   C1B 7153   7.016   9.742   7.548 -0.1992  0.0321  0.1369
  460POPS   C2B 7154   6.919   9.793   7.966 -0.0003 -0.1982 -0.1738
  460POPS   C3B 7155   6.959   9.840   8.365 -0.1894 -0.3486  0.3278
  460POPS   C4B 7156   6.764  10.049   8.639 -0.2032 -0.1890  0.1573
  461POPS   CNO 7157   0.856  17.631   5.859  0.2066 -0.0754  0.3212
  461POPS   PO4 7158   0.548  17.475   6.085  0.0173  0.1663  0.0778
  461POPS   GL1 7159   0.797  17.289   6.323  0.1238 -0.0954  0.2834
  461POPS   GL2 7160   0.673  16.941   6.417  0.1637 -0.2150  0.0631
  461POPS   C1A 7161   0.958  17.388   6.615  0.1530 -0.1723  0.3170
  461POPS   D2A 7162   1.250  17.575   6.912  0.0306 -0.1286  0.1209
  461POPS   C3A 7163   1.098  17.941   7.185 -0.2259  0.0872 -0.0077
  461POPS   C4A 7164   0.877  18.276   7.070  0.1518  0.2214  0.0910
  461POPS   C1B 7165   1.061  16.895   6.723 -0.1579 -0.3131  0.2070
  461POPS   C2B 7166   1.241  17.110   6.996 -0.1314  0.0915 -0.0020
  461POPS   C3B 7167   1.602  17.087   7.186 -0.2885  0.1172  0.0554
  461POPS   C4B 7168   1.617  17.139   7.579  0.0580  0.4682 -0.1469
  462POPS   CNO 7169   3.294   8.838   6.582  0.2156 -0.1036  0.2257
  462POPS   PO4 7170   3.051   8.568   6.320  0.0520 -0.1694 -0.2517
  462POPS   GL1 7171   2.946   8.549   6.728  0.0611  0.0956 -0.0076
  462POPS   GL2 7172   2.925   8.921   6.909 -0.1662 -0.0038  0.0468
  462POPS   C1A 7173   2.924   8.485   7.138 -0.2503 -0.0612  0.0593
  462POPS   D2A 7174   2.646   8.400   7.414  0.1370  0.1425  0.1844
  462POPS   C3A 7175   2.624   8.440   7.840 -0.2426  0.0442  0.0975
  462POPS   C4A 7176   2.522   8.233   8.247  0.0682 -0.0315  0.0302
  462POPS   C1B 7177   2.889   9.080   7.329 -0.0230 -0.0155  0.0879
  462POPS   C2B 7178   2.617   8.918   7.586 -0.0885  0.0252 -0.2232
  462POPS   C3B 7179   2.420   8.910   7.971 -0.3398 -0.0305 -0.0206
  462POPS   C4B 7180   2.600   8.692   8.272 -0.1703  0.1296  0.1859
  463POPS   CNO 7181   1.858  17.234   6.312  0.0364 -0.1364 -0.2608
  463POPS   PO4 7182   1.966  17.637   6.094  0.0641  0.1862  0.2388
  463POPS   GL1 7183   2.024  17.675   6.473 -0.2562 -0.0543  0.1683
  463POPS   GL2 7184   2.271  17.482   6.576 -0.1414 -0.0289  0.1244
  463POPS   C1A 7185   2.193  17.962   6.837 -0.0048  0.3182 -0.0075
  463POPS   D2A 7186   2.088  17.812   7.225  0.1774 -0.4851 -0.0032
  463POPS   C3A 7187   1.693  17.603   7.278  0.3795 -0.0957 -0.0661
  463POPS   C4A 7188   1.284  17.544   7.446 -0.0252  0.1944  0.0488
  463POPS   C1B 7189   2.512  17.436   6.926  0.0971  0.0485  0.2726
  463POPS   C2B 7190   2.844  17.620   7.277 -0.0609 -0.1232  0.1976
  463POPS   C3B 7191   2.788  17.603   7.662  0.0287 -0.1906  0.2734
  463POPS   C4B 7192   2.931  17.654   8.069  0.1486  0.1328 -0.0257
  464POPS   CNO 7193   4.139  15.293   6.201 -0.1949  0.0151  0.0955
  464POPS   PO4 7194   3.819  15.558   6.304 -0.2750  0.2169 -0.0127
  464POPS   GL1 7195   4.089  15.654   6.681 -0.0969  0.1592  0.3129
  464POPS   GL2 7196   4.104  15.977   6.819 -0.1936  0.2479  0.2661
  464POPS   C1A 7197   3.979  15.439   7.105 -0.0078  0.3952  0.1139
  464POPS   D2A 7198   3.994  15.551   7.585 -0.1708  0.1523 -0.0620
  464POPS   C3A 7199   3.841  15.455   7.996 -0.0732  0.1730  0.1417
  464POPS   C4A 7200   3.685  15.451   8.363  0.2288 -0.0453 -0.3541
  464POPS   C1B 7201   3.978  15.941   7.199 -0.0905  0.1066 -0.0149
  464POPS   C2B 7202   3.899  16.077   7.729 -0.1779 -0.1043 -0.0610
  464POPS   C3B 7203   3.822  16.311   8.222  0.0490  0.3389  0.1957
  464POPS   C4B 7204   3.529  16.522   8.472  0.2795 -0.0424 -0.2422
  465POPS   CNO 7205   2.076   8.589   6.351 -0.0807 -0.0735  0.2053
  465POPS   PO4 7206   1.674   8.574   6.347  0.1327  0.0728  0.1144
  465POPS   GL1 7207   1.767   8.597   6.742  0.1210 -0.0056 -0.3704
  465POPS   GL2 7208   1.903   8.293   6.705  0.0244  0.4094 -0.1661
  465POPS   C1A 7209   1.892   8.897   7.112  0.1987 -0.0631 -0.2215
  465POPS   D2A 7210   1.934   9.168   7.480 -0.0844  0.0151  0.0398
  465POPS   C3A 7211   1.719   9.433   7.833 -0.1716  0.0666  0.0980
  465POPS   C4A 7212   1.478   9.390   8.128 -0.2602  0.5460 -0.2589
  465POPS   C1B 7213   2.012   8.356   7.145  0.0145 -0.1562  0.0213
  465POPS   C2B 7214   2.182   8.540   7.435 -0.0680 -0.1001 -0.1718
  465POPS   C3B 7215   2.080   8.554   7.813  0.0844 -0.2013  0.3470
  465POPS   C4B 7216   2.098   8.611   8.270 -0.1775  0.0695 -0.0100
  466POPS   CNO 7217   1.029  12.879   5.992 -0.0277  0.0258  0.1937
  466POPS   PO4 7218   0.923  13.170   6.291  0.0517  0.1497  0.2032
  466POPS   GL1 7219   0.766  13.083   6.704 -0.0348  0.0371 -0.0513
  466POPS   GL2 7220   0.926  12.964   6.954 -0.1186 -0.3828  0.0027
  466POPS   C1A 7221   0.448  13.056   7.017 -0.2822  0.2958  0.1719
  466POPS   D2A 7222   0.435  12.731   7.224 -0.0791  0.0480  0.2807
  466POPS   C3A 7223   0.212  12.794   7.610  0.1513  0.1490 -0.0197
  466POPS   C4A 7224   0.014  13.224   7.864  0.1377  0.0250 -0.2259
  466POPS   C1B 7225   0.794  13.074   7.362  0.0232  0.0199  0.0231
  466POPS   C2B 7226   0.815  12.783   7.760 -0.1876  0.2251  0.0358
  466POPS   C3B 7227   0.730  12.578   8.080 -0.0784 -0.1471 -0.3727
  466POPS   C4B 7228   0.777  12.484   8.570 -0.0465  0.1226  0.1432
  467POPS   CNO 7229   5.427   6.677   6.186 -0.2273  0.0317  0.2812
  467POPS   PO4 7230   5.602   6.895   6.510  0.1900  0.3089 -0.1212
  467POPS   GL1 7231   5.414   6.916   6.908  0.2128 -0.1483 -0.2602
  467POPS   GL2 7232   5.107   7.017   6.876 -0.1400 -0.0138  0.3067
  467POPS   C1A 7233   5.343   6.830   7.313 -0.3122 -0.0240  0.5055
  467POPS   D2A 7234   5.231   6.948   7.813 -0.2456 -0.0158  0.0235
  467POPS   C3A 7235   5.308   7.300   8.068  0.1311 -0.4993 -0.4431
  467POPS   C4A 7236   5.682   7.564   8.204  0.0173  0.3442  0.1555
  467POPS   C1B 7237   4.903   7.092   7.346 -0.1899 -0.3280  0.3139
  467POPS   C2B 7238   4.802   7.264   7.852 -0.2328 -0.2817  0.0448
  467POPS   C3B 7239   4.608   7.305   8.146  0.3211  0.0275  0.1803
  467POPS   C4B 7240   4.534   7.578   8.534 -0.0376 -0.1154 -0.1712
  468POPS   CNO 7241   5.110  15.985   6.536  0.0082 -0.0428 -0.0372
  468POPS   PO4 7242   5.376  15.601   6.501  0.2765  0.1915  0.0245
  468POPS   GL1 7243   5.311  15.766   6.965 -0.0128  0.1800  0.1265
  468POPS   GL2 7244   4.998  15.932   7.026  0.3625 -0.2480 -0.1297
  468POPS   C1A 7245   5.456  15.957   7.320  0.1095  0.1833 -0.1643
  468POPS   D2A 7246   5.329  16.008   7.792 -0.1075  0.1116  0.1150
  468POPS   C3A 7247   5.542  16.001   8.124 -0.0980  0.1478  0.0380
  468POPS   C4A 7248   5.658  15.976   8.555  0.1368 -0.1313  0.0165
  468POPS   C1B 7249   4.906  15.788   7.421 -0.0168 -0.0730  0.0054
  468POPS   C2B 7250   4.925  15.725   7.842 -0.0619  0.0223 -0.1278
  468POPS   C3B 7251   4.887  15.435   8.182 -0.1522 -0.0603 -0.0368
  468POPS   C4B 7252   5.203  15.225   8.393 -0.0091  0.1404  0.5361
  469YOPS   CNO 7253  12.466  14.358   6.322 -0.3570 -0.1390 -0.2770
  469YOPS   PO4 7254  12.099  14.598   6.455 -0.2041 -0.2330 -0.2493
  469YOPS   GL1 7255  11.996  14.502   6.922 -0.0188  0.0261 -0.0479
  469YOPS   GL2 7256  12.194  14.221   7.010  0.0479  0.3101 -0.0722
  469YOPS   C1A 7257  12.112  14.639   7.349 -0.1082 -0.0308  0.0946
  469YOPS   D2A 7258  12.346  14.707   7.836 -0.1121 -0.0666  0.2252
  469YOPS   C3A 7259  12.620  14.751   8.211 -0.3869  0.0222 -0.0401
  469YOPS   C4A 7260  12.808  14.901   8.620 -0.1512 -0.0761 -0.0959
  469YOPS   C1B 7261  12.352  14.203   7.393  0.0924 -0.1398  0.0983
  469YOPS   C2B 7262  12.599  14.304   7.631  0.1954  0.1237  0.1065
  469YOPS   D3B 7263  12.640  14.152   8.060  0.0231 -0.1929  0.2126
  469YOPS   C4B 7264  12.978  14.392   8.301  0.1530 -0.0302 -0.0433
  470YOPS   CNO 7265   5.126   7.904   6.556  0.3093 -0.0755 -0.0822
  470YOPS   PO4 7266   4.932   7.563   6.574 -0.0279  0.2387 -0.0848
  470YOPS   GL1 7267   4.976   7.550   7.033 -0.2735  0.1450 -0.1427
  470YOPS   GL2 7268   5.316   7.736   7.054  0.0638  0.3300 -0.4061
  470YOPS   C1A 7269   4.914   7.824   7.391 -0.1167  0.1281  0.1351
  470YOPS   D2A 7270   5.246   8.055   7.615 -0.3961 -0.0341 -0.2320
  470YOPS   C3A 7271   5.586   7.909   7.813 -0.0416  0.0579 -0.0203
  470YOPS   C4A 7272   5.962   8.156   8.012  0.0542  0.2131  0.2001
  470YOPS   C1B 7273   5.640   7.890   7.220 -0.1271 -0.2210  0.0348
  470YOPS   C2B 7274   6.040   7.936   7.493 -0.0131 -0.0666 -0.0017
  470YOPS   D3B 7275   6.336   7.740   7.751  0.1773  0.1746 -0.2298
  470YOPS   C4B 7276   6.333   7.836   8.247  0.0856  0.2126 -0.1865
  471YOPS   CNO 7277  10.778   3.340   6.676 -0.4599 -0.1499  0.0171
  471YOPS   PO4 7278  10.570   3.090   6.326 -0.0188 -0.1795  0.0400
  471YOPS   GL1 7279  10.656   2.698   6.693  0.3990 -0.0203  0.2193
  471YOPS   GL2 7280  10.361   2.524   6.815  0.2066  0.2647 -0.1856
  471YOPS   C1A 7281  10.863   2.484   7.030 -0.2830  0.1952  0.4223
  471YOPS   D2A 7282  10.798   2.532   7.492 -0.1202 -0.0649  0.3169
  471YOPS   C3A 7283  10.906   2.511   7.863  0.0484  0.1789  0.0696
  471YOPS   C4A 7284  10.701   2.537   8.165 -0.1590 -0.0969 -0.2741
  471YOPS   C1B 7285  10.292   2.428   7.208  0.2738  0.0877  0.2880
  471YOPS   C2B 7286  10.068   2.503   7.528 -0.0898  0.0387  0.0907
  471YOPS   D3B 7287   9.882   2.835   7.797  0.1537  0.0575  0.2489
  471YOPS   C4B 7288   9.897   3.141   8.199 -0.0695 -0.0540  0.0782
  472YOPS   CNO 7289   0.847  10.970   6.008  0.1266 -0.0933  0.0475
  472YOPS   PO4 7290   0.699  10.788   6.337 -0.1366  0.0734  0.0279
  472YOPS   GL1 7291   0.472  10.738   6.674 -0.0444 -0.0707 -0.0531
  472YOPS   GL2 7292   0.307  11.050   6.689  0.1326 -0.0916 -0.1731
  472YOPS   C1A 7293   0.452  10.724   7.193 -0.1471 -0.0319  0.1177
  472YOPS   D2A 7294   0.428  10.514   7.507  0.1257  0.0832  0.0375
  472YOPS   C3A 7295   0.646  10.447   7.934 -0.3410 -0.0719 -0.0586
  472YOPS   C4A 7296   0.491  10.188   8.346  0.0152  0.3034  0.0044
  472YOPS   C1B 7297   0.419  11.241   7.005 -0.0221 -0.1800 -0.2065
  472YOPS   C2B 7298   0.315  11.205   7.491 -0.1861  0.2053  0.0235
  472YOPS   D3B 7299   0.220  11.342   7.848  0.2436 -0.0074  0.4079
  472YOPS   C4B 7300  -0.196  11.476   8.001  0.0131 -0.0600  0.5021
  473YOPS   CNO 7301   3.021   2.673   5.717 -0.2747 -0.0995  0.1842
  473YOPS   PO4 7302   3.084   2.396   6.015 -0.0157  0.0652  0.0065
  473YOPS   GL1 7303   3.168   2.333   6.323  0.0947 -0.0453  0.2564
  473YOPS   GL2 7304   2.828   2.351   6.546  0.3045 -0.1170  0.0695
  473YOPS   C1A 7305   3.378   2.302   6.743  0.4717 -0.1080 -0.0794
  473YOPS   D2A 7306   3.625   2.359   7.044  0.0723 -0.3307  0.2137
  473YOPS   C3A 7307   3.429   2.393   7.470  0.2009 -0.0945 -0.0303
  473YOPS   C4A 7308   3.144   2.238   7.691  0.1512 -0.2143  0.0304
  473YOPS   C1B 7309   2.944   2.291   6.940 -0.5330 -0.0622  0.0811
  473YOPS   C2B 7310   3.133   1.962   7.197  0.1821  0.0442  0.1547
  473YOPS   D3B 7311   3.139   1.652   7.533  0.0517 -0.1356 -0.0380
  473YOPS   C4B 7312   2.735   1.427   7.546 -0.2811  0.2031 -0.1383
  474YOPS   CNO 7313  10.379   0.874   6.254  0.0705  0.1786  0.4852
  474YOPS   PO4 7314  10.061   0.916   6.472 -0.0899 -0.0457 -0.1003
  474YOPS   GL1 7315   9.891   0.866   6.835  0.2614 -0.1111 -0.1457
  474YOPS   GL2 7316   9.605   0.853   6.900 -0.1349 -0.2447  0.0409
  474YOPS   C1A 7317   9.862   1.010   7.301  0.0093 -0.0573 -0.0302
  474YOPS   D2A 7318   9.727   0.797   7.619  0.0501  0.1608 -0.1061
  474YOPS   C3A 7319   9.591   0.560   8.025  0.2038  0.6152 -0.1321
  474YOPS   C4A 7320   9.298   0.203   8.100 -0.0440 -0.0316 -0.1810
  474YOPS   C1B 7321   9.378   0.787   7.222  0.0353  0.4523 -0.0369
  474YOPS   C2B 7322   9.174   0.647   7.671  0.2366  0.1440 -0.0469
  474YOPS   D3B 7323   9.051   0.632   8.139  0.0995 -0.0824  0.0336
  474YOPS   C4B 7324   9.341   0.516   8.462  0.1959 -0.1189 -0.0590
  475YOPS   CNO 7325  10.288   7.069   6.421 -0.0177 -0.0090 -0.0063
  475YOPS   PO4 7326  10.527   7.299   6.568  0.0498  0.0489 -0.1708
  475YOPS   GL1 7327  10.488   7.365   7.029 -0.4663 -0.0402 -0.0371
  475YOPS   GL2 7328  10.700   7.591   7.166  0.0640 -0.0832  0.0480
  475YOPS   C1A 7329  10.233   7.333   7.404 -0.3528 -0.0726  0.0322
  475YOPS   D2A 7330  10.321   7.062   7.756 -0.1896 -0.0355  0.0536
  475YOPS   C3A 7331  10.475   7.069   8.131 -0.2564 -0.0739 -0.0556
  475YOPS   C4A 7332  10.171   6.937   8.448  0.0654 -0.1232  0.1067
  475YOPS   C1B 7333  10.452   7.734   7.637  0.1306  0.2424  0.0041
  475YOPS   C2B 7334  10.533   7.591   8.028  0.0049 -0.0428 -0.0808
  475YOPS   D3B 7335  10.427   7.476   8.492  0.1639 -0.0280  0.0111
  475YOPS   C4B 7336  10.596   7.120   8.675 -0.0023  0.0330 -0.1662
  476YOPS   CNO 7337   3.245  12.189   6.072  0.0279  0.0292 -0.0372
  476YOPS   PO4 7338   3.450  12.286   6.361 -0.1462  0.1339  0.1929
  476YOPS   GL1 7339   3.495  12.516   6.896  0.0277  0.3436 -0.3802
  476YOPS   GL2 7340   3.300  12.396   7.120 -0.3452 -0.2271  0.0139
  476YOPS   C1A 7341   3.645  12.877   7.155  0.1495 -0.0617 -0.0664
  476YOPS   D2A 7342   3.989  12.993   7.357 -0.0602  0.0510 -0.3235
  476YOPS   C3A 7343   4.236  13.014   7.646 -0.0979  0.2027 -0.2852
  476YOPS   C4A 7344   4.052  12.841   8.059  0.1716  0.0570 -0.0147
  476YOPS   C1B 7345   3.380  12.347   7.463  0.2758  0.2125 -0.3099
  476YOPS   C2B 7346   3.365  12.327   7.906 -0.2432 -0.0678 -0.0730
  476YOPS   D3B 7347   3.416  12.664   8.179 -0.2775  0.0845  0.1610
  476YOPS   C4B 7348   3.221  12.999   7.998 -0.1959  0.0285 -0.0181
  477YOPS   CNO 7349   0.982  10.413   6.536  0.1918 -0.1617 -0.0932
  477YOPS   PO4 7350   1.323  10.271   6.264  0.2779  0.0934 -0.0476
  477YOPS   GL1 7351   1.469  10.480   6.626 -0.4856 -0.2022  0.2376
  477YOPS   GL2 7352   1.338  10.647   6.945  0.0699  0.2178  0.2491
  477YOPS   C1A 7353   1.676  10.269   7.075 -0.0974  0.0855  0.1176
  477YOPS   D2A 7354   1.727  10.127   7.533  0.0737 -0.0611 -0.0171
  477YOPS   C3A 7355   1.464   9.949   7.787 -0.1257 -0.0937  0.4460
  477YOPS   C4A 7356   1.158   9.642   7.749 -0.0138  0.3959 -0.0550
  477YOPS   C1B 7357   1.481  10.628   7.408  0.4527  0.1650 -0.0803
  477YOPS   C2B 7358   1.518  10.896   7.690 -0.3338 -0.2292 -0.5358
  477YOPS   D3B 7359   1.669  10.910   8.005 -0.0213 -0.0411 -0.1658
  477YOPS   C4B 7360   1.547  11.322   8.242  0.0292 -0.0376  0.2731
  478YOPS   CNO 7361   5.245   5.644   6.244  0.0864 -0.0571 -0.1575
  478YOPS   PO4 7362   5.441   5.857   6.627  0.1114  0.2438  0.3806
  478YOPS   GL1 7363   5.495   5.756   7.009 -0.2321  0.1606  0.1784
  478YOPS   GL2 7364   5.539   5.352   7.051  0.1007 -0.1880 -0.2008
  478YOPS   C1A 7365   5.565   5.623   7.425 -0.1126 -0.1030 -0.0899
  478YOPS   D2A 7366   5.626   5.385   7.926 -0.1297 -0.4982  0.0772
  478YOPS   C3A 7367   5.670   5.522   8.310 -0.2752  0.1077  0.1574
  478YOPS   C4A 7368   6.007   5.346   8.619 -0.0375  0.3526  0.1416
  478YOPS   C1B 7369   5.090   5.377   7.279  0.1761  0.0090  0.0276
  478YOPS   C2B 7370   5.148   5.295   7.597 -0.2680 -0.2260 -0.3052
  478YOPS   D3B 7371   4.864   5.204   7.785  0.0546 -0.5063 -0.1836
  478YOPS   C4B 7372   4.791   5.326   8.141 -0.2462 -0.0499 -0.3209
  479YOPS   CNO 7373   1.416  11.779   5.917 -0.1051 -0.1084 -0.0498
  479YOPS   PO4 7374   1.428  11.658   6.335  0.2261 -0.1577  0.2050
  479YOPS   GL1 7375   1.654  11.802   6.679 -0.0920  0.3032  0.0911
  479YOPS   GL2 7376   1.604  12.187   6.702  0.0647  0.2056  0.1389
  479YOPS   C1A 7377   1.714  11.833   7.122 -0.1737 -0.2425  0.1229
  479YOPS   D2A 7378   1.557  11.976   7.504  0.1828  0.3530 -0.2956
  479YOPS   C3A 7379   1.534  12.220   7.814 -0.1751  0.0160 -0.2456
  479YOPS   C4A 7380   1.583  12.121   8.232 -0.2591 -0.0674  0.1794
  479YOPS   C1B 7381   1.315  12.021   6.930 -0.0627  0.0914 -0.1011
  479YOPS   C2B 7382   0.942  11.949   7.029 -0.4033 -0.5205  0.2882
  479YOPS   D3B 7383   0.814  12.082   7.375 -0.0105  0.1003  0.1402
  479YOPS   C4B 7384   0.517  12.295   7.624 -0.1676  0.1693 -0.0010
  480YOPS   CNO 7385   3.804  16.093   6.296 -0.2720  0.0124 -0.0268
  480YOPS   PO4 7386   3.727  16.215   6.590  0.1125 -0.3035  0.5183
  480YOPS   GL1 7387   3.541  16.262   6.997  0.0532 -0.1180  0.4791
  480YOPS   GL2 7388   3.223  16.135   6.977 -0.2479 -0.1670  0.1190
  480YOPS   C1A 7389   3.649  16.281   7.378 -0.0455  0.1140 -0.0558
  480YOPS   D2A 7390   3.523  16.405   7.861 -0.3873  0.1030 -0.0937
  480YOPS   C3A 7391   3.248  16.560   8.045 -0.0356 -0.1252 -0.2931
  480YOPS   C4A 7392   2.883  16.630   7.776  0.1556 -0.0185  0.1132
  480YOPS   C1B 7393   2.814  16.236   7.197  0.1601  0.0841 -0.2163
  480YOPS   C2B 7394   2.617  16.267   7.542 -0.2754 -0.1065 -0.2079
  480YOPS   D3B 7395   2.379  16.471   7.847 -0.0166 -0.1902 -0.0473
  480YOPS   C4B 7396   2.524  16.737   8.183 -0.1272  0.0073  0.1245
  481YOPS   CNO 7397   2.412   3.797   5.741  0.4398 -0.0809  0.0678
  481YOPS   PO4 7398   2.697   3.680   6.048  0.0391 -0.1553  0.0378
  481YOPS   GL1 7399   2.739   3.322   6.434  0.3144 -0.0735  0.1572
  481YOPS   GL2 7400   2.476   3.095   6.575 -0.1021  0.0604 -0.0202
  481YOPS   C1A 7401   2.695   3.368   6.913  0.2915 -0.5651 -0.3650
  481YOPS   D2A 7402   2.850   3.239   7.281 -0.1965  0.0885 -0.0247
  481YOPS   C3A 7403   2.856   2.993   7.678  0.0291 -0.0034  0.2384
  481YOPS   C4A 7404   3.324   2.786   7.752 -0.0453  0.2688  0.2182
  481YOPS   C1B 7405   2.445   2.633   6.616 -0.2935 -0.1541  0.0506
  481YOPS   C2B 7406   2.383   2.292   6.903  0.5134  0.3454  0.0973
  481YOPS   D3B 7407   2.153   2.060   7.107  0.3554 -0.0969 -0.0509
  481YOPS   C4B 7408   2.205   1.933   7.508  0.1150 -0.0844  0.0782
  482YOPS   CNO 7409   4.783  10.034   6.049  0.0578 -0.0216 -0.0298
  482YOPS   PO4 7410   5.150   9.906   6.230 -0.0619 -0.1037  0.0793
  482YOPS   GL1 7411   5.194   9.900   6.654  0.1054  0.1227  0.1244
  482YOPS   GL2 7412   5.424   9.630   6.646 -0.1297  0.1404 -0.2081
  482YOPS   C1A 7413   5.370   9.916   7.099  0.2092 -0.0043  0.0253
  482YOPS   D2A 7414   5.475  10.308   7.354 -0.0524  0.2215  0.0402
  482YOPS   C3A 7415   5.413  10.540   7.776 -0.0480 -0.1070  0.1339
  482YOPS   C4A 7416   5.753  10.381   8.060  0.5327  0.0723 -0.0441
  482YOPS   C1B 7417   5.412   9.370   6.975  0.0842 -0.1980 -0.0124
  482YOPS   C2B 7418   5.431   9.080   7.405  0.0232 -0.2851 -0.1800
  482YOPS   D3B 7419   5.479   9.211   7.781  0.0654  0.0979 -0.3369
  482YOPS   C4B 7420   5.512   8.950   8.079  0.0229 -0.2002 -0.4770
  483YOPS   CNO 7421   9.721  11.236   6.516 -0.0996 -0.0837  0.0545
  483YOPS   PO4 7422   9.567  11.064   6.824 -0.0389 -0.1767  0.2497
  483YOPS   GL1 7423   9.730  11.157   7.274 -0.0887  0.1918 -0.0365
  483YOPS   GL2 7424   9.853  11.440   7.254 -0.1686  0.0748  0.1096
  483YOPS   C1A 7425   9.811  11.001   7.659  0.1663 -0.0020  0.0201
  483YOPS   D2A 7426   9.851  10.907   8.084  0.0508  0.0122  0.0997
  483YOPS   C3A 7427  10.090  10.788   8.491 -0.1396  0.0569 -0.3809
  483YOPS   C4A 7428  10.308  10.434   8.459  0.3563  0.1118 -0.0775
  483YOPS   C1B 7429   9.826  11.823   7.437  0.1092  0.1132  0.0083
  483YOPS   C2B 7430   9.754  11.965   7.839 -0.0212 -0.0606 -0.1477
  483YOPS   D3B 7431   9.546  12.144   8.156 -0.0601  0.0938  0.0415
  483YOPS   C4B 7432   9.623  11.982   8.673 -0.3730 -0.1850  0.0657
  484YOPS   CNO 7433   3.503  13.961   6.327  0.1955  0.0451  0.0106
  484YOPS   PO4 7434   3.738  14.320   6.475  0.2194 -0.1025  0.0223
  484YOPS   GL1 7435   3.832  14.479   6.912 -0.0091 -0.0164 -0.0187
  484YOPS   GL2 7436   3.634  14.666   6.941 -0.3428 -0.0539  0.0491
  484YOPS   C1A 7437   3.773  14.620   7.419 -0.1444 -0.2441 -0.1618
  484YOPS   D2A 7438   4.067  14.590   7.859 -0.2678 -0.1832  0.0332
  484YOPS   C3A 7439   4.315  14.573   8.193  0.0840  0.1836  0.1630
  484YOPS   C4A 7440   4.397  14.816   8.674 -0.2100  0.1256  0.1147
  484YOPS   C1B 7441   3.301  14.726   7.315  0.3902  0.1079 -0.0438
  484YOPS   C2B 7442   3.199  14.813   7.677  0.0752  0.0188  0.0703
  484YOPS   D3B 7443   3.067  15.014   8.010  0.0490 -0.0215 -0.2924
  484YOPS   C4B 7444   3.309  15.328   8.010  0.5358 -0.0305 -0.3169
  485YOPS   CNO 7445   9.512   8.724   6.607  0.2431  0.0603  0.3245
  485YOPS   PO4 7446   9.940   8.648   6.862  0.1362  0.1726 -0.2460
  485YOPS   GL1 7447   9.911   8.539   7.252 -0.0546 -0.0513  0.0098
  485YOPS   GL2 7448   9.874   8.205   7.290  0.2127 -0.1185 -0.2788
  485YOPS   C1A 7449   9.583   8.632   7.542 -0.0541 -0.1201  0.2781
  485YOPS   D2A 7450   9.461   8.563   7.951 -0.4889  0.3535  0.2142
  485YOPS   C3A 7451   9.237   8.501   8.358  0.1480 -0.0212 -0.3209
  485YOPS   C4A 7452   9.440   8.437   8.697  0.2207 -0.0985  0.0023
  485YOPS   C1B 7453   9.642   8.109   7.737  0.0243 -0.2199  0.2971
  485YOPS   C2B 7454   9.469   8.044   8.195  0.0231  0.0667  0.0602
  485YOPS   D3B 7455   9.151   7.997   8.533  0.2395  0.0797 -0.1339
  485YOPS   C4B 7456   8.747   7.914   8.533 -0.2323 -0.1185  0.0963
  486POPE   NH3 7457   1.986  16.803   6.148 -0.0986  0.0442  0.1919
  486POPE   PO4 7458   2.462  16.833   6.217  0.1442  0.0903  0.4782
  486POPE   GL1 7459   2.610  16.595   6.559  0.0020  0.3680 -0.0479
  486POPE   GL2 7460   2.316  16.468   6.670  0.1525 -0.0193  0.1113
  486POPE   C1A 7461   2.916  16.583   6.911  0.1733  0.4497  0.1350
  486POPE   D2A 7462   3.152  16.692   7.321 -0.0934  0.2288 -0.1154
  486POPE   C3A 7463   3.133  16.286   7.573  0.0687  0.0303  0.1886
  486POPE   C4A 7464   2.897  16.114   7.967 -0.0595  0.1263  0.1509
  486POPE   C1B 7465   2.346  16.344   7.050  0.1777 -0.2514 -0.0140
  486POPE   C2B 7466   2.052  16.246   7.275 -0.0694  0.2783 -0.1203
  486POPE   C3B 7467   1.982  16.271   7.591  0.2496 -0.0900 -0.3178
  486POPE   C4B 7468   1.943  16.171   8.035 -0.1811  0.0167  0.0722
  487POPE   NH3 7469   3.862  14.773   6.454  0.0599  0.3636  0.0652
  487POPE   PO4 7470   3.395  14.822   6.542 -0.1151 -0.4497 -0.1657
  487POPE   GL1 7471   3.107  15.206   6.724  0.0063 -0.2142  0.1034
  487POPE   GL2 7472   3.285  15.401   6.577  0.1310 -0.1463 -0.2745
  487POPE   C1A 7473   2.952  15.342   7.082 -0.1171 -0.0821  0.0479
  487POPE   D2A 7474   3.105  15.351   7.520 -0.1839  0.1801  0.2922
  487POPE   C3A 7475   2.965  15.623   7.819 -0.2464  0.0565 -0.0027
  487POPE   C4A 7476   3.020  15.724   8.298  0.0259 -0.1780 -0.0242
  487POPE   C1B 7477   3.446  15.140   7.069  0.1354 -0.1210 -0.1677
  487POPE   C2B 7478   3.658  15.144   7.443 -0.3996  0.0235  0.1145
  487POPE   C3B 7479   3.640  14.885   7.910  0.1305  0.1112 -0.1420
  487POPE   C4B 7480   3.573  14.969   8.368 -0.0286 -0.2204 -0.1116
  488POPE   NH3 7481  10.131  13.782   6.732 -0.1191  0.1106 -0.0907
  488POPE   PO4 7482  10.583  14.062   6.570  0.0360  0.1534  0.2216
  488POPE   GL1 7483  10.396  14.196   7.003  0.1463 -0.1798  0.1960
  488POPE   GL2 7484  10.019  14.219   7.038  0.0930  0.2450 -0.0698
  488POPE   C1A 7485  10.473  14.017   7.521 -0.1064  0.2535  0.1399
  488POPE   D2A 7486  10.669  13.770   7.871 -0.3420 -0.2463 -0.0200
  488POPE   C3A 7487  10.717  13.866   8.275 -0.1390  0.0223 -0.1727
  488POPE   C4A 7488  10.957  14.206   8.497 -0.1048  0.2497  0.0054
  488POPE   C1B 7489  10.005  14.026   7.532 -0.4351 -0.0349 -0.1582
  488POPE   C2B 7490  10.170  13.918   7.929  0.0675 -0.0428 -0.1022
  488POPE   C3B 7491  10.298  13.559   8.179  0.0760  0.1279  0.1202
  488POPE   C4B 7492  10.325  13.105   8.242 -0.0587  0.0616  0.0039
  489POPE   NH3 7493   0.649  12.297   6.231  0.1447  0.2959  0.0694
  489POPE   PO4 7494   0.800  12.663   6.438 -0.3931 -0.1197  0.0415
  489POPE   GL1 7495   0.871  12.473   6.815 -0.2867 -0.0503  0.1229
  489POPE   GL2 7496   0.686  12.231   6.732  0.2715 -0.1619 -0.2619
  489POPE   C1A 7497   0.902  12.574   7.277 -0.4917 -0.1760  0.2894
  489POPE   D2A 7498   1.196  12.384   7.463  0.0722  0.0390 -0.1648
  489POPE   C3A 7499   0.959  12.204   7.838  0.1049  0.3666  0.2821
  489POPE   C4A 7500   1.002  12.134   8.228  0.1217  0.2497  0.0559
  489POPE   C1B 7501   0.447  12.308   7.047 -0.0908 -0.5663 -0.0551
  489POPE   C2B 7502   0.131  12.335   7.322 -0.1431  0.0197 -0.2433
  489POPE   C3B 7503  -0.016  12.315   7.761 -0.1031  0.0893 -0.2950
  489POPE   C4B 7504  -0.187  12.136   8.098  0.0229 -0.1758 -0.1178
  490POPE   NH3 7505   9.036   3.382   5.982 -0.0745 -0.2034 -0.1333
  490POPE   PO4 7506   9.316   3.067   5.938  0.0212  0.1581 -0.0945
  490POPE   GL1 7507   9.478   3.267   6.260 -0.4203  0.0761 -0.1522
  490POPE   GL2 7508   9.709   3.223   6.482  0.0196  0.5396  0.0203
  490POPE   C1A 7509   9.352   3.647   6.535 -0.1201 -0.0122 -0.3130
  490POPE   D2A 7510   9.247   4.111   6.635  0.0514  0.1486  0.3198
  490POPE   C3A 7511   8.890   4.301   6.866 -0.1901  0.0606  0.1029
  490POPE   C4A 7512   8.743   4.333   7.225 -0.1021 -0.2885 -0.1745
  490POPE   C1B 7513   9.857   3.432   6.824  0.2470  0.3175 -0.1521
  490POPE   C2B 7514   9.835   3.429   7.216 -0.0419 -0.0983  0.0134
  490POPE   C3B 7515   9.606   3.674   7.423  0.1593 -0.3168 -0.4020
  490POPE   C4B 7516   9.590   3.909   7.733  0.1996 -0.2344 -0.0345
  491POPE   NH3 7517   5.131  14.942   6.680 -0.0022 -0.0162  0.2041
  491POPE   PO4 7518   4.856  14.456   6.771  0.0765  0.0235 -0.4403
  491POPE   GL1 7519   5.145  14.408   7.068  0.1814  0.1770 -0.2037
  491POPE   GL2 7520   5.290  14.156   7.185  0.1217 -0.0189  0.1781
  491POPE   C1A 7521   5.272  14.548   7.481  0.0878  0.1705  0.1780
  491POPE   D2A 7522   5.437  14.488   8.018  0.0406  0.2858 -0.0853
  491POPE   C3A 7523   5.266  14.734   8.285 -0.2176 -0.0716 -0.0445
  491POPE   C4A 7524   5.007  14.723   8.585 -0.1360 -0.0744 -0.1062
  491POPE   C1B 7525   5.108  14.097   7.628  0.0835 -0.1599  0.1541
  491POPE   C2B 7526   5.154  14.059   8.125  0.1473  0.0850 -0.2656
  491POPE   C3B 7527   5.184  14.175   8.510 -0.1625 -0.1849  0.1519
  491POPE   C4B 7528   5.370  14.468   8.943 -0.0687 -0.1337 -0.2197
  492POPE   NH3 7529   7.224   9.983   6.941 -0.1719 -0.1281  0.1249
  492POPE   PO4 7530   6.811  10.145   6.803  0.1347 -0.1138  0.1599
  492POPE   GL1 7531   6.895  10.288   7.187  0.0664 -0.3134  0.3711
  492POPE   GL2 7532   7.096  10.354   7.347  0.2242 -0.1037 -0.0781
  492POPE   C1A 7533   6.617  10.448   7.552 -0.1585 -0.0769  0.3508
  492POPE   D2A 7534   6.296  10.529   7.795  0.0874 -0.2041 -0.2584
  492POPE   C3A 7535   6.297  10.479   8.165  0.4534  0.0308 -0.4205
  492POPE   C4A 7536   6.108  10.367   8.591 -0.1015  0.0537 -0.1443
  492POPE   C1B 7537   7.017  10.220   7.764 -0.0617 -0.0109 -0.1969
  492POPE   C2B 7538   6.750  10.380   8.077  0.3281 -0.0171  0.0682
  492POPE   C3B 7539   6.702  10.544   8.458  0.2118  0.0415 -0.0573
  492POPE   C4B 7540   6.423  10.878   8.744 -0.1904  0.1551  0.2577
  493POPE   NH3 7541   1.261  14.377   6.367 -0.1192  0.1713  0.0679
  493POPE   PO4 7542   1.490  14.722   6.435 -0.1239  0.1426 -0.0109
  493POPE   GL1 7543   1.558  14.588   6.708  0.2141  0.1674 -0.2026
  493POPE   GL2 7544   1.716  14.249   6.573  0.1492 -0.2539 -0.1869
  493POPE   C1A 7545   1.433  14.390   7.107  0.1162  0.4012 -0.1003
  493POPE   D2A 7546   1.369  14.405   7.536  0.2520 -0.0184  0.2660
  493POPE   C3A 7547   1.525  14.206   7.825 -0.1083  0.0536 -0.1460
  493POPE   C4A 7548   1.642  14.121   8.242 -0.1021 -0.1275 -0.2745
  493POPE   C1B 7549   1.950  14.290   6.969 -0.2685  0.0335  0.0261
  493POPE   C2B 7550   1.935  14.137   7.492  0.3916  0.1471  0.5410
  493POPE   C3B 7551   1.985  14.000   7.882  0.2807 -0.1817 -0.0361
  493POPE   C4B 7552   2.175  13.920   8.282  0.1015 -0.0374 -0.2545
  494POPE   NH3 7553   8.161  10.502   7.011  0.3333  0.0818  0.0383
  494POPE   PO4 7554   8.565  10.677   6.923 -0.1865  0.0098  0.2784
  494POPE   GL1 7555   8.548  10.700   7.339 -0.0070  0.3787 -0.1850
  494POPE   GL2 7556   8.702  10.460   7.563 -0.1947  0.2469 -0.0424
  494POPE   C1A 7557   8.387  10.787   7.773 -0.2055  0.2369  0.1790
  494POPE   D2A 7558   8.098  10.825   8.158 -0.1441 -0.0760 -0.2392
  494POPE   C3A 7559   7.934  10.726   8.631 -0.1852 -0.0303 -0.0480
  494POPE   C4A 7560   7.645  11.007   8.906 -0.2290 -0.1142  0.0123
  494POPE   C1B 7561   8.746  10.427   8.026 -0.0955 -0.0915 -0.2277
  494POPE   C2B 7562   8.864  10.509   8.348  0.0984 -0.1681 -0.0281
  494POPE   C3B 7563   9.237  10.637   8.674  0.1236  0.0550 -0.2153
  494POPE   C4B 7564   9.223  10.886   8.986  0.0576  0.1423 -0.2038
  495POPE   NH3 7565   4.749   9.687   6.403  0.2633 -0.1550 -0.0213
  495POPE   PO4 7566   4.467   9.941   6.496 -0.0494 -0.5785 -0.2311
  495POPE   GL1 7567   4.664   9.944   6.904 -0.1768  0.0949 -0.4373
  495POPE   GL2 7568   4.472  10.217   6.927  0.0548  0.0181  0.1726
  495POPE   C1A 7569   4.793   9.866   7.379  0.1660 -0.2532  0.2908
  495POPE   D2A 7570   4.669   9.819   7.774 -0.0643  0.0510  0.0615
  495POPE   C3A 7571   4.275   9.712   7.905  0.3535  0.0463 -0.0734
  495POPE   C4A 7572   4.236   9.811   8.393 -0.1045 -0.2356  0.1707
  495POPE   C1B 7573   4.218   9.969   7.352  0.3555  0.0439 -0.0399
  495POPE   C2B 7574   3.927  10.066   7.739  0.1049  0.0658  0.1502
  495POPE   C3B 7575   4.020  10.133   8.110  0.0210  0.0750 -0.1677
  495POPE   C4B 7576   4.132  10.448   8.353 -0.2012 -0.1387 -0.1918
  496POPE   NH3 7577   4.318   0.775   6.540  0.0785 -0.3210 -0.2739
  496POPE   PO4 7578   3.853   0.869   6.295  0.1694 -0.1305  0.0027
  496POPE   GL1 7579   3.557   1.033   6.591 -0.0333 -0.1598 -0.0267
  496POPE   GL2 7580   3.515   1.369   6.681 -0.4014 -0.0744 -0.2030
  496POPE   C1A 7581   3.392   0.910   6.943  0.0999  0.6240  0.1114
  496POPE   D2A 7582   3.285   0.632   7.267 -0.0570 -0.0079  0.2718
  496POPE   C3A 7583   2.930   0.648   7.524 -0.2543  0.2911 -0.0150
  496POPE   C4A 7584   2.596   0.364   7.666  0.1770  0.1950 -0.0863
  496POPE   C1B 7585   3.547   1.391   7.177  0.1029 -0.1828 -0.1878
  496POPE   C2B 7586   3.553   1.445   7.661 -0.3242 -0.0290  0.0440
  496POPE   C3B 7587   3.403   1.705   8.019 -0.0416  0.1109  0.4808
  496POPE   C4B 7588   3.035   1.750   8.067  0.0810  0.0044  0.0223
  497POPE   NH3 7589   8.696  15.180   6.404  0.1200 -0.0632  0.0760
  497POPE   PO4 7590   8.728  14.877   6.654  0.0415 -0.0163  0.3126
  497POPE   GL1 7591   8.793  14.791   7.018 -0.1580  0.2315 -0.1178
  497POPE   GL2 7592   9.016  14.927   7.122  0.1591 -0.0177  0.1567
  497POPE   C1A 7593   8.598  14.654   7.341  0.2925  0.0879  0.2614
  497POPE   D2A 7594   8.528  14.659   7.792 -0.0760  0.1293  0.1562
  497POPE   C3A 7595   8.515  14.958   8.121  0.0393 -0.2356 -0.2131
  497POPE   C4A 7596   8.721  15.066   8.515  0.0158  0.2785 -0.1068
  497POPE   C1B 7597   9.083  14.767   7.559  0.1504 -0.2103  0.1565
  497POPE   C2B 7598   9.138  14.796   7.950 -0.4791 -0.4614  0.0383
  497POPE   C3B 7599   9.028  14.633   8.313  0.0057  0.0187  0.2338
  497POPE   C4B 7600   9.382  14.491   8.620 -0.0782 -0.0240 -0.1784
  498POPE   NH3 7601   8.677  10.187   7.013  0.0132  0.0610 -0.1900
  498POPE   PO4 7602   8.276   9.926   7.054  0.0466  0.0437  0.0117
  498POPE   GL1 7603   8.268  10.169   7.376 -0.0605 -0.0001  0.0415
  498POPE   GL2 7604   7.979  10.265   7.447  0.2896  0.3129  0.2491
  498POPE   C1A 7605   8.409  10.114   7.829 -0.4247  0.0905  0.1931
  498POPE   D2A 7606   8.287  10.340   8.200  0.0526  0.3013 -0.0914
  498POPE   C3A 7607   8.405  10.609   8.571  0.1632 -0.1320 -0.0186
  498POPE   C4A 7608   8.696  10.678   8.853  0.1788 -0.0635 -0.0591
  498POPE   C1B 7609   7.915  10.514   7.828 -0.0755  0.1819 -0.2101
  498POPE   C2B 7610   7.711  10.541   8.243 -0.1681  0.0274 -0.0969
  498POPE   C3B 7611   7.581  10.289   8.603 -0.0263 -0.1697 -0.1511
  498POPE   C4B 7612   7.540  10.535   8.949  0.0701 -0.0290  0.0197
  499POPE   NH3 7613   3.107  11.179   6.310  0.0153 -0.2781 -0.0767
  499POPE   PO4 7614   2.748  11.083   6.588  0.0249 -0.0065  0.0571
  499POPE   GL1 7615   2.650  10.867   6.911  0.0550 -0.0442  0.4078
  499POPE   GL2 7616   2.837  10.630   7.140  0.2180 -0.0091  0.0994
  499POPE   C1A 7617   2.429  10.890   7.314  0.2058 -0.1065  0.0113
  499POPE   D2A 7618   2.205  10.955   7.737 -0.1393  0.0695  0.3003
  499POPE   C3A 7619   2.146  10.746   8.151  0.0156 -0.0846 -0.0566
  499POPE   C4A 7620   2.153  10.638   8.606  0.0160 -0.0695 -0.0301
  499POPE   C1B 7621   2.834  10.575   7.459  0.0319  0.0833 -0.2522
  499POPE   C2B 7622   2.765  10.802   7.790  0.1898  0.2902 -0.0747
  499POPE   C3B 7623   2.627  10.824   8.169  0.3175 -0.2949 -0.0291
  499POPE   C4B 7624   2.442  11.038   8.405  0.0506  0.3727  0.0647
  500POPE   NH3 7625   9.420  13.208   6.570  0.0355 -0.1067  0.0210
  500POPE   PO4 7626   9.226  13.619   6.569 -0.1056  0.2662 -0.0867
  500POPE   GL1 7627   9.302  13.514   6.947 -0.0102  0.1703  0.1438
  500POPE   GL2 7628   9.700  13.415   6.938  0.1463 -0.0670  0.2653
  500POPE   C1A 7629   9.240  13.503   7.426  0.1478 -0.0455  0.0535
  500POPE   D2A 7630   9.024  13.652   7.644  0.0485  0.3923  0.1631
  500POPE   C3A 7631   8.587  13.700   7.661 -0.0073 -0.1560 -0.0766
  500POPE   C4A 7632   8.377  13.502   8.094  0.1487 -0.0250 -0.1055
  500POPE   C1B 7633   9.752  13.531   7.401  0.0367  0.1023 -0.2610
  500POPE   C2B 7634   9.635  13.528   7.773 -0.4295  0.1257  0.0536
  500POPE   C3B 7635   9.714  13.421   8.212 -0.2536  0.0468 -0.0323
  500POPE   C4B 7636   9.941  13.236   8.585 -0.4267  0.0641  0.3275
  501POPE   NH3 7637   4.525  10.715   6.668 -0.0844  0.1345  0.3321
  501POPE   PO4 7638   4.945  10.816   6.442  0.0243 -0.2640  0.0356
  501POPE   GL1 7639   5.004  10.656   6.817  0.2083  0.1939  0.1014
  501POPE   GL2 7640   5.076  10.366   6.862  0.1176  0.0482 -0.4407
  501POPE   C1A 7641   5.237  10.726   7.226 -0.2176 -0.2169  0.0798
  501POPE   D2A 7642   5.600  10.763   7.347 -0.0241  0.4085 -0.1300
  501POPE   C3A 7643   5.854  10.759   7.778  0.2980  0.1184 -0.0192
  501POPE   C4A 7644   5.956  10.839   8.229 -0.5105  0.1788  0.1063
  501POPE   C1B 7645   4.984  10.316   7.266  0.3321  0.2378 -0.0390
  501POPE   C2B 7646   5.151  10.052   7.657  0.2201 -0.1137  0.3789
  501POPE   C3B 7647   5.523   9.991   7.912 -0.0920  0.1735 -0.1121
  501POPE   C4B 7648   5.647   9.573   8.081  0.0762  0.0447  0.3079
  502POPE   NH3 7649   1.674   6.653   6.147 -0.0077  0.1577 -0.2646
  502POPE   PO4 7650   1.912   6.379   6.427 -0.3619  0.1239  0.2632
  502POPE   GL1 7651   2.067   6.105   6.753  0.0258  0.4139 -0.2034
  502POPE   GL2 7652   1.722   6.215   6.880 -0.0849  0.3495 -0.1082
  502POPE   C1A 7653   2.115   5.964   7.206  0.1800  0.0416 -0.3086
  502POPE   D2A 7654   2.064   5.768   7.638 -0.3148 -0.2609  0.0882
  502POPE   C3A 7655   1.742   5.900   7.981  0.0147 -0.0322 -0.2819
  502POPE   C4A 7656   1.705   5.895   8.464 -0.1445  0.2246  0.1869
  502POPE   C1B 7657   1.708   6.272   7.312 -0.2016  0.1110  0.2260
  502POPE   C2B 7658   1.925   6.235   7.723 -0.0409  0.2057 -0.0337
  502POPE   C3B 7659   2.085   6.470   8.147 -0.1046  0.2353 -0.0146
  502POPE   C4B 7660   2.484   6.344   8.345 -0.2013  0.0986  0.0089
  503YOPE   NH3 7661  10.295   9.012   6.899 -0.1691 -0.1827 -0.1293
  503YOPE   PO4 7662  10.409   9.433   6.836 -0.0133 -0.1966 -0.0502
  503YOPE   GL1 7663  10.391   9.364   7.262 -0.0287  0.0859 -0.4202
  503YOPE   GL2 7664  10.139   9.624   7.237 -0.2685 -0.1289  0.3101
  503YOPE   C1A 7665  10.402   9.627   7.659 -0.2661  0.4188  0.2065
  503YOPE   D2A 7666  10.269   9.539   8.062  0.0679 -0.0134  0.1231
  503YOPE   C3A 7667  10.377   9.647   8.476  0.0499  0.3310 -0.2085
  503YOPE   C4A 7668  10.654   9.676   8.799  0.2947 -0.1165  0.1335
  503YOPE   C1B 7669   9.876   9.500   7.548  0.0379 -0.0388 -0.2508
  503YOPE   C2B 7670   9.749   9.508   8.002  0.1289  0.0432  0.0191
  503YOPE   D3B 7671   9.572   9.403   8.325 -0.1804  0.0034 -0.1701
  503YOPE   C4B 7672   9.304   9.510   8.522 -0.0610  0.0132 -0.1599
  504YOPE   NH3 7673   7.499  13.732   6.422  0.1958  0.1251  0.0643
  504YOPE   PO4 7674   7.439  13.347   6.634  0.1251  0.1546 -0.0621
  504YOPE   GL1 7675   7.361  13.500   7.062  0.1854 -0.3570  0.2562
  504YOPE   GL2 7676   7.045  13.449   7.122  0.2668  0.0346  0.0522
  504YOPE   C1A 7677   7.394  13.486   7.546 -0.1966 -0.1653  0.0709
  504YOPE   D2A 7678   7.419  13.448   8.007 -0.0707 -0.3861  0.0616
  504YOPE   C3A 7679   7.214  13.365   8.366 -0.0485 -0.2223  0.1487
  504YOPE   C4A 7680   6.962  13.472   8.708  0.2157  0.3240  0.2455
  504YOPE   C1B 7681   6.877  13.512   7.514 -0.0085  0.0282  0.1364
  504YOPE   C2B 7682   6.897  13.434   7.880 -0.0079 -0.0095 -0.0551
  504YOPE   D3B 7683   6.731  13.203   8.271  0.0134  0.1424  0.2626
  504YOPE   C4B 7684   6.904  12.944   8.620  0.3118  0.2326  0.1388
  505YOPE   NH3 7685   3.461   8.325   6.605 -0.2807 -0.0522  0.0203
  505YOPE   PO4 7686   3.419   7.907   6.495  0.0838  0.4136  0.2376
  505YOPE   GL1 7687   3.130   7.976   6.865  0.0332 -0.0662  0.0081
  505YOPE   GL2 7688   3.289   8.156   7.078  0.1415 -0.1610 -0.4788
  505YOPE   C1A 7689   2.770   8.008   7.062  0.3037  0.3220 -0.1008
  505YOPE   D2A 7690   2.780   7.924   7.562 -0.2866  0.0450  0.0659
  505YOPE   C3A 7691   2.539   7.561   7.671  0.0030 -0.2256 -0.1932
  505YOPE   C4A 7692   2.667   7.289   8.036  0.0617  0.0119  0.0529
  505YOPE   C1B 7693   3.176   8.215   7.510 -0.1335 -0.0182 -0.0780
  505YOPE   C2B 7694   3.211   8.109   7.930  0.1299 -0.2572 -0.1289
  505YOPE   D3B 7695   3.325   8.010   8.374 -0.0362  0.1431 -0.0504
  505YOPE   C4B 7696   3.474   7.678   8.629  0.3629 -0.0969 -0.4336
  506YOPE   NH3 7697   7.800   9.327   7.208 -0.2689 -0.0830  0.1337
  506YOPE   PO4 7698   7.553   9.601   6.973  0.1063 -0.1537 -0.1227
  506YOPE   GL1 7699   7.447   9.678   7.368 -0.0089  0.1797 -0.0268
  506YOPE   GL2 7700   7.464  10.015   7.380  0.3856  0.2652  0.1376
  506YOPE   C1A 7701   7.450   9.626   7.804 -0.1020  0.0750  0.0419
  506YOPE   D2A 7702   7.437   9.552   8.147 -0.0267 -0.1701  0.3275
  506YOPE   C3A 7703   7.413   9.820   8.512 -0.3461 -0.3687  0.2057
  506YOPE   C4A 7704   7.231   9.995   8.889 -0.0056  0.0085 -0.0558
  506YOPE   C1B 7705   7.524  10.162   7.736 -0.0529 -0.0168 -0.2610
  506YOPE   C2B 7706   7.410  10.087   8.090  0.1591  0.2141  0.0063
  506YOPE   D3B 7707   7.138  10.346   8.390 -0.0405  0.1052  0.1778
  506YOPE   C4B 7708   7.161  10.740   8.737 -0.1648 -0.0240 -0.1228
  507YOPE   NH3 7709   3.099  12.621   6.547  0.0764  0.1549  0.0887
  507YOPE   PO4 7710   2.740  12.753   6.509 -0.2124 -0.1106 -0.2484
  507YOPE   GL1 7711   2.917  12.945   7.009  0.1426 -0.2437  0.0842
  507YOPE   GL2 7712   3.148  12.885   7.089 -0.1762  0.1832 -0.1514
  507YOPE   C1A 7713   2.876  13.157   7.357 -0.2085 -0.0705 -0.0167
  507YOPE   D2A 7714   3.127  13.367   7.631  0.0771  0.1452 -0.0121
  507YOPE   C3A 7715   3.583  13.179   7.571  0.2733  0.0533 -0.1097
  507YOPE   C4A 7716   3.740  12.815   7.696 -0.0748  0.2599  0.0285
  507YOPE   C1B 7717   3.193  12.807   7.538 -0.1306 -0.0714  0.2391
  507YOPE   C2B 7718   2.947  12.614   7.822  0.1829  0.0856  0.2308
  507YOPE   D3B 7719   2.911  12.207   7.939  0.0124 -0.0804 -0.2057
  507YOPE   C4B 7720   3.062  12.094   8.396  0.1407  0.0149  0.3250
  508YOPE   NH3 7721   9.442  16.422   6.345  0.2949 -0.0783 -0.1017
  508YOPE   PO4 7722   9.157  16.096   6.430  0.0939 -0.2281 -0.0305
  508YOPE   GL1 7723   9.316  16.123   6.770  0.4115  0.1446 -0.1123
  508YOPE   GL2 7724   9.295  16.306   6.957  0.2688 -0.1549 -0.1498
  508YOPE   C1A 7725   9.364  15.832   7.116 -0.1467 -0.4271  0.1646
  508YOPE   D2A 7726   9.378  15.684   7.452 -0.0590  0.0461 -0.1352
  508YOPE   C3A 7727   9.059  15.817   7.699 -0.2480  0.2859 -0.0363
  508YOPE   C4A 7728   8.752  15.778   7.866 -0.2464 -0.1688 -0.2183
  508YOPE   C1B 7729   9.200  16.443   7.349 -0.0130 -0.2585  0.0999
  508YOPE   C2B 7730   9.165  16.402   7.778  0.0826 -0.1070 -0.1140
  508YOPE   D3B 7731   9.179  16.470   8.157  0.2566  0.0670  0.0657
  508YOPE   C4B 7732   9.218  16.806   8.402 -0.0579 -0.1806 -0.2037
  509YOPE   NH3 7733   8.417  17.073   6.463  0.2668 -0.1273  0.0762
  509YOPE   PO4 7734   8.209  17.477   6.309 -0.1748  0.0739  0.0349
  509YOPE   GL1 7735   7.976  17.340   6.647 -0.2534 -0.1377  0.0929
  509YOPE   GL2 7736   8.254  17.280   6.894 -0.2459 -0.1207 -0.0697
  509YOPE   C1A 7737   7.813  17.067   6.997 -0.3469  0.1220  0.2383
  509YOPE   D2A 7738   7.798  16.903   7.331 -0.1054  0.1686  0.3244
  509YOPE   C3A 7739   7.574  16.985   7.676  0.1426  0.2634  0.2096
  509YOPE   C4A 7740   7.778  17.107   8.001 -0.2166 -0.1513  0.1936
  509YOPE   C1B 7741   8.215  17.094   7.271  0.0008 -0.0072 -0.1163
  509YOPE   C2B 7742   8.140  16.954   7.719  0.0831 -0.0371  0.0224
  509YOPE   D3B 7743   7.957  16.688   8.104 -0.2316  0.0890 -0.3198
  509YOPE   C4B 7744   7.925  16.487   8.558  0.0759 -0.3566  0.2474
  510YOPE   NH3 7745   5.266  12.671   6.530  0.2407  0.1286  0.0150
  510YOPE   PO4 7746   4.803  12.694   6.409 -0.0179 -0.0985 -0.1675
  510YOPE   GL1 7747   4.800  12.636   6.909  0.3468  0.0572 -0.0522
  510YOPE   GL2 7748   5.094  12.648   7.008 -0.2872 -0.0423  0.0303
  510YOPE   C1A 7749   4.696  12.792   7.339 -0.0091 -0.1730 -0.0114
  510YOPE   D2A 7750   4.742  12.913   7.766 -0.1186 -0.2976 -0.5943
  510YOPE   C3A 7751   4.513  13.253   8.057  0.0937  0.2081  0.2408
  510YOPE   C4A 7752   4.222  13.285   8.365  0.0097  0.2416  0.0172
  510YOPE   C1B 7753   5.160  12.697   7.457 -0.0622  0.2577  0.1502
  510YOPE   C2B 7754   5.234  12.742   7.890  0.1476  0.1855  0.3253
  510YOPE   D3B 7755   4.966  12.802   8.219  0.2241 -0.4831 -0.1603
  510YOPE   C4B 7756   4.959  12.640   8.638  0.2418 -0.2080 -0.4225
  511YOPE   NH3 7757   7.894   1.939   5.936 -0.0928  0.1561 -0.1310
  511YOPE   PO4 7758   8.117   2.300   5.758  0.1255  0.2512 -0.1840
  511YOPE   GL1 7759   7.875   2.412   6.173  0.2014  0.0864  0.2961
  511YOPE   GL2 7760   8.080   2.689   6.322 -0.1170  0.1880 -0.0969
  511YOPE   C1A 7761   7.977   2.357   6.655 -0.0897  0.2877 -0.1121
  511YOPE   D2A 7762   7.840   2.119   7.033 -0.0076 -0.0973  0.0143
  511YOPE   C3A 7763   8.001   2.264   7.390 -0.1104 -0.0188 -0.0835
  511YOPE   C4A 7764   8.019   2.339   7.784  0.4903  0.0812 -0.0902
  511YOPE   C1B 7765   8.073   2.841   6.731  0.0246  0.0778  0.1657
  511YOPE   C2B 7766   8.223   2.685   7.125  0.2763  0.1122  0.2674
  511YOPE   D3B 7767   8.291   2.726   7.528 -0.1878  0.0644  0.1239
  511YOPE   C4B 7768   8.017   2.829   7.900  0.4057 -0.2225 -0.0895
  512YOPE   NH3 7769   7.027  13.038   6.706 -0.0329 -0.0386  0.0634
  512YOPE   PO4 7770   7.066  12.587   6.762 -0.0204  0.0054 -0.4208
  512YOPE   GL1 7771   6.994  12.554   7.208 -0.0326 -0.0437 -0.0264
  512YOPE   GL2 7772   7.306  12.490   7.363 -0.1639  0.0919  0.1040
  512YOPE   C1A 7773   6.781  12.584   7.666 -0.2773  0.1497  0.1976
  512YOPE   D2A 7774   6.848  12.558   8.092 -0.0707  0.1777 -0.0345
  512YOPE   C3A 7775   6.752  12.453   8.548  0.0127 -0.1949  0.0648
  512YOPE   C4A 7776   6.493  12.649   8.764  0.1496 -0.1492 -0.1413
  512YOPE   C1B 7777   7.251  12.466   7.827 -0.0361 -0.1342  0.0069
  512YOPE   C2B 7778   7.521  12.314   8.178  0.1709  0.2514 -0.0766
  512YOPE   D3B 7779   7.131  12.218   8.451 -0.1734 -0.2246  0.1098
  512YOPE   C4B 7780   7.147  11.850   8.695  0.2703  0.1473  0.0848
  513YOPE   NH3 7781   9.252  11.394   6.695 -0.1167 -0.0494  0.0903
  513YOPE   PO4 7782   9.060  11.028   6.874  0.1061 -0.1980  0.1437
  513YOPE   GL1 7783   8.901  11.133   7.255 -0.1257  0.0454  0.0201
  513YOPE   GL2 7784   8.827  11.513   7.193 -0.1750 -0.1686 -0.1444
  513YOPE   C1A 7785   8.853  10.956   7.614  0.3000  0.2367 -0.0318
  513YOPE   D2A 7786   8.750  10.936   8.081  0.4432 -0.1594 -0.0023
  513YOPE   C3A 7787   8.952  11.012   8.553  0.0745  0.4512  0.0056
  513YOPE   C4A 7788   9.184  11.314   8.711  0.0834 -0.1671 -0.0146
  513YOPE   C1B 7789   8.801  11.625   7.549  0.1616  0.2227 -0.0494
  513YOPE   C2B 7790   8.887  11.530   7.875  0.0217  0.0496 -0.1189
  513YOPE   D3B 7791   8.790  11.449   8.338 -0.0833 -0.0245 -0.0529
  513YOPE   C4B 7792   8.631  11.318   8.760 -0.0353 -0.2284  0.2187
  514YOPE   NH3 7793   3.436   7.401   6.395  0.0374  0.1023 -0.1701
  514YOPE   PO4 7794   3.761   7.158   6.588  0.0329  0.0974 -0.2469
  514YOPE   GL1 7795   3.399   6.975   6.811 -0.1429  0.0320  0.0336
  514YOPE   GL2 7796   3.244   6.710   6.849 -0.0165 -0.4630  0.3439
  514YOPE   C1A 7797   3.411   7.082   7.281 -0.0360 -0.4024 -0.3000
  514YOPE   D2A 7798   3.170   7.122   7.522  0.1946  0.0224  0.0866
  514YOPE   C3A 7799   3.099   6.952   7.973  0.0964  0.1066 -0.2288
  514YOPE   C4A 7800   2.893   7.043   8.425 -0.4274 -0.1471 -0.1535
  514YOPE   C1B 7801   3.457   6.618   7.158  0.3197 -0.1018 -0.1933
  514YOPE   C2B 7802   3.471   6.751   7.611  0.1147  0.0657  0.0654
  514YOPE   D3B 7803   3.663   6.775   8.090  0.1202  0.3169 -0.0692
  514YOPE   C4B 7804   3.994   6.908   8.429  0.1820 -0.1568  0.0892
  515YOPE   NH3 7805   1.824  11.363   6.542  0.2626 -0.1813 -0.2981
  515YOPE   PO4 7806   1.875  10.907   6.403 -0.1438  0.0824 -0.2222
  515YOPE   GL1 7807   1.808  10.809   6.780  0.1220 -0.1701 -0.2223
  515YOPE   GL2 7808   1.985  10.551   6.879  0.1049  0.1455 -0.0231
  515YOPE   C1A 7809   1.566  11.061   7.164 -0.1222  0.0154  0.0658
  515YOPE   D2A 7810   1.198  11.249   7.458  0.0400  0.0211 -0.3465
  515YOPE   C3A 7811   1.162  11.180   7.946 -0.0307  0.1461 -0.1406
  515YOPE   C4A 7812   1.270  10.909   8.305  0.1356  0.2193 -0.1781
  515YOPE   C1B 7813   1.968  10.785   7.311  0.0984  0.2034 -0.0826
  515YOPE   C2B 7814   1.889  10.570   7.716 -0.2610 -0.1555 -0.1520
  515YOPE   D3B 7815   1.879  10.354   8.100  0.3833 -0.0972  0.2320
  515YOPE   C4B 7816   2.082  10.162   8.436 -0.2455 -0.5357  0.0825
  516YOPE   NH3 7817   2.316  13.521   6.411  0.3031  0.1480  0.3648
  516YOPE   PO4 7818   2.684  13.548   6.209  0.1309  0.3870 -0.2581
  516YOPE   GL1 7819   2.657  13.672   6.732  0.0846  0.0606  0.0267
  516YOPE   GL2 7820   2.786  13.947   6.808 -0.0129  0.0002  0.0817
  516YOPE   C1A 7821   2.608  13.535   7.239  0.1187  0.1429  0.0896
  516YOPE   D2A 7822   2.624  13.451   7.737 -0.2960  0.0099 -0.1030
  516YOPE   C3A 7823   2.713  13.663   8.152  0.0728  0.0776 -0.0695
  516YOPE   C4A 7824   2.724  13.807   8.654  0.0657  0.4136 -0.0272
  516YOPE   C1B 7825   2.791  14.105   7.198 -0.0617 -0.0534  0.1103
  516YOPE   C2B 7826   2.846  14.341   7.618  0.3155  0.1652  0.4771
  516YOPE   D3B 7827   3.020  14.466   8.020  0.4121 -0.3680  0.0706
  516YOPE   C4B 7828   3.231  14.633   8.218 -0.0540 -0.2077 -0.0952
  517YOPE   NH3 7829  11.751  12.434   6.857 -0.1717  0.2606  0.0799
  517YOPE   PO4 7830  11.312  12.473   6.669 -0.2899 -0.1144  0.2490
  517YOPE   GL1 7831  11.269  12.498   7.118 -0.2747 -0.1597  0.1228
  517YOPE   GL2 7832  11.337  12.231   7.273 -0.2531  0.3893  0.2040
  517YOPE   C1A 7833  11.450  12.783   7.431  0.1208  0.0047  0.0357
  517YOPE   D2A 7834  11.673  13.058   7.762 -0.3984  0.2874 -0.1433
  517YOPE   C3A 7835  11.851  12.892   8.091 -0.0728  0.0955  0.2715
  517YOPE   C4A 7836  12.124  12.617   8.401 -0.0168 -0.3464 -0.0145
  517YOPE   C1B 7837  11.309  12.278   7.607 -0.2684 -0.3834  0.0518
  517YOPE   C2B 7838  11.154  12.290   8.053 -0.0453 -0.2641  0.1943
  517YOPE   D3B 7839  10.933  12.481   8.231  0.3626  0.1776  0.2070
  517YOPE   C4B 7840  10.388  12.624   8.214  0.1513 -0.0481  0.2233
  518YOPE   NH3 7841   3.614  16.648   6.155 -0.1165  0.0035 -0.2275
  518YOPE   PO4 7842   4.045  16.559   6.306 -0.0010  0.0522 -0.1189
  518YOPE   GL1 7843   4.006  16.904   6.508 -0.0118 -0.1011 -0.3508
  518YOPE   GL2 7844   4.306  17.156   6.516 -0.1102  0.3664  0.0899
  518YOPE   C1A 7845   3.869  17.110   6.915 -0.3721  0.0146 -0.1470
  518YOPE   D2A 7846   4.026  17.037   7.285  0.0540  0.0292 -0.1602
  518YOPE   C3A 7847   3.962  17.250   7.696  0.0177  0.0689  0.1333
  518YOPE   C4A 7848   4.105  17.627   7.857 -0.2471 -0.0753  0.0135
  518YOPE   C1B 7849   4.377  17.116   6.886 -0.1232  0.1357 -0.0156
  518YOPE   C2B 7850   4.491  16.893   7.354 -0.0528 -0.1638 -0.1483
  518YOPE   D3B 7851   4.348  16.956   7.767 -0.3259 -0.0948 -0.5382
  518YOPE   C4B 7852   4.101  16.790   8.035  0.1668  0.2755  0.0598
  519YOPE   NH3 7853   8.592  11.125   6.722  0.0565  0.1420 -0.1680
  519YOPE   PO4 7854   8.294  11.527   6.770  0.2991  0.1299 -0.3574
  519YOPE   GL1 7855   8.125  11.728   7.123 -0.2472 -0.0410 -0.3627
  519YOPE   GL2 7856   7.973  11.469   7.330 -0.3182 -0.3122  0.1899
  519YOPE   C1A 7857   8.312  11.807   7.464 -0.0736 -0.1903  0.0795
  519YOPE   D2A 7858   8.359  11.901   7.894  0.3600 -0.0733 -0.0783
  519YOPE   C3A 7859   8.696  11.880   8.153  0.2658  0.1810 -0.0329
  519YOPE   C4A 7860   9.179  11.807   8.225  0.0729  0.3814  0.1055
  519YOPE   C1B 7861   7.877  11.618   7.796  0.1888 -0.0880 -0.0957
  519YOPE   C2B 7862   7.836  11.951   8.060 -0.1749  0.1759 -0.1024
  519YOPE   D3B 7863   7.979  12.119   8.457 -0.2409 -0.1712 -0.0756
  519YOPE   C4B 7864   8.036  12.005   8.957  0.1160  0.1243  0.0587
  520YOPE   NH3 7865   6.240  13.245   6.708 -0.3225  0.0512 -0.1994
  520YOPE   PO4 7866   6.574  13.030   6.431 -0.0323  0.0345  0.2461
  520YOPE   GL1 7867   6.586  12.802   6.841 -0.0323  0.0658  0.0639
  520YOPE   GL2 7868   6.723  13.006   7.056 -0.2195 -0.4057  0.5243
  520YOPE   C1A 7869   6.461  12.665   7.255  0.0655 -0.1406 -0.1605
  520YOPE   D2A 7870   6.342  12.201   7.405 -0.2117  0.1197 -0.0838
  520YOPE   C3A 7871   5.882  12.091   7.361  0.3348  0.0510  0.1591
  520YOPE   C4A 7872   5.672  11.781   7.574  0.0579 -0.0250 -0.0698
  520YOPE   C1B 7873   6.584  13.095   7.455 -0.0095 -0.2398  0.4002
  520YOPE   C2B 7874   6.601  12.987   7.867 -0.1252 -0.1918 -0.1032
  520YOPE   D3B 7875   6.421  12.732   8.276  0.2386  0.0977 -0.1105
  520YOPE   C4B 7876   6.248  12.371   8.387 -0.0791 -0.0658 -0.0014
  521YOPE   NH3 7877   7.328  11.432   6.938 -0.0057 -0.1313  0.2407
  521YOPE   PO4 7878   7.501  11.780   6.784  0.2177  0.2269 -0.1717
  521YOPE   GL1 7879   7.537  11.792   7.256 -0.1390 -0.4328 -0.0469
  521YOPE   GL2 7880   7.673  12.060   7.241 -0.0421  0.1254  0.1580
  521YOPE   C1A 7881   7.288  11.832   7.615 -0.0558 -0.0990  0.0972
  521YOPE   D2A 7882   7.131  11.966   8.016 -0.0990  0.3285 -0.1399
  521YOPE   C3A 7883   7.460  11.828   8.332  0.0308  0.0604  0.1192
  521YOPE   C4A 7884   7.696  11.640   8.588  0.0663  0.2109  0.0559
  521YOPE   C1B 7885   7.788  12.197   7.637 -0.2140  0.0569  0.0458
  521YOPE   C2B 7886   7.989  12.389   8.016 -0.0999 -0.2727 -0.2041
  521YOPE   D3B 7887   7.845  12.671   8.406  0.1529  0.4359 -0.2904
  521YOPE   C4B 7888   7.587  12.633   8.774 -0.2520  0.0997 -0.1645
  522YOPE   NH3 7889   3.901  11.418   6.616  0.0225  0.1653  0.5876
  522YOPE   PO4 7890   3.621  11.352   6.282  0.1255  0.3549  0.0661
  522YOPE   GL1 7891   3.422  11.401   6.669 -0.1502  0.1525  0.0880
  522YOPE   GL2 7892   3.020  11.543   6.701  0.1186  0.0081 -0.1574
  522YOPE   C1A 7893   3.437  11.484   7.055  0.1740  0.0046 -0.0347
  522YOPE   D2A 7894   3.572  11.466   7.520  0.0281  0.2347  0.5610
  522YOPE   C3A 7895   3.562  11.461   8.021 -0.1360 -0.3210 -0.0159
  522YOPE   C4A 7896   3.516  11.570   8.506  0.2978  0.1666 -0.3177
  522YOPE   C1B 7897   2.982  11.671   7.110  0.2177 -0.1493  0.0115
  522YOPE   C2B 7898   3.272  11.822   7.341 -0.0545  0.0232 -0.1879
  522YOPE   D3B 7899   3.404  11.873   7.771 -0.0932 -0.0218  0.1892
  522YOPE   C4B 7900   3.550  12.006   8.186  0.2003  0.1977 -0.1210
  523YOPE   NH3 7901   5.265  16.797   6.422 -0.3581 -0.0527  0.0574
  523YOPE   PO4 7902   5.420  16.458   6.539  0.3645 -0.0617 -0.1327
  523YOPE   GL1 7903   5.260  16.350   6.952 -0.0139 -0.0330 -0.5422
  523YOPE   GL2 7904   5.281  16.646   6.966 -0.3226  0.0960 -0.2540
  523YOPE   C1A 7905   5.093  16.271   7.417 -0.0002 -0.3702 -0.0233
  523YOPE   D2A 7906   4.790  16.399   7.674  0.1023  0.1969 -0.1848
  523YOPE   C3A 7907   4.935  16.183   8.060  0.1804 -0.0542  0.1442
  523YOPE   C4A 7908   5.126  15.861   8.343 -0.1849 -0.0043  0.0515
  523YOPE   C1B 7909   5.497  16.504   7.344 -0.0199  0.1140  0.2777
  523YOPE   C2B 7910   5.339  16.593   7.723  0.0062 -0.0192 -0.1704
  523YOPE   D3B 7911   5.343  16.522   8.098 -0.2158  0.0590  0.3504
  523YOPE   C4B 7912   5.281  16.373   8.477 -0.0270  0.3038  0.1325
  524YOPE   NH3 7913   4.278   4.661   6.572 -0.2163 -0.5443 -0.3119
  524YOPE   PO4 7914   4.590   4.397   6.386  0.0754 -0.2162 -0.0824
  524YOPE   GL1 7915   4.327   4.124   6.691 -0.1309 -0.6360  0.1139
  524YOPE   GL2 7916   4.356   3.833   6.704 -0.1422 -0.0185  0.1358
  524YOPE   C1A 7917   4.224   3.956   7.212  0.1331 -0.4822  0.5395
  524YOPE   D2A 7918   4.133   3.870   7.630  0.0132  0.1708  0.1686
  524YOPE   C3A 7919   4.426   4.046   7.966  0.2618  0.1893  0.0138
  524YOPE   C4A 7920   4.476   4.131   8.335 -0.0649  0.0155 -0.0772
  524YOPE   C1B 7921   4.602   3.606   6.940  0.2434 -0.0785 -0.1341
  524YOPE   C2B 7922   4.520   3.547   7.319  0.0566 -0.0861  0.1220
  524YOPE   D3B 7923   4.552   3.539   7.669  0.0896 -0.1049  0.0724
  524YOPE   C4B 7924   4.767   3.191   7.795  0.0419  0.2578  0.0199
  525YOPE   NH3 7925   6.961  16.546   6.168 -0.0222 -0.0163  0.1784
  525YOPE   PO4 7926   7.413  16.835   6.115 -0.0190 -0.2417 -0.2682
  525YOPE   GL1 7927   7.395  16.488   6.440 -0.0993 -0.0454 -0.1026
  525YOPE   GL2 7928   7.346  16.245   6.416 -0.2998  0.1126 -0.1099
  525YOPE   C1A 7929   7.760  16.309   6.659 -0.1396 -0.2131 -0.0920
  525YOPE   D2A 7930   8.159  16.113   6.823  0.0983 -0.2027  0.0543
  525YOPE   C3A 7931   8.367  16.154   7.260 -0.0006  0.0522 -0.1851
  525YOPE   C4A 7932   8.712  16.356   7.536  0.2047 -0.1115  0.2682
  525YOPE   C1B 7933   7.188  16.188   6.847  0.1015 -0.2246  0.2758
  525YOPE   C2B 7934   7.051  16.025   7.156  0.1905 -0.2287  0.4651
  525YOPE   D3B 7935   7.217  15.741   7.475  0.0800  0.1095 -0.3317
  525YOPE   C4B 7936   7.345  15.607   7.805  0.0539  0.1198 -0.2412
  526YOPE   NH3 7937   4.101   9.441   6.447 -0.0047 -0.1530 -0.1187
  526YOPE   PO4 7938   3.643   9.623   6.581  0.1830 -0.2675 -0.7047
  526YOPE   GL1 7939   3.551   9.829   6.907  0.1400 -0.0937 -0.0615
  526YOPE   GL2 7940   3.205   9.611   6.992  0.3624 -0.3099 -0.5483
  526YOPE   C1A 7941   3.508   9.810   7.397  0.1862 -0.0268  0.0764
  526YOPE   D2A 7942   3.299   9.738   7.831  0.1281 -0.0419 -0.2620
  526YOPE   C3A 7943   3.471  10.035   8.138 -0.0311 -0.3887 -0.3153
  526YOPE   C4A 7944   3.513  10.452   8.181 -0.2726  0.0275 -0.4609
  526YOPE   C1B 7945   3.050   9.595   7.392  0.3349 -0.0181 -0.2260
  526YOPE   C2B 7946   2.935   9.397   7.858  0.1044  0.0104 -0.0057
  526YOPE   D3B 7947   2.698   9.514   8.144  0.1255  0.2153  0.0683
  526YOPE   C4B 7948   2.436   9.849   8.174  0.3860 -0.2038 -0.1663
  527YOPE   NH3 7949   7.619   6.320   6.631 -0.0657  0.1756  0.0387
  527YOPE   PO4 7950   7.922   6.197   6.401  0.2206 -0.1983  0.0226
  527YOPE   GL1 7951   8.109   6.094   6.834  0.1175  0.0180  0.0398
  527YOPE   GL2 7952   7.999   6.394   7.002  0.3555  0.2055 -0.1443
  527YOPE   C1A 7953   8.009   5.900   7.265  0.3758 -0.0530 -0.2695
  527YOPE   D2A 7954   7.956   5.648   7.652 -0.3088 -0.2489  0.1958
  527YOPE   C3A 7955   8.040   5.752   8.003  0.0741 -0.1515 -0.1509
  527YOPE   C4A 7956   8.133   6.079   8.347  0.0416  0.0517 -0.0601
  527YOPE   C1B 7957   7.972   6.359   7.461  0.4527 -0.0576  0.2504
  527YOPE   C2B 7958   7.861   6.319   7.955  0.3012  0.0618 -0.2557
  527YOPE   D3B 7959   7.606   6.134   8.201 -0.2077 -0.1493 -0.0203
  527YOPE   C4B 7960   7.206   6.265   8.237 -0.1986 -0.1866 -0.3250
  528YOPE   NH3 7961   8.861   0.070   6.250  0.0519 -0.0371  0.1330
  528YOPE   PO4 7962   9.240   0.290   6.294  0.3815  0.1245  0.3570
  528YOPE   GL1 7963   9.155   0.161   6.672 -0.1567 -0.2414 -0.3116
  528YOPE   GL2 7964   9.296   0.395   6.857  0.0297  0.1705  0.0323
  528YOPE   C1A 7965   9.433  -0.030   7.045  0.3306  0.1421 -0.0491
  528YOPE   D2A 7966   9.930   0.023   7.215 -0.0265 -0.5755 -0.0442
  528YOPE   C3A 7967  10.093  -0.070   7.628  0.1066 -0.1774  0.2677
  528YOPE   C4A 7968  10.419  -0.270   7.890 -0.1100 -0.0127  0.1564
  528YOPE   C1B 7969   9.000   0.460   7.185  0.1765 -0.0492  0.0594
  528YOPE   C2B 7970   8.877   0.846   7.355  0.2697  0.1813  0.2167
  528YOPE   D3B 7971   8.790   0.952   7.824  0.2401 -0.0224  0.1110
  528YOPE   C4B 7972   8.977   1.344   8.035 -0.1740  0.2608  0.3268
  529YOPE   NH3 7973   7.956  17.932   6.315  0.0669  0.0748  0.1134
  529YOPE   PO4 7974   7.745  17.640   6.319 -0.0219  0.1956 -0.1664
  529YOPE   GL1 7975   7.391  17.700   6.613  0.1353  0.1708  0.1655
  529YOPE   GL2 7976   7.546  17.541   6.821 -0.0622  0.1722  0.1474
  529YOPE   C1A 7977   7.069  17.446   6.851 -0.1195  0.0108  0.2256
  529YOPE   D2A 7978   6.855  17.311   7.153 -0.1627 -0.0618 -0.0750
  529YOPE   C3A 7979   6.842  17.553   7.503  0.2247  0.4694 -0.2154
  529YOPE   C4A 7980   6.812  17.406   7.954 -0.0836  0.2016  0.1201
  529YOPE   C1B 7981   7.813  17.572   7.158  0.2048  0.0451  0.1783
  529YOPE   C2B 7982   7.876  17.442   7.456 -0.0119  0.1383 -0.0140
  529YOPE   D3B 7983   8.085  17.714   7.732  0.0816 -0.0492 -0.0744
  529YOPE   C4B 7984   8.119  17.857   8.058 -0.1765 -0.2363  0.0169
  530YOPE   NH3 7985   6.820  10.691   6.779  0.2359  0.0735 -0.4664
  530YOPE   PO4 7986   6.908  11.156   6.854  0.0891 -0.0931  0.1424
  530YOPE   GL1 7987   6.730  11.252   7.252 -0.0810 -0.2090 -0.1594
  530YOPE   GL2 7988   6.961  11.492   7.298 -0.1500 -0.2222 -0.2410
  530YOPE   C1A 7989   6.509  11.424   7.626 -0.2573 -0.1294  0.3486
  530YOPE   D2A 7990   6.418  11.556   8.059  0.1663 -0.2950 -0.1315
  530YOPE   C3A 7991   6.149  11.675   8.460  0.0698  0.1601 -0.4381
  530YOPE   C4A 7992   5.988  11.567   8.846 -0.0087  0.1227 -0.2053
  530YOPE   C1B 7993   6.988  11.432   7.704 -0.3870  0.0146 -0.1088
  530YOPE   C2B 7994   6.919  11.516   8.159  0.0633  0.1109  0.0874
  530YOPE   D3B 7995   6.742  11.466   8.588  0.0758  0.2493 -0.0905
  530YOPE   C4B 7996   6.781  11.202   8.973  0.1144  0.4293  0.0764
  531YOPE   NH3 7997   1.766  15.656   6.285  0.0732  0.3141  0.1456
  531YOPE   PO4 7998   2.135  15.306   6.315 -0.0357 -0.0487  0.1955
  531YOPE   GL1 7999   1.927  15.009   6.665  0.0632 -0.4872 -0.2325
  531YOPE   GL2 8000   2.124  14.773   6.661  0.1480 -0.2647 -0.0009
  531YOPE   C1A 8001   1.927  14.757   7.107 -0.1438  0.3329 -0.0527
  531YOPE   D2A 8002   1.801  14.628   7.476  0.5157 -0.0948 -0.1892
  531YOPE   C3A 8003   1.659  14.844   7.752  0.0240  0.1862 -0.0678
  531YOPE   C4A 8004   1.717  14.688   8.242 -0.0108 -0.1864 -0.1320
  531YOPE   C1B 8005   2.426  14.498   6.860 -0.3912  0.0741 -0.1679
  531YOPE   C2B 8006   2.442  14.436   7.207  0.1818 -0.1389 -0.2288
  531YOPE   D3B 8007   2.334  14.383   7.631  0.0456 -0.5532  0.2465
  531YOPE   C4B 8008   2.018  14.457   7.908 -0.0249  0.0502 -0.0732
  532YOPE   NH3 8009   7.425   3.989   6.372 -0.0893 -0.3444 -0.1839
  532YOPE   PO4 8010   7.795   3.659   6.357 -0.2368 -0.0982  0.2149
  532YOPE   GL1 8011   7.999   3.885   6.671 -0.2924  0.0351 -0.0663
  532YOPE   GL2 8012   7.807   3.954   6.860  0.0386  0.0744 -0.2025
  532YOPE   C1A 8013   8.325   3.861   6.889 -0.0881  0.1625  0.1941
  532YOPE   D2A 8014   8.506   3.886   7.230  0.2557 -0.0083 -0.1842
  532YOPE   C3A 8015   8.594   4.121   7.667 -0.1569  0.0264  0.2193
  532YOPE   C4A 8016   8.629   4.416   8.075  0.1875  0.2757 -0.1581
  532YOPE   C1B 8017   7.982   3.980   7.268 -0.2920 -0.0877 -0.2170
  532YOPE   C2B 8018   8.190   3.848   7.637 -0.1846 -0.3116  0.1227
  532YOPE   D3B 8019   8.505   3.691   8.040  0.3625  0.0121  0.1658
  532YOPE   C4B 8020   8.988   3.911   8.184  0.1890  0.0749  0.1896
  533YOPE   NH3 8021   5.280   0.677   6.454  0.2464  0.2062  0.1465
  533YOPE   PO4 8022   5.691   0.906   6.355 -0.5599  0.0387 -0.1969
  533YOPE   GL1 8023   5.681   0.687   6.790 -0.0283 -0.1221  0.3047
  533YOPE   GL2 8024   5.613   0.349   6.712 -0.1777  0.2239 -0.0999
  533YOPE   C1A 8025   5.713   0.685   7.235  0.0797 -0.1267  0.2092
  533YOPE   D2A 8026   5.597   0.721   7.686  0.0511  0.0445 -0.4951
  533YOPE   C3A 8027   5.916   0.551   7.949  0.1467 -0.1639  0.0995
  533YOPE   C4A 8028   6.222   0.362   8.226  0.3104 -0.0438  0.1740
  533YOPE   C1B 8029   5.852   0.219   7.030  0.1986 -0.2638  0.3518
  533YOPE   C2B 8030   5.764   0.287   7.521  0.1274 -0.2480 -0.0878
  533YOPE   D3B 8031   6.106   0.038   7.846  0.2021  0.0472  0.1916
  533YOPE   C4B 8032   6.449  -0.119   7.967 -0.0908 -0.3141  0.0038
  534YOPE   NH3 8033  17.899   5.872   6.048 -0.3292 -0.2074  0.1351
  534YOPE   PO4 8034  18.155   5.728   6.116  0.2076 -0.0531 -0.0085
  534YOPE   GL1 8035  17.996   5.840   6.571  0.0867 -0.1337 -0.0914
  534YOPE   GL2 8036  17.753   5.712   6.747 -0.1950 -0.0677 -0.2599
  534YOPE   C1A 8037  18.117   6.100   6.903  0.1081  0.1024 -0.0315
  534YOPE   D2A 8038  18.238   6.054   7.444  0.2120 -0.0960 -0.0524
  534YOPE   C3A 8039  18.360   5.721   7.646 -0.1050  0.0734 -0.1430
  534YOPE   C4A 8040  18.756   5.361   7.659 -0.1533  0.2193 -0.1111
  534YOPE   C1B 8041  17.907   5.719   7.162  0.3556 -0.0326 -0.0946
  534YOPE   C2B 8042  17.937   5.620   7.517  0.2031 -0.1755 -0.0065
  534YOPE   D3B 8043  17.946   5.422   7.929  0.0179  0.2510  0.1409
  534YOPE   C4B 8044  17.947   5.237   8.333  0.0163  0.1565 -0.2671
  535YOPE   NH3 8045   6.795   9.662   6.741 -0.0124 -0.1136 -0.1433
  535YOPE   PO4 8046   6.831   9.184   6.557 -0.0373 -0.2049 -0.0067
  535YOPE   GL1 8047   6.879   9.222   6.988 -0.0225 -0.3268  0.1863
  535YOPE   GL2 8048   7.118   9.434   7.055  0.1642 -0.0789 -0.1473
  535YOPE   C1A 8049   6.631   9.214   7.312 -0.1222 -0.0474  0.3736
  535YOPE   D2A 8050   6.660   9.448   7.705 -0.0320 -0.0467  0.1679
  535YOPE   C3A 8051   6.358   9.426   7.995 -0.2523 -0.0083  0.2272
  535YOPE   C4A 8052   6.071   9.523   8.274 -0.1881 -0.1486  0.2158
  535YOPE   C1B 8053   7.066   9.291   7.493 -0.0948 -0.0908  0.0681
  535YOPE   C2B 8054   7.027   9.170   7.825  0.1111 -0.0986 -0.0280
  535YOPE   D3B 8055   6.954   9.345   8.253 -0.1033 -0.1112  0.3336
  535YOPE   C4B 8056   7.306   9.326   8.578 -0.0753 -0.0425  0.3194
  536YOPE   NH3 8057   1.803   5.859   6.341 -0.1279 -0.0701 -0.0978
  536YOPE   PO4 8058   2.185   5.642   6.441 -0.0262 -0.2366 -0.1530
  536YOPE   GL1 8059   2.444   5.643   6.763  0.0584 -0.1534  0.1962
  536YOPE   GL2 8060   2.755   5.455   6.764 -0.2807  0.1008 -0.1206
  536YOPE   C1A 8061   2.770   5.913   6.986  0.0353 -0.4913  0.1797
  536YOPE   D2A 8062   2.840   6.146   7.456 -0.2202 -0.0609  0.0859
  536YOPE   C3A 8063   2.422   6.256   7.664 -0.0898 -0.1025  0.3268
  536YOPE   C4A 8064   2.225   6.006   8.084  0.0917  0.1423  0.2427
  536YOPE   C1B 8065   2.964   5.207   7.099 -0.2547 -0.1173 -0.1032
  536YOPE   C2B 8066   3.073   5.083   7.533 -0.1267 -0.0245 -0.0405
  536YOPE   D3B 8067   3.227   5.003   7.943 -0.0102 -0.0305 -0.2031
  536YOPE   C4B 8068   3.383   4.898   8.328  0.0965  0.3524 -0.0512
  537YOPE   NH3 8069   7.310   8.518   6.984 -0.0004 -0.0312  0.2156
  537YOPE   PO4 8070   7.764   8.815   6.971  0.1171 -0.4460 -0.2757
  537YOPE   GL1 8071   7.490   8.936   7.312 -0.2156 -0.3584  0.0140
  537YOPE   GL2 8072   7.150   8.915   7.255  0.0609  0.3109 -0.1525
  537YOPE   C1A 8073   7.540   9.005   7.730  0.1837  0.1894  0.1031
  537YOPE   D2A 8074   7.408   9.073   8.120 -0.0934  0.2333  0.0301
  537YOPE   C3A 8075   7.551   8.958   8.433 -0.1379  0.1818  0.1530
  537YOPE   C4A 8076   7.629   8.641   8.762 -0.1124  0.2213  0.1302
  537YOPE   C1B 8077   7.153   8.707   7.674 -0.0105 -0.0288 -0.1328
  537YOPE   C2B 8078   6.795   8.606   8.049  0.2556 -0.0745  0.2343
  537YOPE   D3B 8079   7.000   8.838   8.385 -0.1933 -0.1722 -0.0594
  537YOPE   C4B 8080   7.171   8.912   8.785  0.2154 -0.0376  0.2993
  538YOPE   NH3 8081   5.025   4.655   6.382 -0.1940  0.1594 -0.1979
  538YOPE   PO4 8082   4.661   4.965   6.434  0.1900  0.0973 -0.1643
  538YOPE   GL1 8083   4.598   5.071   6.855 -0.2359  0.0567 -0.2068
  538YOPE   GL2 8084   4.328   5.096   6.915  0.0344 -0.3713 -0.0174
  538YOPE   C1A 8085   4.598   5.123   7.354 -0.0573 -0.1160 -0.0849
  538YOPE   D2A 8086   4.499   4.947   7.641 -0.1066  0.1610  0.2122
  538YOPE   C3A 8087   4.146   4.920   7.897 -0.0267 -0.0807  0.2897
  538YOPE   C4A 8088   3.795   4.783   7.974  0.3742  0.2395  0.1075
  538YOPE   C1B 8089   4.084   4.879   7.225 -0.1739  0.0600 -0.0315
  538YOPE   C2B 8090   3.828   4.837   7.469 -0.1946  0.0046  0.1955
  538YOPE   D3B 8091   3.568   5.205   7.644  0.1220 -0.0024 -0.1246
  538YOPE   C4B 8092   3.621   5.325   8.070  0.2284 -0.0922 -0.0491
  539YOPE   NH3 8093   2.390  11.048   6.256 -0.0980 -0.2969  0.0556
  539YOPE   PO4 8094   2.307  11.444   6.361  0.0101  0.1088  0.1009
  539YOPE   GL1 8095   2.464  11.501   6.744 -0.1162  0.1688 -0.1420
  539YOPE   GL2 8096   2.183  11.628   6.828 -0.1902 -0.0455  0.0173
  539YOPE   C1A 8097   2.593  11.329   7.178  0.2692 -0.2047 -0.0608
  539YOPE   D2A 8098   2.474  11.347   7.523  0.0569 -0.0735 -0.2284
  539YOPE   C3A 8099   2.585  11.281   7.939 -0.1678  0.0937  0.0647
  539YOPE   C4A 8100   3.002  11.098   8.199 -0.0626 -0.3006  0.0644
  539YOPE   C1B 8101   2.057  11.377   7.170  0.0574  0.0782  0.0570
  539YOPE   C2B 8102   1.843  11.292   7.574  0.2988  0.0835 -0.1192
  539YOPE   D3B 8103   1.546  11.467   7.724 -0.0797 -0.0043  0.1614
  539YOPE   C4B 8104   1.679  11.721   7.928 -0.1158 -0.0879 -0.0883
  540YOPE   NH3 8105   5.524  11.964   6.469  0.3479 -0.1015  0.0658
  540YOPE   PO4 8106   5.908  11.872   6.457 -0.0986  0.2539 -0.1028
  540YOPE   GL1 8107   5.892  11.663   6.849 -0.0496  0.0538 -0.1753
  540YOPE   GL2 8108   5.550  11.574   6.907 -0.1112 -0.0272 -0.0475
  540YOPE   C1A 8109   6.127  11.663   7.289  0.0439  0.6456  0.1918
  540YOPE   D2A 8110   6.159  11.815   7.687  0.3070  0.1273 -0.0751
  540YOPE   C3A 8111   6.069  12.189   7.842 -0.1316  0.0173  0.0048
  540YOPE   C4A 8112   6.311  12.473   7.894 -0.0969 -0.0819 -0.1499
  540YOPE   C1B 8113   5.368  11.411   7.183  0.0198 -0.0606 -0.1768
  540YOPE   C2B 8114   5.277  11.107   7.565  0.0290  0.0043  0.0892
  540YOPE   D3B 8115   5.302  11.001   7.997 -0.0495  0.0454 -0.1148
  540YOPE   C4B 8116   5.418  11.018   8.453  0.0129 -0.1546  0.0700
  541YOPE   NH3 8117   6.046   3.507   6.216 -0.1684  0.1505 -0.1317
  541YOPE   PO4 8118   5.999   3.146   6.210  0.1956 -0.1620  0.0847
  541YOPE   GL1 8119   5.760   3.114   6.542 -0.1946  0.2326 -0.1325
  541YOPE   GL2 8120   5.795   2.920   6.851 -0.2001 -0.1224  0.0206
  541YOPE   C1A 8121   5.338   3.153   6.660 -0.1204 -0.3589  0.1171
  541YOPE   D2A 8122   5.133   2.854   7.002 -0.0609 -0.2724 -0.0104
  541YOPE   C3A 8123   5.223   2.489   7.157  0.1605 -0.1408 -0.2705
  541YOPE   C4A 8124   5.102   2.111   7.201 -0.0038 -0.0513  0.4870
  541YOPE   C1B 8125   5.601   2.790   7.085  0.1582  0.1534 -0.1562
  541YOPE   C2B 8126   5.368   2.856   7.470 -0.0446 -0.1200 -0.1700
  541YOPE   D3B 8127   5.365   2.699   7.942 -0.0080  0.4928 -0.1822
  541YOPE   C4B 8128   5.226   2.870   8.341 -0.0298 -0.1451  0.1452
  542YOPE   NH3 8129   1.094  17.032   5.784 -0.0952  0.0263  0.0103
  542YOPE   PO4 8130   1.020  16.646   6.090  0.1569  0.1720  0.1604
  542YOPE   GL1 8131   0.984  16.491   6.447 -0.2733 -0.3128  0.0593
  542YOPE   GL2 8132   0.931  16.214   6.379 -0.1146 -0.2980  0.1365
  542YOPE   C1A 8133   0.807  16.439   6.828 -0.1942  0.1969  0.3188
  542YOPE   D2A 8134   0.452  16.615   6.945  0.2619 -0.3029 -0.1692
  542YOPE   C3A 8135   0.479  16.648   7.313 -0.1545 -0.2814 -0.1440
  542YOPE   C4A 8136   0.658  16.897   7.651  0.0129  0.2644  0.1148
  542YOPE   C1B 8137   0.834  15.835   6.596  0.2052 -0.2217 -0.0872
  542YOPE   C2B 8138   0.766  15.716   7.015  0.1734 -0.1217 -0.0391
  542YOPE   D3B 8139   0.813  15.804   7.501  0.2172  0.0424  0.0740
  542YOPE   C4B 8140   0.642  15.852   7.927 -0.1667  0.1664  0.2237
  543POPC   NC3 8141   4.870  16.775   6.150  0.1378 -0.3837  0.0621
  543POPC   PO4 8142   4.530  16.789   6.232  0.2785  0.1712  0.0911
  543POPC   GL1 8143   4.453  16.693   6.642 -0.0885 -0.1361  0.2864
  543POPC   GL2 8144   4.323  16.433   6.692  0.3078 -0.0728 -0.0275
  543POPC   C1A 8145   4.725  16.472   6.995  0.1066  0.1326 -0.0830
  543POPC   D2A 8146   4.525  16.138   7.177 -0.0768  0.1118  0.1204
  543POPC   C3A 8147   4.441  15.911   7.517  0.1237  0.1563  0.1267
  543POPC   C4A 8148   4.349  15.881   7.897  0.0167  0.0487 -0.1873
  543POPC   C1B 8149   4.132  16.454   7.093  0.1613  0.1009  0.1713
  543POPC   C2B 8150   4.295  16.488   7.590 -0.1320  0.0027 -0.5366
  543POPC   C3B 8151   4.334  16.383   8.091  0.2759 -0.0084  0.1112
  543POPC   C4B 8152   4.283  16.186   8.625 -0.3192 -0.3378  0.2620
  544POPC   NC3 8153   4.629   0.183   6.290  0.0618 -0.3179  0.0677
  544POPC   PO4 8154   4.756   0.634   6.344 -0.0104 -0.0802  0.2268
  544POPC   GL1 8155   4.862   0.523   6.800  0.1641 -0.0522  0.2510
  544POPC   GL2 8156   5.190   0.408   6.926  0.0034 -0.1615  0.2688
  544POPC   C1A 8157   4.827   0.513   7.303 -0.3215  0.1862  0.2048
  544POPC   D2A 8158   4.689   0.382   7.724 -0.3220 -0.2551  0.4592
  544POPC   C3A 8159   4.442   0.113   7.982  0.1965  0.0768  0.2119
  544POPC   C4A 8160   4.110   0.054   8.193 -0.0539 -0.2233  0.4434
  544POPC   C1B 8161   5.340   0.393   7.298 -0.0115  0.0312 -0.7219
  544POPC   C2B 8162   5.185   0.336   7.663  0.1299  0.2622  0.0498
  544POPC   C3B 8163   5.111   0.340   8.091  0.0420  0.0569 -0.2982
  544POPC   C4B 8164   5.447   0.572   8.407  0.1684 -0.2232  0.0790
  545POPC   NC3 8165  11.978  12.995   6.735 -0.2545 -0.0918 -0.0311
  545POPC   PO4 8166  11.562  12.874   6.753  0.3951 -0.3825 -0.0776
  545POPC   GL1 8167  11.696  13.306   7.016 -0.1117 -0.1645 -0.1766
  545POPC   GL2 8168  11.555  13.541   7.019  0.3175  0.1830  0.1371
  545POPC   C1A 8169  11.866  13.345   7.410  0.0527  0.0167 -0.1269
  545POPC   D2A 8170  12.030  13.545   7.839  0.1467 -0.0850  0.1388
  545POPC   C3A 8171  12.232  13.441   8.103 -0.0818  0.3101 -0.1317
  545POPC   C4A 8172  12.249  13.126   8.364 -0.0963  0.1001 -0.0859
  545POPC   C1B 8173  11.359  13.319   7.380 -0.5082  0.0999 -0.1915
  545POPC   C2B 8174  11.115  13.161   7.629 -0.0336  0.1471 -0.0014
  545POPC   C3B 8175  10.915  13.380   7.939 -0.0846  0.1131 -0.0017
  545POPC   C4B 8176  10.848  13.399   8.366 -0.0077 -0.0308  0.0207
  546POPC   NC3 8177   2.614   6.849   6.115  0.1907 -0.3854  0.1511
  546POPC   PO4 8178   2.875   6.455   6.348  0.1771  0.0516  0.2724
  546POPC   GL1 8179   2.765   6.528   6.697 -0.4842 -0.0203  0.2234
  546POPC   GL2 8180   2.472   6.641   6.638  0.0597  0.1277 -0.0526
  546POPC   C1A 8181   3.038   6.364   7.044 -0.2629 -0.1147 -0.0643
  546POPC   D2A 8182   2.974   6.653   7.371 -0.2864  0.0545 -0.1008
  546POPC   C3A 8183   2.917   6.527   7.706  0.3494 -0.2756 -0.0408
  546POPC   C4A 8184   2.893   6.267   8.020 -0.1596 -0.0284 -0.0746
  546POPC   C1B 8185   2.246   7.031   6.783 -0.0910 -0.2326 -0.0567
  546POPC   C2B 8186   2.360   7.385   6.861 -0.0955  0.2298 -0.0625
  546POPC   C3B 8187   2.658   7.567   7.142  0.1293  0.0733 -0.0478
  546POPC   C4B 8188   2.903   7.474   7.378  0.1738  0.0017 -0.0616
  547POPC   NC3 8189   8.524  17.551   5.685  0.1479  0.0032  0.2481
  547POPC   PO4 8190   8.368  17.909   5.955  0.0673  0.0547  0.1069
  547POPC   GL1 8191   8.408  18.123   6.437  0.1570 -0.2404 -0.0485
  547POPC   GL2 8192   8.485  18.360   6.556  0.2391 -0.1007 -0.4621
  547POPC   C1A 8193   8.493  17.923   6.911  0.0378 -0.1876  0.0467
  547POPC   D2A 8194   8.315  17.706   7.310  0.3977  0.3888 -0.1502
  547POPC   C3A 8195   8.489  17.373   7.542  0.3368  0.1401 -0.0763
  547POPC   C4A 8196   8.725  17.367   7.937 -0.1027 -0.0875 -0.0066
  547POPC   C1B 8197   8.548  18.377   6.986 -0.1293 -0.1374 -0.2813
  547POPC   C2B 8198   8.621  18.260   7.363 -0.0089  0.1467 -0.0557
  547POPC   C3B 8199   8.790  18.346   7.744 -0.1028 -0.0769 -0.2144
  547POPC   C4B 8200   8.522  18.302   8.120 -0.3034 -0.3184 -0.0308
  548POPC   NC3 8201   7.029  17.133   5.871 -0.0162  0.1206  0.2238
  548POPC   PO4 8202   6.613  16.881   5.923 -0.0005  0.1887  0.4163
  548POPC   GL1 8203   6.662  17.000   6.314 -0.0498  0.0342  0.3472
  548POPC   GL2 8204   6.979  17.011   6.422  0.0972  0.1264  0.0496
  548POPC   C1A 8205   6.617  17.183   6.713 -0.1548  0.0487 -0.1268
  548POPC   D2A 8206   6.415  17.083   7.072  0.0750  0.1128 -0.0549
  548POPC   C3A 8207   6.616  17.030   7.503 -0.1853 -0.1390 -0.0906
  548POPC   C4A 8208   6.761  16.882   7.974  0.1599  0.1701  0.1141
  548POPC   C1B 8209   7.084  16.978   6.778  0.0559  0.1016  0.0231
  548POPC   C2B 8210   7.274  17.045   7.232  0.0400 -0.2613  0.1616
  548POPC   C3B 8211   7.086  17.087   7.656  0.1364 -0.0297  0.0338
  548POPC   C4B 8212   7.204  17.114   8.084  0.1514 -0.1264 -0.0137
  549POPC   NC3 8213   7.749   7.710   6.858 -0.0823 -0.3993  0.2319
  549POPC   PO4 8214   7.771   8.214   6.900 -0.0675  0.0716  0.0341
  549POPC   GL1 8215   7.625   7.932   7.366 -0.0337 -0.3875 -0.2062
  549POPC   GL2 8216   7.730   7.658   7.389 -0.1493 -0.2816 -0.1879
  549POPC   C1A 8217   7.531   7.923   7.802 -0.0969 -0.0034 -0.1670
  549POPC   D2A 8218   7.446   8.018   8.203  0.2534  0.1282  0.2464
  549POPC   C3A 8219   7.284   7.698   8.509  0.0755 -0.3823  0.3045
  549POPC   C4A 8220   7.304   7.577   8.885 -0.0092 -0.3088 -0.1372
  549POPC   C1B 8221   7.921   7.647   7.895  0.3439  0.1920 -0.2653
  549POPC   C2B 8222   7.734   7.546   8.280  0.0366  0.2248 -0.0314
  549POPC   C3B 8223   7.873   7.779   8.695  0.1871  0.1450  0.5252
  549POPC   C4B 8224   8.143   7.723   9.105  0.3184 -0.0577  0.1802
  550POPC   NC3 8225   3.368   9.201   6.152 -0.4711  0.0427  0.0351
  550POPC   PO4 8226   3.818   9.108   6.279  0.2867  0.2329 -0.2356
  550POPC   GL1 8227   3.732   9.137   6.740  0.0111 -0.3134 -0.0110
  550POPC   GL2 8228   3.949   9.416   6.915  0.2839  0.0980 -0.0052
  550POPC   C1A 8229   3.484   9.170   7.001  0.3325  0.1150  0.0349
  550POPC   D2A 8230   3.519   9.296   7.372 -0.0495 -0.0050 -0.0932
  550POPC   C3A 8231   3.460   9.277   7.785  0.1098 -0.3264 -0.2216
  550POPC   C4A 8232   3.548   9.057   8.169 -0.0955 -0.6887  0.1767
  550POPC   C1B 8233   4.004   9.514   7.317  0.2688 -0.0278  0.1030
  550POPC   C2B 8234   3.869   9.581   7.686 -0.0742  0.1307  0.4119
  550POPC   C3B 8235   3.762   9.623   8.103  0.0235  0.0839  0.0491
  550POPC   C4B 8236   3.757   9.794   8.596  0.0027  0.2468  0.0098
  551POPC   NC3 8237   6.055   1.242   6.289 -0.0337  0.1287 -0.0384
  551POPC   PO4 8238   6.114   1.733   6.423 -0.1190 -0.5968 -0.0717
  551POPC   GL1 8239   6.290   1.443   6.702 -0.1439  0.1528  0.1161
  551POPC   GL2 8240   6.557   1.265   6.715  0.4449 -0.0712 -0.0494
  551POPC   C1A 8241   6.309   1.527   7.122 -0.0864  0.0487 -0.2031
  551POPC   D2A 8242   6.439   1.596   7.458 -0.0799  0.1576  0.3803
  551POPC   C3A 8243   6.236   1.742   7.811  0.1720 -0.1999  0.3588
  551POPC   C4A 8244   5.871   1.902   8.147  0.0618  0.2588  0.0359
  551POPC   C1B 8245   6.522   1.103   7.112  0.1639  0.1406  0.1091
  551POPC   C2B 8246   6.648   1.144   7.492 -0.0328  0.0760  0.6263
  551POPC   C3B 8247   6.524   1.334   7.915 -0.3297  0.0396 -0.1873
  551POPC   C4B 8248   6.486   1.380   8.473 -0.1737 -0.1338 -0.5154
  552POPC   NC3 8249  10.432   5.524   6.423 -0.1551 -0.0064  0.1976
  552POPC   PO4 8250  10.015   5.393   6.525  0.0650 -0.0805 -0.1470
  552POPC   GL1 8251   9.780   5.307   6.952 -0.0231 -0.1463  0.0086
  552POPC   GL2 8252  10.021   5.314   7.175 -0.0199  0.1590 -0.0335
  552POPC   C1A 8253   9.606   4.932   7.164 -0.2011  0.0509 -0.1543
  552POPC   D2A 8254   9.845   4.588   7.308  0.1773  0.3027  0.0921
  552POPC   C3A 8255   9.835   4.404   7.804  0.0348 -0.1570 -0.2464
  552POPC   C4A 8256   9.483   4.416   8.155 -0.2542  0.2287  0.0645
  552POPC   C1B 8257   9.777   5.224   7.549 -0.0609 -0.1101  0.2596
  552POPC   C2B 8258   9.520   5.275   7.838 -0.2601 -0.2810 -0.1764
  552POPC   C3B 8259   9.244   5.028   8.207 -0.1626  0.0775  0.1247
  552POPC   C4B 8260   9.014   4.736   8.066  0.0837 -0.1607 -0.0551
  553POPC   NC3 8261   0.697  14.650   6.088 -0.0582 -0.3689  0.1538
  553POPC   PO4 8262   0.335  14.750   5.966  0.2985  0.3625 -0.2289
  553POPC   GL1 8263   0.193  14.648   6.338 -0.2451  0.0852  0.0388
  553POPC   GL2 8264   0.234  14.349   6.515  0.2348 -0.0770 -0.0092
  553POPC   C1A 8265  -0.022  14.818   6.666 -0.4021 -0.0071 -0.0327
  553POPC   D2A 8266  -0.410  15.005   6.657  0.0071  0.0940  0.1851
  553POPC   C3A 8267  -0.225  15.348   6.832  0.2721 -0.2145 -0.1792
  553POPC   C4A 8268  -0.165  15.479   7.230 -0.1763 -0.3106  0.0665
  553POPC   C1B 8269   0.370  14.506   6.852  0.0641  0.0239  0.1261
  553POPC   C2B 8270   0.301  14.599   7.200 -0.0823 -0.0638  0.0221
  553POPC   C3B 8271   0.211  14.823   7.572  0.0004 -0.0308  0.3769
  553POPC   C4B 8272   0.259  15.071   7.986 -0.0950  0.1853  0.2232
  554POPC   NC3 8273   4.812   2.029   6.308 -0.2667  0.1225  0.1460
  554POPC   PO4 8274   4.524   1.700   6.196  0.2080 -0.1532 -0.0450
  554POPC   GL1 8275   4.451   1.530   6.625 -0.0538  0.1993  0.1990
  554POPC   GL2 8276   4.268   1.744   6.728  0.0238 -0.1357  0.1709
  554POPC   C1A 8277   4.487   1.365   6.972 -0.0754 -0.3336 -0.0159
  554POPC   D2A 8278   4.395   1.215   7.366 -0.0880 -0.0741  0.1245
  554POPC   C3A 8279   4.298   1.289   7.662 -0.0576  0.0130 -0.0244
  554POPC   C4A 8280   4.045   1.089   7.941  0.0585  0.2040 -0.0227
  554POPC   C1B 8281   3.945   1.602   6.889 -0.0748  0.0226 -0.0800
  554POPC   C2B 8282   3.990   1.570   7.400  0.0353  0.0001  0.0172
  554POPC   C3B 8283   4.036   1.650   7.883 -0.1270  0.1967  0.0544
  554POPC   C4B 8284   4.153   1.477   8.359  0.1158 -0.1268  0.2935
  555POPC   NC3 8285   2.897   1.942   5.750  0.1544  0.2525 -0.2561
  555POPC   PO4 8286   3.230   1.795   6.127  0.4945 -0.0072  0.0253
  555POPC   GL1 8287   3.330   1.858   6.524  0.0546 -0.1091  0.0259
  555POPC   GL2 8288   3.033   1.802   6.698 -0.2317  0.0140 -0.1979
  555POPC   C1A 8289   3.552   1.841   6.906  0.0007 -0.0645 -0.1288
  555POPC   D2A 8290   3.599   1.881   7.330  0.0836 -0.1302 -0.0140
  555POPC   C3A 8291   3.731   1.965   7.673 -0.1779  0.1965 -0.0362
  555POPC   C4A 8292   3.675   2.273   8.009  0.0389 -0.0276  0.3531
  555POPC   C1B 8293   3.006   1.327   6.978 -0.0554  0.0685  0.0433
  555POPC   C2B 8294   3.138   1.119   7.351 -0.2327  0.4122  0.0897
  555POPC   C3B 8295   3.080   1.176   7.749  0.2672  0.4190  0.1160
  555POPC   C4B 8296   3.158   1.251   8.149  0.2060  0.0791 -0.1080
  556POPC   NC3 8297   3.058   3.697   6.440 -0.2442 -0.1275  0.2595
  556POPC   PO4 8298   3.474   3.663   6.324 -0.0453  0.3585 -0.2123
  556POPC   GL1 8299   3.431   3.542   6.705 -0.1653  0.0139  0.0665
  556POPC   GL2 8300   3.200   3.649   6.908  0.0150  0.0484 -0.1504
  556POPC   C1A 8301   3.604   3.298   7.035 -0.1220 -0.2361 -0.2160
  556POPC   D2A 8302   3.365   3.135   7.354 -0.0696 -0.0179 -0.0671
  556POPC   C3A 8303   3.112   2.763   7.273 -0.1589  0.0697 -0.2667
  556POPC   C4A 8304   2.790   2.646   7.307 -0.0306 -0.0375 -0.2813
  556POPC   C1B 8305   3.236   3.643   7.349 -0.1567  0.1302  0.0381
  556POPC   C2B 8306   3.116   3.453   7.654  0.2650 -0.0900 -0.1552
  556POPC   C3B 8307   3.124   3.443   8.031  0.1656  0.0025 -0.1198
  556POPC   C4B 8308   3.251   3.531   8.399  0.1559 -0.0776  0.1342
  557POPC   NC3 8309   1.985   0.113   5.756 -0.3328 -0.0292 -0.0144
  557POPC   PO4 8310   1.650   0.227   6.004  0.2804  0.4837  0.0465
  557POPC   GL1 8311   1.303   0.266   6.219 -0.3275  0.0502  0.3073
  557POPC   GL2 8312   1.166  -0.027   6.162  0.2485  0.0814  0.2477
  557POPC   C1A 8313   0.888   0.346   6.445 -0.1651 -0.1847 -0.2282
  557POPC   D2A 8314   0.621   0.617   6.655 -0.1134  0.0600  0.0058
  557POPC   C3A 8315   0.696   1.094   6.594 -0.0955 -0.5203  0.0931
  557POPC   C4A 8316   0.839   1.440   6.840  0.0130  0.0442 -0.3659
  557POPC   C1B 8317   1.066  -0.091   6.567 -0.0216 -0.1285 -0.0926
  557POPC   C2B 8318   0.786  -0.170   6.857  0.0378 -0.0450 -0.1915
  557POPC   C3B 8319   0.728  -0.588   7.092  0.3852 -0.2072  0.0496
  557POPC   C4B 8320   0.688  -0.919   6.976 -0.0938  0.1849  0.1068
  558POPC   NC3 8321   7.297  10.900   6.539 -0.0873 -0.2076  0.1039
  558POPC   PO4 8322   7.518  10.997   6.853  0.0883 -0.3156  0.2735
  558POPC   GL1 8323   7.692  11.049   7.227 -0.0957 -0.1727  0.1415
  558POPC   GL2 8324   7.909  10.848   7.339  0.0861 -0.0872  0.0376
  558POPC   C1A 8325   7.496  11.269   7.511 -0.2862 -0.2819 -0.2101
  558POPC   D2A 8326   7.424  11.456   7.924 -0.3908  0.1181 -0.1661
  558POPC   C3A 8327   7.330  11.227   8.206 -0.1195  0.1852 -0.0298
  558POPC   C4A 8328   7.449  11.025   8.429 -0.1473  0.1369 -0.1769
  558POPC   C1B 8329   7.872  11.040   7.742  0.2116  0.1908 -0.1854
  558POPC   C2B 8330   7.818  11.218   8.140  0.1213 -0.3675 -0.3974
  558POPC   C3B 8331   7.957  11.261   8.579 -0.1960  0.0080  0.1175
  558POPC   C4B 8332   8.182  11.528   8.911  0.0421 -0.2671  0.0237
  559POPC   NC3 8333  10.304   1.475   6.300 -0.1000 -0.1978  0.1576
  559POPC   PO4 8334  10.600   1.711   6.573 -0.0925 -0.1466  0.1716
  559POPC   GL1 8335  10.410   1.866   6.980 -0.0810 -0.1616  0.0516
  559POPC   GL2 8336  10.768   2.017   6.944 -0.0396  0.1060  0.1052
  559POPC   C1A 8337  10.220   1.967   7.439  0.0508 -0.0715  0.1127
  559POPC   D2A 8338  10.408   2.245   7.774 -0.3199 -0.2292 -0.3351
  559POPC   C3A 8339  10.342   2.249   8.230  0.0670  0.2821  0.2047
  559POPC   C4A 8340  10.248   2.008   8.521  0.2348 -0.1576 -0.0942
  559POPC   C1B 8341  10.658   2.050   7.341 -0.0439 -0.1091  0.1548
  559POPC   C2B 8342  10.755   1.907   7.797  0.1333 -0.0377  0.3385
  559POPC   C3B 8343  10.903   2.067   8.197  0.1019  0.2161  0.1093
  559POPC   C4B 8344  10.961   1.880   8.461 -0.0964  0.0368  0.0181
  560POPC   NC3 8345   3.360  15.673   6.151 -0.3078  0.2571 -0.0902
  560POPC   PO4 8346   2.964  15.704   6.282 -0.0968  0.0474  0.0390
  560POPC   GL1 8347   2.992  15.742   6.779 -0.2434 -0.2463 -0.0380
  560POPC   GL2 8348   2.627  15.759   6.820 -0.0727  0.2090  0.0026
  560POPC   C1A 8349   2.948  15.780   7.303 -0.0812  0.2183  0.0498
  560POPC   D2A 8350   2.589  15.480   7.469  0.2306  0.0791 -0.1772
  560POPC   C3A 8351   2.380  15.382   7.823 -0.3139  0.0295 -0.2535
  560POPC   C4A 8352   2.014  15.641   8.023  0.0863  0.0973 -0.2981
  560POPC   C1B 8353   2.403  15.812   7.152 -0.3673  0.0766  0.1609
  560POPC   C2B 8354   2.286  15.840   7.600 -0.3099  0.1865 -0.0836
  560POPC   C3B 8355   2.533  15.812   8.070 -0.1174 -0.2371 -0.0258
  560POPC   C4B 8356   2.394  15.618   8.404  0.0261 -0.1859  0.5022
  561POPC   NC3 8357  11.296  13.941   6.622 -0.0554 -0.0199  0.1460
  561POPC   PO4 8358  11.081  13.502   6.682 -0.2628  0.2852  0.0753
  561POPC   GL1 8359  10.981  13.538   7.174 -0.2161  0.1014 -0.0477
  561POPC   GL2 8360  10.874  13.831   7.369  0.2961  0.0663  0.2345
  561POPC   C1A 8361  10.692  13.369   7.474  0.1213 -0.0553 -0.1968
  561POPC   D2A 8362  10.478  13.144   7.773 -0.0869 -0.0783 -0.0535
  561POPC   C3A 8363  10.716  12.929   8.051 -0.0342 -0.0056  0.1324
  561POPC   C4A 8364  10.796  12.889   8.488 -0.1324 -0.0316 -0.2694
  561POPC   C1B 8365  11.149  13.700   7.636 -0.1058  0.2081  0.2583
  561POPC   C2B 8366  11.408  13.468   7.916 -0.3025  0.1244  0.1882
  561POPC   C3B 8367  11.668  13.411   8.255  0.0023  0.2240  0.3858
  561POPC   C4B 8368  11.723  13.060   8.541 -0.3565  0.0220  0.0278
  562POPC   NC3 8369   8.209   3.542   6.128  0.0343 -0.2295 -0.0922
  562POPC   PO4 8370   8.655   3.400   6.272 -0.2964  0.2148  0.1121
  562POPC   GL1 8371   8.830   3.467   6.612  0.3259 -0.0296  0.1866
  562POPC   GL2 8372   8.753   3.819   6.624  0.0693  0.3009  0.0044
  562POPC   C1A 8373   8.689   3.422   7.088  0.2248 -0.2321  0.1361
  562POPC   D2A 8374   8.693   3.498   7.564 -0.1539 -0.2397 -0.0124
  562POPC   C3A 8375   8.588   3.120   7.854  0.1019  0.0446  0.1577
  562POPC   C4A 8376   8.796   2.934   8.222 -0.0993 -0.0954  0.0329
  562POPC   C1B 8377   8.997   3.773   6.950  0.1525  0.0994  0.1940
  562POPC   C2B 8378   9.100   3.993   7.267 -0.3590  0.0239 -0.4895
  562POPC   C3B 8379   9.063   4.102   7.613 -0.0046  0.2618 -0.0491
  562POPC   C4B 8380   8.979   4.416   7.718  0.0624 -0.0574  0.3830
  563POPC   NC3 8381   7.058   2.273   5.852 -0.3839  0.1341  0.2132
  563POPC   PO4 8382   7.368   2.108   6.116  0.2154  0.0780 -0.1158
  563POPC   GL1 8383   7.287   2.179   6.530  0.1066  0.1993 -0.1677
  563POPC   GL2 8384   7.035   1.977   6.753  0.3107  0.2153  0.3009
  563POPC   C1A 8385   7.414   2.377   6.837 -0.3664 -0.0409  0.3129
  563POPC   D2A 8386   7.676   2.616   7.096  0.1367 -0.0054 -0.1519
  563POPC   C3A 8387   7.645   2.626   7.563 -0.1063  0.0069  0.3005
  563POPC   C4A 8388   7.429   2.553   7.910 -0.1395 -0.3682 -0.1405
  563POPC   C1B 8389   7.303   1.972   7.067  0.1890 -0.1905  0.0815
  563POPC   C2B 8390   7.431   2.190   7.404  0.0327 -0.1140 -0.1645
  563POPC   C3B 8391   7.563   2.080   7.687 -0.0081  0.1120  0.0323
  563POPC   C4B 8392   7.679   2.158   8.107  0.3441  0.2045 -0.2199
  564POPC   NC3 8393   2.054   9.344   5.958 -0.1352 -0.1944 -0.1963
  564POPC   PO4 8394   1.861   9.539   6.090  0.0896 -0.0700 -0.5010
  564POPC   GL1 8395   1.671   9.571   6.401  0.0901  0.0565  0.2335
  564POPC   GL2 8396   1.767   9.407   6.636 -0.2263  0.0954 -0.1528
  564POPC   C1A 8397   1.454   9.655   6.871 -0.2382 -0.4137  0.2424
  564POPC   D2A 8398   1.108   9.586   7.170  0.2124  0.1335 -0.0727
  564POPC   C3A 8399   0.889   9.832   7.285  0.0425  0.1173  0.1757
  564POPC   C4A 8400   0.642  10.219   7.189  0.0068 -0.4338 -0.0385
  564POPC   C1B 8401   1.901   9.396   7.009  0.1113  0.0659  0.1659
  564POPC   C2B 8402   2.278   9.265   7.094  0.0134  0.0776  0.2712
  564POPC   C3B 8403   2.432   8.916   7.148  0.1798  0.0884  0.1439
  564POPC   C4B 8404   2.417   8.546   6.969  0.0264  0.2268  0.2329
  565POPC   NC3 8405   7.913  17.063   6.206 -0.0327  0.2026  0.5420
  565POPC   PO4 8406   8.140  16.737   6.161 -0.0417  0.2462  0.0983
  565POPC   GL1 8407   8.007  16.769   6.614 -0.1015  0.2287  0.2160
  565POPC   GL2 8408   7.767  16.798   6.562 -0.2511  0.0392 -0.0239
  565POPC   C1A 8409   8.032  16.614   7.059 -0.4402 -0.0633  0.2266
  565POPC   D2A 8410   8.261  16.620   7.379 -0.0683 -0.0110  0.2304
  565POPC   C3A 8411   8.295  16.377   7.843  0.1356  0.2314 -0.3428
  565POPC   C4A 8412   8.325  16.227   8.354  0.0703 -0.0395 -0.4095
  565POPC   C1B 8413   7.498  16.662   6.974  0.0241 -0.4316 -0.1369
  565POPC   C2B 8414   7.399  16.411   7.243  0.0828 -0.0906 -0.2190
  565POPC   C3B 8415   7.418  16.215   7.548 -0.3558  0.0687 -0.2189
  565POPC   C4B 8416   7.173  16.118   7.921  0.1789  0.0361  0.1859
  566YOPC   NC3 8417   9.702   9.979   6.220 -0.1323 -0.0877 -0.1329
  566YOPC   PO4 8418   9.705  10.126   6.675 -0.2872  0.1432  0.0322
  566YOPC   GL1 8419   9.849  10.126   7.079 -0.0274 -0.1171  0.1087
  566YOPC   GL2 8420   9.724   9.835   7.236 -0.0974  0.1022 -0.1917
  566YOPC   C1A 8421   9.731  10.400   7.436  0.0881  0.3226  0.0145
  566YOPC   D2A 8422   9.689  10.490   7.834  0.2248  0.0652 -0.0992
  566YOPC   C3A 8423   9.360  10.245   8.001 -0.2264 -0.0148 -0.1164
  566YOPC   C4A 8424   8.947  10.006   7.693 -0.0132 -0.2505  0.0881
  566YOPC   C1B 8425   9.546   9.980   7.675  0.1100 -0.0991  0.0743
  566YOPC   C2B 8426   9.333   9.757   8.038  0.3269 -0.0684  0.2697
  566YOPC   D3B 8427   8.930   9.969   8.201 -0.0714 -0.1582 -0.0784
  566YOPC   C4B 8428   8.569  10.071   8.451  0.1656 -0.2687 -0.1752
  567YOPC   NC3 8429   4.993   6.508   6.028  0.1442  0.1900 -0.2413
  567YOPC   PO4 8430   4.749   6.737   6.248 -0.0851  0.0037 -0.0797
  567YOPC   GL1 8431   5.015   6.609   6.577 -0.0417  0.0097 -0.0627
  567YOPC   GL2 8432   4.734   6.343   6.774  0.3554 -0.0053  0.0987
  567YOPC   C1A 8433   5.149   6.435   7.015 -0.1191 -0.4161  0.1520
  567YOPC   D2A 8434   4.907   6.562   7.367  0.0649 -0.2373  0.2382
  567YOPC   C3A 8435   5.073   6.510   7.662 -0.1994 -0.1303  0.4047
  567YOPC   C4A 8436   5.319   6.462   7.956  0.2782  0.2301 -0.0477
  567YOPC   C1B 8437   4.635   6.709   6.984  0.0745  0.1088 -0.2516
  567YOPC   C2B 8438   4.469   6.776   7.473 -0.1157 -0.0858 -0.2039
  567YOPC   D3B 8439   4.738   6.772   7.917  0.4544 -0.1236  0.0544
  567YOPC   C4B 8440   5.014   6.841   8.271 -0.0676 -0.0471  0.0253
  568YOPC   NC3 8441   1.010   5.808   6.542 -0.0138 -0.1132 -0.0806
  568YOPC   PO4 8442   1.386   5.653   6.215 -0.3079  0.2008 -0.3195
  568YOPC   GL1 8443   1.470   5.672   6.700 -0.1622  0.0495 -0.1035
  568YOPC   GL2 8444   1.210   5.573   6.969  0.0013 -0.0773 -0.0719
  568YOPC   C1A 8445   1.715   5.686   7.107 -0.1116 -0.0518  0.3455
  568YOPC   D2A 8446   1.624   5.672   7.448 -0.0526 -0.1777  0.3906
  568YOPC   C3A 8447   1.800   5.347   7.665 -0.4767  0.3086 -0.1504
  568YOPC   C4A 8448   2.201   5.268   7.686  0.1927 -0.1838  0.1288
  568YOPC   C1B 8449   1.127   5.562   7.375  0.3674 -0.2730 -0.0699
  568YOPC   C2B 8450   1.372   5.626   7.921  0.2531 -0.3314 -0.0791
  568YOPC   D3B 8451   1.178   5.968   8.286  0.3546  0.1496 -0.3205
  568YOPC   C4B 8452   0.859   6.010   8.590 -0.0825  0.1720  0.1868
  569YOPC   NC3 8453   5.372  13.186   6.615  0.0087  0.1140 -0.0894
  569YOPC   PO4 8454   4.997  13.114   6.800  0.0181  0.0180  0.1980
  569YOPC   GL1 8455   4.734  13.330   7.102  0.0152  0.4229  0.0374
  569YOPC   GL2 8456   4.359  13.258   7.123 -0.0897 -0.2217  0.1009
  569YOPC   C1A 8457   4.658  13.383   7.540  0.3580 -0.0769 -0.0986
  569YOPC   D2A 8458   4.585  13.727   7.713  0.4337 -0.0847  0.1730
  569YOPC   C3A 8459   4.356  13.709   8.108  0.1643  0.2067  0.1758
  569YOPC   C4A 8460   4.533  13.774   8.564 -0.0292 -0.3797 -0.1453
  569YOPC   C1B 8461   4.169  13.499   7.502 -0.1145  0.1359 -0.2427
  569YOPC   C2B 8462   3.908  13.466   7.836 -0.0327 -0.0614  0.1772
  569YOPC   D3B 8463   3.866  13.696   8.147 -0.0514  0.2643 -0.0998
  569YOPC   C4B 8464   4.012  13.724   8.501  0.1364 -0.4772  0.1981
  570YOPC   NC3 8465  10.613  11.340   6.721 -0.2918  0.0189  0.3175
  570YOPC   PO4 8466  10.167  11.583   6.694 -0.1235 -0.1725  0.2265
  570YOPC   GL1 8467  10.351  11.641   7.117  0.2673  0.3034  0.1397
  570YOPC   GL2 8468  10.530  11.400   7.227  0.0925  0.2797 -0.0178
  570YOPC   C1A 8469  10.231  11.568   7.562  0.1242  0.3034 -0.3742
  570YOPC   D2A 8470   9.942  11.443   7.886 -0.2237 -0.0244 -0.1167
  570YOPC   C3A 8471   9.794  11.676   8.281 -0.1878 -0.1177  0.0983
  570YOPC   C4A 8472   9.747  11.515   8.735 -0.0707 -0.0382  0.0932
  570YOPC   C1B 8473  10.696  11.719   7.446  0.0398  0.0629 -0.1701
  570YOPC   C2B 8474  11.071  11.761   7.650 -0.0225  0.0053  0.0198
  570YOPC   D3B 8475  11.080  11.792   7.987  0.0793 -0.0688 -0.1105
  570YOPC   C4B 8476  11.188  11.844   8.341 -0.2581 -0.1913  0.1613
  571YOPC   NC3 8477   2.570  13.011   6.071  0.1051 -0.0128  0.0144
  571YOPC   PO4 8478   2.294  13.025   6.421 -0.1137  0.0751 -0.1608
  571YOPC   GL1 8479   2.263  12.774   6.810  0.0876  0.0294 -0.0699
  571YOPC   GL2 8480   2.295  12.465   6.699 -0.4164 -0.1404  0.3368
  571YOPC   C1A 8481   2.461  12.914   7.193  0.2402  0.1056 -0.2742
  571YOPC   D2A 8482   2.478  12.928   7.658  0.0628  0.4309 -0.0647
  571YOPC   C3A 8483   2.186  12.705   7.981  0.0585 -0.0069  0.0603
  571YOPC   C4A 8484   2.228  12.721   8.451 -0.1427 -0.0768  0.3126
  571YOPC   C1B 8485   1.989  12.341   6.979 -0.3660 -0.3285  0.1021
  571YOPC   C2B 8486   1.691  12.382   7.241 -0.2266 -0.0201 -0.1378
  571YOPC   D3B 8487   1.927  12.402   7.589 -0.0985 -0.1188  0.0226
  571YOPC   C4B 8488   2.043  12.069   7.893 -0.0827  0.1029 -0.2284
  572YOPC   NC3 8489   9.493   6.629   6.705  0.0803 -0.0248  0.1794
  572YOPC   PO4 8490   9.826   6.950   6.620  0.2219 -0.2352 -0.3569
  572YOPC   GL1 8491   9.621   7.066   6.988 -0.1593  0.0231  0.2308
  572YOPC   GL2 8492   9.788   7.218   7.271  0.0552 -0.1480 -0.2021
  572YOPC   C1A 8493   9.176   6.982   7.184 -0.0058  0.2546 -0.3208
  572YOPC   D2A 8494   9.191   7.242   7.611  0.1106  0.1535  0.2675
  572YOPC   C3A 8495   8.935   7.180   7.988  0.1884  0.1184 -0.0118
  572YOPC   C4A 8496   8.713   6.874   7.892 -0.1458 -0.3245  0.0722
  572YOPC   C1B 8497   9.673   7.372   7.733  0.1961 -0.2961 -0.0995
  572YOPC   C2B 8498   9.464   7.213   8.022 -0.1523  0.0695 -0.4091
  572YOPC   D3B 8499   9.479   7.042   8.433  0.1460 -0.4675 -0.1809
  572YOPC   C4B 8500   9.665   6.979   8.834  0.3220  0.0903  0.3827
  573YOPC   NC3 8501  10.254  15.202   6.304 -0.0115 -0.1548 -0.1785
  573YOPC   PO4 8502  10.016  15.513   6.483  0.2757 -0.1061  0.1213
  573YOPC   GL1 8503   9.867  15.668   6.852 -0.0617 -0.0539 -0.0861
  573YOPC   GL2 8504  10.105  15.804   6.903  0.1211  0.0051  0.1319
  573YOPC   C1A 8505   9.895  15.709   7.314  0.1607  0.2765 -0.2173
  573YOPC   D2A 8506   9.875  15.592   7.683 -0.2616 -0.0785 -0.0783
  573YOPC   C3A 8507   9.717  15.301   7.764  0.2735 -0.1191  0.2287
  573YOPC   C4A 8508   9.617  15.170   8.096  0.1099 -0.0166  0.0897
  573YOPC   C1B 8509  10.395  15.700   7.292  0.2899  0.0033 -0.2174
  573YOPC   C2B 8510  10.647  15.453   7.500  0.0518 -0.2171  0.4740
  573YOPC   D3B 8511  10.592  15.398   7.910 -0.2169  0.0402 -0.0471
  573YOPC   C4B 8512  10.587  14.964   8.055  0.0242 -0.0114 -0.3183
  574YOPC   NC3 8513   9.787   5.805   6.759 -0.0784 -0.0178 -0.0168
  574YOPC   PO4 8514   9.505   6.097   6.582 -0.2358 -0.2165  0.0451
  574YOPC   GL1 8515   9.429   6.063   7.044  0.2733  0.0944 -0.0613
  574YOPC   GL2 8516   9.592   5.805   7.199  0.0123 -0.4163  0.0701
  574YOPC   C1A 8517   9.313   6.177   7.556 -0.1661 -0.0954  0.2503
  574YOPC   D2A 8518   9.009   6.310   7.940 -0.0323 -0.0772  0.1480
  574YOPC   C3A 8519   9.032   6.147   8.269 -0.0957 -0.1713 -0.3002
  574YOPC   C4A 8520   8.858   6.102   8.680 -0.1031 -0.2875  0.2447
  574YOPC   C1B 8521   9.598   5.755   7.645  0.1833 -0.0745 -0.0171
  574YOPC   C2B 8522   9.187   5.840   7.851  0.2090  0.3177  0.1805
  574YOPC   D3B 8523   9.164   5.702   8.325 -0.3197 -0.0044 -0.1077
  574YOPC   C4B 8524   9.064   5.518   8.583 -0.0017 -0.0139  0.0293
  575YOPC   NC3 8525   4.751  11.134   6.782 -0.0345  0.2606  0.0061
  575YOPC   PO4 8526   4.273  11.120   6.904 -0.0249 -0.0445  0.3374
  575YOPC   GL1 8527   4.466  11.056   7.272  0.0672 -0.0849 -0.3663
  575YOPC   GL2 8528   4.685  10.837   7.169 -0.0315 -0.0786  0.0256
  575YOPC   C1A 8529   4.292  11.004   7.570  0.0431 -0.0047  0.1746
  575YOPC   D2A 8530   3.917  11.138   7.766 -0.0591  0.0709 -0.0649
  575YOPC   C3A 8531   4.021  11.122   8.171  0.2920 -0.0258  0.0268
  575YOPC   C4A 8532   4.212  10.924   8.466 -0.1052 -0.2135  0.0879
  575YOPC   C1B 8533   4.810  10.719   7.552  0.1206  0.1018 -0.2888
  575YOPC   C2B 8534   4.963  10.544   7.941 -0.1500  0.1878 -0.0987
  575YOPC   D3B 8535   5.208  10.575   8.279  0.3356 -0.1659  0.1983
  575YOPC   C4B 8536   5.624  10.540   8.487  0.0273 -0.1931 -0.0253
  576YOPC   NC3 8537   7.770   3.202   6.184 -0.2152  0.1621 -0.0972
  576YOPC   PO4 8538   7.333   3.158   6.348  0.0173 -0.1499  0.1478
  576YOPC   GL1 8539   7.467   3.360   6.655 -0.0581 -0.0188  0.1671
  576YOPC   GL2 8540   7.701   3.200   6.682  0.0775 -0.0213  0.1232
  576YOPC   C1A 8541   7.574   3.539   7.122 -0.2570 -0.0760  0.0407
  576YOPC   D2A 8542   7.484   3.445   7.535 -0.1147 -0.0196 -0.0701
  576YOPC   C3A 8543   7.296   3.688   7.917  0.3717  0.1547 -0.1319
  576YOPC   C4A 8544   7.140   4.154   7.957 -0.2569  0.0594  0.0251
  576YOPC   C1B 8545   7.684   3.089   7.086  0.1344 -0.0445 -0.3691
  576YOPC   C2B 8546   7.890   3.015   7.436  0.1852 -0.2378  0.0889
  576YOPC   D3B 8547   7.644   3.178   7.899  0.1455  0.2342  0.0273
  576YOPC   C4B 8548   7.388   2.951   8.171 -0.1274 -0.0506 -0.1850
  577YOPC   NC3 8549   9.232  14.213   6.370 -0.0834  0.0132 -0.1184
  577YOPC   PO4 8550   9.549  14.385   6.534  0.2921  0.1157 -0.0153
  577YOPC   GL1 8551   9.568  14.430   6.948 -0.2562  0.0639  0.4542
  577YOPC   GL2 8552   9.524  14.768   7.052 -0.1032 -0.0406 -0.1465
  577YOPC   C1A 8553   9.630  14.452   7.463  0.1279  0.1174  0.1128
  577YOPC   D2A 8554   9.841  14.823   7.779 -0.0211  0.1475 -0.1252
  577YOPC   C3A 8555   9.969  14.725   8.231 -0.0611  0.2395 -0.2347
  577YOPC   C4A 8556   9.823  14.757   8.710  0.1696  0.2711  0.2234
  577YOPC   C1B 8557   9.525  14.903   7.408  0.2809  0.0532  0.0340
  577YOPC   C2B 8558   9.222  15.258   7.595  0.0908  0.0491 -0.0536
  577YOPC   D3B 8559   9.397  15.603   7.961 -0.0982  0.2135  0.0637
  577YOPC   C4B 8560   9.407  16.034   8.055  0.0771 -0.0558 -0.0584
  578YOPC   NC3 8561   8.583   9.526   6.912  0.0029  0.4147  0.0345
  578YOPC   PO4 8562   8.865   9.744   6.713 -0.2811 -0.2376  0.2429
  578YOPC   GL1 8563   9.263   9.850   7.084  0.0427 -0.0031  0.2163
  578YOPC   GL2 8564   9.252  10.087   7.242  0.1194 -0.0340  0.1446
  578YOPC   C1A 8565   9.253   9.623   7.505 -0.1913  0.2449  0.0911
  578YOPC   D2A 8566   9.463   9.232   7.560  0.3202 -0.0008  0.2767
  578YOPC   C3A 8567   9.437   9.111   7.898  0.0274  0.1895 -0.3602
  578YOPC   C4A 8568   9.527   8.947   8.313  0.0437  0.0589  0.0497
  578YOPC   C1B 8569   9.222  10.430   7.522 -0.4018  0.0100  0.1987
  578YOPC   C2B 8570   9.224  10.669   7.858  0.2528 -0.2781 -0.0425
  578YOPC   D3B 8571   9.390  10.713   8.206 -0.4586 -0.0013  0.2046
  578YOPC   C4B 8572   9.683  10.411   8.364  0.0553  0.0160 -0.1105
  579YOPC   NC3 8573  11.058   1.924   6.583 -0.2494  0.0827 -0.0958
  579YOPC   PO4 8574  11.509   2.150   6.455  0.0535  0.0335  0.0298
  579YOPC   GL1 8575  11.361   2.221   6.917 -0.1823 -0.1215  0.2040
  579YOPC   GL2 8576  11.418   2.583   7.122 -0.1155  0.2923 -0.1626
  579YOPC   C1A 8577  11.281   2.115   7.245 -0.1720 -0.3489 -0.1500
  579YOPC   D2A 8578  11.191   2.168   7.731 -0.2330  0.0063  0.1053
  579YOPC   C3A 8579  11.317   2.391   8.158 -0.1173 -0.1081 -0.1569
  579YOPC   C4A 8580  11.122   2.667   8.444  0.1457  0.1134  0.0508
  579YOPC   C1B 8581  11.298   2.644   7.606  0.0970  0.5013 -0.1608
  579YOPC   C2B 8582  11.417   2.809   7.903 -0.0066 -0.3055 -0.3032
  579YOPC   D3B 8583  11.694   3.062   8.125  0.0174  0.0267  0.0256
  579YOPC   C4B 8584  11.757   3.389   8.444 -0.2136  0.0478 -0.1053
  580YOPC   NC3 8585   2.990   4.568   6.580 -0.0447  0.2202 -0.0217
  580YOPC   PO4 8586   2.529   4.669   6.377  0.2939 -0.1497  0.2568
  580YOPC   GL1 8587   2.584   4.772   6.847 -0.0583 -0.3666 -0.0817
  580YOPC   GL2 8588   2.455   5.081   6.949 -0.0900 -0.0892 -0.0326
  580YOPC   C1A 8589   2.867   4.753   7.207 -0.3465  0.0101  0.0246
  580YOPC   D2A 8590   2.953   4.521   7.677 -0.1457  0.1048  0.0049
  580YOPC   C3A 8591   2.728   4.314   7.929 -0.1207  0.0509 -0.1475
  580YOPC   C4A 8592   2.706   4.250   8.355 -0.1072 -0.2143  0.3264
  580YOPC   C1B 8593   2.583   5.166   7.421  0.1607 -0.2926  0.1669
  580YOPC   C2B 8594   2.707   5.321   7.741  0.3497 -0.2279  0.0060
  580YOPC   D3B 8595   2.843   5.315   8.113 -0.1211  0.3117  0.1863
  580YOPC   C4B 8596   3.032   5.463   8.453 -0.0267 -0.1746  0.0009
  581YOPC   NC3 8597   0.479   8.136   6.201  0.1047 -0.0935 -0.0616
  581YOPC   PO4 8598   0.231   8.487   6.110 -0.0631 -0.1316  0.1653
  581YOPC   GL1 8599   0.333   8.493   6.539  0.3173 -0.2865  0.1303
  581YOPC   GL2 8600   0.547   8.231   6.709 -0.1885 -0.1777 -0.1676
  581YOPC   C1A 8601   0.409   8.709   6.921  0.2144 -0.2720 -0.1837
  581YOPC   D2A 8602   0.524   8.801   7.241  0.1627  0.1511 -0.1049
  581YOPC   C3A 8603   0.508   8.621   7.705  0.2947  0.0210  0.1825
  581YOPC   C4A 8604   0.716   8.307   7.963 -0.0341  0.1444  0.1286
  581YOPC   C1B 8605   0.832   8.371   6.936  0.2274 -0.2140  0.4500
  581YOPC   C2B 8606   0.843   8.392   7.326 -0.1126 -0.1161 -0.1631
  581YOPC   D3B 8607   0.994   8.655   7.744  0.0992 -0.0841  0.0596
  581YOPC   C4B 8608   1.333   8.861   8.113 -0.1413 -0.2752  0.0212
  582YOPC   NC3 8609   8.480   5.347   6.336  0.1037 -0.2364  0.0511
  582YOPC   PO4 8610   8.049   5.291   6.447  0.2762  0.1207  0.1965
  582YOPC   GL1 8611   8.050   5.541   6.774 -0.2529  0.1062 -0.1555
  582YOPC   GL2 8612   8.332   5.575   6.805  0.0081 -0.1224 -0.0264
  582YOPC   C1A 8613   8.125   5.453   7.242 -0.1297 -0.3385  0.2387
  582YOPC   D2A 8614   8.311   5.171   7.544 -0.0523 -0.1043  0.1226
  582YOPC   C3A 8615   8.324   5.355   7.909  0.2657 -0.1500  0.2043
  582YOPC   C4A 8616   8.274   5.426   8.302  0.1739  0.2468 -0.2651
  582YOPC   C1B 8617   8.618   5.540   7.114  0.1617  0.2582 -0.1236
  582YOPC   C2B 8618   8.467   5.633   7.545  0.1021 -0.0512  0.1677
  582YOPC   D3B 8619   8.274   6.055   7.727 -0.1426 -0.2522 -0.1767
  582YOPC   C4B 8620   8.429   6.373   7.999  0.1469  0.0840  0.1508
  583YOPC   NC3 8621  10.043  16.830   5.887  0.2592  0.1606  0.1982
  583YOPC   PO4 8622   9.738  16.846   6.261 -0.0156  0.0283  0.0410
  583YOPC   GL1 8623   9.734  16.716   6.676 -0.1346 -0.1381  0.0761
  583YOPC   GL2 8624   9.754  16.409   6.813 -0.1716 -0.0399  0.1029
  583YOPC   C1A 8625   9.796  16.996   6.993 -0.3067  0.3855 -0.1843
  583YOPC   D2A 8626   9.539  17.048   7.381 -0.2147  0.1505 -0.1767
  583YOPC   C3A 8627   9.786  17.154   7.757 -0.0440 -0.1907  0.0383
  583YOPC   C4A 8628   9.973  16.956   8.090  0.4478  0.1351  0.1843
  583YOPC   C1B 8629   9.765  16.126   7.077 -0.0954  0.0959 -0.0216
  583YOPC   C2B 8630   9.591  16.112   7.487 -0.0679 -0.0118 -0.1082
  583YOPC   D3B 8631   9.926  16.118   7.891 -0.0806 -0.3205 -0.1692
  583YOPC   C4B 8632  10.395  16.277   8.063 -0.2928  0.1912 -0.2969
  584YOPC   NC3 8633  10.706   8.066   7.012 -0.1445  0.2476  0.0873
  584YOPC   PO4 8634  10.405   8.283   7.294  0.1151 -0.2466  0.1698
  584YOPC   GL1 8635  10.473   8.564   7.449  0.0465 -0.2235 -0.0558
  584YOPC   GL2 8636  10.381   8.776   7.336 -0.1777  0.1372  0.0689
  584YOPC   C1A 8637  10.532   8.663   7.931  0.3875 -0.0162  0.1673
  584YOPC   D2A 8638  10.484   8.666   8.358 -0.1279 -0.1750 -0.3784
  584YOPC   C3A 8639  10.514   8.382   8.650  0.3497 -0.1115 -0.2053
  584YOPC   C4A 8640  10.899   8.307   8.926  0.0283  0.0992 -0.1002
  584YOPC   C1B 8641  10.509   9.044   7.598  0.1908 -0.2087  0.1812
  584YOPC   C2B 8642  10.675   9.156   7.886 -0.0416  0.1101  0.2028
  584YOPC   D3B 8643  10.574   9.138   8.152  0.0240  0.1360 -0.0002
  584YOPC   C4B 8644  10.603   9.227   8.629 -0.2566 -0.0568 -0.0371
  585YOPC   NC3 8645   7.844   6.778   6.543 -0.0489 -0.2175 -0.2290
  585YOPC   PO4 8646   7.538   6.852   6.846 -0.0372 -0.0683  0.1772
  585YOPC   GL1 8647   7.440   6.926   7.323  0.0735  0.2965 -0.2252
  585YOPC   GL2 8648   7.148   6.813   7.240 -0.2949 -0.0157  0.0330
  585YOPC   C1A 8649   7.248   6.952   7.683 -0.1012 -0.0283 -0.0557
  585YOPC   D2A 8650   7.038   6.764   8.103 -0.1885 -0.2301 -0.2544
  585YOPC   C3A 8651   7.162   6.611   8.567  0.0018  0.0376 -0.0684
  585YOPC   C4A 8652   7.502   6.620   8.811  0.0793 -0.0214  0.1004
  585YOPC   C1B 8653   6.819   6.732   7.532 -0.1091  0.0804  0.1488
  585YOPC   C2B 8654   6.604   6.699   7.902 -0.1624  0.0053  0.2041
  585YOPC   D3B 8655   6.560   6.891   8.304 -0.2951  0.1155  0.2804
  585YOPC   C4B 8656   6.771   6.914   8.681  0.1043 -0.4316 -0.0472
  586YOPC   NC3 8657   4.475  12.949   6.705 -0.3357  0.1113  0.0669
  586YOPC   PO4 8658   4.044  12.754   6.476  0.0641 -0.0022  0.0869
  586YOPC   GL1 8659   4.041  12.645   6.958  0.4567 -0.1231  0.2291
  586YOPC   GL2 8660   4.349  12.466   7.196 -0.2118  0.3174  0.0033
  586YOPC   C1A 8661   3.883  12.487   7.367  0.2488 -0.0939 -0.0553
  586YOPC   D2A 8662   3.886  12.335   7.766  0.1405 -0.3434  0.2509
  586YOPC   C3A 8663   3.977  12.345   8.181 -0.0748 -0.1060  0.2168
  586YOPC   C4A 8664   3.924  11.978   8.555  0.0060  0.1363 -0.2067
  586YOPC   C1B 8665   4.294  12.550   7.674  0.2896 -0.3423 -0.0149
  586YOPC   C2B 8666   4.437  12.584   8.106  0.1659 -0.1133  0.3795
  586YOPC   D3B 8667   4.343  12.747   8.446  0.0189 -0.3598  0.2085
  586YOPC   C4B 8668   4.167  12.919   8.869 -0.3476  0.3416 -0.0221
  587YOPC   NC3 8669   6.901   0.931   6.260 -0.0176  0.1833 -0.2535
  587YOPC   PO4 8670   6.409   0.954   6.269  0.2757  0.4415  0.0479
  587YOPC   GL1 8671   6.604   0.749   6.650  0.1014 -0.0233  0.1340
  587YOPC   GL2 8672   6.767   0.433   6.683 -0.1049 -0.4515 -0.2879
  587YOPC   C1A 8673   6.844   0.723   7.127  0.2676  0.0134  0.0715
  587YOPC   D2A 8674   6.879   0.662   7.564 -0.0830  0.1931  0.1301
  587YOPC   C3A 8675   6.802   0.878   7.989 -0.3908  0.0117  0.1527
  587YOPC   C4A 8676   6.665   0.727   8.353  0.0978  0.0271  0.2611
  587YOPC   C1B 8677   6.732   0.227   7.072 -0.0024 -0.3384 -0.0243
  587YOPC   C2B 8678   6.692  -0.249   7.023 -0.2825 -0.2822 -0.1173
  587YOPC   D3B 8679   6.404  -0.465   7.324 -0.1604 -0.1732  0.0213
  587YOPC   C4B 8680   6.359  -0.539   7.695 -0.1509  0.0562 -0.2087
  588YOPC   NC3 8681   2.696  13.214   6.656  0.3039 -0.0333 -0.1036
  588YOPC   PO4 8682   3.158  13.494   6.565  0.2722 -0.1082  0.1218
  588YOPC   GL1 8683   3.069  13.447   6.985  0.2951 -0.2761 -0.6386
  588YOPC   GL2 8684   3.448  13.377   7.094  0.1331  0.0989 -0.0289
  588YOPC   C1A 8685   3.100  13.722   7.263  0.3188  0.0858 -0.1041
  588YOPC   D2A 8686   2.946  13.875   7.661 -0.1940 -0.0492  0.0346
  588YOPC   C3A 8687   3.155  14.011   8.062 -0.1001  0.1196 -0.2494
  588YOPC   C4A 8688   3.495  13.955   8.447 -0.3803 -0.1380 -0.0118
  588YOPC   C1B 8689   3.595  13.613   7.372 -0.2534 -0.0860 -0.0224
  588YOPC   C2B 8690   3.538  13.727   7.807 -0.1859  0.0038 -0.1365
  588YOPC   D3B 8691   3.331  13.550   8.088 -0.3414 -0.2456  0.1193
  588YOPC   C4B 8692   3.341  13.498   8.548  0.1330 -0.1911  0.0997
  589YOPC   NC3 8693   2.169   9.902   6.223 -0.0690 -0.1040 -0.2264
  589YOPC   PO4 8694   2.509  10.208   6.217 -0.0888 -0.2130 -0.1052
  589YOPC   GL1 8695   2.275  10.067   6.669  0.0846  0.1163  0.1906
  589YOPC   GL2 8696   2.588   9.926   6.793  0.1044  0.0096 -0.0463
  589YOPC   C1A 8697   2.053   9.875   7.093 -0.0929 -0.1504 -0.0485
  589YOPC   D2A 8698   2.092   9.712   7.480 -0.0231 -0.0325  0.0043
  589YOPC   C3A 8699   2.091   9.875   7.817 -0.3557  0.1277 -0.2157
  589YOPC   C4A 8700   1.853   9.822   8.139  0.0395  0.1054 -0.3409
  589YOPC   C1B 8701   2.535   9.798   7.225  0.1230  0.0253  0.0731
  589YOPC   C2B 8702   2.526   9.436   7.483 -0.2580 -0.0627 -0.2302
  589YOPC   D3B 8703   2.336   9.332   7.793 -0.1713  0.0905  0.0058
  589YOPC   C4B 8704   2.146   9.443   8.056  0.2278 -0.0179  0.2469
  590YOPC   NC3 8705   3.484   6.406   6.499  0.3173  0.1868  0.3592
  590YOPC   PO4 8706   3.810   6.174   6.626  0.1526  0.2254  0.1013
  590YOPC   GL1 8707   3.917   6.352   7.017 -0.1416  0.0456 -0.1635
  590YOPC   GL2 8708   4.191   6.419   7.126 -0.0400 -0.0658  0.0258
  590YOPC   C1A 8709   3.851   6.894   7.241 -0.0081  0.0193  0.0586
  590YOPC   D2A 8710   3.870   6.974   7.683 -0.1400 -0.1110 -0.1667
  590YOPC   C3A 8711   3.533   7.225   7.874  0.1099  0.0871  0.3211
  590YOPC   C4A 8712   3.185   7.393   8.224 -0.1266  0.1331 -0.2253
  590YOPC   C1B 8713   3.935   6.492   7.509  0.0762  0.2054 -0.2647
  590YOPC   C2B 8714   4.068   6.563   7.921 -0.3438  0.0187 -0.0736
  590YOPC   D3B 8715   4.431   6.628   8.295  0.0355 -0.2094  0.3415
  590YOPC   C4B 8716   4.514   6.895   8.594  0.1321 -0.2405 -0.0209
  591YOPC   NC3 8717   9.991  13.699   6.088 -0.0290 -0.0266 -0.2271
  591YOPC   PO4 8718   9.765  13.589   6.419 -0.2484 -0.0800  0.0210
  591YOPC   GL1 8719   9.595  13.887   6.795 -0.0551  0.0110 -0.0323
  591YOPC   GL2 8720   9.264  14.041   6.834  0.2306 -0.2815 -0.0408
  591YOPC   C1A 8721   9.482  13.962   7.273  0.1568  0.0665 -0.2831
  591YOPC   D2A 8722   9.412  14.009   7.736 -0.0445 -0.1222  0.1339
  591YOPC   C3A 8723   9.377  14.404   7.848 -0.0692  0.2565 -0.4212
  591YOPC   C4A 8724   9.552  14.520   8.181 -0.0352  0.1446  0.1253
  591YOPC   C1B 8725   8.921  13.793   7.070  0.1735  0.1440  0.2862
  591YOPC   C2B 8726   8.665  13.421   7.269 -0.1317  0.2394  0.3297
  591YOPC   D3B 8727   8.302  13.294   7.041  0.1242  0.1157  0.0657
  591YOPC   C4B 8728   7.845  13.429   7.179  0.1939 -0.0045  0.1284
  592YOPC   NC3 8729   5.790   2.150   6.432  0.1505  0.2881  0.2692
  592YOPC   PO4 8730   5.323   2.030   6.294  0.1371  0.2799  0.3661
  592YOPC   GL1 8731   5.201   1.831   6.691 -0.1786  0.0203 -0.2958
  592YOPC   GL2 8732   4.902   1.787   6.746  0.1216  0.0930 -0.2971
  592YOPC   C1A 8733   5.497   1.736   7.024  0.2900 -0.1176 -0.2260
  592YOPC   D2A 8734   5.372   1.621   7.411  0.2263  0.0909  0.1006
  592YOPC   C3A 8735   5.388   1.199   7.716 -0.1061 -0.3827 -0.1938
  592YOPC   C4A 8736   5.344   1.048   8.132 -0.0859  0.1304 -0.0561
  592YOPC   C1B 8737   4.924   1.647   7.158 -0.0360 -0.0857  0.0701
  592YOPC   C2B 8738   4.999   1.860   7.570  0.0005  0.1237 -0.0100
  592YOPC   D3B 8739   5.255   1.610   7.893 -0.0585  0.0583 -0.0563
  592YOPC   C4B 8740   5.522   1.538   8.315 -0.0177  0.0657  0.3673
  593YOPC   NC3 8741   1.529   4.368   6.394 -0.0817 -0.1106 -0.0950
  593YOPC   PO4 8742   1.124   4.429   6.431 -0.1750  0.2242  0.0287
  593YOPC   GL1 8743   1.218   4.528   6.762  0.2221  0.0596  0.1169
  593YOPC   GL2 8744   1.459   4.740   6.724  0.1492 -0.1666  0.1241
  593YOPC   C1A 8745   0.981   4.598   7.070  0.0557 -0.3116 -0.1778
  593YOPC   D2A 8746   0.989   5.008   7.304 -0.2048  0.1015  0.2068
  593YOPC   C3A 8747   0.716   5.343   7.067 -0.0183 -0.0847 -0.1506
  593YOPC   C4A 8748   0.520   5.764   7.143 -0.0671  0.0108 -0.0735
  593YOPC   C1B 8749   1.353   5.040   6.956 -0.0375 -0.1455  0.1670
  593YOPC   C2B 8750   1.477   5.230   7.254 -0.1696  0.0593  0.1178
  593YOPC   D3B 8751   1.333   5.183   7.649  0.1792  0.2617  0.1303
  593YOPC   C4B 8752   1.389   4.841   7.931  0.3379 -0.1866  0.0390
  594YOPC   NC3 8753   5.995   8.173   6.668 -0.0578 -0.0306  0.0968
  594YOPC   PO4 8754   6.347   8.425   6.687 -0.0041 -0.0383  0.1244
  594YOPC   GL1 8755   6.107   8.500   7.088  0.4182 -0.0124 -0.3291
  594YOPC   GL2 8756   5.958   8.264   7.134 -0.0621  0.2045  0.3350
  594YOPC   C1A 8757   6.128   8.837   7.365 -0.0343 -0.3038  0.5203
  594YOPC   D2A 8758   6.116   9.150   7.610  0.0367 -0.0463 -0.0104
  594YOPC   C3A 8759   5.963   9.113   7.990  0.1786  0.0152  0.1599
  594YOPC   C4A 8760   5.953   8.773   8.281  0.1361  0.3870  0.0554
  594YOPC   C1B 8761   5.759   8.321   7.539 -0.0147 -0.1217 -0.0898
  594YOPC   C2B 8762   5.538   8.417   7.982 -0.0714  0.2446 -0.1819
  594YOPC   D3B 8763   5.636   8.303   8.390 -0.1516 -0.1104 -0.0724
  594YOPC   C4B 8764   5.812   7.946   8.637  0.1017 -0.0368  0.0262
  595YOPC   NC3 8765   0.856   0.804   5.636  0.0613  0.0469  0.0643
  595YOPC   PO4 8766   0.455   1.086   5.749 -0.0231  0.0624  0.0464
  595YOPC   GL1 8767   0.344   1.075   6.208 -0.2479  0.1205 -0.2644
  595YOPC   GL2 8768   0.179   1.386   6.407 -0.3614  0.0058  0.0258
  595YOPC   C1A 8769   0.204   0.875   6.575  0.1609 -0.3606 -0.1211
  595YOPC   D2A 8770   0.373   0.967   6.950 -0.2491  0.0073  0.3100
  595YOPC   C3A 8771   0.685   0.872   7.081  0.0859 -0.3324  0.1798
  595YOPC   C4A 8772   0.973   1.200   7.297 -0.0532 -0.2180 -0.0214
  595YOPC   C1B 8773  -0.041   1.226   6.885 -0.0432  0.2588  0.0843
  595YOPC   C2B 8774  -0.356   1.213   7.178  0.1805 -0.0262  0.0001
  595YOPC   D3B 8775  -0.339   0.916   7.522 -0.0362 -0.1870  0.1017
  595YOPC   C4B 8776  -0.309   0.676   7.936 -0.1149 -0.0724 -0.2167
  596YOPC   NC3 8777  10.178  16.706   6.419 -0.0077  0.1868  0.0876
  596YOPC   PO4 8778  10.172  16.345   6.538 -0.1710 -0.0198  0.0240
  596YOPC   GL1 8779  10.259  16.407   6.963  0.2248 -0.1699 -0.3502
  596YOPC   GL2 8780  10.236  16.713   7.017 -0.2141  0.2102  0.2230
  596YOPC   C1A 8781  10.131  16.133   7.408  0.3433 -0.1279  0.1473
  596YOPC   D2A 8782  10.399  15.891   7.762  0.1714  0.2854 -0.0235
  596YOPC   C3A 8783  10.189  15.715   8.107  0.1029 -0.0993 -0.1269
  596YOPC   C4A 8784   9.862  15.586   8.207  0.2877  0.2815  0.2221
  596YOPC   C1B 8785  10.384  16.551   7.453  0.1162  0.4537 -0.0126
  596YOPC   C2B 8786  10.086  16.559   7.785  0.0050  0.1733 -0.0605
  596YOPC   D3B 8787   9.666  16.530   7.854 -0.1248 -0.1734  0.0746
  596YOPC   C4B 8788   9.400  16.857   7.841  0.0785 -0.3877 -0.3675
  597YOPC   NC3 8789   4.277   2.673   6.167 -0.0962  0.2858 -0.0108
  597YOPC   PO4 8790   4.688   2.448   6.136 -0.0384  0.0318  0.0555
  597YOPC   GL1 8791   4.601   2.634   6.581  0.5968 -0.2936 -0.1412
  597YOPC   GL2 8792   4.301   2.583   6.725 -0.0938 -0.0178  0.1728
  597YOPC   C1A 8793   4.678   2.565   7.132  0.1410 -0.3757  0.0983
  597YOPC   D2A 8794   4.476   2.417   7.511  0.1848 -0.0041  0.2801
  597YOPC   C3A 8795   4.709   2.192   7.851 -0.1701  0.3267 -0.1378
  597YOPC   C4A 8796   4.908   1.915   8.125  0.1250 -0.1075 -0.0277
  597YOPC   C1B 8797   4.140   2.551   7.115  0.0596  0.0894  0.0152
  597YOPC   C2B 8798   3.917   2.487   7.578  0.1548  0.2819  0.5770
  597YOPC   D3B 8799   3.881   2.750   7.925 -0.2967  0.0753 -0.0656
  597YOPC   C4B 8800   3.895   2.940   8.301  0.1912 -0.0780 -0.1716
  598YOPC   NC3 8801   6.151  14.707   6.620  0.5850  0.2203 -0.1109
  598YOPC   PO4 8802   6.266  14.293   6.820  0.2846 -0.0038  0.2903
  598YOPC   GL1 8803   6.254  14.010   7.134  0.1456  0.0401  0.2518
  598YOPC   GL2 8804   6.011  13.690   7.114  0.0219 -0.0163 -0.2285
  598YOPC   C1A 8805   6.225  14.037   7.553 -0.1946  0.1213  0.3723
  598YOPC   D2A 8806   6.345  14.307   7.933  0.0375 -0.2773 -0.2737
  598YOPC   C3A 8807   6.847  14.351   7.907 -0.0899  0.1843 -0.0001
  598YOPC   C4A 8808   7.234  14.591   7.882 -0.0669  0.0701  0.0871
  598YOPC   C1B 8809   5.940  13.607   7.527 -0.3163 -0.1535 -0.1789
  598YOPC   C2B 8810   5.849  13.557   7.885  0.2414  0.0609 -0.0237
  598YOPC   D3B 8811   6.091  13.848   8.043 -0.0237  0.0664 -0.2636
  598YOPC   C4B 8812   6.128  14.023   8.376 -0.1378 -0.0573  0.3118
  599YOPC   NC3 8813   6.489   9.303   6.193  0.0692 -0.2883  0.2453
  599YOPC   PO4 8814   6.319   9.441   6.591 -0.0947  0.0291  0.1573
  599YOPC   GL1 8815   6.234   9.354   6.972 -0.1421 -0.1628  0.1927
  599YOPC   GL2 8816   6.338   9.582   7.179  0.1095 -0.1462  0.0013
  599YOPC   C1A 8817   5.857   9.269   7.243  0.0048 -0.1697 -0.0715
  599YOPC   D2A 8818   5.661   9.553   7.527 -0.3535 -0.0082 -0.0100
  599YOPC   C3A 8819   5.743   9.885   7.455 -0.1042  0.0494 -0.2901
  599YOPC   C4A 8820   5.930  10.244   7.568  0.1431 -0.1418 -0.1160
  599YOPC   C1B 8821   6.219   9.656   7.594 -0.2440 -0.0001 -0.0858
  599YOPC   C2B 8822   6.067   9.958   7.935  0.1565  0.0151 -0.0713
  599YOPC   D3B 8823   5.874   9.971   8.373  0.1501 -0.0351 -0.0757
  599YOPC   C4B 8824   5.527   9.956   8.404 -0.0470 -0.0651  0.2308
  600YOPC   NC3 8825   9.413  14.829   6.501  0.1131 -0.0216 -0.2354
  600YOPC   PO4 8826   9.169  15.271   6.278  0.1220 -0.0906  0.0784
  600YOPC   GL1 8827   9.135  15.229   6.709 -0.1775  0.2452  0.1770
  600YOPC   GL2 8828   9.473  15.311   6.802  0.1269  0.0373  0.0044
  600YOPC   C1A 8829   9.089  15.443   7.132 -0.2629  0.0816  0.3992
  600YOPC   D2A 8830   8.857  15.717   7.274  0.0159  0.0660  0.1525
  600YOPC   C3A 8831   8.894  16.097   7.103 -0.0814 -0.3261 -0.1075
  600YOPC   C4A 8832   8.832  16.586   7.044 -0.0140  0.3955 -0.1514
  600YOPC   C1B 8833   9.695  15.273   7.161 -0.2749 -0.2730  0.1472
  600YOPC   C2B 8834  10.147  15.209   7.253 -0.2557  0.0447  0.2717
  600YOPC   D3B 8835  10.289  15.064   7.585 -0.1516 -0.0792 -0.3448
  600YOPC   C4B 8836  10.169  15.212   8.019  0.1432 -0.1180  0.1007
  601YOPC   NC3 8837   1.640   0.617   5.718  0.1347  0.0904 -0.0545
  601YOPC   PO4 8838   1.266   0.755   5.934 -0.0903 -0.0874  0.1625
  601YOPC   GL1 8839   1.172   0.890   6.317 -0.2060 -0.0462 -0.1114
  601YOPC   GL2 8840   1.324   1.084   6.502 -0.1607 -0.0131 -0.1850
  601YOPC   C1A 8841   1.075   0.745   6.783 -0.2308 -0.0307 -0.2506
  601YOPC   D2A 8842   1.198   0.737   7.218 -0.2542  0.0114  0.0399
  601YOPC   C3A 8843   1.331   0.296   7.434  0.0095 -0.0499  0.0082
  601YOPC   C4A 8844   1.724   0.044   7.561  0.0594  0.0343 -0.0330
  601YOPC   C1B 8845   1.283   1.217   6.840 -0.0597 -0.4366 -0.3808
  601YOPC   C2B 8846   1.529   1.109   7.260 -0.1110 -0.1842 -0.0471
  601YOPC   D3B 8847   1.224   0.990   7.599  0.3178  0.0495 -0.2323
  601YOPC   C4B 8848   0.976   0.545   7.615 -0.1575 -0.0938 -0.0761
  602YOPC   NC3 8849  10.724  13.147   6.704 -0.1639  0.3868 -0.0479
  602YOPC   PO4 8850  10.303  13.406   6.557  0.1861  0.3144 -0.0178
  602YOPC   GL1 8851  10.237  13.326   7.074  0.0360  0.0831  0.1854
  602YOPC   GL2 8852  10.255  13.730   7.205  0.2618 -0.1257 -0.4883
  602YOPC   C1A 8853  10.293  12.979   7.379  0.1389  0.0923 -0.1616
  602YOPC   D2A 8854  10.143  12.563   7.367  0.1756  0.0523  0.1936
  602YOPC   C3A 8855   9.800  12.395   7.512  0.1364  0.0843  0.0308
  602YOPC   C4A 8856   9.729  12.571   7.898 -0.0116  0.2548  0.1112
  602YOPC   C1B 8857  10.179  13.506   7.592  0.1962  0.0139  0.2908
  602YOPC   C2B 8858   9.967  13.207   7.822 -0.2800  0.3358  0.1304
  602YOPC   D3B 8859  10.102  12.806   7.795  0.0820  0.0152 -0.0567
  602YOPC   C4B 8860  10.466  12.583   7.745  0.2561 -0.0760  0.0477
  603YOPC   NC3 8861   3.560   2.170   6.097 -0.3148 -0.1460 -0.1677
  603YOPC   PO4 8862   3.887   2.409   6.113 -0.0738  0.2295  0.0025
  603YOPC   GL1 8863   3.811   2.315   6.505  0.1934  0.1066  0.0595
  603YOPC   GL2 8864   3.809   2.650   6.590 -0.3561 -0.0468 -0.2212
  603YOPC   C1A 8865   4.007   2.140   6.800 -0.0801  0.3364  0.1747
  603YOPC   D2A 8866   4.028   2.115   7.270 -0.2899 -0.0438 -0.3607
  603YOPC   C3A 8867   4.149   2.185   7.862  0.0567  0.4906 -0.3481
  603YOPC   C4A 8868   4.334   1.915   8.161 -0.0216 -0.1170  0.0333
  603YOPC   C1B 8869   3.462   2.840   6.847 -0.0376 -0.0431 -0.2218
  603YOPC   C2B 8870   3.192   3.080   6.837  0.2242 -0.0151 -0.0105
  603YOPC   D3B 8871   2.858   2.810   6.850 -0.0995 -0.1180 -0.0574
  603YOPC   C4B 8872   2.457   2.945   7.144 -0.0013 -0.1060  0.2543
  604YOPC   NC3 8873   6.547   7.783   6.766 -0.1383  0.2236  0.0375
  604YOPC   PO4 8874   6.624   7.377   6.659  0.0814  0.0130  0.0297
  604YOPC   GL1 8875   6.386   7.255   6.920 -0.0616 -0.2149 -0.0521
  604YOPC   GL2 8876   6.633   7.058   7.043 -0.0047 -0.2818  0.0443
  604YOPC   C1A 8877   6.189   7.455   7.336 -0.1675  0.0562 -0.1550
  604YOPC   D2A 8878   5.841   7.488   7.614  0.0503  0.2421  0.0442
  604YOPC   C3A 8879   5.789   7.144   7.948  0.2604 -0.0463 -0.2217
  604YOPC   C4A 8880   6.017   6.935   8.246  0.0165  0.3203  0.3022
  604YOPC   C1B 8881   6.400   6.873   7.428  0.0153 -0.1692 -0.1743
  604YOPC   C2B 8882   6.232   7.082   7.819 -0.1253 -0.3994  0.1173
  604YOPC   D3B 8883   6.319   7.377   8.141  0.0019 -0.2677  0.0164
  604YOPC   C4B 8884   6.636   7.547   8.539  0.1273  0.1798  0.0820
  605YOPC   NC3 8885   7.074   0.152   6.420  0.0057 -0.0090  0.1426
  605YOPC   PO4 8886   7.263   0.598   6.435  0.2130  0.0590  0.2151
  605YOPC   GL1 8887   7.258   0.529   6.910  0.0744 -0.4035  0.0971
  605YOPC   GL2 8888   7.382   0.819   7.122 -0.2093  0.3574  0.0861
  605YOPC   C1A 8889   7.139   0.364   7.273  0.0237  0.0368  0.0387
  605YOPC   D2A 8890   7.108   0.147   7.623  0.2822  0.0029 -0.3399
  605YOPC   C3A 8891   6.990  -0.083   7.847 -0.1381  0.4051 -0.2302
  605YOPC   C4A 8892   7.186  -0.194   8.119  0.2377 -0.2448 -0.4540
  605YOPC   C1B 8893   7.347   0.695   7.570 -0.1376 -0.0595  0.1053
  605YOPC   C2B 8894   7.299   0.699   7.949  0.4568  0.0775 -0.0642
  605YOPC   D3B 8895   7.565   0.680   8.283  0.0339 -0.0557 -0.2705
  605YOPC   C4B 8896   7.907   0.823   8.543 -0.0785 -0.2857  0.1437
  606YOPC   NC3 8897   8.444   4.547   5.963  0.1359  0.0719 -0.3913
  606YOPC   PO4 8898   8.310   4.827   6.337 -0.0628 -0.1465  0.1306
  606YOPC   GL1 8899   8.106   4.656   6.736  0.1075  0.3682  0.0355
  606YOPC   GL2 8900   7.838   4.429   6.654 -0.1320  0.0769 -0.2333
  606YOPC   C1A 8901   8.263   4.471   6.986 -0.0298 -0.0994 -0.0215
  606YOPC   D2A 8902   8.304   4.388   7.380 -0.1191 -0.1464  0.0719
  606YOPC   C3A 8903   8.542   4.671   7.603 -0.0872 -0.1523  0.0072
  606YOPC   C4A 8904   8.531   4.926   7.948 -0.2431  0.1005 -0.2250
  606YOPC   C1B 8905   7.768   4.487   7.064  0.0871  0.2030  0.0679
  606YOPC   C2B 8906   7.843   4.490   7.507 -0.1466 -0.0859 -0.3375
  606YOPC   D3B 8907   8.086   4.283   7.842  0.0996 -0.1531 -0.3203
  606YOPC   C4B 8908   8.307   4.125   8.216 -0.1527  0.2424  0.0241
  607YOPC   NC3 8909   2.134   2.910   5.933  0.3547  0.1111  0.1030
  607YOPC   PO4 8910   2.058   2.524   5.957  0.1829  0.1269  0.2401
  607YOPC   GL1 8911   1.960   2.579   6.429 -0.1676 -0.2015  0.1827
  607YOPC   GL2 8912   1.695   2.549   6.518 -0.1717 -0.0088 -0.0661
  607YOPC   C1A 8913   1.978   2.776   6.830  0.0328  0.0459  0.2814
  607YOPC   D2A 8914   2.070   2.599   7.284 -0.4676  0.2468 -0.4937
  607YOPC   C3A 8915   2.399   2.393   7.444 -0.1672  0.1372  0.2129
  607YOPC   C4A 8916   2.607   2.470   7.810  0.1498  0.3772  0.0939
  607YOPC   C1B 8917   1.778   2.369   6.957  0.1973 -0.2151  0.3039
  607YOPC   C2B 8918   1.778   2.236   7.485  0.1448  0.3075  0.1765
  607YOPC   D3B 8919   2.031   2.358   7.779  0.1588  0.2843 -0.4677
  607YOPC   C4B 8920   1.992   2.312   8.170 -0.1551  0.2209  0.2615
  608YOPC   NC3 8921   3.590   1.472   6.198 -0.2131 -0.1865 -0.1575
  608YOPC   PO4 8922   3.457   1.161   6.027 -0.2732  0.2425 -0.0352
  608YOPC   GL1 8923   3.053   1.172   6.377  0.0467  0.3426 -0.0576
  608YOPC   GL2 8924   3.102   1.413   6.399 -0.1733  0.1097 -0.3006
  608YOPC   C1A 8925   2.833   0.924   6.665  0.0698 -0.0896  0.0035
  608YOPC   D2A 8926   2.843   0.648   7.045 -0.0613 -0.0434  0.1564
  608YOPC   C3A 8927   2.681   0.942   7.238 -0.0647  0.3702 -0.3718
  608YOPC   C4A 8928   2.450   1.014   7.561 -0.6879 -0.1061 -0.0186
  608YOPC   C1B 8929   2.712   1.523   6.482 -0.1738 -0.2890 -0.1379
  608YOPC   C2B 8930   2.498   1.231   6.874 -0.0471  0.0404 -0.3439
  608YOPC   D3B 8931   2.321   1.474   7.248  0.1086  0.1257  0.2684
  608YOPC   C4B 8932   2.226   1.472   7.689 -0.0004 -0.2266 -0.1860
  609YOPC   NC3 8933  11.049   6.000   6.821  0.2908  0.0330  0.2637
  609YOPC   PO4 8934  10.624   5.908   6.720 -0.2859 -0.1365 -0.1220
  609YOPC   GL1 8935  10.633   5.864   7.194  0.1171  0.0581 -0.0768
  609YOPC   GL2 8936  10.541   5.737   7.284  0.2058 -0.0753  0.0049
  609YOPC   C1A 8937  10.856   5.798   7.715  0.1282  0.0565 -0.0272
  609YOPC   D2A 8938  10.979   5.742   8.169 -0.0675 -0.0640  0.0567
  609YOPC   C3A 8939  11.234   5.743   8.575  0.0128 -0.1470  0.2007
  609YOPC   C4A 8940  11.635   6.027   8.635  0.0987  0.2488  0.1313
  609YOPC   C1B 8941  10.483   5.446   7.613 -0.3585 -0.1531 -0.0652
  609YOPC   C2B 8942  10.601   5.270   7.987 -0.1081 -0.1304  0.0136
  609YOPC   D3B 8943  10.191   5.150   8.061 -0.1910 -0.1421  0.0446
  609YOPC   C4B 8944  10.003   5.290   8.357  0.2435 -0.3453 -0.0990
  610YOPC   NC3 8945   3.032  16.818   6.323 -0.3863 -0.1407 -0.1300
  610YOPC   PO4 8946   3.055  16.423   6.216  0.2612 -0.3889  0.1488
  610YOPC   GL1 8947   3.332  16.550   6.642 -0.2147 -0.0651 -0.1021
  610YOPC   GL2 8948   3.587  16.718   6.684 -0.1791 -0.1954 -0.0942
  610YOPC   C1A 8949   3.303  17.003   6.972 -0.3756  0.2160 -0.1804
  610YOPC   D2A 8950   3.490  17.112   7.269 -0.0512 -0.1211 -0.0511
  610YOPC   C3A 8951   3.275  17.012   7.670 -0.0963 -0.0963 -0.0237
  610YOPC   C4A 8952   2.973  17.154   8.014  0.0104 -0.0364 -0.1657
  610YOPC   C1B 8953   3.668  16.691   7.085  0.3819  0.1566  0.1240
  610YOPC   C2B 8954   3.733  16.787   7.627  0.1406 -0.2317 -0.0816
  610YOPC   D3B 8955   3.629  16.881   8.030  0.2458  0.2462  0.0316
  610YOPC   C4B 8956   3.310  16.993   8.362  0.0631  0.0972  0.0724
  611YOPC   NC3 8957  10.949  16.311   6.081 -0.0173 -0.3721  0.1740
  611YOPC   PO4 8958  10.776  15.892   6.271 -0.1430  0.0689 -0.2373
  611YOPC   GL1 8959  10.885  15.813   6.710  0.2832  0.2908 -0.0726
  611YOPC   GL2 8960  10.564  15.982   6.967 -0.2284  0.2362  0.2491
  611YOPC   C1A 8961  11.022  15.810   7.104 -0.0145  0.0396  0.0433
  611YOPC   D2A 8962  11.028  15.803   7.572 -0.0091 -0.1495  0.0862
  611YOPC   C3A 8963  11.077  15.499   7.817 -0.0969 -0.3668 -0.1406
  611YOPC   C4A 8964  11.041  15.059   7.952 -0.1200  0.1287  0.0505
  611YOPC   C1B 8965  10.707  16.128   7.279  0.2811 -0.2399 -0.0188
  611YOPC   C2B 8966  10.792  16.203   7.706 -0.2725  0.2743 -0.0455
  611YOPC   D3B 8967  10.814  15.905   8.001 -0.1714  0.2700 -0.2785
  611YOPC   C4B 8968  10.610  15.846   8.345 -0.0866  0.0978  0.0119
  612YOPC   NC3 8969   5.977  13.750   6.211 -0.0065 -0.0733 -0.2104
  612YOPC   PO4 8970   5.714  13.714   6.608 -0.1142  0.1453  0.0715
  612YOPC   GL1 8971   5.471  13.709   6.997  0.0478 -0.0441 -0.3908
  612YOPC   GL2 8972   5.231  13.544   7.030 -0.1780 -0.1179 -0.0500
  612YOPC   C1A 8973   5.471  13.723   7.439  0.0313  0.0400 -0.0746
  612YOPC   D2A 8974   5.396  13.694   7.872  0.0848 -0.0721 -0.0057
  612YOPC   C3A 8975   5.447  13.298   8.102  0.3413 -0.0092 -0.1142
  612YOPC   C4A 8976   5.537  12.906   8.336  0.1055 -0.1409 -0.0271
  612YOPC   C1B 8977   5.006  13.684   7.316 -0.0517  0.3929  0.3412
  612YOPC   C2B 8978   4.682  13.982   7.354  0.2420 -0.2013  0.1782
  612YOPC   D3B 8979   4.222  13.983   7.243  0.0792  0.1342 -0.1986
  612YOPC   C4B 8980   3.817  14.081   7.251  0.2325  0.1956  0.0840
  613YOPC   NC3 8981   6.711   8.524   7.023 -0.1379 -0.0500 -0.2648
  613YOPC   PO4 8982   6.885   8.135   6.851  0.4309 -0.2532 -0.2264
  613YOPC   GL1 8983   6.981   8.243   7.298 -0.3996 -0.1800  0.1752
  613YOPC   GL2 8984   7.262   8.262   7.463  0.0664 -0.1315 -0.5044
  613YOPC   C1A 8985   6.711   8.157   7.699 -0.3539 -0.1338  0.2148
  613YOPC   D2A 8986   6.442   8.275   8.025 -0.0490 -0.1185  0.0699
  613YOPC   C3A 8987   6.213   8.330   8.425 -0.1641 -0.1839 -0.2564
  613YOPC   C4A 8988   5.928   8.523   8.809 -0.1269 -0.1696  0.2685
  613YOPC   C1B 8989   7.154   8.273   7.874 -0.2581 -0.0014 -0.2127
  613YOPC   C2B 8990   7.247   8.511   8.093  0.1117  0.0241  0.0287
  613YOPC   D3B 8991   7.255   8.377   8.516 -0.3139 -0.0623  0.0681
  613YOPC   C4B 8992   7.162   8.087   8.794  0.2275 -0.1584  0.1510
  614YOPC   NC3 8993   5.488  17.585   5.846 -0.0131  0.0634  0.2403
  614YOPC   PO4 8994   5.428  17.935   6.109  0.4114  0.0155  0.1311
  614YOPC   GL1 8995   5.377  17.798   6.597 -0.0996 -0.0381 -0.0924
  614YOPC   GL2 8996   5.165  17.662   6.718 -0.0417 -0.0467  0.1492
  614YOPC   C1A 8997   5.374  17.962   7.045 -0.2858 -0.0135 -0.0402
  614YOPC   D2A 8998   5.467  17.821   7.481  0.0297  0.0549  0.4663
  614YOPC   C3A 8999   5.545  17.977   7.869  0.1187  0.0308 -0.0032
  614YOPC   C4A 9000   5.689  18.180   8.205  0.1822 -0.3134 -0.0172
  614YOPC   C1B 9001   5.082  17.583   7.093  0.2359 -0.0103  0.2167
  614YOPC   C2B 9002   4.837  17.287   7.305 -0.1333  0.0173  0.0188
  614YOPC   D3B 9003   5.098  17.394   7.689 -0.1242 -0.1533 -0.3226
  614YOPC   C4B 9004   5.288  17.572   8.006 -0.0894 -0.2139 -0.0369
  615YOPC   NC3 9005   3.396   4.502   6.331  0.2248 -0.1174  0.2234
  615YOPC   PO4 9006   3.317   4.096   6.580  0.3598  0.0481  0.0843
  615YOPC   GL1 9007   3.081   4.263   6.938 -0.0254  0.1484 -0.2323
  615YOPC   GL2 9008   2.703   4.313   6.840  0.1458  0.0860 -0.0536
  615YOPC   C1A 9009   3.012   4.098   7.349 -0.2207  0.1847  0.0755
  615YOPC   D2A 9010   3.064   3.939   7.836  0.3831 -0.1959  0.0943
  615YOPC   C3A 9011   2.815   3.794   8.269  0.1060  0.1261  0.0588
  615YOPC   C4A 9012   2.666   3.425   8.355  0.0173  0.0344 -0.0917
  615YOPC   C1B 9013   2.621   4.316   7.277 -0.1805 -0.1706 -0.1378
  615YOPC   C2B 9014   2.352   4.173   7.521 -0.2097  0.1110 -0.3046
  615YOPC   D3B 9015   1.930   4.321   7.558 -0.1577 -0.0741 -0.2414
  615YOPC   C4B 9016   1.706   4.439   7.945  0.0389  0.1299 -0.3274
  616YOPC   NC3 9017   4.007   3.554   6.139  0.1594 -0.1456  0.1485
  616YOPC   PO4 9018   4.362   3.508   6.268 -0.2291  0.2024  0.0343
  616YOPC   GL1 9019   4.300   3.350   6.624 -0.3434  0.1210  0.0610
  616YOPC   GL2 9020   4.144   3.071   6.592 -0.2699  0.0749 -0.0648
  616YOPC   C1A 9021   4.138   3.454   6.941 -0.0951  0.1040 -0.1373
  616YOPC   D2A 9022   3.998   3.503   7.311 -0.0862 -0.0968  0.2392
  616YOPC   C3A 9023   3.646   3.457   7.581 -0.0204 -0.0778 -0.0169
  616YOPC   C4A 9024   3.530   3.206   7.923  0.1870 -0.0811 -0.3441
  616YOPC   C1B 9025   3.907   2.948   6.957 -0.1429 -0.1602 -0.4549
  616YOPC   C2B 9026   3.827   2.998   7.442 -0.1131 -0.1221  0.1206
  616YOPC   D3B 9027   4.024   3.320   7.842 -0.1200 -0.1245  0.2796
  616YOPC   C4B 9028   4.432   3.406   8.126  0.1006 -0.2287 -0.1741
  617YOPC   NC3 9029   9.568  12.874   6.163  0.0827 -0.1705 -0.1455
  617YOPC   PO4 9030   9.572  12.742   6.634  0.0483  0.1958  0.1033
  617YOPC   GL1 9031   9.312  12.860   6.964 -0.1602 -0.0242  0.0177
  617YOPC   GL2 9032   9.445  12.612   7.220 -0.1365 -0.0926  0.0467
  617YOPC   C1A 9033   8.993  12.977   7.255  0.1007  0.0445 -0.1334
  617YOPC   D2A 9034   8.780  13.193   7.667  0.0452  0.0437 -0.4131
  617YOPC   C3A 9035   8.743  13.136   8.119  0.1708 -0.0915 -0.0537
  617YOPC   C4A 9036   8.538  13.294   8.560 -0.3491 -0.2781  0.0500
  617YOPC   C1B 9037   9.294  12.522   7.620  0.0582  0.3675  0.1237
  617YOPC   C2B 9038   9.126  12.442   7.966 -0.4135 -0.1885 -0.0898
  617YOPC   D3B 9039   8.929  12.326   8.292 -0.2952 -0.0604  0.1362
  617YOPC   C4B 9040   8.759  12.311   8.720 -0.2350 -0.4069  0.1197
  618YOPC   NC3 9041   9.438   1.970   5.963 -0.0105 -0.0827  0.0013
  618YOPC   PO4 9042   9.746   1.646   6.179 -0.1636  0.0611 -0.0487
  618YOPC   GL1 9043   9.660   1.948   6.494 -0.0525 -0.1886  0.1757
  618YOPC   GL2 9044   9.431   2.199   6.473  0.1557 -0.0100 -0.0701
  618YOPC   C1A 9045   9.455   1.866   6.910 -0.0799 -0.1886 -0.0987
  618YOPC   D2A 9046   9.149   1.623   7.049  0.0050  0.0248  0.3418
  618YOPC   C3A 9047   9.117   1.226   6.831 -0.3638  0.1527  0.0842
  618YOPC   C4A 9048   8.803   0.822   6.864 -0.0060  0.2988  0.0560
  618YOPC   C1B 9049   9.493   2.347   6.839  0.1174  0.2094 -0.0568
  618YOPC   C2B 9050   9.607   2.395   7.219 -0.1164 -0.1595  0.1759
  618YOPC   D3B 9051   9.578   2.437   7.673  0.0510 -0.1440 -0.0123
  618YOPC   C4B 9052   9.429   2.587   8.091  0.0029  0.2224 -0.2990
  619YOPC   NC3 9053   8.370   5.937   6.435 -0.0938 -0.1912  0.2262
  619YOPC   PO4 9054   8.677   5.760   6.427  0.0838 -0.1041 -0.0898
  619YOPC   GL1 9055   8.602   6.027   6.851 -0.0136 -0.0093  0.1276
  619YOPC   GL2 9056   8.802   6.301   6.724  0.0541  0.0395 -0.0500
  619YOPC   C1A 9057   8.476   6.096   7.240 -0.1612  0.0363 -0.2213
  619YOPC   D2A 9058   8.703   6.082   7.577  0.1100 -0.0850  0.4773
  619YOPC   C3A 9059   8.700   5.886   7.946  0.0618 -0.2127  0.0174
  619YOPC   C4A 9060   8.577   5.795   8.377 -0.0683 -0.0265 -0.1667
  619YOPC   C1B 9061   8.568   6.573   7.104 -0.0882  0.0013  0.1020
  619YOPC   C2B 9062   8.376   6.607   7.545 -0.1263 -0.1264  0.1360
  619YOPC   D3B 9063   8.247   6.885   7.839  0.0125  0.1290 -0.0391
  619YOPC   C4B 9064   8.051   6.954   8.207  0.1055  0.1921 -0.1879
  620YOPC   NC3 9065   6.394   2.813   6.297  0.3338  0.0835  0.0877
  620YOPC   PO4 9066   6.813   2.823   6.316 -0.3063  0.2813  0.0718
  620YOPC   GL1 9067   6.759   3.070   6.695  0.0586  0.2682  0.2031
  620YOPC   GL2 9068   6.948   3.339   6.646 -0.1050  0.0297  0.1395
  620YOPC   C1A 9069   6.702   3.147   7.155 -0.0547 -0.1357 -0.0003
  620YOPC   D2A 9070   6.663   3.480   7.454 -0.1813  0.1594  0.0131
  620YOPC   C3A 9071   6.571   3.280   7.863  0.2194  0.0891  0.0994
  620YOPC   C4A 9072   6.171   3.182   8.050  0.0060 -0.0013 -0.0256
  620YOPC   C1B 9073   7.074   3.491   7.125 -0.1327 -0.0661  0.0417
  620YOPC   C2B 9074   7.002   3.843   7.482  0.1394  0.0635  0.1882
  620YOPC   D3B 9075   6.760   3.795   7.874  0.2856  0.0035  0.1607
  620YOPC   C4B 9076   6.991   3.761   8.275  0.2435 -0.0407 -0.2538
  621YOPC   NC3 9077   1.757   5.353   6.386  0.1113 -0.2153  0.3635
  621YOPC   PO4 9078   1.784   5.005   6.405 -0.1886  0.0712  0.1078
  621YOPC   GL1 9079   1.768   5.218   6.839  0.1196 -0.1629 -0.2007
  621YOPC   GL2 9080   2.039   5.369   6.855 -0.0026 -0.0118  0.4583
  621YOPC   C1A 9081   1.969   5.072   7.264  0.0759  0.1171  0.2054
  621YOPC   D2A 9082   1.777   4.876   7.591 -0.2590 -0.2995 -0.2411
  621YOPC   C3A 9083   1.917   4.958   8.009 -0.1299 -0.2328 -0.4225
  621YOPC   C4A 9084   1.776   4.750   8.373 -0.0631 -0.0032  0.0034
  621YOPC   C1B 9085   2.262   5.482   7.172  0.0710  0.0212  0.0922
  621YOPC   C2B 9086   2.584   5.698   7.383  0.0541  0.2584 -0.4562
  621YOPC   D3B 9087   2.583   5.790   7.815  0.1412  0.0642  0.0751
  621YOPC   C4B 9088   2.691   5.808   8.217 -0.0851 -0.0336 -0.0217
  622YOPC   NC3 9089   8.035  14.146   6.033  0.1739 -0.3798 -0.0386
  622YOPC   PO4 9090   7.957  13.741   6.253 -0.1491  0.2016 -0.1146
  622YOPC   GL1 9091   8.077  13.960   6.487 -0.0190  0.3129 -0.1930
  622YOPC   GL2 9092   8.032  14.159   6.671 -0.0945  0.3108 -0.2082
  622YOPC   C1A 9093   8.388  13.875   6.858 -0.0940 -0.1099  0.1250
  622YOPC   D2A 9094   8.252  13.687   7.336  0.1698  0.0428  0.0088
  622YOPC   C3A 9095   8.122  13.358   7.567 -0.0139  0.3014 -0.0584
  622YOPC   C4A 9096   7.760  13.196   7.704  0.0415  0.1639  0.1051
  622YOPC   C1B 9097   8.006  14.209   7.133  0.0972  0.0500  0.0487
  622YOPC   C2B 9098   8.132  14.545   7.403  0.0434  0.4659  0.0477
  622YOPC   D3B 9099   8.041  14.768   7.720 -0.1825 -0.1109 -0.0716
  622YOPC   C4B 9100   7.953  14.982   8.128  0.0428 -0.1490 -0.0609
  623YOPC   NC3 9101   4.341   8.509   6.580  0.0043  0.0608  0.2134
  623YOPC   PO4 9102   4.252   8.871   6.932  0.2731 -0.0266 -0.1261
  623YOPC   GL1 9103   4.372   8.771   7.287 -0.1239  0.2318  0.1141
  623YOPC   GL2 9104   4.612   8.787   7.377 -0.5032 -0.2460 -0.3016
  623YOPC   C1A 9105   4.126   8.547   7.548  0.0040 -0.1990  0.0140
  623YOPC   D2A 9106   4.369   8.335   7.917 -0.2141 -0.0082 -0.3705
  623YOPC   C3A 9107   4.204   8.439   8.272 -0.0547 -0.1070  0.1812
  623YOPC   C4A 9108   4.521   8.439   8.694 -0.2565 -0.4029  0.0407
  623YOPC   C1B 9109   4.547   8.756   7.804 -0.0235  0.0109 -0.3127
  623YOPC   C2B 9110   4.682   8.612   8.241  0.0965 -0.0032  0.0593
  623YOPC   D3B 9111   4.852   8.851   8.622  0.1432  0.0058  0.0069
  623YOPC   C4B 9112   4.868   9.215   8.629  0.3783  0.1986  0.3014
  624YOPC   NC3 9113   5.896  12.710   5.992  0.1426  0.0199  0.1729
  624YOPC   PO4 9114   5.606  12.911   6.210  0.4630  0.2362  0.1458
  624YOPC   GL1 9115   5.702  12.863   6.730  0.0671 -0.0640  0.0701
  624YOPC   GL2 9116   5.963  12.781   6.839  0.3798 -0.1511  0.0729
  624YOPC   C1A 9117   5.538  12.842   7.142 -0.0188 -0.0804  0.0942
  624YOPC   D2A 9118   5.152  13.162   7.303  0.1137  0.2586  0.0621
  624YOPC   C3A 9119   5.106  13.312   7.706 -0.1152  0.0349 -0.1472
  624YOPC   C4A 9120   4.952  13.532   8.072 -0.0493 -0.2613  0.2264
  624YOPC   C1B 9121   5.990  12.532   7.187  0.0801 -0.2933 -0.0581
  624YOPC   C2B 9122   5.900  12.523   7.508 -0.0298  0.1718  0.1688
  624YOPC   D3B 9123   5.644  12.829   7.624  0.0056  0.0399 -0.1583
  624YOPC   C4B 9124   5.615  13.246   7.625  0.2050 -0.0670 -0.0611
  625YOPC   NC3 9125   7.691   0.800   6.558 -0.3654  0.2667 -0.2006
  625YOPC   PO4 9126   7.965   0.524   6.392 -0.1059  0.3283 -0.1022
  625YOPC   GL1 9127   7.995   0.377   6.811  0.3861 -0.2414  0.1199
  625YOPC   GL2 9128   7.754   0.516   7.070 -0.1273 -0.2977 -0.1628
  625YOPC   C1A 9129   8.152   0.260   7.155  0.3070 -0.0851  0.1390
  625YOPC   D2A 9130   8.139   0.206   7.611 -0.4851  0.0502  0.0392
  625YOPC   C3A 9131   8.494  -0.030   7.750 -0.1566 -0.2497  0.0250
  625YOPC   C4A 9132   8.890  -0.151   7.832 -0.0410 -0.2270 -0.0156
  625YOPC   C1B 9133   7.828   0.618   7.470  0.0753  0.0985  0.0175
  625YOPC   C2B 9134   7.765   0.610   7.863 -0.1466  0.0097  0.2429
  625YOPC   D3B 9135   8.020   0.407   8.212  0.0655 -0.0702  0.1191
  625YOPC   C4B 9136   7.830   0.303   8.623  0.3474 -0.0798  0.0187
  626YOPC   NC3 9137   2.398  14.953   5.935 -0.1199  0.2536  0.2752
  626YOPC   PO4 9138   2.482  14.905   6.314 -0.2279 -0.3102  0.0739
  626YOPC   GL1 9139   2.626  14.963   6.747  0.0324  0.1180 -0.0337
  626YOPC   GL2 9140   2.932  14.732   6.876 -0.2042 -0.0931  0.0388
  626YOPC   C1A 9141   2.511  15.125   7.093  0.1814  0.0562  0.1513
  626YOPC   D2A 9142   2.266  14.903   7.394 -0.1704  0.1659 -0.0879
  626YOPC   C3A 9143   2.135  14.910   7.741 -0.1495 -0.0057  0.0112
  626YOPC   C4A 9144   1.925  15.110   8.057 -0.1137 -0.0433 -0.2273
  626YOPC   C1B 9145   2.805  14.712   7.293  0.1787  0.0934 -0.1461
  626YOPC   C2B 9146   2.732  15.037   7.635 -0.0080 -0.0283  0.1096
  626YOPC   D3B 9147   2.595  14.789   8.020  0.1709 -0.3412  0.2483
  626YOPC   C4B 9148   2.298  14.541   8.283 -0.0888 -0.3026  0.1011
  627YOPC   NC3 9149   0.916   1.745   6.122  0.0138 -0.0346 -0.2291
  627YOPC   PO4 9150   0.802   2.208   6.253  0.1529  0.0762 -0.1546
  627YOPC   GL1 9151   0.711   2.349   6.625 -0.0340  0.1206  0.2268
  627YOPC   GL2 9152   0.426   2.452   6.569  0.0244 -0.1350  0.3907
  627YOPC   C1A 9153   0.787   2.561   7.022  0.2735  0.0567 -0.1421
  627YOPC   D2A 9154   0.884   2.576   7.407 -0.3412  0.1102  0.3747
  627YOPC   C3A 9155   0.862   2.236   7.674 -0.2385 -0.0252 -0.0963
  627YOPC   C4A 9156   0.745   1.926   7.896  0.1677 -0.0834 -0.2328
  627YOPC   C1B 9157   0.252   2.249   6.931  0.1789 -0.0776 -0.0311
  627YOPC   C2B 9158   0.477   2.090   7.351 -0.1234  0.1957  0.1124
  627YOPC   D3B 9159   0.285   2.046   7.767 -0.1853  0.1824  0.0503
  627YOPC   C4B 9160   0.369   1.925   8.227  0.2104 -0.1134  0.2200
  628YOPC   NC3 9161  10.829  14.545   6.587  0.2374 -0.1970  0.3763
  628YOPC   PO4 9162  11.283  14.447   6.787  0.1333  0.2096  0.3832
  628YOPC   GL1 9163  11.338  14.324   7.181  0.1494 -0.2125 -0.1171
  628YOPC   GL2 9164  11.332  13.974   7.198 -0.3147  0.0515  0.1276
  628YOPC   C1A 9165  11.321  14.191   7.631 -0.1095  0.3269 -0.0672
  628YOPC   D2A 9166  11.081  14.035   8.033 -0.0064 -0.1131 -0.0192
  628YOPC   C3A 9167  11.203  13.799   8.382  0.1011  0.1869 -0.0311
  628YOPC   C4A 9168  11.320  13.951   8.780 -0.0547 -0.0206  0.1504
  628YOPC   C1B 9169  11.780  14.248   7.325  0.5794 -0.1131 -0.3694
  628YOPC   C2B 9170  11.944  14.300   7.634  0.1217 -0.1406 -0.3155
  628YOPC   D3B 9171  12.184  14.013   7.857  0.0137  0.1263  0.3303
  628YOPC   C4B 9172  12.193  13.936   8.229 -0.3121 -0.1415  0.0369
  629YOPC   NC3 9173   0.703  11.782   6.402 -0.2273  0.0898  0.0342
  629YOPC   PO4 9174   0.350  11.948   6.435  0.0088 -0.0021 -0.2554
  629YOPC   GL1 9175   0.064  11.739   6.596 -0.1847 -0.1395  0.2032
  629YOPC   GL2 9176   0.173  11.532   6.696 -0.2147 -0.2009  0.0412
  629YOPC   C1A 9177  -0.376  11.761   6.698 -0.0892  0.3719  0.2759
  629YOPC   D2A 9178  -0.604  12.008   7.005 -0.0211 -0.1619  0.1117
  629YOPC   C3A 9179  -0.742  11.940   7.368 -0.0713  0.0203 -0.1335
  629YOPC   C4A 9180  -0.869  12.007   7.732  0.2886 -0.1587 -0.2819
  629YOPC   C1B 9181  -0.064  11.297   6.970 -0.0213  0.0227  0.0544
  629YOPC   C2B 9182  -0.393  11.163   7.017  0.3708  0.1286  0.3237
  629YOPC   D3B 9183  -0.499  10.958   7.366 -0.0625 -0.1453 -0.0878
  629YOPC   C4B 9184  -0.687  10.649   7.717 -0.0548 -0.2683 -0.0189
  630YOPC   NC3 9185   7.405  12.259   6.852 -0.4082  0.2014 -0.0337
  630YOPC   PO4 9186   7.647  12.533   6.761 -0.0355  0.0666 -0.1901
  630YOPC   GL1 9187   8.028  12.510   7.022  0.1825  0.2475 -0.0807
  630YOPC   GL2 9188   7.917  12.840   7.239 -0.0668  0.0648  0.1826
  630YOPC   C1A 9189   8.262  12.404   7.338 -0.5004 -0.2713 -0.3373
  630YOPC   D2A 9190   8.519  12.277   7.667 -0.2356 -0.0804  0.1343
  630YOPC   C3A 9191   8.927  12.104   7.655 -0.3071 -0.1190 -0.1262
  630YOPC   C4A 9192   9.369  11.938   7.561  0.3183  0.1553 -0.0866
  630YOPC   C1B 9193   7.854  12.685   7.585 -0.2765 -0.2017  0.0094
  630YOPC   C2B 9194   7.632  12.835   7.988  0.0544 -0.1270  0.0854
  630YOPC   D3B 9195   7.656  13.122   8.286 -0.0458 -0.2365 -0.0813
  630YOPC   C4B 9196   7.431  13.157   8.688 -0.1271  0.2352  0.0128
  631YOPC   NC3 9197  17.971  16.749   6.085  0.1143  0.0719 -0.0956
  631YOPC   PO4 9198  18.023  16.270   6.146 -0.0972  0.0432 -0.0093
  631YOPC   GL1 9199  18.298  16.152   6.445 -0.2418  0.0663  0.0035
  631YOPC   GL2 9200  18.454  16.003   6.274  0.0771 -0.4687 -0.1912
  631YOPC   C1A 9201  18.397  16.079   6.829  0.1434 -0.1694 -0.0576
  631YOPC   D2A 9202  18.491  16.178   7.235 -0.3967 -0.1680  0.1311
  631YOPC   C3A 9203  18.813  16.367   7.516  0.1445  0.1156  0.0087
  631YOPC   C4A 9204  19.084  16.653   7.672 -0.1406  0.0447 -0.2048
  631YOPC   C1B 9205  18.357  15.590   6.543  0.0069 -0.0637 -0.0486
  631YOPC   C2B 9206  18.343  15.339   6.928 -0.1311 -0.1093  0.0522
  631YOPC   D3B 9207  18.141  15.053   7.036 -0.1429 -0.0963 -0.2059
  631YOPC   C4B 9208  17.813  15.008   7.303 -0.0695  0.0940  0.1180
  632YOPC   NC3 9209   5.707  15.987   6.661  0.3353 -0.4285 -0.0477
  632YOPC   PO4 9210   6.060  16.025   6.443 -0.1594  0.1912 -0.1252
  632YOPC   GL1 9211   6.110  16.320   6.806  0.0372 -0.0534 -0.0722
  632YOPC   GL2 9212   5.824  16.408   6.943 -0.3434  0.0537 -0.0598
  632YOPC   C1A 9213   6.195  16.564   7.234 -0.3940  0.1941 -0.0111
  632YOPC   D2A 9214   6.420  16.588   7.542 -0.3858 -0.0241  0.1445
  632YOPC   C3A 9215   6.294  16.699   7.978 -0.5218  0.0444 -0.5586
  632YOPC   C4A 9216   6.291  16.825   8.335  0.0355  0.0463 -0.2499
  632YOPC   C1B 9217   5.924  16.219   7.310 -0.1730 -0.1883 -0.4360
  632YOPC   C2B 9218   5.777  16.237   7.719  0.1131 -0.1606 -0.3646
  632YOPC   D3B 9219   5.804  16.626   7.787  0.0339 -0.1636 -0.1468
  632YOPC   C4B 9220   5.848  16.893   8.199  0.4228  0.0336  0.1805
  633YOPC   NC3 9221   9.300  16.911   6.423  0.1787 -0.3624 -0.1671
  633YOPC   PO4 9222   8.840  17.036   6.208  0.0565 -0.0016 -0.2057
  633YOPC   GL1 9223   9.011  17.250   6.628 -0.0074 -0.0024 -0.3152
  633YOPC   GL2 9224   8.827  17.089   6.757 -0.0132 -0.0568  0.3182
  633YOPC   C1A 9225   9.286  17.366   6.914 -0.3538  0.2475  0.1035
  633YOPC   D2A 9226   9.194  17.567   7.299 -0.1181  0.0632  0.4709
  633YOPC   C3A 9227   9.163  17.363   7.654  0.1367  0.0418  0.1870
  633YOPC   C4A 9228   9.149  17.250   8.132 -0.1559  0.2702  0.3852
  633YOPC   C1B 9229   8.777  17.479   7.065  0.3065  0.2212  0.5081
  633YOPC   C2B 9230   8.890  17.907   7.184  0.0010 -0.2726 -0.0528
  633YOPC   D3B 9231   9.194  18.086   7.458 -0.0140  0.0206 -0.1593
  633YOPC   C4B 9232   9.594  18.083   7.540  0.0965  0.0874  0.2135
  634YOPC   NC3 9233   0.363  17.901   5.888 -0.3294 -0.1260 -0.1986
  634YOPC   PO4 9234   0.270  18.277   6.170  0.5222 -0.1486 -0.1710
  634YOPC   GL1 9235   0.077  18.211   6.638  0.0471 -0.1877 -0.0112
  634YOPC   GL2 9236   0.312  18.068   6.750  0.0191  0.2031 -0.0957
  634YOPC   C1A 9237  -0.113  18.051   7.059 -0.0017 -0.0212 -0.2223
  634YOPC   D2A 9238   0.150  18.018   7.397  0.0527  0.2005  0.2738
  634YOPC   C3A 9239   0.214  17.770   7.730  0.0251  0.0732 -0.0083
  634YOPC   C4A 9240  -0.022  17.664   8.135 -0.1742  0.1148  0.0666
  634YOPC   C1B 9241   0.407  18.274   7.077  0.0386  0.0644  0.0873
  634YOPC   C2B 9242   0.525  18.494   7.413  0.0625  0.4764  0.0448
  634YOPC   D3B 9243   0.561  18.287   7.880  0.3529  0.3078  0.0225
  634YOPC   C4B 9244   0.286  18.099   8.073 -0.1698 -0.3357 -0.1139
  635YOPC   NC3 9245   0.036   6.759   6.486  0.0256 -0.1814  0.0182
  635YOPC   PO4 9246  -0.424   6.672   6.432 -0.0405 -0.0151  0.1697
  635YOPC   GL1 9247  -0.366   6.765   6.945 -0.0082 -0.0564 -0.0954
  635YOPC   GL2 9248  -0.625   6.916   7.092  0.1509 -0.1675  0.0578
  635YOPC   C1A 9249  -0.065   6.949   7.138  0.2073 -0.2292  0.2901
  635YOPC   D2A 9250   0.104   7.033   7.429  0.0946  0.0998 -0.1228
  635YOPC   C3A 9251   0.134   7.019   7.880  0.0685 -0.2128 -0.1666
  635YOPC   C4A 9252   0.199   7.130   8.195 -0.0993  0.0620 -0.2259
  635YOPC   C1B 9253  -0.375   6.765   7.514  0.0721  0.0144  0.0491
  635YOPC   C2B 9254  -0.102   6.545   7.825 -0.0530  0.1152  0.0756
  635YOPC   D3B 9255  -0.154   6.352   8.318 -0.1280  0.0491  0.0171
  635YOPC   C4B 9256  -0.033   6.273   8.819  0.0309  0.2339 -0.2257
  636YOPC   NC3 9257   7.317   1.694   6.414 -0.1030  0.0761  0.0331
  636YOPC   PO4 9258   6.963   1.436   6.520  0.2848 -0.3130 -0.0901
  636YOPC   GL1 9259   7.133   1.528   6.964  0.1120  0.3219  0.0957
  636YOPC   GL2 9260   6.786   1.604   7.065 -0.3281 -0.1400  0.0226
  636YOPC   C1A 9261   7.195   1.193   7.294  0.0518  0.1284 -0.0939
  636YOPC   D2A 9262   7.111   1.093   7.695 -0.4036  0.1740 -0.0331
  636YOPC   C3A 9263   6.994   1.322   7.874 -0.0185 -0.1099  0.3824
  636YOPC   C4A 9264   6.799   1.678   8.082 -0.0508  0.2766 -0.3742
  636YOPC   C1B 9265   6.987   1.654   7.451 -0.2243  0.1182  0.0863
  636YOPC   C2B 9266   7.087   1.905   7.710 -0.0067  0.0808  0.0458
  636YOPC   D3B 9267   6.994   2.132   8.161 -0.0608 -0.1413  0.3440
  636YOPC   C4B 9268   7.281   2.417   8.315 -0.3907  0.1938 -0.0154
  637YOPC   NC3 9269   2.315   3.777   6.480  0.2718  0.0363 -0.1835
  637YOPC   PO4 9270   2.113   3.474   6.579 -0.1317  0.0160  0.0810
  637YOPC   GL1 9271   2.132   3.247   6.920 -0.2262  0.1735  0.1939
  637YOPC   GL2 9272   2.217   3.430   7.141  0.0130 -0.1633 -0.1568
  637YOPC   C1A 9273   1.935   3.070   7.355  0.1777 -0.1731  0.0895
  637YOPC   D2A 9274   1.838   2.836   7.693  0.2134  0.2725  0.0242
  637YOPC   C3A 9275   1.387   2.962   7.823  0.1558  0.1888 -0.0174
  637YOPC   C4A 9276   1.013   2.659   7.913  0.0551  0.3397 -0.1878
  637YOPC   C1B 9277   2.402   3.224   7.529 -0.3890  0.0716 -0.0150
  637YOPC   C2B 9278   2.315   2.888   7.651 -0.1638 -0.2830  0.1565
  637YOPC   D3B 9279   2.236   2.783   7.988  0.2907  0.0730 -0.1787
  637YOPC   C4B 9280   2.079   2.933   8.355 -0.0087  0.1859  0.0543
  638YOPC   NC3 9281   1.772   1.533   5.905 -0.0950 -0.0713 -0.1738
  638YOPC   PO4 9282   2.289   1.624   5.929 -0.4438 -0.0430 -0.1191
  638YOPC   GL1 9283   2.152   1.610   6.344 -0.0680  0.0377  0.1539
  638YOPC   GL2 9284   2.088   1.372   6.562  0.0909 -0.3549  0.0454
  638YOPC   C1A 9285   2.262   1.826   6.663 -0.3127  0.0403 -0.2798
  638YOPC   D2A 9286   2.578   1.807   6.870 -0.2128  0.2771 -0.1686
  638YOPC   C3A 9287   2.647   1.960   7.226  0.0241 -0.2004 -0.0487
  638YOPC   C4A 9288   2.771   1.939   7.706  0.2367  0.0470 -0.0100
  638YOPC   C1B 9289   1.750   1.273   6.850 -0.1814  0.0153  0.3892
  638YOPC   C2B 9290   1.568   0.831   6.897  0.0838 -0.0759  0.4073
  638YOPC   D3B 9291   1.432   0.358   6.846  0.2679 -0.2593  0.3146
  638YOPC   C4B 9292   1.599  -0.061   6.903  0.2590  0.0583  0.1425
  639YOPC   NC3 9293   6.669  14.006   6.713 -0.4347 -0.0480 -0.2546
  639YOPC   PO4 9294   6.646  13.521   6.829  0.2076 -0.2926 -0.0548
  639YOPC   GL1 9295   6.507  13.568   7.226  0.0759 -0.1264  0.1256
  639YOPC   GL2 9296   6.702  13.834   7.219 -0.2379  0.1548  0.0143
  639YOPC   C1A 9297   6.405  13.539   7.691  0.1299 -0.0276  0.1602
  639YOPC   D2A 9298   6.318  13.440   8.111 -0.1540  0.1902 -0.2919
  639YOPC   C3A 9299   6.039  13.530   8.430 -0.4144 -0.1478  0.0968
  639YOPC   C4A 9300   5.706  13.374   8.503  0.2452 -0.1552  0.2529
  639YOPC   C1B 9301   6.694  13.965   7.678  0.1269 -0.0347  0.1296
  639YOPC   C2B 9302   6.621  13.870   8.025 -0.3333 -0.2844 -0.0490
  639YOPC   D3B 9303   7.006  13.795   8.290 -0.1131 -0.0425  0.0989
  639YOPC   C4B 9304   7.413  13.712   8.747 -0.3227 -0.3287  0.0994
  640YOPC   NC3 9305   6.761   6.160   6.635 -0.1269 -0.1082  0.0171
  640YOPC   PO4 9306   7.083   5.850   6.658  0.0296  0.0432  0.0750
  640YOPC   GL1 9307   7.253   5.615   7.088 -0.1509 -0.0674  0.0050
  640YOPC   GL2 9308   7.089   5.361   7.079 -0.2503 -0.2834 -0.0504
  640YOPC   C1A 9309   7.628   5.473   7.216  0.1547 -0.2079  0.4416
  640YOPC   D2A 9310   7.833   5.090   7.102 -0.2555 -0.0063 -0.2576
  640YOPC   C3A 9311   8.083   4.831   7.277 -0.1947  0.1076 -0.2623
  640YOPC   C4A 9312   8.030   4.867   7.840 -0.0188 -0.2146  0.1347
  640YOPC   C1B 9313   7.252   5.299   7.538 -0.1542 -0.3869 -0.3373
  640YOPC   C2B 9314   7.142   5.274   8.033  0.1381 -0.1205 -0.2832
  640YOPC   D3B 9315   7.228   4.998   8.395  0.0611  0.1985 -0.0846
  640YOPC   C4B 9316   6.987   4.939   8.810 -0.0068  0.2902 -0.0409
  641YOPC   NC3 9317   8.534   7.596   6.468  0.2532  0.2189 -0.0087
  641YOPC   PO4 9318   8.845   7.211   6.648 -0.1120  0.1303 -0.3456
  641YOPC   GL1 9319   8.626   7.250   7.064  0.0951  0.2606 -0.2535
  641YOPC   GL2 9320   8.317   7.478   6.959  0.0045 -0.1297  0.1384
  641YOPC   C1A 9321   8.670   6.978   7.425 -0.2736  0.0257  0.1352
  641YOPC   D2A 9322   8.928   6.621   7.538  0.1541 -0.0062 -0.0159
  641YOPC   C3A 9323   9.021   6.356   7.201 -0.0401  0.1487  0.1337
  641YOPC   C4A 9324   9.021   5.858   7.271  0.2592 -0.2388  0.3144
  641YOPC   C1B 9325   8.189   7.184   7.289  0.0039 -0.1051  0.0210
  641YOPC   C2B 9326   7.797   7.188   7.542 -0.0918 -0.0113 -0.1644
  641YOPC   D3B 9327   7.743   6.829   7.668  0.1026 -0.0519 -0.0067
  641YOPC   C4B 9328   7.416   6.492   7.845  0.0568  0.0906  0.0867
  642YOPC   NC3 9329   8.353   1.227   5.844 -0.2832  0.0315  0.0138
  642YOPC   PO4 9330   8.262   1.567   5.953  0.1313  0.0322  0.2421
  642YOPC   GL1 9331   8.259   1.768   6.344 -0.0255 -0.2156  0.0759
  642YOPC   GL2 9332   8.338   1.439   6.519  0.0451 -0.2582  0.3398
  642YOPC   C1A 9333   8.170   1.803   6.786 -0.2338 -0.0935  0.1065
  642YOPC   D2A 9334   8.226   1.856   7.201 -0.1131  0.1354 -0.0877
  642YOPC   C3A 9335   8.066   1.865   7.665 -0.0075  0.0473 -0.1217
  642YOPC   C4A 9336   7.874   1.659   8.058 -0.2705  0.1766 -0.0133
  642YOPC   C1B 9337   8.617   1.274   6.842 -0.0351 -0.1054 -0.1753
  642YOPC   C2B 9338   8.801   1.306   7.199  0.0933  0.1687 -0.0067
  642YOPC   D3B 9339   8.693   1.372   7.618 -0.0031 -0.1733 -0.0451
  642YOPC   C4B 9340   8.518   1.658   7.745 -0.1523 -0.2970  0.1625
  643YOPC   NC3 9341   9.130  11.990   6.050 -0.1203  0.0099 -0.2972
  643YOPC   PO4 9342   9.191  12.335   6.269 -0.5599  0.5213  0.0624
  643YOPC   GL1 9343   9.258  12.407   6.759 -0.3161  0.3204  0.0770
  643YOPC   GL2 9344   8.929  12.291   6.857 -0.0800  0.1628 -0.3296
  643YOPC   C1A 9345   9.369  12.057   7.019  0.2097 -0.0590 -0.1160
  643YOPC   D2A 9346   9.069  11.931   7.227 -0.0918  0.1476  0.1171
  643YOPC   C3A 9347   8.672  12.037   7.159  0.0035  0.0691  0.1741
  643YOPC   C4A 9348   8.450  12.162   6.888  0.0835  0.1211  0.0116
  643YOPC   C1B 9349   8.877  12.479   7.308  0.0944 -0.2428  0.0125
  643YOPC   C2B 9350   8.886  12.696   7.653  0.0113 -0.1695  0.0702
  643YOPC   D3B 9351   8.650  12.608   8.045  0.2727 -0.2184 -0.3064
  643YOPC   C4B 9352   8.391  12.306   8.189 -0.1706 -0.2725 -0.3439
  644YOPC   NC3 9353   4.937   1.447   6.386 -0.1247  0.0115 -0.0759
  644YOPC   PO4 9354   5.302   1.208   6.382 -0.0974 -0.1292 -0.1837
  644YOPC   GL1 9355   5.182   1.305   6.854  0.0289 -0.0649 -0.0378
  644YOPC   GL2 9356   5.316   1.051   6.912 -0.0128  0.0926 -0.0912
  644YOPC   C1A 9357   4.884   1.163   7.140 -0.0626  0.5258 -0.1943
  644YOPC   D2A 9358   4.826   1.293   7.516 -0.0758 -0.2369  0.2893
  644YOPC   C3A 9359   4.935   1.266   7.907 -0.1625  0.0632 -0.0926
  644YOPC   C4A 9360   5.043   1.333   8.364 -0.1274  0.1841  0.2289
  644YOPC   C1B 9361   5.286   0.955   7.317  0.2339 -0.2072  0.2916
  644YOPC   C2B 9362   5.110   0.842   7.636  0.0669  0.3709 -0.2685
  644YOPC   D3B 9363   4.639   0.897   7.764  0.2125 -0.2390 -0.0799
  644YOPC   C4B 9364   4.434   1.052   8.161 -0.2459 -0.0378 -0.0661
  645YOPC   NC3 9365   5.889   5.048   6.783 -0.1607 -0.0435 -0.1174
  645YOPC   PO4 9366   6.297   5.277   6.645 -0.1379  0.0654  0.1794
  645YOPC   GL1 9367   6.478   5.200   6.951  0.2550  0.2453  0.3659
  645YOPC   GL2 9368   6.347   4.944   7.120 -0.1685  0.3732  0.1429
  645YOPC   C1A 9369   6.652   5.328   7.360  0.0297 -0.1643  0.1265
  645YOPC   D2A 9370   6.692   5.326   7.790 -0.0613 -0.2651 -0.3082
  645YOPC   C3A 9371   6.526   5.601   8.194 -0.3016 -0.3542  0.1044
  645YOPC   C4A 9372   6.437   5.749   8.601 -0.3581 -0.1948  0.1890
  645YOPC   C1B 9373   6.462   4.835   7.559 -0.1065  0.0133 -0.1056
  645YOPC   C2B 9374   6.460   4.888   7.940 -0.2287  0.0173  0.0383
  645YOPC   D3B 9375   6.719   4.762   8.351  0.0984  0.2817 -0.0198
  645YOPC   C4B 9376   6.651   4.513   8.711  0.1141 -0.1599 -0.0262
  646YOPC   NC3 9377   1.645  13.119   5.962  0.0435  0.0352  0.2051
  646YOPC   PO4 9378   1.425  13.468   6.262  0.1567  0.1752  0.2334
  646YOPC   GL1 9379   1.387  13.640   6.542  0.0954 -0.0203 -0.2113
  646YOPC   GL2 9380   1.301  13.964   6.579 -0.0911  0.0006 -0.2647
  646YOPC   C1A 9381   1.225  13.591   6.963  0.0642  0.0508  0.2207
  646YOPC   D2A 9382   1.234  13.334   7.204  0.2499  0.0135 -0.1505
  646YOPC   C3A 9383   1.555  13.357   7.468 -0.1027  0.0484  0.1835
  646YOPC   C4A 9384   1.618  13.589   7.871  0.0460  0.1985  0.0445
  646YOPC   C1B 9385   1.081  14.050   6.920  0.1758  0.0622 -0.0338
  646YOPC   C2B 9386   0.996  14.151   7.339 -0.1122 -0.1347  0.0454
  646YOPC   D3B 9387   1.045  14.155   7.812  0.0620  0.0692  0.0698
  646YOPC   C4B 9388   1.065  14.230   8.262  0.0088 -0.1248 -0.0971
  647YOPC   NC3 9389  10.156   8.183   6.852  0.0213  0.0788 -0.0191
  647YOPC   PO4 9390   9.808   7.924   6.808 -0.0017 -0.2867  0.1961
  647YOPC   GL1 9391   9.669   7.759   7.194  0.0419  0.0023  0.1422
  647YOPC   GL2 9392   9.385   7.743   7.441  0.0675 -0.1664 -0.1083
  647YOPC   C1A 9393   9.939   7.782   7.585 -0.1741 -0.1562  0.2207
  647YOPC   D2A 9394  10.035   7.714   7.973 -0.0550 -0.1457  0.0732
  647YOPC   C3A 9395   9.995   7.351   8.172  0.0836  0.1606 -0.2237
  647YOPC   C4A 9396   9.902   7.359   8.624  0.2185  0.1064 -0.0313
  647YOPC   C1B 9397   9.328   7.694   7.872 -0.2971 -0.0706 -0.3764
  647YOPC   C2B 9398   9.554   7.585   8.357  0.0789 -0.3889 -0.0514
  647YOPC   D3B 9399   9.615   7.928   8.730  0.2646 -0.1319  0.0125
  647YOPC   C4B 9400   9.862   8.027   9.020 -0.1336 -0.0763 -0.3567
  648YOPC   NC3 9401   0.415   9.579   5.526  0.1239 -0.0619 -0.2513
  648YOPC   PO4 9402   0.455   9.365   5.896  0.1823  0.2329  0.4191
  648YOPC   GL1 9403   0.663   9.288   6.236  0.0718 -0.2016  0.0117
  648YOPC   GL2 9404   0.730   9.554   6.383  0.0227 -0.2320  0.1575
  648YOPC   C1A 9405   0.653   8.986   6.594  0.0615 -0.0471  0.4285
  648YOPC   D2A 9406   0.923   8.858   6.882 -0.2271  0.3156 -0.0266
  648YOPC   C3A 9407   1.040   9.064   7.252  0.0898 -0.0351 -0.1941
  648YOPC   C4A 9408   1.109   9.154   7.659  0.2945  0.0234 -0.2761
  648YOPC   C1B 9409   1.008   9.336   6.735 -0.0558 -0.1595  0.2468
  648YOPC   C2B 9410   1.398   9.103   6.916 -0.0950 -0.2464  0.1331
  648YOPC   D3B 9411   1.466   9.268   7.372  0.1696  0.1403  0.1283
  648YOPC   C4B 9412   1.609   9.652   7.358  0.2275 -0.3194  0.0261
  649YOPC   NC3 9413  10.799   4.189   6.092  0.1033  0.1697  0.1289
  649YOPC   PO4 9414  10.693   4.316   5.655 -0.1755 -0.1414 -0.2363
  649YOPC   GL1 9415  10.303   4.308   5.972  0.1276 -0.1783  0.0562
  649YOPC   GL2 9416  10.211   4.058   6.210 -0.0418  0.2013 -0.0758
  649YOPC   C1A 9417   9.995   4.446   6.357 -0.2250 -0.0477  0.0854
  649YOPC   D2A 9418   9.698   4.335   6.743 -0.1986  0.0179 -0.1811
  649YOPC   C3A 9419   9.401   4.518   6.891  0.0575  0.3151  0.3570
  649YOPC   C4A 9420   9.113   4.781   6.872  0.2361 -0.2283 -0.1564
  649YOPC   C1B 9421   9.935   3.949   6.595 -0.1254 -0.1004 -0.1628
  649YOPC   C2B 9422   9.632   3.858   6.933 -0.2817 -0.1377 -0.1622
  649YOPC   D3B 9423   9.597   4.152   7.269  0.1294 -0.2249 -0.0825
  649YOPC   C4B 9424   9.313   4.441   7.344 -0.0462 -0.0569 -0.3038
  650YOPC   NC3 9425   1.846  16.590   5.701  0.2437 -0.1546 -0.1078
  650YOPC   PO4 9426   1.485  16.763   5.937  0.1391  0.2805 -0.1694
  650YOPC   GL1 9427   1.474  16.629   6.471  0.0072 -0.1599 -0.0723
  650YOPC   GL2 9428   1.715  16.645   6.501 -0.0176  0.3353 -0.2243
  650YOPC   C1A 9429   1.435  16.608   6.941  0.2388 -0.0540 -0.2160
  650YOPC   D2A 9430   0.977  16.692   7.171 -0.2191 -0.1418 -0.1623
  650YOPC   C3A 9431   1.024  17.126   7.437  0.0673  0.0513  0.2237
  650YOPC   C4A 9432   0.842  17.503   7.641  0.0085 -0.0255 -0.0540
  650YOPC   C1B 9433   1.592  17.085   6.669  0.0758 -0.0906 -0.1589
  650YOPC   C2B 9434   1.838  17.415   6.804 -0.0347 -0.0555  0.0090
  650YOPC   D3B 9435   2.042  17.258   7.233 -0.0573 -0.2019 -0.0134
  650YOPC   C4B 9436   2.444  17.308   7.359  0.0179 -0.2483 -0.1932
  651YOPC   NC3 9437  10.121   2.436   5.842 -0.0586  0.1551 -0.3126
  651YOPC   PO4 9438  10.266   2.533   6.272  0.0719 -0.0775  0.1286
  651YOPC   GL1 9439   9.877   2.468   6.570  0.2741 -0.2604 -0.0313
  651YOPC   GL2 9440   9.772   2.749   6.428  0.0525  0.1715  0.1298
  651YOPC   C1A 9441   9.976   2.170   6.897 -0.2996 -0.2301 -0.2889
  651YOPC   D2A 9442   9.911   1.805   7.101 -0.0303 -0.1856  0.2529
  651YOPC   C3A 9443   9.592   1.882   7.428  0.0398 -0.0460  0.0760
  651YOPC   C4A 9444   9.224   1.689   7.551  0.0228 -0.1677 -0.0023
  651YOPC   C1B 9445   9.564   2.837   6.686  0.0254  0.1518  0.1394
  651YOPC   C2B 9446   9.675   2.994   6.973 -0.0072  0.0078  0.0580
  651YOPC   D3B 9447  10.044   2.970   7.360  0.1136  0.0758 -0.2757
  651YOPC   C4B 9448  10.348   3.244   7.634 -0.2057 -0.1291 -0.1353
  652YOPC   NC3 9449   4.452   7.520   6.597 -0.0088 -0.2219  0.1874
  652YOPC   PO4 9450   4.255   7.935   6.700  0.1466 -0.2607  0.2113
  652YOPC   GL1 9451   4.145   7.733   6.914  0.2173  0.4030 -0.1239
  652YOPC   GL2 9452   3.964   7.431   6.951  0.2523 -0.0110  0.3951
  652YOPC   C1A 9453   4.267   7.795   7.353 -0.1052 -0.3324 -0.2434
  652YOPC   D2A 9454   4.083   8.027   7.682 -0.0176 -0.1832 -0.0980
  652YOPC   C3A 9455   4.197   7.841   8.135  0.1848 -0.1554 -0.1155
  652YOPC   C4A 9456   4.309   8.013   8.678  0.1023 -0.0168 -0.1815
  652YOPC   C1B 9457   3.832   7.416   7.354 -0.1318  0.2752  0.2452
  652YOPC   C2B 9458   3.938   7.540   7.718 -0.1313  0.0702 -0.2215
  652YOPC   D3B 9459   4.028   7.242   8.059  0.0694 -0.0413 -0.0406
  652YOPC   C4B 9460   4.285   7.010   7.911  0.0957 -0.0802 -0.1999
  653YOPC   NC3 9461  11.676  14.792   6.631  0.0514  0.0278  0.3519
  653YOPC   PO4 9462  11.637  15.221   6.727 -0.3222  0.1194 -0.1027
  653YOPC   GL1 9463  11.713  15.080   7.074 -0.1555 -0.0115  0.0287
  653YOPC   GL2 9464  11.516  14.800   7.129 -0.0850  0.0233  0.0165
  653YOPC   C1A 9465  11.999  15.125   7.393 -0.0618 -0.0374  0.1073
  653YOPC   D2A 9466  12.020  15.159   7.744  0.3892  0.0079 -0.1627
  653YOPC   C3A 9467  11.970  15.535   8.013 -0.1029 -0.2445 -0.1775
  653YOPC   C4A 9468  11.743  15.924   8.256 -0.2156 -0.0626 -0.4372
  653YOPC   C1B 9469  11.708  14.738   7.571  0.1535 -0.1265  0.3364
  653YOPC   C2B 9470  11.850  14.729   7.988 -0.0630 -0.1161 -0.0066
  653YOPC   D3B 9471  12.178  14.456   8.296 -0.2048 -0.1883  0.1331
  653YOPC   C4B 9472  12.503  14.265   8.552  0.0595 -0.1082 -0.0572
  654YOPC   NC3 9473   1.289   8.259   6.289 -0.0616  0.2061  0.1358
  654YOPC   PO4 9474   1.004   8.005   6.461  0.0349  0.0259  0.0899
  654YOPC   GL1 9475   0.976   7.911   6.839 -0.1739 -0.0097  0.0126
  654YOPC   GL2 9476   0.965   7.599   6.902 -0.0691  0.0218  0.4639
  654YOPC   C1A 9477   1.162   8.052   7.204 -0.0684 -0.1965  0.1918
  654YOPC   D2A 9478   1.316   8.226   7.578  0.0107  0.0293  0.1475
  654YOPC   C3A 9479   1.289   7.924   7.897 -0.2157 -0.1554  0.3422
  654YOPC   C4A 9480   1.281   7.847   8.231 -0.0562  0.0065  0.0212
  654YOPC   C1B 9481   1.057   7.473   7.343  0.0561  0.4351 -0.1096
  654YOPC   C2B 9482   1.185   7.441   7.705 -0.1449  0.2664  0.1434
  654YOPC   D3B 9483   1.287   7.083   7.864 -0.0708  0.1542 -0.1600
  654YOPC   C4B 9484   1.196   6.814   8.209  0.0132 -0.0144 -0.0993
  655YOPC   NC3 9485   6.543   3.732   6.364  0.3274  0.1229  0.0427
  655YOPC   PO4 9486   6.153   4.001   6.444  0.3831  0.3425  0.2891
  655YOPC   GL1 9487   6.370   3.902   6.815  0.1666 -0.3608 -0.0742
  655YOPC   GL2 9488   6.600   3.615   6.866  0.1870  0.2579 -0.1911
  655YOPC   C1A 9489   6.369   3.982   7.278 -0.0723 -0.0716  0.0812
  655YOPC   D2A 9490   6.384   3.922   7.593  0.5220  0.2183  0.0214
  655YOPC   C3A 9491   6.212   4.140   8.011  0.1950  0.1322  0.1948
  655YOPC   C4A 9492   5.846   4.142   8.197  0.1867 -0.0307 -0.2845
  655YOPC   C1B 9493   6.226   3.533   7.097  0.1374 -0.0297 -0.0968
  655YOPC   C2B 9494   6.145   3.447   7.566  0.0844  0.1327  0.0164
  655YOPC   D3B 9495   6.221   3.642   7.987 -0.0018  0.0942  0.0889
  655YOPC   C4B 9496   6.204   3.878   8.408 -0.0511 -0.1527 -0.2525
  656YOPC   NC3 9497   7.744   9.208   6.611  0.1014 -0.1942 -0.3700
  656YOPC   PO4 9498   8.126   9.152   6.893 -0.2713 -0.1675 -0.3793
  656YOPC   GL1 9499   8.201   8.832   7.164 -0.0222  0.2369  0.1113
  656YOPC   GL2 9500   8.007   8.936   7.376 -0.3654 -0.0272 -0.3471
  656YOPC   C1A 9501   8.250   8.444   7.431  0.1216  0.2525 -0.0410
  656YOPC   D2A 9502   8.031   8.082   7.655  0.1124 -0.3571  0.2122
  656YOPC   C3A 9503   7.925   8.108   8.073 -0.0211  0.0151 -0.0360
  656YOPC   C4A 9504   7.768   8.249   8.473 -0.0051  0.0309 -0.1289
  656YOPC   C1B 9505   8.164   8.920   7.685  0.0352  0.0452 -0.2899
  656YOPC   C2B 9506   8.404   8.957   8.042 -0.2038 -0.2619 -0.0366
  656YOPC   D3B 9507   8.550   9.081   8.408  0.1818 -0.2462  0.0677
  656YOPC   C4B 9508   8.510   9.240   8.792 -0.0604  0.1371  0.0063
  657YOPC   NC3 9509   7.601  15.427   6.125  0.1767  0.0033  0.0435
  657YOPC   PO4 9510   7.364  15.191   6.430  0.1954  0.1120 -0.2703
  657YOPC   GL1 9511   7.131  15.179   6.901 -0.0990 -0.0869 -0.0468
  657YOPC   GL2 9512   7.172  14.888   7.008  0.3007 -0.0114 -0.2198
  657YOPC   C1A 9513   6.777  15.139   7.168 -0.0284 -0.2308 -0.2070
  657YOPC   D2A 9514   6.550  15.055   7.435  0.1698  0.1090 -0.0724
  657YOPC   C3A 9515   6.391  15.067   7.762 -0.2458  0.1792 -0.1874
  657YOPC   C4A 9516   6.556  15.274   8.065 -0.0073  0.1464  0.4652
  657YOPC   C1B 9517   7.173  15.191   7.466  0.0446 -0.3531  0.1154
  657YOPC   C2B 9518   6.877  15.515   7.800  0.1725 -0.1282 -0.2807
  657YOPC   D3B 9519   6.997  15.612   8.111  0.0978  0.2152 -0.0333
  657YOPC   C4B 9520   7.474  15.725   8.281 -0.0019 -0.0896 -0.2709
  658YOPC   NC3 9521   4.053  11.603   6.140  0.1493 -0.0912 -0.2109
  658YOPC   PO4 9522   3.746  11.846   6.445  0.2362  0.4039  0.1389
  658YOPC   GL1 9523   3.899  11.888   6.874 -0.0367  0.0225 -0.2897
  658YOPC   GL2 9524   4.175  12.050   7.061  0.0340  0.1472  0.1095
  658YOPC   C1A 9525   3.808  11.925   7.371  0.0850  0.2894 -0.5278
  658YOPC   D2A 9526   3.923  11.735   7.803  0.0931 -0.0971 -0.0324
  658YOPC   C3A 9527   4.127  11.833   8.143 -0.1433  0.3936  0.0485
  658YOPC   C4A 9528   4.438  11.915   8.309  0.0485 -0.3313 -0.1841
  658YOPC   C1B 9529   4.345  12.056   7.464 -0.1748 -0.3670 -0.0811
  658YOPC   C2B 9530   4.484  12.072   7.849  0.1983  0.1859 -0.0131
  658YOPC   D3B 9531   4.652  11.804   7.887  0.0685  0.0153  0.3443
  658YOPC   C4B 9532   4.983  11.483   7.958  0.3256 -0.0406 -0.4866
  659ERGO   ROH 9533  10.141   8.274   7.718 -0.1250 -0.1038  0.0674
  659ERGO    R1 9534  10.003   8.385   7.938 -0.1681 -0.0803  0.0301
  659ERGO    R2 9535   9.909   8.231   8.147 -0.0019 -0.0333  0.1486
  659ERGO    R3 9536  10.053   8.406   8.298 -0.1039  0.1755  0.0064
  659ERGO    R4 9537   9.865   8.283   8.486  0.2645 -0.0976  0.1949
  659ERGO    R5 9538   9.894   8.497   8.452 -0.0797 -0.0563  0.1653
  659ERGO    C1 9539   9.974   8.478   8.825  0.3236  0.0612  0.0883
  659ERGO    C2 9540  10.145   8.691   9.153 -0.2197 -0.0708  0.1579
  660ERGO   ROH 9541   7.239   2.906   6.806  0.0203 -0.0017  0.0816
  660ERGO    R1 9542   7.121   2.908   7.063 -0.2300  0.2980 -0.0270
  660ERGO    R2 9543   7.266   2.863   7.294 -0.5807 -0.3299  0.1054
  660ERGO    R3 9544   7.158   3.101   7.370  0.1781  0.0519  0.0829
  660ERGO    R4 9545   7.215   2.962   7.621 -0.6412 -0.3013  0.0862
  660ERGO    R5 9546   7.024   3.047   7.560 -0.2737  0.4368 -0.1156
  660ERGO    C1 9547   7.083   3.242   7.883  0.0359  0.0736  0.0538
  660ERGO    C2 9548   6.944   3.266   8.147 -0.2639 -0.1006  0.0932
  661ERGO   ROH 9549   1.276   2.226   6.422 -0.1805  0.0118  0.0474
  661ERGO    R1 9550   1.368   2.276   6.685 -0.2433 -0.0219  0.0755
  661ERGO    R2 9551   1.196   2.323   6.897 -0.2969 -0.1632  0.0623
  661ERGO    R3 9552   1.334   2.119   7.011 -0.2192 -0.1328  0.0254
  661ERGO    R4 9553   1.152   2.212   7.221 -0.2212 -0.2078  0.0583
  661ERGO    R5 9554   1.367   2.189   7.238 -0.2109 -0.1435  0.0282
  661ERGO    C1 9555   1.255   1.955   7.517 -0.1040 -0.2053  0.0213
  661ERGO    C2 9556   1.343   1.948   7.772  0.1738 -0.2934  0.0000
  662ERGO   ROH 9557   4.753   3.087   6.798  0.1118  0.2237 -0.1950
  662ERGO    R1 9558   4.572   3.148   7.008  0.0407  0.0533 -0.2058
  662ERGO    R2 9559   4.398   2.961   7.113  0.2275 -0.1187 -0.2013
  662ERGO    R3 9560   4.514   3.034   7.348  0.1441  0.0155 -0.1998
  662ERGO    R4 9561   4.291   2.861   7.427  0.2796 -0.1641 -0.1974
  662ERGO    R5 9562   4.331   3.062   7.499  0.1023 -0.1169 -0.2224
  662ERGO    C1 9563   4.338   2.871   7.829  0.2318 -0.0645 -0.1936
  662ERGO    C2 9564   4.409   2.542   8.010 -0.0554  0.0185 -0.0860
  663ERGO   ROH 9565   4.657  12.057   6.996  0.3726  0.0768 -0.1591
  663ERGO    R1 9566   4.849  12.120   7.194  0.2160 -0.0106  0.0255
  663ERGO    R2 9567   4.824  12.338   7.361  0.1285 -0.0299  0.0405
  663ERGO    R3 9568   4.856  12.151   7.556 -0.1007 -0.0724  0.0392
  663ERGO    R4 9569   4.869  12.409   7.697  0.3686 -0.0801  0.0205
  663ERGO    R5 9570   5.017  12.248   7.705  0.1149 -0.3211 -0.0257
  663ERGO    C1 9571   4.925  12.274   8.075  0.2933 -0.1492  0.0075
  663ERGO    C2 9572   4.861  12.262   8.368  0.0901 -0.0053  0.1793
  664ERGO   ROH 9573   3.841   8.915   7.239 -0.0134  0.1925  0.0044
  664ERGO    R1 9574   3.921   9.064   7.466 -0.2703  0.1008  0.1583
  664ERGO    R2 9575   3.847   8.994   7.723 -0.0950 -0.3375  0.0958
  664ERGO    R3 9576   4.115   9.003   7.768 -0.0952  0.1431  0.0560
  664ERGO    R4 9577   3.996   9.121   8.008 -0.2943 -0.2439  0.1606
  664ERGO    R5 9578   4.150   9.210   7.882 -0.4758  0.1408  0.1939
  664ERGO    C1 9579   4.335   9.203   8.215 -0.4106  0.2616  0.1611
  664ERGO    C2 9580   4.345   8.989   8.477  0.1439 -0.1342 -0.0086
  665ERGO   ROH 9581   1.789   6.861   6.682  0.0643 -0.2684 -0.0091
  665ERGO    R1 9582   1.794   6.815   6.961 -0.1074 -0.0320  0.0357
  665ERGO    R2 9583   1.956   6.625   7.078 -0.3265 -0.0768  0.2764
  665ERGO    R3 9584   2.039   6.835   7.229 -0.2137 -0.0167  0.1333
  665ERGO    R4 9585   2.082   6.599   7.399 -0.2513  0.0644  0.2587
  665ERGO    R5 9586   1.970   6.779   7.451 -0.1756  0.1351  0.1849
  665ERGO    C1 9587   2.234   6.782   7.727 -0.1015  0.2030  0.1141
  665ERGO    C2 9588   2.551   6.735   8.042  0.2403  0.1666  0.0601
  666ERGO   ROH 9589   7.094  17.952   6.974 -0.0856 -0.0669  0.0654
  666ERGO    R1 9590   7.122  17.791   7.205 -0.1625 -0.0410  0.0925
  666ERGO    R2 9591   7.328  17.608   7.235 -0.2431 -0.1225  0.1289
  666ERGO    R3 9592   7.372  17.745   7.466 -0.1914 -0.1062  0.1101
  666ERGO    R4 9593   7.425  17.465   7.534 -0.0988 -0.0979  0.0949
  666ERGO    R5 9594   7.289  17.600   7.638 -0.0959 -0.1264  0.1432
  666ERGO    C1 9595   7.523  17.510   7.925  0.0338 -0.0681  0.0576
  666ERGO    C2 9596   7.538  17.456   8.296  0.0361 -0.2222  0.1635
  667ERGO   ROH 9597   1.169   6.111   6.906 -0.0889  0.1652 -0.0869
  667ERGO    R1 9598   1.120   6.085   7.184 -0.2119  0.3250 -0.0921
  667ERGO    R2 9599   1.317   6.012   7.363 -0.3863  0.0083 -0.0239
  667ERGO    R3 9600   1.242   6.240   7.490 -0.0041  0.1868 -0.1020
  667ERGO    R4 9601   1.408   6.098   7.685 -0.2382 -0.0305 -0.0542
  667ERGO    R5 9602   1.206   6.173   7.717 -0.1187  0.3237 -0.0774
  667ERGO    C1 9603   1.390   6.363   7.992  0.2068  0.1144 -0.1450
  667ERGO    C2 9604   1.608   6.328   8.283  0.1073 -0.2142 -0.2184
  668ERGO   ROH 9605   8.660   9.059   7.313  0.3786  0.1144 -0.1532
  668ERGO    R1 9606   8.823   9.145   7.528  0.1102  0.0047  0.1003
  668ERGO    R2 9607   8.818   9.403   7.625  0.0947 -0.0106  0.1232
  668ERGO    R3 9608   8.772   9.278   7.863 -0.3102 -0.0158  0.0508
  668ERGO    R4 9609   8.835   9.555   7.936  0.3173 -0.1733  0.1938
  668ERGO    R5 9610   8.931   9.375   8.013 -0.1344 -0.4488  0.1649
  668ERGO    C1 9611   8.802   9.526   8.339  0.0670 -0.2729  0.1668
  668ERGO    C2 9612   8.862   9.705   8.605 -0.3045 -0.2369 -0.1114
  669ERGO   ROH 9613   8.321   2.254   6.325  0.0582  0.1473 -0.0303
  669ERGO    R1 9614   8.463   2.207   6.566  0.1136  0.1698 -0.0562
  669ERGO    R2 9615   8.518   2.408   6.747 -0.0199  0.1554  0.0141
  669ERGO    R3 9616   8.396   2.240   6.922  0.1125  0.0012 -0.0422
  669ERGO    R4 9617   8.590   2.387   7.084 -0.0676  0.1500  0.0223
  669ERGO    R5 9618   8.570   2.171   7.070  0.1457  0.1391 -0.0245
  669ERGO    C1 9619   8.517   2.217   7.445  0.0291  0.0020 -0.0258
  669ERGO    C2 9620   8.536   2.146   7.846 -0.3428  0.0958  0.0354
  670ERGO   ROH 9621   6.387   5.652   7.099  0.0660 -0.2661 -0.0425
  670ERGO    R1 9622   6.247   5.583   7.335  0.1750 -0.1372  0.0612
  670ERGO    R2 9623   6.022   5.423   7.334  0.0019  0.0971  0.2217
  670ERGO    R3 9624   6.165   5.277   7.514 -0.0088 -0.0666  0.0999
  670ERGO    R4 9625   5.917   5.125   7.474 -0.1732  0.1601  0.2268
  670ERGO    R5 9626   5.999   5.191   7.664  0.0103  0.0495  0.1889
  670ERGO    C1 9627   5.989   4.814   7.724 -0.2852  0.0433  0.1155
  670ERGO    C2 9628   6.044   4.612   7.994 -0.1303 -0.2318  0.0517
  671ERGO   ROH 9629   5.667  16.848   6.760  0.0990  0.0733 -0.1322
  671ERGO    R1 9630   5.863  16.886   6.961  0.1453  0.1401 -0.1858
  671ERGO    R2 9631   5.902  17.130   7.086  0.0040  0.1293 -0.0905
  671ERGO    R3 9632   5.866  16.982   7.312  0.1883 -0.0054 -0.1493
  671ERGO    R4 9633   6.013  17.219   7.401 -0.2186  0.1867 -0.0293
  671ERGO    R5 9634   6.068  17.011   7.436  0.1045  0.2717 -0.0886
  671ERGO    C1 9635   6.043  17.132   7.796 -0.1752  0.0941 -0.0489
  671ERGO    C2 9636   6.159  17.307   8.155 -0.4045 -0.1416 -0.1078
  672ERGO   ROH 9637   4.494   0.196   6.810  0.2157  0.0808 -0.1349
  672ERGO    R1 9638   4.620   0.007   6.978  0.2179  0.0779 -0.1408
  672ERGO    R2 9639   4.837   0.071   7.138  0.0932  0.1246  0.0056
  672ERGO    R3 9640   4.680  -0.031   7.335  0.0373 -0.0383 -0.1205
  672ERGO    R4 9641   4.944  -0.003   7.458 -0.0028 -0.0704 -0.0053
  672ERGO    R5 9642   4.823  -0.184   7.452  0.0281 -0.0935 -0.1732
  672ERGO    C1 9643   4.860  -0.142   7.829 -0.1113 -0.3368 -0.1301
  672ERGO    C2 9644   4.877  -0.104   8.193  0.0236 -0.1711 -0.1932
  673ERGO   ROH 9645   8.684  15.279   6.904  0.0535  0.1091  0.0286
  673ERGO    R1 9646   8.580  15.319   7.164  0.0361  0.0529  0.0304
  673ERGO    R2 9647   8.601  15.129   7.364  0.0718  0.0322  0.0069
  673ERGO    R3 9648   8.713  15.335   7.502  0.0218  0.0395  0.0367
  673ERGO    R4 9649   8.725  15.106   7.685 -0.0299  0.0450  0.0476
  673ERGO    R5 9650   8.639  15.302   7.727 -0.0492  0.0438  0.0144
  673ERGO    C1 9651   8.903  15.286   8.003 -0.1361  0.0593  0.0992
  673ERGO    C2 9652   9.149  15.269   8.100 -0.0229  0.0622  0.1218
  674ERGO   ROH 9653   9.220   5.286   7.198 -0.0033  0.0432  0.1241
  674ERGO    R1 9654   9.191   5.362   7.469  0.0200 -0.1213  0.1744
  674ERGO    R2 9655   8.950   5.445   7.575  0.1006  0.1472  0.1571
  674ERGO    R3 9656   8.998   5.249   7.757 -0.2400 -0.0684  0.0240
  674ERGO    R4 9657   8.813   5.432   7.892  0.2103  0.2680  0.2105
  674ERGO    R5 9658   9.006   5.364   7.967  0.1052 -0.1969  0.0874
  674ERGO    C1 9659   8.778   5.240   8.247 -0.0453  0.1359  0.1165
  674ERGO    C2 9660   8.649   5.004   8.470  0.0929  0.1321 -0.0136
  675ERGO   ROH 9661   9.157  14.368   7.263 -0.0083 -0.1127 -0.0013
  675ERGO    R1 9662   8.946  14.335   7.448 -0.0479  0.0748 -0.0114
  675ERGO    R2 9663   8.924  14.113   7.610 -0.2857  0.0646 -0.0570
  675ERGO    R3 9664   8.913  14.298   7.809 -0.0927  0.0375 -0.0187
  675ERGO    R4 9665   8.923  14.040   7.948 -0.0305  0.0110 -0.0656
  675ERGO    R5 9666   8.775  14.198   7.976  0.0197  0.0367  0.0767
  675ERGO    C1 9667   8.913  14.172   8.331  0.2993 -0.0458 -0.0348
  675ERGO    C2 9668   9.008  14.049   8.652  0.3287  0.0222  0.1460
  676ERGO   ROH 9669   8.527  12.839   7.257  0.1257 -0.2453  0.0557
  676ERGO    R1 9670   8.345  12.906   7.462  0.0167 -0.3505 -0.0102
  676ERGO    R2 9671   8.317  12.755   7.691  0.3692 -0.1121  0.1764
  676ERGO    R3 9672   8.365  12.992   7.816 -0.1117  0.1581 -0.1124
  676ERGO    R4 9673   8.210  12.834   8.011  0.7410 -0.2435  0.3416
  676ERGO    R5 9674   8.163  13.035   7.939 -0.0480 -0.4028  0.2564
  676ERGO    C1 9675   8.194  13.103   8.313  0.5059 -0.0663  0.1668
  676ERGO    C2 9676   8.051  13.083   8.622 -0.2674 -0.0619 -0.1484
  677ERGO   ROH 9677   9.966   9.064   7.266 -0.0143  0.1004 -0.2688
  677ERGO    R1 9678   9.904   9.031   7.540 -0.1055  0.1954 -0.2775
  677ERGO    R2 9679  10.055   8.873   7.709 -0.3765 -0.0516 -0.2576
  677ERGO    R3 9680  10.068   9.099   7.858 -0.0350 -0.0660 -0.2559
  677ERGO    R4 9681  10.073   8.881   8.054 -0.2469 -0.0739 -0.2631
  677ERGO    R5 9682   9.936   9.050   8.052 -0.0320  0.1028 -0.2119
  677ERGO    C1 9683  10.096   9.099   8.395  0.1492 -0.1003 -0.2647
  677ERGO    C2 9684  10.251   8.890   8.706 -0.0816 -0.0794 -0.1042
  678ERGO   ROH 9685   2.227   4.495   7.144  0.2474 -0.1579  0.0316
  678ERGO    R1 9686   2.343   4.671   7.333  0.0299 -0.0898  0.1060
  678ERGO    R2 9687   2.234   4.711   7.585 -0.0023 -0.3648  0.1446
  678ERGO    R3 9688   2.484   4.643   7.668  0.1074 -0.0692  0.0749
  678ERGO    R4 9689   2.388   4.833   7.869 -0.0349 -0.1365  0.0648
  678ERGO    R5 9690   2.574   4.846   7.757 -0.0861  0.0497  0.0005
  678ERGO    C1 9691   2.712   4.841   8.112  0.0491  0.2741 -0.0470
  678ERGO    C2 9692   2.864   4.740   8.360  0.0882  0.1631 -0.6024
  679ERGO   ROH 9693   0.578  14.981   6.624 -0.1905 -0.1947 -0.0172
  679ERGO    R1 9694   0.714  14.973   6.872  0.0429 -0.0186 -0.1338
  679ERGO    R2 9695   0.817  15.199   6.993 -0.2090  0.1366 -0.1896
  679ERGO    R3 9696   0.667  15.115   7.204  0.0977 -0.1419 -0.0739
  679ERGO    R4 9697   0.838  15.326   7.314 -0.1640  0.1274 -0.1896
  679ERGO    R5 9698   0.816  15.123   7.390  0.2354  0.0810 -0.1936
  679ERGO    C1 9699   0.709  15.321   7.698  0.1502 -0.1395 -0.0811
  679ERGO    C2 9700   0.673  15.380   8.092  0.0694 -0.0494  0.0278
  680ERGO   ROH 9701   5.644   2.324   6.881 -0.2798  0.5042 -0.0073
  680ERGO    R1 9702   5.688   2.233   7.146 -0.2403  0.4408 -0.0349
  680ERGO    R2 9703   5.648   2.395   7.366 -0.3452  0.3456  0.0186
  680ERGO    R3 9704   5.488   2.191   7.447 -0.2315  0.2244 -0.0586
  680ERGO    R4 9705   5.607   2.294   7.695 -0.1210  0.0509 -0.0391
  680ERGO    R5 9706   5.609   2.087   7.626 -0.0932  0.1093 -0.2165
  680ERGO    C1 9707   5.432   2.044   7.961  0.1164 -0.2344 -0.1451
  680ERGO    C2 9708   5.347   2.020   8.310  0.1586 -0.1855  0.2672
  681ERGO   ROH 9709  10.366  12.054   7.427  0.3456  0.1885  0.1211
  681ERGO    R1 9710  10.217  12.082   7.666  0.2049  0.1412  0.0396
  681ERGO    R2 9711  10.279  11.944   7.898  0.1017  0.1367  0.0622
  681ERGO    R3 9712  10.282  12.192   8.007 -0.0101  0.1287  0.0867
  681ERGO    R4 9713  10.124  12.031   8.193  0.1699  0.0029  0.1392
  681ERGO    R5 9714  10.064  12.219   8.101  0.0094 -0.0226  0.1831
  681ERGO    C1 9715  10.036  12.316   8.469  0.1047 -0.0826  0.2071
  681ERGO    C2 9716   9.833  12.476   8.716 -0.0708  0.1937  0.0231
  682ERGO   ROH 9717  10.036   9.953   7.599  0.1205 -0.0840 -0.1295
  682ERGO    R1 9718  10.047   9.922   7.880  0.1385 -0.0499 -0.1265
  682ERGO    R2 9719  10.028  10.135   8.054 -0.0329 -0.0476 -0.1463
  682ERGO    R3 9720   9.827   9.988   8.163  0.0788 -0.1964 -0.1373
  682ERGO    R4 9721  10.011  10.039   8.386  0.1532 -0.2331 -0.1882
  682ERGO    R5 9722   9.937   9.845   8.320  0.2122 -0.2326 -0.2604
  682ERGO    C1 9723   9.812   9.845   8.681  0.3664 -0.4807 -0.2041
  682ERGO    C2 9724   9.769   9.868   9.071 -0.2503  0.1965  0.1299
  683ERGO   ROH 9725   8.356   5.057   6.861 -0.0023  0.0535 -0.0399
  683ERGO    R1 9726   8.490   5.003   7.104  0.0011 -0.0394 -0.0631
  683ERGO    R2 9727   8.690   4.813   7.125  0.1410  0.0982 -0.1875
  683ERGO    R3 9728   8.833   5.020   7.227 -0.0297  0.1244  0.0062
  683ERGO    R4 9729   8.968   4.780   7.326  0.1636  0.1282 -0.2126
  683ERGO    R5 9730   8.895   4.947   7.446  0.0218 -0.0349 -0.0559
  683ERGO    C1 9731   9.265   4.955   7.540  0.0165  0.1702 -0.0454
  683ERGO    C2 9732   9.443   4.755   7.721 -0.1619  0.3201  0.1156
  684ERGO   ROH 9733   5.713   1.219   6.713 -0.1975 -0.0442  0.0735
  684ERGO    R1 9734   5.814   1.298   6.966 -0.1490 -0.0104  0.0441
  684ERGO    R2 9735   5.736   1.177   7.202 -0.1118  0.0273  0.0785
  684ERGO    R3 9736   6.003   1.142   7.235 -0.1075  0.0212  0.0324
  684ERGO    R4 9737   5.886   1.065   7.492 -0.0381  0.2873  0.1435
  684ERGO    R5 9738   6.045   1.210   7.461 -0.0276  0.2340 -0.0459
  684ERGO    C1 9739   6.225   0.966   7.692  0.0090  0.4331  0.1382
  684ERGO    C2 9740   6.282   0.912   8.105 -0.0623  0.0442 -0.0807
  685ERGO   ROH 9741   0.586  11.689   6.876  0.2743 -0.0870 -0.0314
  685ERGO    R1 9742   0.424  11.805   7.077  0.4578  0.1058  0.0088
  685ERGO    R2 9743   0.243  11.657   7.226  0.0006  0.3869 -0.2525
  685ERGO    R3 9744   0.378  11.763   7.436  0.1715 -0.1831 -0.0546
  685ERGO    R4 9745   0.110  11.709   7.541 -0.0679  0.4182 -0.2858
  685ERGO    R5 9746   0.216  11.899   7.549  0.4487  0.1459 -0.0273
  685ERGO    C1 9747   0.160  11.839   7.922  0.0527 -0.0985 -0.1193
  685ERGO    C2 9748   0.145  11.569   8.277 -0.1164 -0.2529 -0.1542
  686ERGO   ROH 9749   9.336  11.430   7.210 -0.0832 -0.1160 -0.0256
  686ERGO    R1 9750   9.292  11.438   7.489  0.0616  0.1229 -0.0078
  686ERGO    R2 9751   9.286  11.210   7.645 -0.2564  0.2216  0.1238
  686ERGO    R3 9752   9.476  11.342   7.788  0.0415 -0.0185 -0.0389
  686ERGO    R4 9753   9.345  11.166   7.983 -0.0514  0.1701  0.0831
  686ERGO    R5 9754   9.373  11.381   8.001  0.2568  0.1415  0.0427
  686ERGO    C1 9755   9.557  11.263   8.314  0.3478 -0.0855 -0.0932
  686ERGO    C2 9756   9.666  11.025   8.600  0.0223 -0.2012 -0.1436
  687ERGO   ROH 9757   0.881  14.614   6.626  0.0061  0.1650 -0.0602
  687ERGO    R1 9758   0.857  14.531   6.896 -0.1505  0.0680 -0.1026
  687ERGO    R2 9759   1.024  14.625   7.096 -0.1198 -0.1769 -0.0132
  687ERGO    R3 9760   0.790  14.691   7.216 -0.0936 -0.0086 -0.0511
  687ERGO    R4 9761   0.983  14.672   7.436 -0.1689 -0.3148  0.0006
  687ERGO    R5 9762   0.792  14.569   7.422 -0.2718 -0.1227 -0.1123
  687ERGO    C1 9763   0.738  14.761   7.746 -0.1729 -0.2370 -0.0268
  687ERGO    C2 9764   0.637  14.783   7.966 -0.0284  0.3836 -0.0664
  688ERGO   ROH 9765   2.119  15.486   6.801  0.0063  0.2246  0.2026
  688ERGO    R1 9766   2.035  15.361   7.041  0.1711  0.1037  0.1995
  688ERGO    R2 9767   2.100  15.459   7.291 -0.0998  0.2864  0.2047
  688ERGO    R3 9768   1.831  15.450   7.329 -0.1055 -0.2334  0.1138
  688ERGO    R4 9769   1.945  15.399   7.594 -0.0721  0.5566  0.2748
  688ERGO    R5 9770   1.799  15.275   7.489  0.2309  0.0092  0.4609
  688ERGO    C1 9771   1.603  15.355   7.806 -0.0614  0.2261  0.2302
  688ERGO    C2 9772   1.538  15.398   8.089 -0.1394  0.2733 -0.0584
  689ERGO   ROH 9773   4.987   5.967   6.999  0.0161 -0.0997  0.0306
  689ERGO    R1 9774   5.126   5.927   7.242 -0.0283  0.1295  0.0957
  689ERGO    R2 9775   5.046   6.045   7.479 -0.3529 -0.0198  0.0688
  689ERGO    R3 9776   5.051   5.788   7.570  0.0533 -0.0260  0.0487
  689ERGO    R4 9777   5.084   5.953   7.811 -0.2628  0.0094  0.0667
  689ERGO    R5 9778   5.214   5.790   7.746  0.0197  0.2265  0.0777
  689ERGO    C1 9779   5.110   5.659   8.089  0.1711  0.0206  0.0465
  689ERGO    C2 9780   5.164   5.530   8.458 -0.1299 -0.3397  0.1602
  690ERGO   ROH 9781   6.548   1.969   6.989 -0.1027 -0.0634  0.0537
  690ERGO    R1 9782   6.653   2.037   7.243 -0.0664 -0.1240  0.0536
  690ERGO    R2 9783   6.574   2.263   7.380  0.0710 -0.0798  0.0436
  690ERGO    R3 9784   6.521   2.086   7.579 -0.0392 -0.0378  0.0549
  690ERGO    R4 9785   6.557   2.343   7.716  0.4648 -0.0875  0.0711
  690ERGO    R5 9786   6.662   2.157   7.761  0.2270 -0.2659 -0.0444
  690ERGO    C1 9787   6.498   2.223   8.099  0.5906 -0.0525  0.0977
  690ERGO    C2 9788   6.286   2.354   8.321  0.2838 -0.2244 -0.1254
  691ERGO   ROH 9789   1.456  16.055   6.422  0.0076  0.0702  0.1227
  691ERGO    R1 9790   1.368  16.189   6.655  0.1249  0.0904  0.1560
  691ERGO    R2 9791   1.168  16.089   6.817  0.0412  0.2215  0.1346
  691ERGO    R3 9792   1.355  16.118   7.012  0.0702  0.0152  0.1394
  691ERGO    R4 9793   1.105  16.069   7.157  0.0503  0.0862  0.1287
  691ERGO    R5 9794   1.242  16.236   7.187  0.1486 -0.0072  0.2058
  691ERGO    C1 9795   1.244  16.084   7.537  0.0828 -0.1863  0.1298
  691ERGO    C2 9796   1.108  16.133   7.935 -0.0378 -0.1165  0.1892
  692ERGO   ROH 9797   2.507  11.986   6.798  0.0116 -0.0241  0.1058
  692ERGO    R1 9798   2.454  12.010   7.075  0.0108  0.0162  0.1034
  692ERGO    R2 9799   2.205  11.957   7.183  0.0064  0.0326  0.1128
  692ERGO    R3 9800   2.347  11.788   7.343  0.0082  0.0540  0.1320
  692ERGO    R4 9801   2.092  11.827   7.483 -0.0532 -0.0729  0.0439
  692ERGO    R5 9802   2.291  11.857   7.566 -0.0992 -0.0155  0.1240
  692ERGO    C1 9803   2.159  11.593   7.807 -0.0863 -0.1143  0.0219
  692ERGO    C2 9804   1.988  11.265   8.041 -0.1468 -0.0581  0.0737
  693ERGO   ROH 9805   4.663   5.533   7.057 -0.0590 -0.2129  0.1042
  693ERGO    R1 9806   4.656   5.685   7.296  0.1597 -0.2100  0.1106
  693ERGO    R2 9807   4.448   5.668   7.476  0.0177  0.2460 -0.0030
  693ERGO    R3 9808   4.648   5.616   7.653 -0.1857 -0.2238  0.1043
  693ERGO    R4 9809   4.452   5.774   7.805  0.1755  0.4373 -0.0646
  693ERGO    R5 9810   4.665   5.816   7.783  0.3276 -0.1764 -0.0112
  693ERGO    C1 9811   4.643   5.786   8.163  0.0765  0.1076  0.0003
  693ERGO    C2 9812   4.689   5.636   8.457  0.2673 -0.2514 -0.2553
  694ERGO   ROH 9813  10.245  11.049   7.471  0.0072 -0.0922 -0.0152
  694ERGO    R1 9814  10.379  11.118   7.711  0.0407 -0.0305 -0.0511
  694ERGO    R2 9815  10.287  11.041   7.960  0.0681  0.0444 -0.0167
  694ERGO    R3 9816  10.538  10.939   7.985  0.0662  0.0392 -0.0205
  694ERGO    R4 9817  10.465  11.023   8.256  0.1069  0.1182 -0.0354
  694ERGO    R5 9818  10.644  11.081   8.146  0.0947  0.0784 -0.0744
  694ERGO    C1 9819  10.803  10.917   8.452  0.1276  0.1562 -0.0499
  694ERGO    C2 9820  10.969  11.000   8.621 -0.1517 -0.0229  0.0945
  695ERGO   ROH 9821   5.847   6.597   6.865 -0.0871 -0.0190 -0.0640
  695ERGO    R1 9822   5.659   6.536   7.068 -0.1227 -0.0168 -0.0953
  695ERGO    R2 9823   5.578   6.278   7.123 -0.1181 -0.0200 -0.0928
  695ERGO    R3 9824   5.656   6.341   7.375 -0.1681  0.0036 -0.0835
  695ERGO    R4 9825   5.506   6.092   7.405 -0.0590 -0.0617 -0.1056
  695ERGO    R5 9826   5.471   6.278   7.513 -0.1500 -0.0831 -0.1014
  695ERGO    C1 9827   5.538   6.043   7.806 -0.0716 -0.0638 -0.1044
  695ERGO    C2 9828   5.681   5.914   8.058  0.1790  0.0532 -0.2525
  696ERGO   ROH 9829   2.397  16.892   7.125 -0.0199 -0.3347 -0.0668
  696ERGO    R1 9830   2.292  16.773   7.359 -0.0650 -0.1266  0.0199
  696ERGO    R2 9831   2.294  16.900   7.604 -0.0291  0.0544 -0.0772
  696ERGO    R3 9832   2.028  16.848   7.598 -0.0473  0.1358 -0.0378
  696ERGO    R4 9833   2.089  16.885   7.882  0.0408 -0.0191 -0.0280
  696ERGO    R5 9834   1.988  16.714   7.792 -0.0338  0.0500 -0.0893
  696ERGO    C1 9835   1.719  16.828   8.037  0.0644  0.0146  0.0375
  696ERGO    C2 9836   1.356  16.969   8.098  0.1206 -0.1052  0.3621
  697ERGO   ROH 9837   7.894   9.402   7.684 -0.1842  0.3724 -0.0597
  697ERGO    R1 9838   7.821   9.321   7.946 -0.1045  0.2217 -0.0820
  697ERGO    R2 9839   7.999   9.197   8.118 -0.0309  0.1725 -0.1816
  697ERGO    R3 9840   7.927   9.399   8.285 -0.0405  0.0766 -0.0703
  697ERGO    R4 9841   8.080   9.215   8.453 -0.0330  0.0106 -0.1726
  697ERGO    R5 9842   7.880   9.291   8.493 -0.0292 -0.0270 -0.1284
  697ERGO    C1 9843   8.059   9.415   8.806 -0.0432 -0.1736 -0.0628
  697ERGO    C2 9844   8.025   9.489   9.067  0.1041 -0.1629  0.3393
  698ERGO   ROH 9845  11.081   8.343   7.655 -0.0608  0.0464 -0.1858
  698ERGO    R1 9846  10.839   8.353   7.802 -0.0451 -0.0210 -0.1554
  698ERGO    R2 9847  10.643   8.159   7.780  0.0294 -0.1032 -0.0909
  698ERGO    R3 9848  10.672   8.147   8.050  0.0703 -0.0391 -0.0917
  698ERGO    R4 9849  10.391   8.076   8.002  0.0980 -0.1858 -0.0427
  698ERGO    R5 9850  10.465   8.231   8.136  0.0393 -0.1244 -0.0809
  698ERGO    C1 9851  10.272   8.016   8.385  0.1763 -0.1738 -0.0154
  698ERGO    C2 9852  10.115   7.926   8.625 -0.0010  0.0855  0.0292
  699ERGO   ROH 9853   7.923   9.790   7.416  0.2083 -0.1839 -0.0900
  699ERGO    R1 9854   8.036   9.819   7.674  0.1082 -0.2998 -0.0324
  699ERGO    R2 9855   7.950  10.012   7.852  0.2375 -0.1834 -0.1029
  699ERGO    R3 9856   7.918   9.799   8.017 -0.1036 -0.1387 -0.0879
  699ERGO    R4 9857   7.924  10.031   8.196  0.1707 -0.0953 -0.1118
  699ERGO    R5 9858   8.049   9.852   8.210 -0.0652 -0.2857 -0.0579
  699ERGO    C1 9859   7.879   9.841   8.552 -0.1885 -0.0020 -0.1029
  699ERGO    C2 9860   7.846   9.967   8.950  0.1906 -0.1487 -0.0350
  700ERGO   ROH 9861   7.542   6.437   7.163  0.2256 -0.0667  0.0091
  700ERGO    R1 9862   7.471   6.270   7.381  0.1870 -0.0509  0.0083
  700ERGO    R2 9863   7.425   5.999   7.351  0.0722 -0.0282 -0.0019
  700ERGO    R3 9864   7.612   5.978   7.547  0.0898 -0.1196 -0.0274
  700ERGO    R4 9865   7.387   5.818   7.643  0.0226 -0.0175 -0.0013
  700ERGO    R5 9866   7.486   5.979   7.750  0.1140 -0.0639 -0.0103
  700ERGO    C1 9867   7.541   5.693   7.997  0.0103 -0.0971 -0.0249
  700ERGO    C2 9868   7.353   5.643   8.269 -0.0175 -0.0706 -0.0367
  701ERGO   ROH 9869   2.418  10.355   7.069 -0.0808  0.1913  0.0520
  701ERGO    R1 9870   2.388  10.414   7.344 -0.1235  0.0851  0.0683
  701ERGO    R2 9871   2.275  10.236   7.523  0.1054 -0.0917  0.0255
  701ERGO    R3 9872   2.508  10.275   7.659  0.0713  0.1463  0.0266
  701ERGO    R4 9873   2.299  10.297   7.863  0.0435 -0.6559  0.1423
  701ERGO    R5 9874   2.455  10.442   7.821 -0.2540 -0.2374  0.3526
  701ERGO    C1 9875   2.531  10.368   8.187 -0.0247 -0.7610  0.2114
  701ERGO    C2 9876   2.535  10.381   8.523 -0.0694  0.3511  0.1893
  702ERGO   ROH 9877  10.302   4.461   6.817 -0.2017  0.1211  0.0414
  702ERGO    R1 9878  10.188   4.363   7.056 -0.1809 -0.1054 -0.0391
  702ERGO    R2 9879  10.074   4.112   7.075  0.1417 -0.2663 -0.1681
  702ERGO    R3 9880  10.247   4.084   7.283  0.0882 -0.1006 -0.1001
  702ERGO    R4 9881  10.013   3.924   7.359  0.2718 -0.4605 -0.2661
  702ERGO    R5 9882  10.107   4.082   7.477 -0.0014 -0.3693 -0.1635
  702ERGO    C1 9883  10.140   3.789   7.720  0.2974 -0.4180 -0.2594
  702ERGO    C2 9884   9.916   3.456   7.782  0.1364 -0.1376 -0.0075
  703ERGO   ROH 9885   8.193   7.942   7.220 -0.1123 -0.1800 -0.0858
  703ERGO    R1 9886   8.207   7.713   7.387  0.0978 -0.1748 -0.0948
  703ERGO    R2 9887   8.446   7.589   7.448  0.2449  0.1949  0.1074
  703ERGO    R3 9888   8.363   7.627   7.704 -0.0473  0.0436  0.0394
  703ERGO    R4 9889   8.507   7.372   7.710  0.1204  0.1338  0.0867
  703ERGO    R5 9890   8.304   7.408   7.781  0.0180 -0.0285 -0.1073
  703ERGO    C1 9891   8.465   7.281   8.103 -0.2265 -0.0438  0.0108
  703ERGO    C2 9892   8.498   7.083   8.415  0.2272  0.1048 -0.1457
  704ERGO   ROH 9893   3.406   2.631   8.221  0.1281 -0.1456 -0.0303
  704ERGO    R1 9894   3.471   2.567   8.489 -0.0310 -0.1073  0.0184
  704ERGO    R2 9895   3.680   2.685   8.625  0.1055 -0.3318  0.0129
  704ERGO    R3 9896   3.487   2.743   8.807  0.1331  0.0292 -0.0646
  704ERGO    R4 9897   3.727   2.687   8.967 -0.0211 -0.3733  0.0313
  704ERGO    R5 9898   3.531   2.593   8.989 -0.1976 -0.0294 -0.0279
  704ERGO    C1 9899   3.574   2.742   9.338 -0.0689 -0.0586 -0.0308
  704ERGO    C2 9900   3.610   2.648   9.715  0.0083 -0.1418  0.0759
  705ERGO   ROH 9901   6.142   0.927   6.772 -0.2346 -0.1308  0.0409
  705ERGO    R1 9902   6.106   0.762   7.000 -0.0925 -0.0628  0.1144
  705ERGO    R2 9903   6.301   0.589   7.090 -0.0151 -0.0019  0.0749
  705ERGO    R3 9904   6.265   0.722   7.325  0.0799  0.0728  0.0474
  705ERGO    R4 9905   6.415   0.481   7.398 -0.0505  0.0110  0.0919
  705ERGO    R5 9906   6.227   0.549   7.486 -0.0023  0.1353  0.0921
  705ERGO    C1 9907   6.446   0.542   7.798  0.0182  0.0887  0.0760
  705ERGO    C2 9908   6.774   0.363   7.960 -0.3233 -0.3516 -0.0979
  706ERGO   ROH 9909   4.080   1.111   6.874 -0.1347  0.0982 -0.1794
  706ERGO    R1 9910   3.884   1.015   7.053 -0.0875  0.0121 -0.1729
  706ERGO    R2 9911   3.948   0.877   7.284 -0.0211  0.0004 -0.1951
  706ERGO    R3 9912   3.795   1.069   7.402 -0.0693 -0.0610 -0.1577
  706ERGO    R4 9913   3.798   0.847   7.594  0.3467  0.0758 -0.0043
  706ERGO    R5 9914   3.621   0.947   7.513  0.1637 -0.1448  0.1214
  706ERGO    C1 9915   3.567   1.010   7.885  0.5156  0.0622  0.1420
  706ERGO    C2 9916   3.469   0.894   8.267 -0.1475 -0.1466  0.0977
  707ERGO   ROH 9917   0.881  13.581   6.626  0.1610 -0.1142  0.0305
  707ERGO    R1 9918   0.723  13.607   6.859  0.1514 -0.3488  0.0538
  707ERGO    R2 9919   0.774  13.465   7.091  0.4742 -0.1938  0.0879
  707ERGO    R3 9920   0.777  13.712   7.204  0.0275 -0.1454  0.0119
  707ERGO    R4 9921   0.721  13.529   7.426  0.2499 -0.1587  0.0472
  707ERGO    R5 9922   0.604  13.704   7.369 -0.0180 -0.3695 -0.0487
  707ERGO    C1 9923   0.693  13.799   7.727 -0.3001 -0.0929 -0.0478
  707ERGO    C2 9924   0.760  13.791   8.004  0.2521 -0.0928 -0.0010
  708ERGO   ROH 9925   4.723   4.620   6.787  0.0286 -0.0269  0.0895
  708ERGO    R1 9926   4.847   4.557   7.034 -0.1005 -0.1443  0.1263
  708ERGO    R2 9927   4.991   4.743   7.180  0.1208 -0.3037  0.1182
  708ERGO    R3 9928   4.821   4.671   7.379 -0.0178 -0.0399  0.0987
  708ERGO    R4 9929   5.061   4.769   7.517  0.0401 -0.2149  0.1278
  708ERGO    R5 9930   4.963   4.576   7.547 -0.1647 -0.1055  0.1885
  708ERGO    C1 9931   4.942   4.716   7.901 -0.1370  0.0845  0.1151
  708ERGO    C2 9932   4.967   4.839   8.183  0.1824  0.2466 -0.0547
  709ERGO   ROH 9933   3.252  14.188   7.322 -0.1649 -0.0721  0.1320
  709ERGO    R1 9934   3.349  14.165   7.587 -0.0643  0.0740  0.1070
  709ERGO    R2 9935   3.619  14.178   7.648 -0.0414 -0.0022 -0.0195
  709ERGO    R3 9936   3.537  14.374   7.818  0.1276  0.1538 -0.1119
  709ERGO    R4 9937   3.765  14.248   7.953 -0.2493 -0.3172  0.1588
  709ERGO    R5 9938   3.566  14.279   8.036 -0.3107  0.0659 -0.0740
  709ERGO    C1 9939   3.774  14.472   8.290 -0.2117 -0.3540  0.1759
  709ERGO    C2 9940   3.960  14.602   8.489 -0.1542 -0.1425  0.0811
  710ERGO   ROH 9941   2.716   3.825   6.761  0.2054 -0.0026 -0.0572
  710ERGO    R1 9942   2.717   3.866   7.041  0.3239 -0.1580 -0.0337
  710ERGO    R2 9943   2.501   3.802   7.201  0.2022  0.1970 -0.0519
  710ERGO    R3 9944   2.688   3.660   7.339 -0.0708 -0.2716 -0.1436
  710ERGO    R4 9945   2.474   3.711   7.534  0.2139  0.4450  0.0191
  710ERGO    R5 9946   2.686   3.757   7.558  0.3859 -0.1397 -0.1854
  710ERGO    C1 9947   2.633   3.525   7.857 -0.0356  0.1494 -0.0256
  710ERGO    C2 9948   2.302   3.298   8.061 -0.0247  0.0699  0.2664
  711ERGO   ROH 9949   6.175  13.163   7.185  0.1466 -0.0482 -0.0936
  711ERGO    R1 9950   6.054  13.083   7.428  0.0826 -0.0146 -0.1137
  711ERGO    R2 9951   6.186  12.928   7.615 -0.0064 -0.0824 -0.1085
  711ERGO    R3 9952   6.119  13.131   7.783  0.0580 -0.0671 -0.1013
  711ERGO    R4 9953   6.106  12.890   7.950 -0.1933 -0.1021 -0.1547
  711ERGO    R5 9954   5.948  13.038   7.924 -0.0787  0.0194 -0.2024
  711ERGO    C1 9955   5.997  13.058   8.302 -0.2417 -0.0993 -0.1748
  711ERGO    C2 9956   6.174  13.036   8.587 -0.1205  0.3442  0.0315
  712ERGO   ROH 9957   3.590  15.735   6.842  0.0039  0.1638  0.0225
  712ERGO    R1 9958   3.449  15.732   7.087 -0.0167  0.1930  0.0115
  712ERGO    R2 9959   3.536  15.588   7.307 -0.1861 -0.0167 -0.0529
  712ERGO    R3 9960   3.516  15.829   7.431  0.0698 -0.0536  0.0658
  712ERGO    R4 9961   3.461  15.634   7.641  0.0067 -0.0990  0.0030
  712ERGO    R5 9962   3.336  15.802   7.586  0.1197  0.0293  0.1372
  712ERGO    C1 9963   3.398  15.886   7.952  0.3593 -0.1816  0.1471
  712ERGO    C2 9964   3.432  15.959   8.237  0.2297 -0.2849 -0.1190
  713ERGO   ROH 9965   6.726  16.689   6.742  0.1860  0.0952  0.1278
  713ERGO    R1 9966   6.716  16.674   7.025  0.1272 -0.2124  0.1109
  713ERGO    R2 9967   6.844  16.475   7.168  0.5375 -0.0679 -0.0604
  713ERGO    R3 9968   6.956  16.686   7.299  0.0188  0.0632  0.2003
  713ERGO    R4 9969   7.002  16.455   7.475  0.6592 -0.0958 -0.1221
  713ERGO    R5 9970   6.907  16.644   7.530  0.1633 -0.3957  0.1644
  713ERGO    C1 9971   7.198  16.640   7.777  0.2430  0.0108  0.0868
  713ERGO    C2 9972   7.556  16.466   8.003  0.1928 -0.0975  0.0060
  714ERGO   ROH 9973   9.970   6.695   7.339 -0.3385  0.1538 -0.0582
  714ERGO    R1 9974  10.014   6.700   7.618 -0.1468 -0.0735 -0.0811
  714ERGO    R2 9975   9.887   6.879   7.787  0.2346  0.0345  0.1086
  714ERGO    R3 9976   9.815   6.653   7.919 -0.0292  0.0650  0.0191
  714ERGO    R4 9977   9.828   6.858   8.126  0.3161 -0.0557  0.1169
  714ERGO    R5 9978   9.930   6.666   8.128  0.0567 -0.1955 -0.0110
  714ERGO    C1 9979   9.726   6.634   8.448  0.1159 -0.0797  0.0377
  714ERGO    C2 9980   9.482   6.591   8.548  0.1432  0.1512 -0.1313
  715ERGO   ROH 9981   7.074  12.008   7.142  0.0435 -0.0247  0.0764
  715ERGO    R1 9982   6.854  12.047   7.316  0.0587  0.0510  0.0783
  715ERGO    R2 9983   6.783  11.863   7.511 -0.0437  0.0416  0.0316
  715ERGO    R3 9984   6.802  12.079   7.675  0.0650 -0.0066  0.0845
  715ERGO    R4 9985   6.674  11.873   7.838 -0.3683  0.1280 -0.0751
  715ERGO    R5 9986   6.600  12.075   7.802 -0.0762  0.2305 -0.1216
  715ERGO    C1 9987   6.628  12.081   8.183 -0.4554  0.1330 -0.0875
  715ERGO    C2 9988   6.637  11.957   8.477  0.0431  0.0211 -0.1361
  716ERGO   ROH 9989   8.200   3.259   6.537 -0.1929 -0.0102  0.0630
  716ERGO    R1 9990   8.250   3.373   6.791  0.0037 -0.0740  0.0554
  716ERGO    R2 9991   8.047   3.455   6.960  0.1357  0.1810  0.1013
  716ERGO    R3 9992   8.173   3.291   7.137 -0.0299  0.0160  0.0683
  716ERGO    R4 9993   8.043   3.495   7.303  0.2745  0.1780  0.1031
  716ERGO    R5 9994   8.254   3.439   7.307  0.2028 -0.0927  0.0515
  716ERGO    C1 9995   8.159   3.366   7.669  0.1998  0.0212  0.0733
  716ERGO    C2 9996   8.123   3.339   8.018 -0.1740 -0.1726  0.2759
  717ERGO   ROH 9997   1.669   3.260   6.788  0.1881  0.0373  0.2613
  717ERGO    R1 9998   1.486   3.103   6.937  0.1055  0.1590  0.2892
  717ERGO    R2 9999   1.494   2.826   6.938 -0.3150  0.1391 -0.0159
  717ERGO    R310000   1.507   2.861   7.207  0.0296 -0.1626  0.0147
  717ERGO    R410001   1.392   2.594   7.173 -0.4317  0.0412 -0.1606
  717ERGO    R510002   1.309   2.757   7.291 -0.0546  0.0596  0.1069
  717ERGO    C110003   1.345   2.492   7.563 -0.1762 -0.2990 -0.2160
  717ERGO    C210004   1.531   2.433   7.909 -0.0261 -0.2984  0.0902
  718ERGO   ROH10005   0.009   2.835   6.361  0.1739  0.1513 -0.0746
  718ERGO    R110006  -0.148   2.799   6.593  0.1280  0.0882 -0.1159
  718ERGO    R210007  -0.098   2.600   6.778  0.1248  0.0756 -0.1353
  718ERGO    R310008  -0.094   2.808   6.953  0.0409  0.0495 -0.1002
  718ERGO    R410009  -0.109   2.569   7.122  0.1310  0.0057 -0.1405
  718ERGO    R510010  -0.242   2.741   7.128  0.0607 -0.0433 -0.1136
  718ERGO    C110011  -0.112   2.747   7.487  0.0562 -0.0596 -0.1107
  718ERGO    C210012   0.110   2.818   7.770 -0.2688 -0.4206 -0.4176
  719ERGO   ROH10013   7.408  12.916   7.016 -0.0546  0.2648  0.0784
  719ERGO    R110014   7.373  13.042   7.268  0.1188  0.2215  0.1244
  719ERGO    R210015   7.146  13.008   7.421  0.0914  0.4438  0.1289
  719ERGO    R310016   7.324  12.935   7.612  0.0192  0.1629  0.0940
  719ERGO    R410017   7.072  12.976   7.757  0.0534  0.3723  0.1144
  719ERGO    R510018   7.265  13.068   7.802  0.1604  0.1472  0.1550
  719ERGO    C110019   7.197  12.889   8.133 -0.0365  0.0670  0.0731
  719ERGO    C210020   7.265  12.667   8.387  0.1106 -0.2007 -0.0494
  720ERGO   ROH10021   4.215  10.673   7.117  0.0275 -0.1762  0.0245
  720ERGO    R110022   4.238  10.466   7.309 -0.1809 -0.0207  0.2221
  720ERGO    R210023   4.480  10.387   7.415 -0.2435 -0.2449  0.2013
  720ERGO    R310024   4.355  10.435   7.652 -0.0898  0.1611  0.2090
  720ERGO    R410025   4.583  10.265   7.722 -0.4453 -0.3346  0.2350
  720ERGO    R510026   4.374  10.228   7.772 -0.5298  0.1632  0.3043
  720ERGO    C110027   4.526  10.238   8.122 -0.4186 -0.0058  0.2619
  720ERGO    C210028   4.599  10.192   8.394  0.0130  0.0218 -0.2213
  721ERGO   ROH10029   3.715   7.968   6.879 -0.1981 -0.1574 -0.0428
  721ERGO    R110030   3.674   7.794   7.098 -0.3147 -0.2336 -0.1260
  721ERGO    R210031   3.637   7.885   7.355 -0.0108 -0.3341 -0.0502
  721ERGO    R310032   3.412   7.733   7.343 -0.2503  0.0021  0.0072
  721ERGO    R410033   3.447   7.792   7.629  0.2793 -0.5493  0.0849
  721ERGO    R510034   3.424   7.594   7.538 -0.1339 -0.3700 -0.2472
  721ERGO    C110035   3.125   7.595   7.776  0.2234 -0.3589  0.2176
  721ERGO    C210036   2.883   7.749   8.068 -0.2747  0.1785 -0.1925
  722ERGO   ROH10037   3.249   5.620   7.062 -0.1731  0.3514 -0.2000
  722ERGO    R110038   3.110   5.705   7.293 -0.1087  0.2592 -0.1271
  722ERGO    R210039   3.118   5.565   7.531 -0.0105  0.1855 -0.1752
  722ERGO    R310040   3.197   5.804   7.633 -0.0117  0.1646 -0.1231
  722ERGO    R410041   3.199   5.621   7.862  0.1304  0.0771 -0.1898
  722ERGO    R510042   3.095   5.813   7.850  0.0848  0.0631 -0.0714
  722ERGO    C110043   3.320   5.879   8.151  0.2113 -0.0056 -0.1493
  722ERGO    C210044   3.499   5.624   8.414  0.1419 -0.2856  0.0572
  723ERGO   ROH10045   1.263   6.875  10.125 -0.3325 -0.2588 -0.1854
  723ERGO    R110046   1.293   6.651   9.955 -0.0828 -0.1675 -0.2675
  723ERGO    R210047   1.367   6.674   9.689  0.1549 -0.0120 -0.1949
  723ERGO    R310048   1.562   6.499   9.761  0.1614  0.0377 -0.0936
  723ERGO    R410049   1.504   6.434   9.482  0.1629 -0.1327 -0.0509
  723ERGO    R510050   1.505   6.296   9.650  0.1701 -0.0309  0.0302
  723ERGO    C110051   1.768   6.131   9.429  0.1736 -0.1564  0.1280
  723ERGO    C210052   1.751   6.046   9.174 -0.0186  0.2659  0.2377
  724ERGO   ROH10053   5.830   3.704   6.742 -0.1367 -0.1906 -0.1212
  724ERGO    R110054   5.701   3.497   6.886 -0.1407 -0.1277 -0.0315
  724ERGO    R210055   5.785   3.415   7.136 -0.0100 -0.1657 -0.0808
  724ERGO    R310056   5.526   3.465   7.203  0.0578 -0.0348  0.0874
  724ERGO    R410057   5.638   3.320   7.434  0.0773 -0.2444 -0.0630
  724ERGO    R510058   5.458   3.268   7.322 -0.0136 -0.0558  0.0031
  724ERGO    C110059   5.309   3.312   7.671  0.1918 -0.1674  0.1053
  724ERGO    C210060   5.273   3.158   7.884  0.2162  0.1771 -0.2823
  725ERGO   ROH10061   4.806   4.081   6.760 -0.1681 -0.0220 -0.0218
  725ERGO    R110062   4.693   4.164   7.006 -0.0209  0.2035 -0.0299
  725ERGO    R210063   4.684   4.001   7.229 -0.3028  0.2408 -0.0207
  725ERGO    R310064   4.809   4.212   7.348  0.0660  0.0407 -0.0332
  725ERGO    R410065   4.765   4.019   7.565 -0.1540  0.0557 -0.0435
  725ERGO    R510066   4.705   4.229   7.563  0.1599  0.1616  0.0116
  725ERGO    C110067   4.929   4.227   7.871  0.2787 -0.2398 -0.0685
  725ERGO    C210068   4.969   4.214   8.163 -0.1802  0.0496 -0.0019
  726ERGO   ROH10069   7.619   1.707   6.816 -0.0241 -0.2695  0.1232
  726ERGO    R110070   7.602   1.567   7.061  0.1878 -0.1744  0.1949
  726ERGO    R210071   7.736   1.650   7.289  0.0601  0.1526  0.1638
  726ERGO    R310072   7.488   1.639   7.399  0.0661 -0.1751  0.1525
  726ERGO    R410073   7.671   1.606   7.625  0.0842 -0.0831  0.1387
  726ERGO    R510074   7.507   1.474   7.572  0.2347 -0.2364  0.0715
  726ERGO    C110075   7.401   1.571   7.925  0.1039 -0.5279  0.1136
  726ERGO    C210076   7.380   1.801   8.131  0.2511  0.0336 -0.2073
  727ERGO   ROH10077   0.953  10.930   6.735  0.1164  0.2650  0.2471
  727ERGO    R110078   0.868  10.883   7.001  0.0750  0.0070  0.1909
  727ERGO    R210079   0.919  10.646   7.134  0.3593  0.0053  0.0886
  727ERGO    R310080   1.026  10.811   7.321  0.0525  0.0674  0.2155
  727ERGO    R410081   0.995  10.553   7.458  0.3262 -0.0392  0.0833
  727ERGO    R510082   0.919  10.746   7.525  0.0372 -0.1663  0.1358
  727ERGO    C110083   1.140  10.654   7.822  0.0189 -0.0069  0.1994
  727ERGO    C210084   1.435  10.445   7.893  0.1921 -0.0303 -0.1577
  728ERGO   ROH10085   7.093  10.845   7.161 -0.1168 -0.1906 -0.0357
  728ERGO    R110086   6.985  10.792   7.417  0.0456 -0.0364  0.0674
  728ERGO    R210087   7.018  10.963   7.632 -0.0781  0.2502 -0.1367
  728ERGO    R310088   6.747  10.951   7.642 -0.0644 -0.0701 -0.0239
  728ERGO    R410089   6.829  11.004   7.918 -0.0170  0.2716 -0.0989
  728ERGO    R510090   6.700  10.843   7.850  0.1486  0.0515  0.0914
  728ERGO    C110091   6.464  11.017   8.095  0.0316 -0.0168  0.0290
  728ERGO    C210092   6.273  11.187   8.412 -0.0772  0.2166  0.1137
  729ERGO   ROH10093   4.636   2.189   6.831  0.3017  0.1876  0.1737
  729ERGO    R110094   4.485   2.124   7.062  0.1931 -0.0612  0.0380
  729ERGO    R210095   4.445   1.864   7.146  0.4425 -0.1396 -0.0668
  729ERGO    R310096   4.546   1.958   7.380  0.1453 -0.0756  0.0388
  729ERGO    R410097   4.483   1.677   7.435  0.1121 -0.0661  0.0268
  729ERGO    R510098   4.415   1.850   7.549 -0.0485 -0.0498 -0.0944
  729ERGO    C110099   4.599   1.658   7.822 -0.3592  0.0367  0.1803
  729ERGO    C210100   4.639   1.525   8.142  0.0470 -0.0282 -0.2683
  730ERGO   ROH10101   4.123   5.359   7.298  0.0221  0.1052 -0.1164
  730ERGO    R110102   4.101   5.308   7.576 -0.2206  0.0530 -0.1413
  730ERGO    R210103   4.307   5.359   7.753 -0.1994 -0.4056 -0.0118
  730ERGO    R310104   4.116   5.503   7.883  0.0075 -0.0696 -0.0740
  730ERGO    R410105   4.315   5.439   8.089 -0.1061 -0.2956 -0.0413
  730ERGO    R510106   4.100   5.400   8.098 -0.1658  0.0327 -0.0401
  730ERGO    C110107   4.141   5.621   8.406  0.1425  0.0839 -0.1168
  730ERGO    C210108   4.249   5.449   8.650 -0.1120 -0.2529 -0.2500
  731ERGO   ROH10109   7.567  17.975   7.081 -0.0299 -0.3124  0.0397
  731ERGO    R110110   7.686  18.039   7.330  0.0734 -0.3480  0.0007
  731ERGO    R210111   7.549  18.171   7.530  0.2561 -0.0686 -0.0493
  731ERGO    R310112   7.628  17.958   7.680 -0.0132 -0.1062  0.0436
  731ERGO    R410113   7.555  18.164   7.876  0.3505  0.1112 -0.0462
  731ERGO    R510114   7.744  18.056   7.865  0.1887 -0.1753 -0.0461
  731ERGO    C110115   7.632  17.960   8.217  0.1527  0.1806  0.0429
  731ERGO    C210116   7.479  17.853   8.610 -0.0040  0.2330  0.1079
  732ERGO   ROH10117   6.246   6.707   7.027 -0.0018 -0.1278 -0.1150
  732ERGO    R110118   6.080   6.587   7.222 -0.1172  0.0554 -0.0983
  732ERGO    R210119   6.170   6.387   7.390 -0.3388 -0.0907 -0.1498
  732ERGO    R310120   6.080   6.555   7.585 -0.0790 -0.0014 -0.1036
  732ERGO    R410121   6.250   6.360   7.726 -0.1874 -0.1567 -0.1901
  732ERGO    R510122   6.043   6.412   7.774 -0.1145  0.0386 -0.0813
  732ERGO    C110123   6.212   6.502   8.103  0.1446 -0.1113 -0.1702
  732ERGO    C210124   6.290   6.539   8.552 -0.1055 -0.1134  0.0427
  733ERGO   ROH10125   9.601   1.386   6.947 -0.0824  0.1167 -0.1067
  733ERGO    R110126   9.529   1.405   7.220  0.0650  0.0485 -0.0612
  733ERGO    R210127   9.299   1.288   7.322  0.0179  0.1891 -0.0063
  733ERGO    R310128   9.474   1.174   7.495  0.0080 -0.0370 -0.1426
  733ERGO    R410129   9.228   1.202   7.649  0.1044  0.1372 -0.0014
  733ERGO    R510130   9.424   1.274   7.706  0.2073 -0.0632 -0.0777
  733ERGO    C110131   9.351   1.045   8.002  0.1455 -0.1053 -0.1267
  733ERGO    C210132   9.301   1.032   8.343  0.0002  0.1647 -0.2178
  734ERGO   ROH10133   8.244   9.394   7.386 -0.2046  0.0113 -0.1318
  734ERGO    R110134   8.358   9.395   7.645 -0.0103 -0.1244 -0.2147
  734ERGO    R210135   8.412   9.628   7.782  0.0616 -0.1982 -0.1209
  734ERGO    R310136   8.261   9.511   7.976  0.2225 -0.3281 -0.0709
  734ERGO    R410137   8.448   9.684   8.122 -0.0418  0.0391 -0.1470
  734ERGO    R510138   8.415   9.471   8.155  0.2778 -0.0009 -0.0372
  734ERGO    C110139   8.327   9.607   8.501  0.0491  0.0554 -0.1153
  734ERGO    C210140   8.374   9.784   8.781  0.3036  0.3105 -0.0409
  735ERGO   ROH10141   0.208   6.565   6.889 -0.2389  0.1893 -0.0545
  735ERGO    R110142   0.321   6.510   7.142 -0.2096 -0.0379 -0.1151
  735ERGO    R210143   0.431   6.707   7.302  0.0924 -0.2238 -0.0847
  735ERGO    R310144   0.258   6.607   7.487  0.0371 -0.0780 -0.0564
  735ERGO    R410145   0.496   6.681   7.641  0.0449 -0.0909 -0.0645
  735ERGO    R510146   0.397   6.487   7.640 -0.0227 -0.0564  0.0150
  735ERGO    C110147   0.372   6.572   8.011 -0.0347  0.1234 -0.0261
  735ERGO    C210148   0.429   6.651   8.374  0.2104 -0.0528 -0.1445
  736ERGO   ROH10149   7.610  14.900   7.376  0.1018  0.0303  0.2046
  736ERGO    R110150   7.585  14.920   7.658  0.1487  0.1352  0.2018
  736ERGO    R210151   7.622  15.158   7.794  0.0738  0.2086  0.0974
  736ERGO    R310152   7.375  15.103   7.892  0.1161  0.1418  0.1670
  736ERGO    R410153   7.516  15.235   8.113  0.0920  0.3114  0.0791
  736ERGO    R510154   7.414  15.042   8.121  0.1823  0.2689  0.1892
  736ERGO    C110155   7.221  15.228   8.392  0.1422  0.3086  0.1337
  736ERGO    C210156   7.082  15.503   8.623 -0.2099 -0.1951  0.2082
  737ERGO   ROH10157  10.534   0.704   6.703  0.2096  0.1839 -0.0218
  737ERGO    R110158  10.476   0.674   6.979  0.1650  0.0430 -0.0464
  737ERGO    R210159  10.562   0.856   7.169  0.0386  0.0022  0.0430
  737ERGO    R310160  10.298   0.864   7.233  0.0213 -0.1477 -0.0005
  737ERGO    R410161  10.436   0.965   7.472 -0.0708  0.0448 -0.0162
  737ERGO    R510162  10.292   0.802   7.465  0.0351 -0.0599  0.0282
  737ERGO    C110163  10.115   1.036   7.709 -0.1506 -0.0710 -0.0914
  737ERGO    C210164   9.868   1.021   8.048  0.1271  0.0517  0.0262
  738ERGO   ROH10165   3.888   3.737   6.569 -0.2752 -0.4284  0.0212
  738ERGO    R110166   3.870   3.841   6.832 -0.0499 -0.1819 -0.0571
  738ERGO    R210167   3.647   3.975   6.924  0.0860  0.0389 -0.0341
  738ERGO    R310168   3.658   3.790   7.123  0.0946  0.2067  0.1225
  738ERGO    R410169   3.586   4.041   7.258 -0.1408  0.2704 -0.1185
  738ERGO    R510170   3.752   3.910   7.309 -0.0842  0.4167  0.0811
  738ERGO    C110171   3.562   3.907   7.639 -0.2648  0.5627 -0.0206
  738ERGO    C210172   3.567   3.749   8.060  0.1052 -0.2305  0.0826
  739ERGO   ROH10173   5.001  14.903   7.128  0.1047 -0.1761 -0.1583
  739ERGO    R110174   4.852  14.800   7.346  0.1988 -0.0418 -0.0291
  739ERGO    R210175   4.581  14.751   7.332  0.1752  0.0325  0.1485
  739ERGO    R310176   4.655  14.502   7.414  0.1472  0.0441  0.2092
  739ERGO    R410177   4.377  14.530   7.503  0.0235 -0.0468 -0.1282
  739ERGO    R510178   4.548  14.476   7.627 -0.1096 -0.0116  0.0778
  739ERGO    C110179   4.328  14.168   7.680 -0.0912 -0.0822 -0.2324
  739ERGO    C210180   4.025  13.916   7.736  0.3121 -0.2587 -0.1247
  740ERGO   ROH10181   9.508   6.581   7.230  0.4191 -0.1036 -0.0162
  740ERGO    R110182   9.559   6.635   7.503  0.2646  0.0842 -0.0230
  740ERGO    R210183   9.409   6.815   7.649  0.0072 -0.0144 -0.1607
  740ERGO    R310184   9.376   6.604   7.817  0.1905  0.0255 -0.0714
  740ERGO    R410185   9.227   6.822   7.943  0.0041 -0.0477 -0.1614
  740ERGO    R510186   9.381   6.700   8.036  0.1113  0.1227 -0.1109
  740ERGO    C110187   9.090   6.627   8.271  0.1744 -0.0295 -0.0779
  740ERGO    C210188   8.766   6.606   8.323 -0.4493 -0.1770 -0.2872
  741ERGO   ROH10189   7.738   8.416   7.329 -0.0626 -0.1122 -0.0156
  741ERGO    R110190   7.738   8.574   7.564 -0.0136 -0.1404  0.0015
  741ERGO    R210191   7.653   8.476   7.809  0.0420 -0.1675  0.0008
  741ERGO    R310192   7.898   8.560   7.891  0.0557 -0.1713 -0.0307
  741ERGO    R410193   7.724   8.602   8.123  0.0801 -0.2200  0.0147
  741ERGO    R510194   7.853   8.750   8.029  0.0619 -0.1921  0.0120
  741ERGO    C110195   7.996   8.754   8.383  0.1153 -0.2542 -0.0068
  741ERGO    C210196   8.255   8.724   8.585 -0.1369 -0.1726 -0.1521
  742ERGO   ROH10197   4.202   6.979   6.835  0.0907  0.0227 -0.0966
  742ERGO    R110198   4.321   7.044   7.083  0.0144 -0.0230 -0.0474
  742ERGO    R210199   4.489   7.262   7.115  0.1337 -0.1216  0.0065
  742ERGO    R310200   4.314   7.326   7.313  0.0784  0.0074 -0.0824
  742ERGO    R410201   4.572   7.434   7.402  0.1009 -0.1257  0.0185
  742ERGO    R510202   4.441   7.301   7.515 -0.0275 -0.0353 -0.0201
  742ERGO    C110203   4.457   7.595   7.756  0.0298 -0.0069 -0.0581
  742ERGO    C210204   4.623   7.866   7.848  0.0773 -0.0257  0.0425
  743ERGO   ROH10205   3.215   0.455   6.733 -0.0102 -0.0277 -0.1037
  743ERGO    R110206   3.122   0.247   6.901 -0.1851  0.0787 -0.0658
  743ERGO    R210207   3.269   0.151   7.115 -0.1805 -0.1314 -0.1577
  743ERGO    R310208   3.042   0.208   7.254 -0.0283  0.1587 -0.0211
  743ERGO    R410209   3.221   0.086   7.451 -0.1229 -0.2280 -0.1687
  743ERGO    R510210   3.017   0.025   7.405 -0.2466  0.1176 -0.1049
  743ERGO    C110211   2.981   0.101   7.777  0.0536 -0.0120 -0.0469
  743ERGO    C210212   2.867   0.147   8.046 -0.2184 -0.0551 -0.1391
  744ERGO   ROH10213   1.792  12.851   6.718  0.1290 -0.1702  0.0411
  744ERGO    R110214   1.774  12.793   6.995  0.0804 -0.1475  0.0427
  744ERGO    R210215   1.982  12.842   7.170  0.0295 -0.0816  0.0847
  744ERGO    R310216   1.792  12.981   7.305 -0.0339 -0.1132  0.0291
  744ERGO    R410217   2.016  12.959   7.494 -0.1253 -0.1665  0.1328
  744ERGO    R510218   1.809  12.902   7.531 -0.1451 -0.1725  0.0173
  744ERGO    C110219   1.857  13.158   7.809 -0.2749 -0.2458  0.1087
  744ERGO    C210220   1.832  13.161   8.203 -0.0749  0.0442  0.1402
  745ERGO   ROH10221   6.630   8.809   7.547 -0.1035 -0.3360  0.0742
  745ERGO    R110222   6.539   8.982   7.751 -0.0069 -0.0784 -0.0969
  745ERGO    R210223   6.406   8.891   7.976 -0.1802  0.2335 -0.0707
  745ERGO    R310224   6.601   9.028   8.107 -0.0929  0.1474 -0.1079
  745ERGO    R410225   6.444   8.900   8.319 -0.1030  0.1933 -0.0776
  745ERGO    R510226   6.493   9.112   8.303 -0.0196  0.1793 -0.0767
  745ERGO    C110227   6.649   9.034   8.643  0.0238  0.0890 -0.1166
  745ERGO    C210228   6.773   8.984   9.054 -0.1779  0.3323 -0.0357
  746ERGO   ROH10229   8.419  11.238   7.153  0.1654 -0.0134 -0.1727
  746ERGO    R110230   8.349  11.197   7.424  0.1284  0.0365 -0.1744
  746ERGO    R210231   8.520  11.258   7.633  0.0629  0.1672 -0.1568
  746ERGO    R310232   8.307  11.403   7.721 -0.0149  0.1066 -0.2430
  746ERGO    R410233   8.470  11.358   7.960 -0.0384  0.2614 -0.2002
  746ERGO    R510234   8.258  11.313   7.937 -0.0136  0.1622 -0.2207
  746ERGO    C110235   8.242  11.552   8.233 -0.1705  0.2593 -0.3064
  746ERGO    C210236   8.407  11.716   8.527  0.0081 -0.1807  0.0432
  747ERGO   ROH10237   6.241   3.009   7.135 -0.1275 -0.0070  0.2902
  747ERGO    R110238   6.014   3.027   7.303 -0.2372 -0.0717  0.1481
  747ERGO    R210239   5.929   2.816   7.460 -0.1154 -0.0086  0.2849
  747ERGO    R310240   5.947   3.000   7.660 -0.4123  0.1889  0.1403
  747ERGO    R410241   5.799   2.774   7.777  0.2586 -0.1490  0.4262
  747ERGO    R510242   5.736   2.983   7.774 -0.2952 -0.2912  0.3278
  747ERGO    C110243   5.741   2.922   8.150  0.1976 -0.0453  0.3728
  747ERGO    C210244   5.730   2.913   8.400 -0.1710 -0.2093 -0.1972
  748ERGO   ROH10245   3.460   8.633   7.016  0.1125  0.1697 -0.1297
  748ERGO    R110246   3.379   8.619   7.287  0.0165  0.0942 -0.1619
  748ERGO    R210247   3.523   8.736   7.492  0.0120 -0.0722 -0.0637
  748ERGO    R310248   3.286   8.856   7.547  0.0574  0.0305 -0.0882
  748ERGO    R410249   3.386   8.764   7.807 -0.1193 -0.2277 -0.1056
  748ERGO    R510250   3.190   8.721   7.720 -0.1069 -0.0451 -0.2333
  748ERGO    C110251   3.082   8.893   8.043 -0.1533 -0.2219 -0.1530
  748ERGO    C210252   2.884   9.087   8.304 -0.0618 -0.0375  0.3329
  749ERGO   ROH10253   9.288   8.251   7.367 -0.2371 -0.1097  0.1400
  749ERGO    R110254   9.089   8.202   7.563 -0.0806 -0.0918  0.3047
  749ERGO    R210255   9.150   8.134   7.824  0.1311  0.1160  0.3071
  749ERGO    R310256   8.991   8.347   7.882  0.0482  0.0644  0.2762
  749ERGO    R410257   8.996   8.189   8.128  0.0212  0.0381  0.2677
  749ERGO    R510258   8.819   8.257   8.022  0.0302 -0.0048  0.2160
  749ERGO    C110259   8.758   8.421   8.360 -0.1208 -0.0556  0.2156
  749ERGO    C210260   8.761   8.631   8.582  0.1029 -0.1987  0.1780
  750ERGO   ROH10261   7.158  15.716   6.800 -0.1390  0.2450  0.0273
  750ERGO    R110262   7.407  15.701   6.935 -0.2158  0.0524  0.1529
  750ERGO    R210263   7.603  15.893   6.908  0.0132 -0.1737  0.1280
  750ERGO    R310264   7.588  15.901   7.179 -0.1132  0.0028  0.1165
  750ERGO    R410265   7.799  16.093   7.111  0.1531 -0.2934  0.1102
  750ERGO    R510266   7.815  15.926   7.251 -0.1189 -0.2316  0.2154
  750ERGO    C110267   7.899  16.216   7.484  0.1159 -0.1975  0.0891
  750ERGO    C210268   7.865  16.543   7.631 -0.2523  0.0598  0.2383
  751ERGO   ROH10269  11.019   3.852   6.782 -0.0420 -0.2048  0.1230
  751ERGO    R110270  10.800   3.839   6.960 -0.0916 -0.4086  0.0495
  751ERGO    R210271  10.765   3.631   7.138  0.1909 -0.3080  0.2281
  751ERGO    R310272  10.751   3.832   7.320 -0.2151 -0.1553  0.0394
  751ERGO    R410273  10.659   3.594   7.465  0.3327 -0.2354  0.2834
  751ERGO    R510274  10.553   3.784   7.446 -0.0934 -0.4744  0.1182
  751ERGO    C110275  10.583   3.762   7.826  0.0343 -0.0498  0.1383
  751ERGO    C210276  10.517   3.884   8.188  0.0186 -0.1814 -0.0060
  752ERGO   ROH10277   3.393   7.475   6.925 -0.0166 -0.0374 -0.1305
  752ERGO    R110278   3.123   7.405   6.974 -0.0132  0.0126 -0.0429
  752ERGO    R210279   2.989   7.214   6.826 -0.1063  0.0642 -0.0216
  752ERGO    R310280   2.941   7.104   7.070 -0.0440  0.0375 -0.0207
  752ERGO    R410281   2.740   6.983   6.894 -0.0797  0.0441  0.0104
  752ERGO    R510282   2.703   7.087   7.082 -0.0422  0.0246  0.0311
  752ERGO    C110283   2.551   6.746   7.162 -0.0057  0.0072  0.0297
  752ERGO    C210284   2.431   6.431   7.050  0.0116  0.1079 -0.0696
  753ERGO   ROH10285   6.826   7.583   7.155  0.1081 -0.1362  0.1281
  753ERGO    R110286   6.737   7.555   7.422 -0.0090 -0.0747  0.0960
  753ERGO    R210287   6.721   7.310   7.548  0.0461 -0.0325  0.1822
  753ERGO    R310288   6.875   7.434   7.735 -0.1040  0.1124  0.2130
  753ERGO    R410289   6.772   7.194   7.870  0.1223 -0.0129  0.1776
  753ERGO    R510290   6.757   7.400   7.941 -0.1002 -0.0298  0.1948
  753ERGO    C110291   6.946   7.242   8.233  0.0258  0.1346  0.2038
  753ERGO    C210292   7.151   7.223   8.455  0.0835  0.1144  0.1696
  754ERGO   ROH10293   4.498   9.476   6.776 -0.2545 -0.1613  0.0445
  754ERGO    R110294   4.430   9.469   7.051 -0.1677 -0.1358  0.0678
  754ERGO    R210295   4.456   9.241   7.204 -0.2260 -0.1546  0.0543
  754ERGO    R310296   4.602   9.405   7.365 -0.0933 -0.2276  0.0081
  754ERGO    R410297   4.473   9.216   7.549 -0.1191 -0.1682  0.0478
  754ERGO    R510298   4.466   9.434   7.560 -0.0116 -0.1662  0.0550
  754ERGO    C110299   4.620   9.355   7.900  0.0677 -0.2446  0.0006
  754ERGO    C210300   4.656   9.552   8.228  0.0316 -0.1517  0.0286
  755ERGO   ROH10301   1.385   4.057   6.777  0.0941 -0.1186  0.0238
  755ERGO    R110302   1.363   4.081   7.058  0.1049  0.0551  0.0095
  755ERGO    R210303   1.376   3.863   7.228  0.0091  0.1505  0.1331
  755ERGO    R310304   1.573   4.009   7.346  0.0724  0.1329  0.0543
  755ERGO    R410305   1.479   3.826   7.555  0.2646  0.0090  0.0410
  755ERGO    R510306   1.495   4.043   7.570  0.2318  0.0089  0.1337
  755ERGO    C110307   1.723   3.940   7.858  0.4727 -0.0900 -0.0866
  755ERGO    C210308   1.916   3.951   8.074  0.1645  0.0355 -0.2307
  756ERGO   ROH10309   5.346  17.167   6.762  0.0007  0.0288  0.0961
  756ERGO    R110310   5.445  17.102   7.019  0.0875  0.1204  0.0861
  756ERGO    R210311   5.496  17.293   7.211 -0.1356  0.1636  0.1025
  756ERGO    R310312   5.332  17.138   7.363  0.0535 -0.0501  0.0944
  756ERGO    R410313   5.531  17.243   7.551 -0.1189  0.2607  0.1156
  756ERGO    R510314   5.479  17.033   7.520  0.1802  0.1765  0.1336
  756ERGO    C110315   5.398  17.068   7.892  0.0682  0.1166  0.1156
  756ERGO    C210316   5.364  17.018   8.271  0.0996 -0.1883 -0.1166
  757ERGO   ROH10317   9.859  12.907   7.141 -0.1521 -0.0100 -0.0844
  757ERGO    R110318   9.770  13.017   7.386 -0.0359 -0.0216 -0.0344
  757ERGO    R210319   9.505  13.079   7.434  0.0199  0.2442 -0.0069
  757ERGO    R310320   9.540  12.920   7.652 -0.1429  0.1011 -0.0847
  757ERGO    R410321   9.323  13.102   7.727  0.1834  0.4112  0.0825
  757ERGO    R510322   9.507  13.066   7.838  0.1702  0.0741 -0.0109
  757ERGO    C110323   9.250  12.966   8.102  0.1256  0.3739  0.0615
  757ERGO    C210324   9.015  12.823   8.400 -0.1240  0.2645  0.1922
  758ERGO   ROH10325   7.462  10.591   7.119  0.0966  0.0869  0.0071
  758ERGO    R110326   7.511  10.553   7.396  0.1393  0.1658  0.0112
  758ERGO    R210327   7.523  10.763   7.575 -0.1020  0.1981 -0.0051
  758ERGO    R310328   7.335  10.618   7.707  0.0599 -0.0088  0.0037
  758ERGO    R410329   7.374  10.857   7.872 -0.3342  0.1336 -0.0998
  758ERGO    R510330   7.387  10.650   7.939 -0.0585  0.1807  0.0052
  758ERGO    C110331   7.110  10.777   8.168 -0.3174 -0.0983 -0.1468
  758ERGO    C210332   6.939  11.014   8.413 -0.1204  0.1691  0.0629
  759ERGO   ROH10333   5.773  14.265   6.998  0.0242  0.1388 -0.0672
  759ERGO    R110334   5.823  14.178   7.263  0.0838  0.1272 -0.0819
  759ERGO    R210335   5.841  14.352   7.476 -0.0250  0.1058 -0.0530
  759ERGO    R310336   5.650  14.191   7.583  0.0782 -0.0349 -0.0775
  759ERGO    R410337   5.837  14.242   7.803 -0.0146  0.1429 -0.0404
  759ERGO    R510338   5.770  14.047   7.732  0.1587  0.0801 -0.0310
  759ERGO    C110339   5.654  14.027   8.094  0.0884  0.0325 -0.0561
  759ERGO    C210340   5.632  13.856   8.332  0.2758  0.2378  0.1942
  760ERGO   ROH10341  10.025  16.220   8.366  0.0826 -0.1098  0.0369
  760ERGO    R110342   9.840  16.102   8.544 -0.0466  0.0617  0.0198
  760ERGO    R210343   9.620  15.958   8.457 -0.0518  0.0726 -0.0009
  760ERGO    R310344   9.723  15.766   8.620 -0.1881  0.1456  0.1725
  760ERGO    R410345   9.481  15.646   8.506 -0.1153  0.1131  0.0746
  760ERGO    R510346   9.530  15.662   8.717 -0.2616  0.2184  0.0960
  760ERGO    C110347   9.495  15.283   8.687 -0.2801  0.2053  0.2815
  760ERGO    C210348   9.381  15.078   8.521 -0.3367  0.2342  0.0540
  761ERGO   ROH10349   3.436   6.060   7.027 -0.0022  0.0478 -0.0374
  761ERGO    R110350   3.392   6.048   7.306 -0.1278  0.0217 -0.0549
  761ERGO    R210351   3.580   6.135   7.489 -0.0143 -0.4018  0.0584
  761ERGO    R310352   3.374   6.287   7.581  0.2314 -0.0362  0.0195
  761ERGO    R410353   3.541   6.238   7.817  0.1329 -0.2394  0.0241
  761ERGO    R510354   3.328   6.198   7.799  0.0753  0.1091  0.0366
  761ERGO    C110355   3.326   6.441   8.093  0.4493  0.1983 -0.0324
  761ERGO    C210356   3.175   6.546   8.325  0.1207 -0.2285  0.0210
  762ERGO   ROH10357   1.943   7.791   6.642  0.2099  0.0380 -0.0274
  762ERGO    R110358   2.100   7.758   6.875  0.0206 -0.0280  0.0923
  762ERGO    R210359   2.233   7.968   6.997  0.1200 -0.1060  0.1158
  762ERGO    R310360   2.097   7.884   7.217 -0.1056  0.0808  0.0522
  762ERGO    R410361   2.333   8.020   7.324  0.0118 -0.1982  0.1649
  762ERGO    R510362   2.267   7.818   7.371 -0.2654 -0.1175  0.1511
  762ERGO    C110363   2.263   7.972   7.720 -0.2629 -0.0765  0.1337
  762ERGO    C210364   2.166   8.135   7.932  0.2305 -0.2526  0.2634
  763ERGO   ROH10365   0.474   7.762   7.040 -0.0083 -0.0113  0.0542
  763ERGO    R110366   0.617   7.700   7.276  0.1019  0.1300  0.0253
  763ERGO    R210367   0.757   7.890   7.419 -0.1815  0.3023  0.0778
  763ERGO    R310368   0.606   7.799   7.626 -0.0335 -0.0009  0.0600
  763ERGO    R410369   0.838   7.927   7.753 -0.1585  0.2177  0.0824
  763ERGO    R510370   0.766   7.724   7.787  0.0962  0.1040 -0.0145
  763ERGO    C110371   0.743   7.864   8.142 -0.0062 -0.1161  0.0683
  763ERGO    C210372   0.866   7.885   8.482  0.1816  0.2457 -0.0046
  764ERGO   ROH10373   6.103  14.614   7.119 -0.0384  0.2897 -0.0087
  764ERGO    R110374   6.148  14.735   7.371 -0.0612  0.2209  0.0290
  764ERGO    R210375   5.944  14.794   7.547 -0.0687  0.0947  0.0634
  764ERGO    R310376   6.095  14.649   7.720 -0.0087  0.0861  0.0043
  764ERGO    R410377   5.847  14.705   7.866  0.0332  0.0618  0.0856
  764ERGO    R510378   6.050  14.746   7.934  0.0525  0.0650  0.0271
  764ERGO    C110379   5.932  14.516   8.215  0.1489  0.0346  0.0431
  764ERGO    C210380   5.621  14.373   8.468  0.2049  0.0527  0.2616
  765ERGO   ROH10381   8.926  17.058   7.241 -0.1484  0.1981  0.2042
  765ERGO    R110382   8.852  16.882   7.450 -0.0341  0.1226  0.1828
  765ERGO    R210383   8.920  16.928   7.714 -0.0228  0.1096  0.1869
  765ERGO    R310384   8.652  16.900   7.753 -0.0052 -0.0288  0.2103
  765ERGO    R410385   8.772  16.844   8.015  0.0330  0.1224  0.2173
  765ERGO    R510386   8.633  16.716   7.905  0.1014  0.0117  0.2678
  765ERGO    C110387   8.435  16.769   8.227  0.0821 -0.0002  0.2570
  765ERGO    C210388   8.307  16.928   8.424 -0.5586 -0.1986 -0.1550
  766ERGO   ROH10389   3.197  10.992   6.911  0.0980  0.3855 -0.0734
  766ERGO    R110390   3.059  11.115   7.125  0.0687  0.1703  0.0351
  766ERGO    R210391   3.080  11.028   7.386  0.1677  0.0118 -0.0232
  766ERGO    R310392   3.147  11.287   7.433  0.0320  0.0206  0.1299
  766ERGO    R410393   3.045  11.189   7.690  0.1689 -0.2112  0.0967
  766ERGO    R510394   2.978  11.366   7.583  0.0328 -0.1771  0.2373
  766ERGO    C110395   3.088  11.526   7.911  0.0423 -0.3328  0.3103
  766ERGO    C210396   3.099  11.587   8.300  0.0101 -0.0947  0.0362
  767ERGO   ROH10397   9.021   3.061   6.366  0.1383  0.0928  0.1061
  767ERGO    R110398   9.128   3.043   6.627 -0.0730 -0.0647  0.1860
  767ERGO    R210399   9.290   3.239   6.736  0.2520 -0.3504  0.2558
  767ERGO    R310400   9.105   3.236   6.935  0.0910  0.0547  0.1218
  767ERGO    R410401   9.325   3.399   7.040  0.1641 -0.0671  0.1197
  767ERGO    R510402   9.235   3.225   7.136 -0.0877  0.1327  0.2358
  767ERGO    C110403   9.172   3.488   7.405 -0.0382  0.4781 -0.0853
  767ERGO    C210404   9.144   3.598   7.789  0.0147 -0.2574  0.0419
  768ERGO   ROH10405   8.223   0.910   6.696  0.0146  0.2438  0.0688
  768ERGO    R110406   8.334   0.825   6.942 -0.0521 -0.0530  0.0007
  768ERGO    R210407   8.348   0.989   7.163  0.3399 -0.1502  0.0568
  768ERGO    R310408   8.217   0.785   7.284 -0.0082  0.0488  0.0274
  768ERGO    R410409   8.382   0.903   7.496  0.3680 -0.3910 -0.0071
  768ERGO    R510410   8.377   0.693   7.437 -0.0957 -0.3598 -0.1148
  768ERGO    C110411   8.278   0.661   7.804  0.0575 -0.3444 -0.0719
  768ERGO    C210412   8.160   0.871   8.101 -0.0237  0.0480  0.1136
  769ERGO   ROH10413  10.836  14.344   7.413  0.0578  0.0272  0.1018
  769ERGO    R110414  10.803  14.326   7.694  0.1111  0.1900  0.1203
  769ERGO    R210415  10.649  14.506   7.837 -0.0305  0.1570  0.0185
  769ERGO    R310416  10.525  14.280   7.924  0.1797  0.1035  0.1851
  769ERGO    R410417  10.454  14.485   8.122  0.0931  0.1491  0.1024
  769ERGO    R510418  10.543  14.290   8.163  0.2612  0.2419  0.1721
  769ERGO    C110419  10.224  14.261   8.369  0.3623  0.0944  0.3078
  769ERGO    C210420   9.865  14.269   8.547 -0.1678  0.2460 -0.1026
  770ERGO   ROH10421   0.051   9.330   6.437 -0.2537 -0.0391  0.0716
  770ERGO    R110422   0.274   9.267   6.601 -0.2072 -0.0746 -0.0030
  770ERGO    R210423   0.419   9.460   6.735 -0.0597 -0.0842 -0.1364
  770ERGO    R310424   0.363   9.306   6.952 -0.0377  0.0202 -0.0570
  770ERGO    R410425   0.602   9.458   7.028  0.0416 -0.0463 -0.1995
  770ERGO    R510426   0.578   9.241   7.036 -0.0368 -0.0296 -0.1083
  770ERGO    C110427   0.656   9.311   7.403  0.1212  0.0738 -0.1618
  770ERGO    C210428   0.680   9.516   7.830  0.2427 -0.2345  0.2059
  771ERGO   ROH10429   1.696   2.011   6.585  0.1311  0.0961  0.0534
  771ERGO    R110430   1.643   1.842   6.806 -0.0533  0.1326  0.0395
  771ERGO    R210431   1.844   1.728   6.958 -0.1716 -0.1092  0.0259
  771ERGO    R310432   1.710   1.845   7.164 -0.0379  0.0268  0.0369
  771ERGO    R410433   1.876   1.639   7.290 -0.0225  0.0603  0.0581
  771ERGO    R510434   1.661   1.664   7.313 -0.0023  0.1191  0.1581
  771ERGO    C110435   1.769   1.697   7.677  0.1900  0.2867  0.0873
  771ERGO    C210436   1.812   1.874   7.956 -0.0184  0.0613 -0.1216
  772ERGO   ROH10437   5.920   4.134   6.874  0.0965  0.0831  0.0404
  772ERGO    R110438   5.841   4.098   7.143  0.1698  0.1652  0.0739
  772ERGO    R210439   5.657   3.908   7.220 -0.0901  0.4294  0.1340
  772ERGO    R310440   5.854   3.830   7.389 -0.1181  0.1035  0.0243
  772ERGO    R410441   5.604   3.772   7.533 -0.1306  0.3285  0.0839
  772ERGO    R510442   5.772   3.891   7.607  0.0381  0.0886  0.0854
  772ERGO    C110443   5.759   3.621   7.875 -0.1806 -0.0362 -0.0484
  772ERGO    C210444   5.722   3.374   8.060  0.2510 -0.0574  0.0002
  773ERGO   ROH10445   7.112  14.296   7.197 -0.2813  0.1396  0.0961
  773ERGO    R110446   7.075  14.227   7.470 -0.1831  0.1316  0.1063
  773ERGO    R210447   7.171  13.992   7.578 -0.1119  0.1539  0.0699
  773ERGO    R310448   7.288  14.160   7.756 -0.0841  0.1643  0.0444
  773ERGO    R410449   7.340  13.892   7.863  0.0296  0.1425 -0.0159
  773ERGO    R510450   7.249  14.059   7.969  0.0227  0.1121  0.0491
  773ERGO    C110451   7.549  13.993   8.196  0.1382  0.1457 -0.0898
  773ERGO    C210452   7.871  14.118   8.414  0.0424  0.1466  0.0843
  774ERGO   ROH10453   1.255   8.539   6.801  0.0714 -0.3761  0.1900
  774ERGO    R110454   1.273   8.541   7.084  0.0727 -0.1890  0.1911
  774ERGO    R210455   1.513   8.520   7.218  0.0730 -0.1430  0.2068
  774ERGO    R310456   1.429   8.748   7.339  0.1127 -0.0439  0.0477
  774ERGO    R410457   1.656   8.657   7.501  0.0437 -0.0006  0.1532
  774ERGO    R510458   1.455   8.705   7.573  0.0470  0.1007  0.0792
  774ERGO    C110459   1.661   8.951   7.779  0.0640  0.1754 -0.0273
  774ERGO    C210460   1.939   9.014   7.988 -0.0382  0.1278  0.1017
  775ERGO   ROH10461   1.769   4.360   6.812 -0.1442  0.0232 -0.1094
  775ERGO    R110462   1.711   4.390   7.088 -0.1583 -0.1706 -0.0900
  775ERGO    R210463   1.615   4.627   7.194  0.0960 -0.1579  0.1146
  775ERGO    R310464   1.417   4.466   7.289 -0.1100 -0.0212 -0.0728
  775ERGO    R410465   1.368   4.725   7.416  0.1523 -0.0641  0.1364
  775ERGO    R510466   1.389   4.533   7.516 -0.0868 -0.1801 -0.0190
  775ERGO    C110467   1.039   4.632   7.633 -0.0083  0.1190 -0.0269
  775ERGO    C210468   0.788   4.757   7.689 -0.0583  0.2314 -0.0817
  776W        W10469  15.641   0.857  11.270 -0.0153 -0.1807  0.0363
  777W        W10470  16.555   3.509  13.438  0.0288  0.0983  0.1888
  778W        W10471   7.620  10.211  13.444  0.1188 -0.2248  0.0231
  779W        W10472  14.655   3.023  13.402 -0.1214  0.3149 -0.1536
  780W        W10473   1.784   4.804   3.610  0.0274  0.1090 -0.0997
  781W        W10474  17.587  11.232  16.828  0.0909  0.0518  0.0262
  782W        W10475   7.467   9.608  12.877 -0.0505 -0.2439  0.1190
  783W        W10476   4.617   7.093  17.026 -0.4224 -0.1355 -0.0420
  784W        W10477   7.959  17.851   6.790  0.0505 -0.1654 -0.1133
  785W        W10478  16.829  17.638   5.763  0.0748 -0.2397  0.2130
  786W        W10479   6.946   8.671  16.334  0.0022  0.2048 -0.0384
  787W        W10480  17.535   6.531  13.765 -0.3288  0.0993  0.0926
  788W        W10481  11.695  16.265   3.845 -0.2431 -0.0234  0.0403
  789W        W10482   9.572   1.640   5.048 -0.4004  0.0759 -0.2125
  790W        W10483   0.494  12.023  15.509 -0.1441  0.0411  0.1588
  791W        W10484   2.996   1.999   1.051  0.0962 -0.3016 -0.0859
  792W        W10485   7.852   2.758  16.442  0.1530 -0.0083 -0.0111
  793W        W10486   7.199  14.906   1.955 -0.0383  0.3594  0.3731
  794W        W10487   8.908   6.569   3.121 -0.2640  0.1905 -0.5785
  795W        W10488   4.423  16.387  12.319  0.1589  0.0758 -0.0149
  796W        W10489  14.786  13.533   1.803  0.0290  0.1669  0.1349
  797W        W10490   3.476  11.366  12.638  0.1082  0.0804  0.1139
  798W        W10491   4.768   7.622  13.733  0.4012 -0.0664  0.0721
  799W        W10492   6.368  12.244  16.298  0.1663 -0.0490  0.1896
  800W        W10493  10.561   9.531  14.063 -0.0477 -0.0302 -0.1478
  801W        W10494  16.178   4.844  14.862 -0.4169  0.2437  0.0996
  802W        W10495  14.839   3.529   4.046 -0.0357  0.0346 -0.2081
  803W        W10496   9.871  14.620  16.226 -0.2931 -0.1121 -0.2989
  804W        W10497   8.187   3.287  14.103 -0.3550 -0.0575 -0.1988
  805W        W10498  11.719  17.969   5.109  0.1639 -0.1260 -0.3283
  806W        W10499   0.438   1.551  14.316  0.0055  0.2179  0.0375
  807W        W10500   4.714  17.242  16.032  0.0105  0.1644  0.1179
  808W        W10501   4.260  15.732  11.664 -0.0939  0.1280  0.0635
  809W        W10502  10.032   5.552   5.024  0.2735  0.1640  0.0217
  810W        W10503   3.614  17.377   0.549  0.0603 -0.4922  0.0625
  811W        W10504  10.378   2.622   4.531 -0.1603  0.0131  0.1944
  812W        W10505   0.609  12.661  12.968 -0.0811 -0.3377  0.0004
  813W        W10506   1.367   9.459   3.762  0.1897  0.2187  0.0709
  814W        W10507   2.919  16.276  15.985  0.2197  0.0579 -0.0408
  815W        W10508  10.821  15.272  12.478 -0.0940  0.0495 -0.1801
  816W        W10509   3.862  10.324   5.082  0.2086  0.0133  0.0977
  817W        W10510  12.701   8.974   0.039  0.1151  0.1430  0.3105
  818W        W10511  10.638  16.694  13.881 -0.2395 -0.2195  0.0403
  819W        W10512  14.733   3.717   5.399 -0.0159  0.0625  0.3485
  820W        W10513   0.523  12.104   5.032  0.2253 -0.1109  0.0533
  821W        W10514   8.246  15.266  12.168 -0.2584  0.1641  0.2392
  822W        W10515   5.784   0.688  13.405  0.1955 -0.3600  0.0155
  823W        W10516   3.776   3.889  13.538  0.2070  0.2599  0.0266
  824W        W10517   3.955   0.194  11.822  0.1765  0.0670 -0.0910
  825W        W10518  11.202   8.469  15.875 -0.0489  0.2354 -0.2735
  826W        W10519   4.739  10.373   0.803 -0.1068  0.1230 -0.1541
  827W        W10520   8.149   8.450   3.213  0.2798 -0.2142  0.1288
  828W        W10521   8.566  13.052  15.282 -0.2939 -0.1172 -0.0585
  829W        W10522   4.238   5.345  14.708  0.0712 -0.2289 -0.0487
  830W        W10523   8.465   6.291  13.447  0.1726 -0.2133  0.0267
  831W        W10524   3.630   9.241  15.091  0.1149  0.4316 -0.0419
  832W        W10525   0.066   5.241  14.766  0.2092 -0.0373  0.0622
  833W        W10526   6.023  16.387   4.035 -0.0805  0.0930 -0.1995
  834W        W10527   8.197   0.894  12.865  0.0467  0.0694 -0.4149
  835W        W10528  15.288  14.034  14.216 -0.3648  0.0166  0.0469
  836W        W10529  16.461   9.239  12.917 -0.0259  0.0525  0.0544
  837W        W10530   5.095  16.147  14.074 -0.1900 -0.1069 -0.1843
  838W        W10531   2.653   7.260   1.522  0.1384 -0.0805  0.4084
  839W        W10532   4.998  11.666   5.679 -0.0656 -0.0116  0.0568
  840W        W10533   1.550   1.905   0.311 -0.1008  0.0298  0.0523
  841W        W10534   1.772  12.766  15.753 -0.1097  0.1522 -0.1579
  842W        W10535  17.847  11.660   3.481 -0.2424 -0.0213 -0.2955
  843W        W10536  10.348  15.566  16.978  0.1694  0.1236  0.2584
  844W        W10537   5.067   0.956   0.191 -0.2692 -0.5006  0.1029
  845W        W10538  10.671   1.858   3.020 -0.0480  0.0343  0.2688
  846W        W10539   7.438   1.168   4.044 -0.1389  0.0937 -0.0412
  847W        W10540   0.829   1.570  14.659 -0.0573 -0.0208  0.1238
  848W        W10541  17.607   0.906  14.398 -0.0032 -0.0659 -0.0549
  849W        W10542  15.271  11.136   2.893 -0.4025  0.0567  0.1280
  850W        W10543  13.062   0.315   2.083 -0.0446 -0.1450 -0.2912
  851W        W10544   1.249  17.798   5.478  0.1868  0.0184 -0.1759
  852W        W10545   7.778   2.738   4.422 -0.0164 -0.0174  0.2204
  853W        W10546  17.896  11.551  12.949  0.0750 -0.1336 -0.1776
  854W        W10547   4.525   9.571   5.108 -0.1102 -0.1184  0.2623
  855W        W10548  11.833   4.118  15.976 -0.3354 -0.0047 -0.0554
  856W        W10549   1.595  12.553  13.379 -0.2601  0.0796  0.1038
  857W        W10550   8.381   8.056   0.733  0.0575 -0.3504 -0.0195
  858W        W10551   2.409   7.361  16.338  0.0271 -0.1482 -0.2757
  859W        W10552   7.767  16.743  14.789  0.0018  0.0443  0.3937
  860W        W10553   2.008   5.468   1.605 -0.2732 -0.1312 -0.1277
  861W        W10554   5.968  16.910  16.954  0.1299 -0.2554 -0.0825
  862W        W10555  15.780   1.077   5.240 -0.0849  0.0442 -0.1774
  863W        W10556  14.960   0.269   1.805  0.2223  0.0551  0.4499
  864W        W10557   9.311  15.647   3.334 -0.2266  0.0748  0.0233
  865W        W10558   8.041  10.465   3.181 -0.2039 -0.1267  0.1156
  866W        W10559  17.258   2.107  16.794  0.2856 -0.0884  0.2181
  867W        W10560  16.473  15.788  12.030  0.2148  0.0401  0.0616
  868W        W10561   9.025   6.390   4.975  0.0971  0.0119  0.0582
  869W        W10562   5.394  12.909  14.730  0.0594 -0.4001  0.0356
  870W        W10563   9.910  13.075   3.209  0.1221  0.0145 -0.0335
  871W        W10564  10.525   5.995   4.750  0.0424  0.1422  0.0562
  872W        W10565   5.482   3.882  12.251  0.1650 -0.2395  0.4677
  873W        W10566   6.355  12.953   0.389 -0.1031 -0.1711 -0.1004
  874W        W10567   7.358   5.497  16.943 -0.0682  0.1750 -0.0567
  875W        W10568  17.654  13.344   2.753 -0.1287 -0.0516  0.2140
  876W        W10569   4.551   8.057  13.832  0.0170 -0.0711  0.2371
  877W        W10570  17.038  12.265  14.833 -0.2777 -0.0144  0.0468
  878W        W10571   2.747  10.249  14.122  0.1096  0.1948 -0.2343
  879W        W10572   2.863  11.923   3.563  0.2168 -0.3878  0.1794
  880W        W10573   0.762  12.075  12.095 -0.0572 -0.2949 -0.0877
  881W        W10574   2.781   6.802  12.087 -0.0540 -0.0163 -0.0398
  882W        W10575  17.020   5.156  15.963 -0.3038  0.2289  0.0470
  883W        W10576   5.787   3.843  15.135 -0.1162  0.0981 -0.1655
  884W        W10577   6.762   3.646   5.849 -0.0380  0.1180 -0.1269
  885W        W10578   6.226   4.396  11.971  0.1062 -0.2452  0.0493
  886W        W10579   9.326  11.612  15.883 -0.0029  0.4741  0.0729
  887W        W10580  11.571  14.872   0.455  0.2666  0.1715 -0.4379
  888W        W10581  16.931   9.581   1.038 -0.0077  0.3350 -0.2322
  889W        W10582   4.572  15.807  12.992 -0.2084  0.0269  0.0310
  890W        W10583   8.477   1.949  11.865 -0.0298  0.2886  0.0496
  891W        W10584   3.205  17.041   1.559 -0.0749 -0.0955  0.1206
  892W        W10585   3.885   9.533   3.910 -0.1774 -0.2677 -0.1532
  893W        W10586  10.041  10.114   1.958 -0.0237  0.3772  0.0638
  894W        W10587   2.959   0.865  14.908 -0.1276 -0.1326 -0.1537
  895W        W10588   8.129  17.814   4.984  0.0238  0.3030 -0.4921
  896W        W10589   8.596  15.794   0.964  0.1880  0.1124  0.3111
  897W        W10590   2.881  17.106   3.365 -0.0744  0.2737 -0.0074
  898W        W10591   2.022   3.798   5.442 -0.0323 -0.1127 -0.3054
  899W        W10592   3.810   0.675  15.876  0.0308 -0.0170  0.2503
  900W        W10593   8.831  17.186   3.007 -0.1426  0.0155  0.3111
  901W        W10594  16.352  13.586  16.500 -0.0537 -0.0213  0.1398
  902W        W10595   5.082  15.887  11.481  0.1703 -0.0434 -0.0775
  903W        W10596   5.489   6.643  14.084 -0.6062 -0.2355 -0.2593
  904W        W10597   4.251   8.504  13.673  0.2636 -0.2372  0.0238
  905W        W10598   5.258   9.663   5.763 -0.0063 -0.0621  0.1967
  906W        W10599   3.634  10.911   0.682 -0.2307 -0.1938 -0.1919
  907W        W10600   7.380  14.106   0.407 -0.3879 -0.1720  0.0268
  908W        W10601  12.531   9.183   5.792 -0.0379  0.3032  0.2679
  909W        W10602   3.838   0.305   1.844  0.0309 -0.1070  0.0235
  910W        W10603   2.151   7.488  15.305  0.1390  0.2157  0.1204
  911W        W10604  10.504  10.852  15.961  0.0613 -0.1765 -0.1274
  912W        W10605  14.101   9.032  16.095 -0.2061 -0.1424 -0.2053
  913W        W10606   1.649  10.219  12.801  0.1244 -0.1218 -0.0913
  914W        W10607   1.785   6.999   2.473  0.1676  0.2393 -0.2944
  915W        W10608   1.685  17.598   4.346 -0.0130 -0.5249 -0.3061
  916W        W10609   3.157   0.660  16.997 -0.1581  0.0444  0.2289
  917W        W10610   4.952   4.288  12.323  0.0149  0.2695  0.0121
  918W        W10611   4.085   2.828  11.069  0.0302  0.2036  0.2364
  919W        W10612  16.505   1.658  15.228  0.0866  0.0435 -0.0839
  920W        W10613  14.285   1.783  14.398 -0.0650  0.0354  0.1679
  921W        W10614  14.700   5.467  12.107 -0.0662  0.2320  0.2172
  922W        W10615   9.482  14.496   6.066 -0.2042  0.0569 -0.2744
  923W        W10616  16.259  17.672  10.810  0.0573 -0.0378 -0.3627
  924W        W10617   4.147  11.543   2.349 -0.1643  0.1351 -0.0550
  925W        W10618  10.662  14.775   2.122  0.1657 -0.3055 -0.0715
  926W        W10619  10.794  13.204   1.994  0.0035  0.3392  0.4478
  927W        W10620  10.664  16.452  11.826  0.0943 -0.0386 -0.0701
  928W        W10621   2.521  16.808  16.238 -0.3245 -0.0703  0.0813
  929W        W10622   2.869   9.156   3.678 -0.0710  0.1342 -0.0755
  930W        W10623  10.251  13.447   3.960 -0.1073  0.1511  0.1161
  931W        W10624   6.704  17.537  11.420 -0.0898  0.0523 -0.2183
  932W        W10625   7.808   3.855   1.968  0.3132  0.0413  0.1296
  933W        W10626  17.777  12.172   6.232 -0.0346  0.0132 -0.1471
  934W        W10627   2.944   3.434  14.554  0.0506 -0.0606  0.0643
  935W        W10628   1.107   1.469   3.774 -0.0347  0.1342  0.2907
  936W        W10629  10.478  11.414   1.909 -0.0947 -0.4169  0.0366
  937W        W10630   1.184   0.787  16.411  0.5467 -0.1141 -0.2588
  938W        W10631   3.294   9.407   3.929  0.0634  0.0621  0.1632
  939W        W10632  11.968   1.704  11.274 -0.0034 -0.0652  0.1630
  940W        W10633  17.227   5.802   0.154  0.3298 -0.0398 -0.1003
  941W        W10634  10.540   6.443   0.754 -0.0599  0.0867  0.3204
  942W        W10635  13.997  13.312  16.278  0.0376 -0.3074  0.0432
  943W        W10636   3.740  13.672  16.275  0.1714  0.0665  0.0988
  944W        W10637   6.599  17.078  13.114 -0.3269 -0.1357  0.0490
  945W        W10638   3.933   6.861   1.126 -0.1041  0.3601  0.1553
  946W        W10639   6.435  13.523   6.317 -0.0289 -0.0604 -0.0459
  947W        W10640   9.104  13.437  13.232 -0.0079  0.2303  0.0552
  948W        W10641   6.999   8.614  12.092  0.1382  0.2313 -0.0795
  949W        W10642   1.168   0.566  12.144  0.1729  0.0212  0.0728
  950W        W10643   6.148   0.499   3.867 -0.1412  0.2104 -0.2264
  951W        W10644   2.543  12.815   4.747  0.2072  0.0598  0.0874
  952W        W10645   2.313   5.866  12.242  0.0425 -0.1082 -0.2234
  953W        W10646   7.849   2.985   0.824  0.1631 -0.2583 -0.1576
  954W        W10647  11.517   7.521   5.627  0.1321  0.2056  0.1178
  955W        W10648   7.642   7.752   1.423 -0.1091 -0.1525 -0.0068
  956W        W10649  10.321   9.895  15.843 -0.0222  0.3254 -0.0184
  957W        W10650   8.778  15.760  13.341  0.1572  0.1250  0.2627
  958W        W10651   5.967  12.892  14.876  0.2189 -0.0250  0.1060
  959W        W10652  11.129  17.115   1.624 -0.2792 -0.0297 -0.4687
  960W        W10653   0.733  12.905   4.685  0.4007  0.2464 -0.1020
  961W        W10654   9.212  17.885  15.986 -0.2669  0.0025  0.0216
  962W        W10655   5.427  15.590   4.874  0.2221  0.0998 -0.0792
  963W        W10656   8.801   3.605   1.788 -0.0454  0.1930 -0.1211
  964W        W10657  15.752   2.659   0.723  0.5302  0.3005 -0.1770
  965W        W10658   0.924  16.205  11.624 -0.1235  0.5497 -0.0785
  966W        W10659   5.534   6.132   4.179  0.2656  0.0921  0.0157
  967W        W10660   0.997   2.503   2.070  0.1152  0.2216  0.0171
  968W        W10661  14.494  10.757  16.903  0.0741  0.0678  0.1784
  969W        W10662  17.908   8.063  15.350 -0.0531  0.1534 -0.2144
  970W        W10663   4.174   1.972  16.106 -0.0914 -0.0270 -0.2081
  971W        W10664   1.318  15.325  13.479  0.1358  0.0743 -0.0474
  972W        W10665  14.676   6.240  15.239 -0.0891  0.0136  0.2236
  973W        W10666   9.106  16.494   0.811  0.0493 -0.0861 -0.1674
  974W        W10667  11.844  16.857   2.994  0.1179  0.2334 -0.2072
  975W        W10668   0.019  16.828  10.720 -0.0639 -0.1206  0.1638
  976W        W10669   3.664  16.856   1.389  0.1808 -0.0270 -0.1200
  977W        W10670   5.121  11.337   1.089  0.2307 -0.1908 -0.4143
  978W        W10671   7.509  12.555  16.630  0.0499 -0.0086  0.0756
  979W        W10672   9.577   0.318   2.630 -0.3220 -0.0195 -0.0583
  980W        W10673   4.052   0.793  14.566 -0.1666  0.1409 -0.2335
  981W        W10674   4.001  16.452  13.210 -0.0233 -0.0391 -0.0128
  982W        W10675  15.502  12.972   2.781  0.0303 -0.1231  0.1598
  983W        W10676   1.839  13.454   4.787  0.0786 -0.2512 -0.0577
  984W        W10677  15.913   7.864   0.844  0.1271  0.1689 -0.0422
  985W        W10678   2.016   3.664  14.638  0.5502 -0.1337  0.1434
  986W        W10679   7.620  12.191   3.299 -0.2878  0.1177 -0.0693
  987W        W10680   0.855   3.689  15.543 -0.2182  0.0484 -0.1121
  988W        W10681   1.602   0.769  12.493  0.0155  0.1201  0.1213
  989W        W10682  16.971   7.057   2.844 -0.1175 -0.1334  0.2715
  990W        W10683  12.064  10.246   3.883 -0.2467 -0.0335 -0.0475
  991W        W10684   7.087  10.848   4.868  0.2192 -0.0134  0.1280
  992W        W10685   9.066  17.570  11.657 -0.3901 -0.1291 -0.0743
  993W        W10686   3.576  12.853  12.686  0.3053 -0.0111 -0.0710
  994W        W10687   2.942   8.080   6.332  0.1878  0.1594  0.1799
  995W        W10688  13.176   3.231   7.074 -0.0488 -0.0161  0.0395
  996W        W10689   2.689   4.535  15.929  0.2376  0.0608 -0.5046
  997W        W10690   0.928  16.085   1.156 -0.0191 -0.0121  0.3897
  998W        W10691  11.194  16.955  13.195  0.1075 -0.0012  0.0226
  999W        W10692   4.727  17.219   2.878  0.2219  0.0717 -0.0863
 1000W        W10693  10.204   5.003   3.205  0.1801 -0.2149  0.3360
 1001W        W10694   7.229   7.678  13.634  0.0620 -0.2661  0.1231
 1002W        W10695   7.275   9.033  15.840  0.3150 -0.1532 -0.2772
 1003W        W10696   2.245  12.412  16.547 -0.1808  0.3415  0.0708
 1004W        W10697   2.217   6.434   2.680  0.0333 -0.3079 -0.1360
 1005W        W10698   2.115   6.755  13.268 -0.2809  0.1460  0.0426
 1006W        W10699  12.415  11.345  12.967 -0.1257 -0.2900  0.1618
 1007W        W10700   4.010   9.332  12.048  0.2341 -0.3610 -0.2980
 1008W        W10701  14.806   5.951  10.463 -0.2802 -0.0058 -0.4124
 1009W        W10702   2.867  16.629   3.091  0.0857 -0.2175  0.0521
 1010W        W10703  12.818  15.334  11.635 -0.2217  0.0750  0.1302
 1011W        W10704   2.235   8.159   2.733 -0.0167 -0.1517 -0.1568
 1012W        W10705   0.174   4.135   3.693  0.2843 -0.2396  0.0989
 1013W        W10706  10.130   6.105   5.002  0.0411  0.3453 -0.0447
 1014W        W10707   8.429   2.625   0.137  0.0489 -0.0206 -0.1025
 1015W        W10708  17.604  11.952  13.623  0.2258 -0.2513 -0.3153
 1016W        W10709   5.144  14.662  17.081  0.3724  0.3054 -0.1208
 1017W        W10710   2.521  10.811   3.754  0.0322 -0.0951 -0.0062
 1018W        W10711  16.975   9.341  16.353 -0.3240  0.2153 -0.1885
 1019W        W10712  11.879  10.355  14.793 -0.3175 -0.0065 -0.5069
 1020W        W10713  14.364   3.083  14.662 -0.0207 -0.0152  0.0891
 1021W        W10714   0.194   4.486   3.323 -0.2913  0.1641  0.0847
 1022W        W10715   6.304   5.828   6.513 -0.2998  0.1890  0.4771
 1023W        W10716   5.710   4.826  15.664  0.0646  0.2991 -0.2546
 1024W        W10717   7.916  12.637   3.332 -0.1323 -0.2213 -0.3506
 1025W        W10718  10.689  16.315   2.269 -0.2763  0.2667  0.2842
 1026W        W10719  15.603  10.828  12.567  0.0381  0.0426 -0.2959
 1027W        W10720  16.784  15.477   3.453  0.2029 -0.1496  0.1277
 1028W        W10721   2.701   2.792  16.233  0.0525  0.2117 -0.1919
 1029W        W10722   2.754   4.555   2.353  0.2158 -0.2782  0.1531
 1030W        W10723   5.623  12.467  15.635 -0.1868  0.2623  0.0042
 1031W        W10724   9.732   5.216  13.760  0.0487 -0.0349 -0.3334
 1032W        W10725   1.961   9.678  15.223  0.0439 -0.2074  0.0249
 1033W        W10726  11.051   9.314   2.259 -0.1643  0.6459  0.1358
 1034W        W10727   5.855   9.521   3.595  0.2995 -0.3040  0.2724
 1035W        W10728   7.587   4.177   4.961  0.0620  0.0551  0.2748
 1036W        W10729   4.288   2.569  13.820 -0.3290  0.0430  0.2314
 1037W        W10730  15.737  17.868   0.107 -0.0102  0.2162  0.0994
 1038W        W10731  16.525  14.982   2.058 -0.0088  0.2937 -0.1247
 1039W        W10732  11.743  16.010   0.731 -0.0125 -0.0131 -0.2762
 1040W        W10733   9.767  14.980  11.521  0.0547 -0.1666 -0.2140
 1041W        W10734  15.334  13.837   2.773 -0.0672  0.2492  0.0722
 1042W        W10735   4.639  10.384  12.465  0.0085 -0.0986  0.1476
 1043W        W10736   7.640  15.024  13.895 -0.1076  0.5349 -0.3903
 1044W        W10737   5.201   4.427   0.588 -0.0897  0.1854  0.0147
 1045W        W10738   3.440  16.995   2.506  0.0941  0.0384  0.2342
 1046W        W10739   4.639  16.306  12.871  0.0800  0.3575 -0.2174
 1047W        W10740   2.943  14.139  11.312 -0.1467  0.1208 -0.0744
 1048W        W10741  17.434   3.281  15.939 -0.3399 -0.2194  0.2810
 1049W        W10742   5.341  17.174   1.636 -0.2612  0.1748  0.1080
 1050W        W10743   3.830   8.570   0.534 -0.3375 -0.4647  0.2578
 1051W        W10744   4.480   7.716  15.846 -0.1531  0.1336  0.2919
 1052W        W10745  15.799   4.873   2.185 -0.0456 -0.0954 -0.0361
 1053W        W10746   3.015  12.759   5.518 -0.0688  0.0108  0.0351
 1054W        W10747  11.133  12.109   6.370  0.2793  0.0883 -0.2064
 1055W        W10748   1.546  17.085  16.791  0.1570  0.1305 -0.0451
 1056W        W10749  15.835   3.411  16.708 -0.1141  0.0638 -0.0310
 1057W        W10750   3.123  14.991  15.177 -0.0053 -0.0144  0.2147
 1058W        W10751   3.498  10.621  16.334 -0.2077 -0.2977  0.1656
 1059W        W10752   3.717  10.297   4.045 -0.0621 -0.2628 -0.0964
 1060W        W10753   6.153  16.127   0.996  0.1313 -0.2064  0.2077
 1061W        W10754   7.971  11.068  11.820 -0.3867 -0.1852 -0.2076
 1062W        W10755  14.403   3.560  15.784  0.1918 -0.2412 -0.1617
 1063W        W10756   4.488  10.080  15.801  0.4326  0.1816  0.0987
 1064W        W10757   4.837  15.836   5.633  0.1778 -0.2841 -0.0924
 1065W        W10758   5.907   1.986  13.421 -0.0254 -0.0256 -0.1275
 1066W        W10759  13.467  13.211   4.612  0.4188 -0.1653 -0.3121
 1067W        W10760   0.169  14.514   1.760 -0.0039  0.0718  0.1718
 1068W        W10761   5.658  11.107  12.256  0.2565 -0.0699 -0.3069
 1069W        W10762  12.174  11.057  11.446  0.0319 -0.3756 -0.0510
 1070W        W10763   7.412  12.327  17.063  0.0948 -0.0928 -0.1243
 1071W        W10764   7.274   8.345  15.026 -0.1937  0.0461 -0.2885
 1072W        W10765   5.626  13.728  10.987  0.1954 -0.0207 -0.1861
 1073W        W10766  15.965   6.125   0.483  0.0411  0.1963 -0.1279
 1074W        W10767   0.486  11.617   4.810  0.2142 -0.3927  0.1112
 1075W        W10768  12.915   2.044   0.067 -0.1943 -0.1718 -0.1162
 1076W        W10769   5.853  17.817   5.513  0.1540  0.1184  0.0177
 1077W        W10770   0.432   2.870  15.212  0.1443 -0.1860  0.0805
 1078W        W10771  13.003   9.185  12.694 -0.0111 -0.0311  0.2552
 1079W        W10772  11.784   1.038   2.015  0.1767 -0.1885  0.1221
 1080W        W10773   9.084   1.874  17.047 -0.2232 -0.0180 -0.3554
 1081W        W10774   5.084   7.413   0.873 -0.1366  0.0463  0.0334
 1082W        W10775   2.278  14.102   3.486  0.0478  0.2000  0.0593
 1083W        W10776   3.329  12.170  11.963 -0.0885 -0.1839  0.0417
 1084W        W10777  17.954   1.810  13.238  0.1092 -0.4437  0.0638
 1085W        W10778   2.121   2.623   3.000  0.1163  0.0684 -0.2165
 1086W        W10779   3.911  12.882   5.388  0.1486  0.2848  0.2264
 1087W        W10780   4.689   0.161   5.529  0.1445  0.1149  0.0327
 1088W        W10781   6.599  14.016  15.203  0.0693 -0.2759  0.2038
 1089W        W10782   4.126   8.935  13.925  0.1508  0.1805  0.3937
 1090W        W10783   4.686   1.535   5.299 -0.1457 -0.0900  0.2657
 1091W        W10784  16.606  14.215   4.377  0.0171  0.1266  0.4378
 1092W        W10785   5.717   2.782   5.711 -0.1162  0.2110 -0.0477
 1093W        W10786   7.928  11.916   5.928  0.0360 -0.0394 -0.1120
 1094W        W10787  17.661   0.832   5.730 -0.1976  0.3113 -0.1342
 1095W        W10788   5.012   3.218   1.369 -0.2040  0.2449 -0.0339
 1096W        W10789   5.218   7.240   0.416 -0.3558 -0.0654  0.1323
 1097W        W10790   6.662  12.744   1.127  0.2461  0.2539 -0.0205
 1098W        W10791   8.656  15.063   3.096 -0.0443 -0.0162  0.3531
 1099W        W10792   1.952   6.920   2.912 -0.1120 -0.2854 -0.1980
 1100W        W10793   1.153   3.983  13.115  0.2204 -0.1089 -0.0631
 1101W        W10794   5.140  16.971  12.583  0.0889 -0.1011  0.0217
 1102W        W10795  15.824  14.098   4.308 -0.0799  0.1298  0.3443
 1103W        W10796   9.106   1.539   5.573  0.0723 -0.0914  0.0119
 1104W        W10797  12.517   4.277   2.904 -0.0428  0.4448 -0.3268
 1105W        W10798   2.298  15.549  17.044 -0.0713  0.2454 -0.0717
 1106W        W10799   0.108   4.796  15.000  0.4209  0.0084 -0.2002
 1107W        W10800   4.939   4.580  13.645 -0.0133  0.0143 -0.2849
 1108W        W10801   6.985  15.406   3.999  0.1734 -0.2469 -0.1995
 1109W        W10802   0.948  11.020  10.243  0.0886 -0.3800 -0.2344
 1110W        W10803   0.725  16.661   3.672  0.1472 -0.1823  0.0614
 1111W        W10804   1.950  12.727   2.345 -0.0372 -0.3234 -0.1365
 1112W        W10805   9.575   7.489   3.748 -0.2979 -0.2699 -0.2531
 1113W        W10806   4.246  13.249  15.809 -0.1792 -0.0075  0.2460
 1114W        W10807   8.044  13.263  16.548  0.0651  0.1778  0.0057
 1115W        W10808   3.306   6.233   3.126  0.0280 -0.0497  0.1995
 1116W        W10809  12.463  11.830  13.858  0.1219  0.1957  0.3767
 1117W        W10810   1.240  10.429   3.002 -0.1135  0.2801  0.1975
 1118W        W10811  15.991   5.691  11.670 -0.1161  0.0681  0.1285
 1119W        W10812   7.237   0.369   1.490  0.2659 -0.2409 -0.1046
 1120W        W10813   1.955   7.587  14.228  0.0004  0.0212 -0.3926
 1121W        W10814  10.758   4.865  16.945 -0.1532 -0.3941  0.4371
 1122W        W10815  14.027  17.733  11.615 -0.0106 -0.0272 -0.0756
 1123W        W10816   6.182  14.473   4.064 -0.1190  0.1523  0.0578
 1124W        W10817   8.385  14.934   6.087 -0.0701 -0.0119  0.2782
 1125W        W10818   7.480  10.753  13.387  0.0110  0.0560  0.0507
 1126W        W10819  10.826  13.273   3.247 -0.0020  0.0121 -0.0534
 1127W        W10820  10.688  15.603   5.422  0.0104  0.1936 -0.2837
 1128W        W10821  16.705  12.915   0.260  0.0265  0.2896 -0.0271
 1129W        W10822   0.300   2.971  12.903  0.1385  0.0387 -0.0533
 1130W        W10823  14.209  17.586   2.246 -0.2549  0.0180 -0.0823
 1131W        W10824   0.787   6.206  16.844  0.0275  0.0532 -0.4114
 1132W        W10825   7.509   0.449   3.381 -0.0489  0.2254  0.2102
 1133W        W10826   5.050   8.611   1.691 -0.1501  0.2159  0.1449
 1134W        W10827  15.831   2.277  13.004 -0.0438  0.0012 -0.2371
 1135W        W10828   3.378   0.818   0.682  0.2671  0.2701 -0.1029
 1136W        W10829   6.597   2.322  16.649  0.1745 -0.1596  0.1953
 1137W        W10830   8.263  12.856  11.817  0.1855 -0.0501 -0.0768
 1138W        W10831   7.110   0.747  12.525 -0.1947  0.0029  0.0205
 1139W        W10832   6.614  16.681  12.094  0.1497 -0.0690 -0.0941
 1140W        W10833   3.083   5.890  15.406  0.0036 -0.0366 -0.3758
 1141W        W10834   7.427  15.660   3.092 -0.5471  0.3589  0.0567
 1142W        W10835   2.950   5.286  12.782  0.0261  0.0760  0.1097
 1143W        W10836   6.088  10.608  15.462  0.0395 -0.1271 -0.0348
 1144W        W10837   5.906   4.272  14.219  0.1996  0.2885 -0.0968
 1145W        W10838  16.878  12.347  12.134 -0.0649 -0.1704  0.0884
 1146W        W10839   3.902  13.133   6.793  0.0970  0.2312 -0.2003
 1147W        W10840  15.214   3.546  12.109 -0.1673 -0.2520  0.1583
 1148W        W10841  12.473   8.983  13.835  0.1123 -0.2416 -0.0875
 1149W        W10842  17.913   9.038   3.989  0.0655 -0.1492  0.4831
 1150W        W10843   3.640   4.571   3.266 -0.0149 -0.4663  0.3827
 1151W        W10844   2.002  16.132   4.631 -0.2708  0.1838  0.2040
 1152W        W10845   2.041  13.885   5.544  0.1215  0.1635 -0.0265
 1153W        W10846   0.058   9.141   5.483  0.0258  0.1596  0.1532
 1154W        W10847   5.642  13.937  11.864 -0.0150 -0.0824 -0.0813
 1155W        W10848   1.373   4.525   0.029  0.0028  0.3239  0.1732
 1156W        W10849  17.444   0.976   3.547  0.1998 -0.0265 -0.2711
 1157W        W10850   9.273   6.043   2.908 -0.2174 -0.0849  0.0806
 1158W        W10851   6.182   2.855   5.776  0.0070  0.0730  0.1027
 1159W        W10852   5.423  13.559  15.546 -0.0217 -0.0195 -0.3586
 1160W        W10853  10.759   1.811   4.623 -0.0804 -0.0358 -0.4612
 1161W        W10854   4.571   1.257   2.236 -0.2817  0.1800 -0.1906
 1162W        W10855   7.962  11.799   3.108 -0.0280  0.0989 -0.0214
 1163W        W10856   3.458   6.288  16.384  0.3054  0.0607  0.1229
 1164W        W10857  17.507  17.495  13.414  0.0505 -0.0999  0.2277
 1165W        W10858  17.922  13.148   3.922 -0.0564  0.1017 -0.1144
 1166W        W10859   5.295  14.910   4.109  0.2653  0.2344 -0.0360
 1167W        W10860   7.882  10.418  14.565  0.0186 -0.1977 -0.1169
 1168W        W10861   6.665  16.292   1.219 -0.3006 -0.1013  0.0442
 1169W        W10862   5.716   9.616  15.941  0.1149 -0.0549 -0.3227
 1170W        W10863  14.179   7.696   5.091 -0.2034 -0.2794 -0.0437
 1171W        W10864   1.657   6.561   5.611  0.1413 -0.0086 -0.1848
 1172W        W10865   3.649   5.779   6.288  0.1040  0.1571 -0.1902
 1173W        W10866   5.661  16.614  16.628 -0.0178  0.1576 -0.0671
 1174W        W10867   6.877  14.912   3.320  0.3057 -0.2662  0.1908
 1175W        W10868   5.077  16.041  15.828  0.1261  0.1192  0.4084
 1176W        W10869  16.571   1.040  11.064  0.0180 -0.1042 -0.1750
 1177W        W10870   5.551  14.218  13.495 -0.0934 -0.1073  0.0504
 1178W        W10871   0.678   6.369  15.579 -0.0732  0.2332  0.1670
 1179W        W10872   8.312   5.732   3.937  0.0610  0.1408  0.1717
 1180W        W10873   9.411  15.781  12.040  0.3954 -0.0409  0.2024
 1181W        W10874  17.406   2.771   1.496 -0.1413 -0.1427  0.1203
 1182W        W10875   4.729  17.095  15.517  0.3438  0.1103 -0.5664
 1183W        W10876   8.889  13.240   6.841 -0.1487  0.0566  0.2279
 1184W        W10877   7.004  10.696   0.483  0.1700  0.0859 -0.1501
 1185W        W10878  12.631  17.143   1.952  0.1334  0.1377 -0.0192
 1186W        W10879   7.992   3.654   1.570  0.1681  0.0142 -0.3083
 1187W        W10880   2.749   4.237  11.903  0.1133  0.0565  0.0995
 1188W        W10881  17.972   3.959   5.604 -0.0179  0.3092 -0.0747
 1189W        W10882   9.041  13.278  14.670 -0.0291  0.0514 -0.2367
 1190W        W10883   0.185  17.845  11.670  0.0955 -0.1044 -0.0099
 1191W        W10884   9.327   2.243  15.032 -0.0517 -0.0558 -0.1277
 1192W        W10885  16.155   1.693  16.103 -0.2105 -0.1962 -0.1555
 1193W        W10886   3.882   6.966   1.666  0.0477  0.0572 -0.1318
 1194W        W10887   6.341  12.657   1.570 -0.2904  0.3832 -0.1638
 1195W        W10888   2.448  10.752  16.573 -0.3232  0.0287  0.1065
 1196W        W10889   7.600  12.651  12.666  0.1144  0.0991  0.1139
 1197W        W10890   0.515   6.678   5.058 -0.2848 -0.3009  0.2289
 1198W        W10891   8.745  13.597  14.453 -0.2117 -0.0920  0.1486
 1199W        W10892  17.039  10.583   5.791  0.0627  0.1897  0.0075
 1200W        W10893   3.877   9.434  13.958 -0.0522 -0.1904  0.2448
 1201W        W10894   1.926  15.898  14.702 -0.1970 -0.1905 -0.0129
 1202W        W10895   1.272   2.197  13.184 -0.0522  0.1377  0.1393
 1203W        W10896   4.891   8.893   2.302  0.0456  0.0936  0.0851
 1204W        W10897  17.555   2.924   3.095  0.3573  0.1955  0.0295
 1205W        W10898   6.603   6.729   2.576 -0.1171  0.2627  0.1015
 1206W        W10899   4.822   1.224  16.900  0.1396  0.0845 -0.1303
 1207W        W10900   5.755   8.900   1.840  0.0713 -0.0663 -0.1712
 1208W        W10901   0.632   4.425   3.621 -0.0243 -0.1645 -0.1185
 1209W        W10902   0.782  12.123  16.396  0.1763  0.0846 -0.1907
 1210W        W10903  12.632   1.298  14.675  0.0756  0.0004 -0.2169
 1211W        W10904  10.968  16.028   5.245  0.1740  0.1265  0.0006
 1212W        W10905   7.164  13.455   2.498 -0.0597  0.0344  0.1774
 1213W        W10906   5.750   2.254   4.474 -0.1363 -0.0458 -0.1987
 1214W        W10907   1.305   0.298  11.047 -0.2410 -0.0020 -0.0526
 1215W        W10908   6.090   3.866   1.953 -0.2753  0.0279  0.0347
 1216W        W10909   7.366  12.568   1.819  0.1150  0.0480  0.2223
 1217W        W10910   8.222  12.316   0.283  0.0082 -0.2655 -0.2728
 1218W        W10911  16.512  14.593   0.942 -0.0088 -0.0003 -0.0675
 1219W        W10912  14.464  15.806  16.788 -0.1590  0.2658 -0.2153
 1220W        W10913   0.235  15.681  12.211 -0.0212 -0.1087  0.1940
 1221W        W10914  17.750   2.150   4.283 -0.0527  0.0572 -0.1735
 1222W        W10915   4.104   3.522  16.854 -0.0778 -0.1618 -0.1040
 1223W        W10916   3.214  14.117  11.773 -0.3307 -0.0385 -0.0949
 1224W        W10917   4.923   8.220   0.511  0.1316  0.2425 -0.1538
 1225W        W10918  10.286   0.216   5.243  0.1743  0.2232 -0.0838
 1226W        W10919   6.291  12.317   6.345 -0.0278  0.1601 -0.0873
 1227W        W10920   8.624   1.701   5.545 -0.3590  0.1234 -0.0682
 1228W        W10921   4.801   7.983  16.275 -0.1400 -0.1556  0.0371
 1229W        W10922  14.882  15.241  11.073  0.0625 -0.1920 -0.0441
 1230W        W10923   4.808  11.374  13.401  0.1013  0.0873  0.1342
 1231W        W10924  10.048   0.961   2.908 -0.3924 -0.2534 -0.0825
 1232W        W10925   6.891   9.669  16.706 -0.2120  0.1726 -0.1579
 1233W        W10926  15.572  10.392  15.436  0.0300  0.3293  0.1471
 1234W        W10927   8.212   0.525  11.966 -0.1331 -0.2033  0.0205
 1235W        W10928   8.551  16.253   4.354 -0.1728 -0.0314  0.1645
 1236W        W10929  12.650  17.618  12.190  0.0732  0.1534 -0.1225
 1237W        W10930  16.460   1.263   1.305  0.2849 -0.2572 -0.1517
 1238W        W10931   1.160   9.411  15.757 -0.1301  0.2021  0.5090
 1239W        W10932   5.137   6.555   3.937  0.0733  0.0153  0.0177
 1240W        W10933   4.615  10.282   0.376 -0.3168  0.0162  0.2423
 1241W        W10934   3.157  13.017  13.157 -0.1847  0.0348  0.0704
 1242W        W10935   4.246  16.669  12.819 -0.2715 -0.2835  0.0070
 1243W        W10936   4.027   9.762  15.892  0.3191  0.2181 -0.2123
 1244W        W10937   7.758  17.805   4.081 -0.0364  0.2003 -0.0641
 1245W        W10938   3.801   9.232   2.078  0.0386 -0.2184  0.0847
 1246W        W10939   8.916  13.243  14.126  0.1094 -0.2252 -0.1718
 1247W        W10940  17.227  10.944  17.109 -0.4173  0.1097  0.0555
 1248W        W10941   0.283   4.101   4.680  0.2248 -0.1534 -0.2247
 1249W        W10942   5.967  14.047   3.821 -0.0544  0.0071  0.0705
 1250W        W10943   6.431  10.293   3.875 -0.0989 -0.1698 -0.0004
 1251W        W10944   8.191  17.816   4.334  0.0922  0.0640  0.0210
 1252W        W10945   4.918  13.503   4.583 -0.1382 -0.2150 -0.1471
 1253W        W10946   7.586  11.304  15.346 -0.1383 -0.0292 -0.3908
 1254W        W10947   6.451  16.571  15.019  0.1153 -0.2426 -0.0130
 1255W        W10948   8.051   0.676   1.539  0.0343 -0.0077 -0.2394
 1256W        W10949   1.193  13.980   1.841 -0.3200 -0.2789 -0.0840
 1257W        W10950  15.644   7.274   3.888  0.0260  0.0690  0.0808
 1258W        W10951   7.353   4.226   3.835 -0.6144 -0.0912 -0.1342
 1259W        W10952   7.241   3.690   4.063  0.0871 -0.0487 -0.2701
 1260W        W10953   4.821  17.564   3.904 -0.2978  0.1755 -0.1064
 1261W        W10954   8.344   1.374   1.865  0.0645  0.0800 -0.1305
 1262W        W10955   5.165  17.168   3.055 -0.0619  0.4331 -0.0263
 1263W        W10956  15.249   7.788   3.062  0.1262  0.0683 -0.1415
 1264W        W10957   4.176  17.302  12.050 -0.0903 -0.1635 -0.2154
 1265W        W10958   6.465   6.255   0.175 -0.0890 -0.0052  0.0152
 1266W        W10959  14.580   2.847  14.285 -0.2216 -0.0619  0.1432
 1267W        W10960  16.660  14.128   2.130  0.1018  0.1545  0.0346
 1268W        W10961   1.618   9.853  14.945  0.1494 -0.3101 -0.1328
 1269W        W10962  13.627  11.412   4.993  0.1100 -0.1904 -0.0384
 1270W        W10963  17.190  15.999   5.640  0.2426 -0.0802  0.0400
 1271W        W10964   4.778   7.472  12.311  0.1401  0.3298  0.0390
 1272W        W10965   6.413  11.620  14.074  0.2799  0.0764  0.1256
 1273W        W10966   2.476   9.514  11.780  0.1573  0.2312 -0.1434
 1274W        W10967   8.297   3.955   4.132 -0.3028 -0.0100 -0.0282
 1275W        W10968  15.029   1.878  13.293 -0.2156 -0.3435 -0.0201
 1276W        W10969   8.011  12.318   0.787  0.3606  0.1232 -0.6021
 1277W        W10970   0.307   9.674  15.669  0.0934 -0.1688  0.5508
 1278W        W10971   8.465   5.151   4.834  0.0228 -0.1024 -0.1871
 1279W        W10972   2.153   5.501  12.590  0.1445  0.3225  0.0333
 1280W        W10973   6.022  15.506  15.978  0.1595 -0.1134 -0.2006
 1281W        W10974  10.768   6.499   1.976 -0.1462  0.3622 -0.5977
 1282W        W10975   6.005  10.556   3.770  0.0769  0.0901 -0.0104
 1283W        W10976  16.214   8.196  16.557 -0.1775 -0.0737  0.0321
 1284W        W10977   9.883   6.107  13.177  0.0225 -0.1338  0.0287
 1285W        W10978  17.769  11.991   3.048 -0.2270 -0.0500  0.0797
 1286W        W10979   1.252   8.935   0.019  0.0688  0.3047  0.1003
 1287W        W10980   1.992   5.548   2.624 -0.2238  0.1969 -0.0196
 1288W        W10981  12.416  17.505   5.431  0.0200 -0.1269 -0.0225
 1289W        W10982   7.039  11.493  15.377 -0.0396  0.1069  0.2962
 1290W        W10983   8.429  11.931   3.306 -0.0645 -0.0775  0.0874
 1291W        W10984   4.166  16.799   5.885 -0.0336 -0.1073 -0.0887
 1292W        W10985   9.763  13.997   4.240  0.0279  0.0024 -0.0812
 1293W        W10986   2.650  13.409  11.841  0.1008  0.0399 -0.2621
 1294W        W10987   5.269  10.235  11.990 -0.2099 -0.2797  0.1327
 1295W        W10988   4.797  10.856   1.510 -0.0406  0.0709 -0.0837
 1296W        W10989  10.739   7.914  12.604  0.0204  0.2768 -0.2156
 1297W        W10990   2.606  14.543  13.548  0.0264 -0.1876 -0.1167
 1298W        W10991  14.931   7.595  15.937 -0.2483 -0.2533  0.0212
 1299W        W10992   2.842  12.257   5.585 -0.0034  0.2316 -0.2344
 1300W        W10993   9.315   5.875  16.016  0.0897 -0.2522 -0.0880
 1301W        W10994   2.578  16.311   1.291  0.0558 -0.1425  0.1326
 1302W        W10995   6.987  10.063  17.060 -0.0441  0.2150  0.1176
 1303W        W10996   7.810   8.963  13.154  0.0179 -0.0384 -0.0496
 1304W        W10997  14.687   3.037   3.842  0.1685  0.0711  0.0041
 1305W        W10998   0.273   4.054   3.021 -0.1069 -0.2842  0.2583
 1306W        W10999   3.339  13.661  16.620 -0.0284 -0.0253 -0.0108
 1307W        W11000   8.547   8.448   2.380  0.1774  0.0613 -0.1453
 1308W        W11001   2.463   0.201  16.887 -0.0915 -0.1930  0.0882
 1309W        W11002  17.190   6.573   5.525  0.1171 -0.0625 -0.0884
 1310W        W11003   4.783   2.378  14.990 -0.0251 -0.1484 -0.1428
 1311W        W11004   4.139   4.641   1.154  0.1344  0.1825 -0.3708
 1312W        W11005   4.434   4.747   2.823 -0.0062  0.1863  0.0383
 1313W        W11006  11.771  16.381   2.814  0.1334  0.1421 -0.0497
 1314W        W11007   8.425   6.941  16.654  0.1039  0.2609  0.0523
 1315W        W11008   6.602   0.387   4.065  0.0936  0.0258 -0.0480
 1316W        W11009   2.838   2.453  15.790 -0.0647 -0.3029 -0.0643
 1317W        W11010  16.945  16.243   3.906 -0.0932  0.2058  0.1313
 1318W        W11011   2.906   8.643  14.482 -0.0161 -0.0477 -0.2238
 1319W        W11012  10.255  15.409  12.248  0.2182 -0.0484  0.0482
 1320W        W11013  13.093   0.428  13.290 -0.0374  0.1557 -0.2384
 1321W        W11014  12.973  12.821  12.589  0.1630 -0.0208 -0.0294
 1322W        W11015   9.536   1.867   5.472  0.1663 -0.4188 -0.1317
 1323W        W11016  11.564  12.887  12.428 -0.5087 -0.2499 -0.1344
 1324W        W11017   6.383   1.736   3.278 -0.1623  0.0351  0.2068
 1325W        W11018   6.177   0.739  10.943 -0.0234 -0.1234 -0.1075
 1326W        W11019   3.108  10.043   1.473  0.1024  0.2720  0.0670
 1327W        W11020   0.719   0.865  12.171  0.0375 -0.0519  0.1241
 1328W        W11021   6.896   1.399   5.278 -0.0278 -0.0782 -0.1081
 1329W        W11022  15.971   1.608   2.473  0.3951  0.3054 -0.1458
 1330W        W11023   6.620  12.314   6.980  0.1819  0.0871  0.0498
 1331W        W11024  12.220   7.364  15.456 -0.0118  0.0813 -0.1827
 1332W        W11025  11.434  12.046  14.991  0.3059 -0.0201  0.1376
 1333W        W11026  12.600   3.358   4.779 -0.0528  0.1636 -0.1309
 1334W        W11027  15.777  17.591  15.265  0.1479 -0.0772 -0.1619
 1335W        W11028   7.486  16.738  15.964 -0.0151 -0.1343  0.1581
 1336W        W11029  16.708   0.941   5.261 -0.0487 -0.2224 -0.1343
 1337W        W11030   8.534   3.154  17.099 -0.2840 -0.1815 -0.0315
 1338W        W11031  12.811  12.463  15.355 -0.0817  0.4341 -0.0149
 1339W        W11032   8.709  10.965  14.578  0.0549  0.3075  0.0410
 1340W        W11033   8.704   5.202   0.950 -0.4075 -0.2459 -0.0078
 1341W        W11034   7.584   9.712  13.414  0.3139 -0.0888 -0.2228
 1342W        W11035   3.627   0.029   2.229 -0.0640 -0.1343 -0.0096
 1343W        W11036  13.412  10.842   2.655 -0.3421 -0.1393  0.0400
 1344W        W11037   9.912  10.580   1.848 -0.0422 -0.2921  0.1258
 1345W        W11038  10.554   9.729   4.430 -0.0357  0.0374 -0.3952
 1346W        W11039   8.226   2.682  13.324  0.0229 -0.1931  0.1554
 1347W        W11040  10.876   8.001   1.257 -0.0815 -0.1863 -0.0135
 1348W        W11041   8.775   9.717  13.120  0.0237  0.3415  0.2435
 1349W        W11042   7.253   9.510  16.387  0.0140 -0.1654 -0.3081
 1350W        W11043   6.305   2.672  12.029  0.1559  0.1184  0.1113
 1351W        W11044   6.056   3.802  13.760  0.1794  0.1617  0.0780
 1352W        W11045   4.982  11.335   1.572  0.0788 -0.2512  0.0357
 1353W        W11046  10.233   6.569   3.515  0.2886 -0.0927  0.0854
 1354W        W11047   9.308  12.967   0.934 -0.1962 -0.2014  0.0860
 1355W        W11048   0.129  13.360  12.543 -0.2230 -0.0381  0.1519
 1356W        W11049   7.159  15.735   2.597  0.0945 -0.0554  0.0716
 1357W        W11050   7.775  10.597   6.720 -0.0471 -0.4921  0.1752
 1358W        W11051   6.403   6.023   4.079  0.0234  0.0542  0.0113
 1359W        W11052  17.102   7.046  15.584  0.0432  0.2616 -0.0328
 1360W        W11053   7.299  10.409   1.932  0.2575 -0.1582 -0.2440
 1361W        W11054  14.199  13.069  14.913 -0.1878 -0.0045 -0.0839
 1362W        W11055   5.954   7.005   6.135 -0.2352  0.3110  0.2851
 1363W        W11056   4.927  15.457  14.582 -0.1147 -0.1906  0.2362
 1364W        W11057   6.144   9.000  13.958  0.2043  0.2267 -0.1284
 1365W        W11058  16.617   0.992   4.046  0.1027 -0.2522  0.1431
 1366W        W11059   5.547  15.365   2.462 -0.0905 -0.0387  0.1729
 1367W        W11060  12.398   0.505  16.860 -0.0846 -0.3266 -0.1915
 1368W        W11061   3.159   2.575  11.807 -0.1590  0.2472  0.1053
 1369W        W11062   6.522  10.807   7.232 -0.0245 -0.0499  0.0915
 1370W        W11063   3.536   8.411  14.884 -0.1792  0.3215  0.0726
 1371W        W11064   6.466  10.384  16.668 -0.0605 -0.2411  0.2661
 1372W        W11065  15.750   1.813  11.598 -0.2168 -0.1128  0.0626
 1373W        W11066   7.415   3.530  16.300 -0.0364 -0.1506  0.3364
 1374W        W11067  10.115  10.156   0.033 -0.1984  0.2579 -0.0140
 1375W        W11068  17.678  12.875   1.088  0.2095 -0.0896  0.0916
 1376W        W11069   6.212   4.281  16.154 -0.1529 -0.0590  0.0278
 1377W        W11070   1.901   2.694  11.323 -0.0544  0.2714  0.2903
 1378W        W11071   6.573  16.719  15.500 -0.0399 -0.2482  0.0375
 1379W        W11072   7.106  14.246  15.309 -0.1209 -0.1168 -0.2816
 1380W        W11073   6.038   7.969  13.221  0.0753  0.2515 -0.0031
 1381W        W11074  16.566  14.627  14.470  0.1745 -0.0566  0.0897
 1382W        W11075   4.747  13.574   5.091  0.1312 -0.3257  0.1271
 1383W        W11076   1.549  11.429  15.772  0.0269  0.0142  0.0737
 1384W        W11077   5.341   0.547  13.588 -0.0215 -0.0299  0.1365
 1385W        W11078   2.444  14.013   6.418  0.1590 -0.0009 -0.1497
 1386W        W11079   7.127  13.167  12.569 -0.0543 -0.0615  0.0049
 1387W        W11080   6.977  12.966   2.655 -0.3504 -0.2927  0.2560
 1388W        W11081   4.442  10.624   2.847  0.3485  0.0528  0.2543
 1389W        W11082   7.898  11.060   4.921  0.0582  0.0648  0.0215
 1390W        W11083   3.849  17.462   3.117  0.0912  0.1915  0.0881
 1391W        W11084   2.592  11.396  15.798 -0.2336 -0.0928  0.1809
 1392W        W11085   6.827   8.244  12.499 -0.1937 -0.2137 -0.1291
 1393W        W11086  15.740  17.755  13.059  0.2632  0.0230  0.0133
 1394W        W11087   5.641  15.253  15.748 -0.3324 -0.0179  0.3247
 1395W        W11088   9.293   1.921  11.282  0.1290  0.2583  0.0583
 1396W        W11089   7.795  15.342   4.466 -0.2901  0.0801 -0.0427
 1397W        W11090   5.282  11.615   4.358 -0.2429  0.2871 -0.1611
 1398W        W11091   2.894   1.277   1.828 -0.0713 -0.0517  0.0501
 1399W        W11092  17.901  17.679  13.653 -0.3553  0.0045 -0.0528
 1400W        W11093  12.510  12.567  12.251 -0.1350  0.1825  0.1205
 1401W        W11094  16.719   3.108   3.082  0.3621 -0.0140 -0.1040
 1402W        W11095   6.004  11.689   3.733  0.2554  0.3012 -0.1124
 1403W        W11096   7.888   2.127  13.250 -0.2116  0.3057  0.2366
 1404W        W11097   9.813   3.607  16.167 -0.2798  0.0731  0.0816
 1405W        W11098  11.183  11.745   2.461 -0.0093 -0.4266 -0.4317
 1406W        W11099   2.770  15.680   4.281 -0.1290  0.4245  0.1209
 1407W        W11100  16.615  15.715  15.503  0.2689 -0.1698 -0.0430
 1408W        W11101   9.423   9.836   5.483 -0.1394  0.1053  0.1301
 1409W        W11102  13.203   9.961   2.490 -0.0348 -0.0168  0.1099
 1410W        W11103  12.420   4.495   3.459  0.2715  0.0054 -0.0432
 1411W        W11104   1.045   0.242   2.603 -0.0717  0.0160  0.0333
 1412W        W11105   3.154  14.507  17.107 -0.1386  0.1243  0.3053
 1413W        W11106   4.302   0.577  15.883  0.0049 -0.3507 -0.1131
 1414W        W11107   3.244   5.834  16.300  0.0359  0.2453 -0.2919
 1415W        W11108  10.032   8.033  14.419 -0.0353 -0.0393  0.1083
 1416W        W11109   7.307   3.064   2.827  0.1166 -0.0158 -0.1484
 1417W        W11110  13.172  17.814   2.220  0.1062 -0.2840  0.0812
 1418W        W11111   6.315  10.474   3.356 -0.2348 -0.0817 -0.3844
 1419W        W11112   0.858   6.254   0.287 -0.3715  0.3333  0.1787
 1420W        W11113  11.021  12.047   5.776  0.1916  0.0420 -0.0812
 1421W        W11114  10.802   0.672   1.786 -0.0593  0.2925  0.0714
 1422W        W11115   5.570   4.787   1.388  0.1116  0.2552  0.0240
 1423W        W11116   1.563  12.117   3.060  0.1771 -0.2092  0.2686
 1424W        W11117   6.846  16.458   2.970  0.0249 -0.2721 -0.1024
 1425W        W11118   3.863  12.645  14.195  0.1003 -0.2957  0.1069
 1426W        W11119   0.214  15.395   1.102  0.2428  0.0753  0.2499
 1427W        W11120  11.726   5.671   0.111 -0.2129  0.0443 -0.0073
 1428W        W11121   4.179   7.917  15.491  0.0465  0.0490  0.2043
 1429W        W11122  17.798   9.328  14.283 -0.0096 -0.1542 -0.1555
 1430W        W11123   2.164  14.604   4.329  0.2717 -0.0730 -0.2290
 1431W        W11124  11.504   2.132   3.934 -0.0618 -0.1178 -0.3682
 1432W        W11125   4.711   2.926  14.338 -0.1447 -0.3835 -0.1721
 1433W        W11126  14.045   4.310   5.239 -0.1618 -0.0908  0.0477
 1434W        W11127   9.174  14.444   5.241 -0.1742  0.1845 -0.1753
 1435W        W11128  15.731  16.248   5.167  0.0377  0.0054 -0.1483
 1436W        W11129  11.299   5.748   0.695  0.0257 -0.2242  0.2684
 1437W        W11130   6.162   3.722  15.448  0.0670  0.0374  0.0460
 1438W        W11131   4.506  16.447  17.006  0.0487  0.0478 -0.0277
 1439W        W11132   1.273   8.596  15.562  0.0026  0.2181  0.0185
 1440W        W11133   9.008  16.625  17.060 -0.0670  0.1821 -0.0841
 1441W        W11134   9.999  10.570  16.791 -0.2185 -0.2108  0.5424
 1442W        W11135  11.696   1.096   5.779 -0.0395 -0.3579 -0.0155
 1443W        W11136  14.945  13.626  16.571 -0.2105  0.1181 -0.3053
 1444W        W11137   6.251   2.985   3.099  0.1583 -0.2158 -0.3223
 1445W        W11138   1.050   1.770   4.750  0.0430  0.3235  0.2116
 1446W        W11139  13.833  17.122   3.260  0.0136 -0.4222 -0.3013
 1447W        W11140  12.235  17.332  14.411 -0.1107  0.1745 -0.0847
 1448W        W11141   3.761  16.060  13.994  0.0337  0.0480 -0.0314
 1449W        W11142  13.132   1.901  12.187 -0.0926 -0.0270  0.1296
 1450W        W11143   7.347   2.896   1.888  0.3538 -0.1672 -0.1210
 1451W        W11144   4.014   8.630  14.988  0.1609 -0.0390  0.1286
 1452W        W11145  16.827  15.250   5.611  0.2796 -0.0320 -0.1924
 1453W        W11146  16.617  11.487   2.582 -0.2445 -0.4039  0.0932
 1454W        W11147   9.495  13.167  14.304 -0.2173 -0.4500  0.0417
 1455W        W11148   4.630   4.357  16.743 -0.3262  0.0089 -0.2904
 1456W        W11149   1.265  17.754  13.299 -0.1206  0.1472 -0.1409
 1457W        W11150  17.725  16.847  11.795 -0.2655  0.1686 -0.1312
 1458W        W11151   8.990  14.853  14.348  0.2138 -0.0711 -0.0074
 1459W        W11152  16.699  17.410  10.887 -0.0319  0.1655 -0.1465
 1460W        W11153   3.715   1.327   1.109 -0.2763 -0.2583 -0.1656
 1461W        W11154   3.179  17.580   1.388  0.0277 -0.0180 -0.1670
 1462W        W11155   3.470   8.412  13.093 -0.0723 -0.0745 -0.1610
 1463W        W11156   0.871   6.740  15.177  0.2845  0.0540 -0.2127
 1464W        W11157   5.276   6.841   5.390 -0.1011  0.1837  0.3538
 1465W        W11158   4.503   1.233  16.499  0.0389 -0.2024  0.3321
 1466W        W11159   6.243  11.382  12.165  0.2004  0.3221  0.1645
 1467W        W11160   4.916  15.630  11.890  0.3995 -0.1524  0.3690
 1468W        W11161   0.323  12.249  14.276  0.0888 -0.0723  0.1836
 1469W        W11162   4.509  12.732  15.930 -0.4146 -0.2834 -0.0504
 1470W        W11163   5.159   4.970   6.820 -0.0276 -0.1024  0.3090
 1471W        W11164  15.830   3.473   5.008 -0.3359  0.4311 -0.0450
 1472W        W11165   6.448   7.340  16.044 -0.1991  0.2348  0.0267
 1473W        W11166  16.997   8.975  15.543 -0.1432  0.1884 -0.0210
 1474W        W11167   6.215  16.406  16.871 -0.2401 -0.1170 -0.0270
 1475W        W11168  16.075  17.617  11.672  0.0341 -0.1066  0.2062
 1476W        W11169   2.171  11.128  16.481 -0.0006 -0.2049 -0.0693
 1477W        W11170   0.428  11.354   4.119 -0.1426 -0.1095 -0.2027
 1478W        W11171   8.900  14.122   4.923  0.0662  0.1884 -0.0099
 1479W        W11172  13.209  15.043  12.579  0.0918  0.1979 -0.0104
 1480W        W11173   2.569   4.093  16.642  0.0929  0.1552 -0.1147
 1481W        W11174   3.492   6.893   6.274 -0.0691  0.1797 -0.0736
 1482W        W11175   5.849   2.925  12.800 -0.0248 -0.1173  0.0619
 1483W        W11176   5.045   8.367  16.092 -0.0000  0.1751 -0.1563
 1484W        W11177  15.560   0.532   5.121 -0.0531  0.0433 -0.1050
 1485W        W11178  14.482   5.671  15.286 -0.1965 -0.1524 -0.0098
 1486W        W11179   5.909  17.975   2.512  0.5595  0.2780  0.0391
 1487W        W11180  16.091   9.515  16.843 -0.0779  0.2493 -0.1705
 1488W        W11181   5.096   9.106   3.703  0.1324 -0.1528 -0.0143
 1489W        W11182  15.159   2.699   3.871 -0.0567 -0.0792  0.2225
 1490W        W11183   4.339  11.939  16.091 -0.0554 -0.0439 -0.3351
 1491W        W11184  14.092   6.076   5.442  0.0125 -0.0739  0.1952
 1492W        W11185   5.018  10.159   2.572 -0.2160  0.1765  0.0658
 1493W        W11186   6.979  16.405  13.308  0.0968 -0.4733  0.0060
 1494W        W11187   7.782   9.675   0.030  0.0659  0.5525 -0.1584
 1495W        W11188   7.994   4.690  14.612 -0.1570  0.0232  0.0944
 1496W        W11189   7.249  12.793  17.016 -0.1655  0.3381  0.1696
 1497W        W11190   9.553   0.284   3.200 -0.1837 -0.1721 -0.1217
 1498W        W11191   5.296  14.737  15.075 -0.0754 -0.1017 -0.0917
 1499W        W11192  14.080  14.967   2.516 -0.1689 -0.3347  0.1461
 1500W        W11193   9.222  12.280  13.752 -0.0353 -0.1763 -0.0969
 1501W        W11194   2.326  12.367   4.652 -0.0536 -0.0243 -0.2319
 1502W        W11195   6.436   4.150  14.040 -0.0828 -0.0174  0.0046
 1503W        W11196  10.059  15.939  14.573  0.2156 -0.1573  0.1607
 1504W        W11197   7.356   9.920   0.759 -0.1381  0.0402 -0.0469
 1505W        W11198  15.908  12.817   0.049  0.3059 -0.1028 -0.0055
 1506W        W11199   2.638   5.855  16.234  0.0606  0.0997 -0.2454
 1507W        W11200   1.646   3.088  14.480  0.0951  0.1915  0.0392
 1508W        W11201  10.097  12.942  16.600 -0.0906 -0.1118 -0.0123
 1509W        W11202   4.581   8.671   0.264 -0.0118  0.0257 -0.0525
 1510W        W11203   5.549   8.292   6.318 -0.2656  0.0013  0.4185
 1511W        W11204  12.747   4.675   0.335 -0.3015 -0.5394  0.0417
 1512W        W11205  15.419   0.049   1.768 -0.2759  0.0804 -0.0659
 1513W        W11206  10.347  15.124   1.814 -0.1979  0.0371 -0.2102
 1514W        W11207   3.461  13.740  15.293 -0.2707 -0.2849 -0.0291
 1515W        W11208   9.253  17.018  14.018 -0.0039  0.1283  0.1402
 1516W        W11209   4.494  14.449  13.244 -0.0224  0.0837  0.2040
 1517W        W11210  12.120  15.460  14.488 -0.2623 -0.0101  0.0524
 1518W        W11211   3.265   7.223  14.547  0.4168  0.0526  0.2772
 1519W        W11212   1.943   0.097   4.207  0.1683 -0.0556 -0.1649
 1520W        W11213   3.683   6.958   5.626 -0.3937  0.2167 -0.1253
 1521W        W11214  15.325   4.942  10.827  0.3713 -0.1627 -0.1191
 1522W        W11215   7.904   2.035   0.381 -0.1690 -0.1348 -0.1927
 1523W        W11216   2.933   3.219   3.903 -0.0022  0.0723 -0.0938
 1524W        W11217   8.519   1.075   4.898 -0.3564 -0.0072 -0.1085
 1525W        W11218  12.677  11.393  16.962  0.3387 -0.2039  0.1305
 1526W        W11219   5.507  15.944   0.157 -0.0116 -0.0338  0.2433
 1527W        W11220   5.059  12.811  15.132  0.1452 -0.0655  0.0659
 1528W        W11221  11.816  12.189   5.221 -0.2005  0.2213 -0.1291
 1529W        W11222   5.803   9.403  12.898  0.0854 -0.1588  0.2128
 1530W        W11223   2.152  15.854  15.647  0.2370 -0.2692 -0.0677
 1531W        W11224   2.018  12.289  13.399 -0.4138 -0.2407  0.0371
 1532W        W11225   6.449   2.341   4.010 -0.1087 -0.1481  0.1739
 1533W        W11226   9.624   1.363  15.303  0.2446 -0.0894  0.0049
 1534W        W11227   1.412   8.306   5.252 -0.2203  0.2711 -0.1468
 1535W        W11228   6.806  13.161   2.213 -0.0483  0.0401 -0.3749
 1536W        W11229   2.750  16.827   0.408 -0.1636  0.0035 -0.1592
 1537W        W11230   4.602  14.600  15.624 -0.2325  0.0315 -0.1205
 1538W        W11231  13.907   6.038  12.019  0.0132  0.1187 -0.0163
 1539W        W11232  12.456   9.811   2.495  0.0249 -0.1548 -0.1012
 1540W        W11233   3.751  17.285  13.750  0.0970 -0.0775 -0.1807
 1541W        W11234  16.423   5.165  13.016  0.3529 -0.4289  0.0340
 1542W        W11235  15.672  16.749  12.651  0.1321  0.1726 -0.0997
 1543W        W11236  15.180  10.060  10.977  0.0948 -0.0569 -0.1206
 1544W        W11237   8.628   2.125   4.222 -0.0677  0.0025 -0.0575
 1545W        W11238   8.976  17.204   5.787 -0.0569  0.2036 -0.3018
 1546W        W11239   2.230   9.085  14.660  0.0853  0.2546 -0.2298
 1547W        W11240  13.678  12.642   3.382 -0.0854 -0.1839  0.3485
 1548W        W11241  11.844   1.526  14.770  0.1081  0.0448 -0.0441
 1549W        W11242   9.146  15.715  12.999  0.1688 -0.0840  0.0363
 1550W        W11243   3.427  11.832  14.940 -0.0311  0.3714  0.0812
 1551W        W11244  16.368  13.216   1.851  0.0916 -0.0705  0.2677
 1552W        W11245   2.063  12.476   1.478 -0.1147 -0.0588  0.0536
 1553W        W11246   4.425   7.595   5.704 -0.1571 -0.0536  0.1533
 1554W        W11247   4.156  14.333   5.205 -0.1653 -0.0170 -0.4981
 1555W        W11248   1.392   0.809  15.870 -0.0529  0.0166 -0.0060
 1556W        W11249  17.427   9.033   4.094 -0.2502 -0.0680  0.3527
 1557W        W11250   8.092  17.294   1.819 -0.1595 -0.1933 -0.1443
 1558W        W11251   2.685   5.347  17.059  0.1426  0.0790 -0.5384
 1559W        W11252   9.217  14.529  14.688 -0.5831  0.1266  0.0463
 1560W        W11253  12.612  10.727   5.758  0.1339 -0.0456 -0.0791
 1561W        W11254   1.872   0.548  15.827 -0.0580 -0.3433  0.1031
 1562W        W11255  10.652   6.459   3.232  0.1202  0.1026  0.1868
 1563W        W11256   3.445   9.583  13.609  0.1616  0.2354 -0.0352
 1564W        W11257   0.984  11.891   4.980  0.0150 -0.0393 -0.0395
 1565W        W11258  13.953   2.922  11.853 -0.2339 -0.1601  0.0672
 1566W        W11259   4.355   9.642   4.000  0.1380 -0.1806 -0.3401
 1567W        W11260   1.167   7.178   0.751 -0.0710 -0.2917 -0.4452
 1568W        W11261   5.685   0.798   4.524 -0.0734 -0.2735 -0.0411
 1569W        W11262   4.388   6.094   2.732  0.4740  0.0254  0.2929
 1570W        W11263  16.802   3.295   4.668 -0.0109  0.0404  0.0519
 1571W        W11264   1.722   9.221  14.414 -0.1212 -0.0141 -0.1845
 1572W        W11265   8.278   2.480  14.209  0.3863  0.1693  0.0078
 1573W        W11266   6.615  16.364   0.715 -0.3330 -0.2618  0.0376
 1574W        W11267   4.610  16.994   5.730 -0.1369  0.0727 -0.0746
 1575W        W11268  13.547   1.678  11.998  0.1770 -0.0212 -0.0343
 1576W        W11269   2.896   6.311  14.095 -0.1024 -0.0453 -0.1316
 1577W        W11270   3.740   5.860  16.157  0.1605 -0.0032 -0.1463
 1578W        W11271  10.467   4.307   4.203 -0.2373  0.5273 -0.0190
 1579W        W11272  12.900   0.294  16.540 -0.0283 -0.1108  0.2109
 1580W        W11273  10.216   7.331   5.282  0.2340 -0.1642 -0.3645
 1581W        W11274   8.927   5.673  11.264 -0.1120  0.0360 -0.1641
 1582W        W11275   2.454   3.789  15.327 -0.1559 -0.1367 -0.0868
 1583W        W11276   6.391   2.201  12.731 -0.2600  0.0021  0.2168
 1584W        W11277  12.043   8.871  14.161  0.1192  0.1304  0.0917
 1585W        W11278   2.789  16.225  12.953 -0.2110  0.0477 -0.1708
 1586W        W11279   4.343   1.183   1.729  0.0473 -0.1440 -0.0077
 1587W        W11280   4.119   4.157  16.034 -0.0785 -0.0802 -0.1632
 1588W        W11281   1.200   8.779   0.559 -0.0096 -0.0291 -0.1015
 1589W        W11282   9.378  17.184   4.279  0.2595 -0.1981 -0.2234
 1590W        W11283   9.232  15.342   0.246 -0.2137 -0.3658 -0.2106
 1591W        W11284  14.731   5.130  13.538  0.0150 -0.2180  0.0715
 1592W        W11285   3.197  14.791   4.492 -0.2072  0.2000  0.0587
 1593W        W11286  14.009   6.050  14.392  0.1908 -0.2176 -0.2998
 1594W        W11287   5.721  17.609   6.290 -0.0592  0.1311 -0.0096
 1595W        W11288   8.581   2.847   2.749  0.4102 -0.1068  0.0650
 1596W        W11289  14.153  11.528  11.357 -0.0469 -0.2512  0.0019
 1597W        W11290   5.104  15.957  10.686 -0.1251  0.2524  0.0479
 1598W        W11291   5.188  17.758   3.248  0.0591 -0.1127  0.2352
 1599W        W11292   7.173   5.848   1.856 -0.3295  0.1202 -0.0472
 1600W        W11293   0.103  10.646  15.260  0.0257  0.0863 -0.3824
 1601W        W11294   4.007   5.650   2.700  0.2081 -0.0345 -0.1525
 1602W        W11295  11.944   7.300   3.045 -0.0440 -0.2175  0.3020
 1603W        W11296   5.381   2.853   1.442  0.0055  0.3096  0.1524
 1604W        W11297  17.442   2.689  13.333 -0.0283 -0.1526 -0.3524
 1605W        W11298   1.150  16.993  11.517  0.3508  0.0387  0.2189
 1606W        W11299  16.304   7.359  15.990  0.4051 -0.1458 -0.0396
 1607W        W11300   5.914  10.708   0.866 -0.0324 -0.0453  0.0005
 1608W        W11301  13.244  13.646   0.355 -0.0809  0.0895  0.1078
 1609W        W11302   6.512  15.277   5.752 -0.0658  0.0916  0.2154
 1610W        W11303  17.216   8.608  13.311 -0.1851  0.0032 -0.0016
 1611W        W11304   7.192   4.608   4.799 -0.1953 -0.1153 -0.2888
 1612W        W11305   7.561   8.130   0.432 -0.3008  0.0768 -0.2842
 1613W        W11306  17.765   8.211   3.500 -0.0275  0.0191 -0.0457
 1614W        W11307   7.328   8.127  16.132 -0.2801 -0.0889  0.0039
 1615W        W11308  10.023  12.140   5.514 -0.3489  0.1392  0.2544
 1616W        W11309   2.596  16.220  11.274 -0.0350 -0.0203 -0.1912
 1617W        W11310   2.324  11.627  13.767 -0.1114  0.0402  0.0315
 1618W        W11311  17.362  10.113  15.800 -0.2056 -0.3658 -0.0505
 1619W        W11312  17.900  14.764   1.272  0.0853  0.2912  0.1640
 1620W        W11313   8.755  13.164  12.240 -0.0249  0.1773 -0.1870
 1621W        W11314  16.725  16.910  11.078  0.0831  0.2857  0.1694
 1622W        W11315   0.614  11.155   5.096  0.3693  0.0535 -0.0404
 1623W        W11316   8.446  13.437  14.096 -0.0194 -0.0947  0.0735
 1624W        W11317   8.119   2.976  12.960 -0.2916  0.0350 -0.1632
 1625W        W11318   7.985  14.453  16.854 -0.0542 -0.2620 -0.2496
 1626W        W11319   7.460   2.364   0.437  0.2742 -0.2760  0.0732
 1627W        W11320   6.401   9.498  15.215  0.0608  0.2812  0.1669
 1628W        W11321   0.083  10.313   1.353  0.1254 -0.1863 -0.0230
 1629W        W11322   7.422   6.299   4.298 -0.0813 -0.0945 -0.0364
 1630W        W11323  11.565   0.612  13.080 -0.0058  0.1091  0.1560
 1631W        W11324   7.453   6.636  16.318 -0.1026  0.2418 -0.1716
 1632W        W11325  17.653  16.145  11.069  0.2370 -0.0666  0.1336
 1633W        W11326   6.652   8.725  14.174 -0.3911  0.0323 -0.2623
 1634W        W11327   5.777  10.623  14.517 -0.2222 -0.1965 -0.2511
 1635W        W11328  10.239   2.961  15.153 -0.3120 -0.0847 -0.0839
 1636W        W11329   3.031  13.870   4.846  0.0716 -0.0437  0.1609
 1637W        W11330   7.171  12.181  16.205 -0.0349 -0.2153  0.2180
 1638W        W11331  17.805  17.628   5.222  0.0014 -0.0281 -0.3022
 1639W        W11332  10.634   6.244  15.642  0.0055  0.2537 -0.2704
 1640W        W11333   3.072  13.087   6.219 -0.0006 -0.0100  0.1367
 1641W        W11334   9.955   2.258   5.372 -0.0480 -0.0946 -0.0830
 1642W        W11335   3.896   6.707   6.043 -0.2927  0.1237 -0.1532
 1643W        W11336   7.117  16.669  15.605  0.1004  0.0923  0.0460
 1644W        W11337   0.140   4.704  16.908 -0.1795 -0.2852 -0.0059
 1645W        W11338   8.006   6.685   4.078  0.2988  0.1062 -0.1752
 1646W        W11339   8.419  17.944  11.577  0.2657  0.2663  0.4039
 1647W        W11340   1.290   9.135   1.643 -0.0927  0.1038  0.0465
 1648W        W11341   0.788  15.756  16.138 -0.2022  0.1481 -0.0564
 1649W        W11342   2.272   7.029  14.196 -0.2136  0.2033  0.3260
 1650W        W11343   4.179   1.717   5.045  0.1640  0.0781  0.1752
 1651W        W11344   7.362   5.074  14.239  0.0671  0.0658 -0.1148
 1652W        W11345  17.636   9.592   0.757  0.0003 -0.1677  0.2198
 1653W        W11346  10.042   7.076  11.868  0.1070  0.1029 -0.0372
 1654W        W11347  16.415   4.099   2.585 -0.1089 -0.1040  0.0902
 1655W        W11348   6.385  17.149   1.508 -0.1651 -0.0986  0.1611
 1656W        W11349   1.482  16.527  12.164  0.0066 -0.0594 -0.1614
 1657W        W11350   1.920   8.319  15.290  0.0770 -0.1605 -0.1180
 1658W        W11351   9.306  13.339  12.241  0.0782  0.0783 -0.1857
 1659W        W11352   6.463  15.921   3.486 -0.0518  0.6054  0.2443
 1660W        W11353   7.854  17.359   4.347 -0.3391 -0.3851  0.1494
 1661W        W11354   5.419   6.320   4.601 -0.0898  0.4071  0.2112
 1662W        W11355   3.418   8.677  12.528 -0.1781 -0.4674  0.0193
 1663W        W11356   2.430   0.881  11.892  0.2513 -0.1081  0.0610
 1664W        W11357   8.596  17.762  13.798 -0.1711  0.3434  0.0237
 1665W        W11358  17.341   8.102  15.705  0.1650 -0.1886  0.2058
 1666W        W11359  15.340  11.034  13.359  0.2096  0.1704  0.1863
 1667W        W11360   2.291   0.552  14.723 -0.2096  0.1298 -0.0219
 1668W        W11361   7.548  10.576  16.754 -0.3450 -0.1095  0.2738
 1669W        W11362   5.113  12.798   3.703 -0.2244  0.2031 -0.2752
 1670W        W11363  13.473   9.952   0.736  0.0203 -0.0367  0.0361
 1671W        W11364   0.682   9.819  10.377 -0.2256  0.1651 -0.0438
 1672W        W11365   6.484   1.166   1.654  0.0591 -0.0673  0.2134
 1673W        W11366   8.206  10.047   2.264 -0.0543 -0.0090  0.0299
 1674W        W11367   6.825   1.509  16.773  0.0814 -0.0825 -0.0689
 1675W        W11368   2.244  10.279   5.146 -0.2598 -0.0222 -0.1850
 1676W        W11369   2.842  16.936   1.984  0.1304  0.1226  0.2852
 1677W        W11370  16.839   0.861  12.461  0.1919 -0.1197 -0.1274
 1678W        W11371   7.148  14.428   6.690  0.4387 -0.1281  0.5044
 1679W        W11372   4.519  11.606   5.905 -0.1848 -0.3054  0.0682
 1680W        W11373  10.434  15.501  12.738  0.0326  0.0700 -0.0119
 1681W        W11374  16.747  17.759  16.232  0.0640  0.1048 -0.0763
 1682W        W11375  13.111  16.673  13.726 -0.0875 -0.0131 -0.0069
 1683W        W11376   8.033  14.248  14.960 -0.0717 -0.2991 -0.2652
 1684W        W11377   3.382  17.125   1.019  0.0318  0.0665  0.3249
 1685W        W11378  17.402  17.045  14.857 -0.0732  0.2866  0.0126
 1686W        W11379  10.509  13.454  11.769  0.0147 -0.2123  0.0907
 1687W        W11380   6.364   0.115   6.363  0.0391 -0.1228 -0.2457
 1688W        W11381  16.826  17.038   2.177  0.0922 -0.1864 -0.1018
 1689W        W11382  11.632   9.174   4.724  0.2430 -0.0654  0.1199
 1690W        W11383   6.231   6.028   0.672 -0.0850 -0.1811 -0.2993
 1691W        W11384  12.555  15.481   1.506 -0.0474  0.0346 -0.3452
 1692W        W11385   2.713  16.749   1.538  0.5206 -0.1330  0.0495
 1693W        W11386   1.852   9.924   0.178  0.0109  0.1537  0.1960
 1694W        W11387   3.767   5.606  16.658 -0.0886  0.1493  0.0128
 1695W        W11388   6.968   8.061   3.489  0.0553  0.1239  0.0331
 1696W        W11389   3.616  12.739  16.780  0.0708 -0.1285  0.1874
 1697W        W11390   3.906  12.714  13.207 -0.1696 -0.1453 -0.0749
 1698W        W11391   5.133   3.694   6.074 -0.2225 -0.1515 -0.2084
 1699W        W11392  17.614  16.351   1.376  0.0080  0.1564  0.1168
 1700W        W11393  10.849  17.941  14.378 -0.0184  0.2303 -0.0167
 1701W        W11394  10.006  11.136   1.283  0.0042 -0.1107  0.1390
 1702W        W11395   5.017  10.198  16.558 -0.1449  0.2424 -0.0627
 1703W        W11396   0.491  16.117   3.695  0.2760 -0.1682 -0.0920
 1704W        W11397   3.816   4.102   5.227  0.0250  0.0527  0.1011
 1705W        W11398  12.465  13.672   0.152 -0.0500  0.0003 -0.1564
 1706W        W11399   9.457   3.610   0.956 -0.2761  0.1566 -0.1253
 1707W        W11400   5.112  16.019   1.065 -0.1828  0.0409  0.1407
 1708W        W11401  13.383  11.279  11.817 -0.0478 -0.1959  0.4622
 1709W        W11402   3.436  14.526   4.145 -0.1511 -0.3554  0.0946
 1710W        W11403   6.935  12.115   2.199  0.4151 -0.1167 -0.2399
 1711W        W11404   6.215   9.672  14.437  0.2294  0.1723  0.3073
 1712W        W11405   5.987   7.428  14.610  0.0635  0.2675 -0.0350
 1713W        W11406   5.502   0.654  15.657 -0.0224  0.1252  0.0575
 1714W        W11407  14.398   3.021  13.796  0.1272 -0.1454  0.1411
 1715W        W11408   9.652  15.338   3.502  0.1603 -0.2981  0.0716
 1716W        W11409   6.273   4.792  13.588  0.1285  0.1090 -0.1520
 1717W        W11410   6.437  14.032  14.131  0.2604  0.0012  0.0638
 1718W        W11411   7.567   6.220   2.004 -0.3670 -0.1482  0.0616
 1719W        W11412   3.811  17.728  11.434 -0.3537 -0.0535 -0.1555
 1720W        W11413   4.175   5.436   6.594 -0.2768  0.1720  0.0328
 1721W        W11414  16.170  14.099   4.692  0.2869 -0.2480 -0.1833
 1722W        W11415  11.127  14.737  14.477 -0.0491 -0.3129  0.0879
 1723W        W11416  11.120  10.738  12.354 -0.1309  0.1480  0.3901
 1724W        W11417   4.207  14.913  15.624  0.0127 -0.0123  0.2736
 1725W        W11418   5.366  11.927  16.518  0.1540 -0.1898 -0.1358
 1726W        W11419   0.427   1.791  16.029 -0.1189 -0.2427 -0.0148
 1727W        W11420   1.030   3.030  15.701  0.0518  0.3082  0.0748
 1728W        W11421   1.883  13.283   6.381 -0.1971 -0.1329 -0.0458
 1729W        W11422   3.607   9.610  11.137  0.0203  0.0796  0.0496
 1730W        W11423   4.710  10.546   5.994 -0.2403  0.3048  0.2006
 1731W        W11424   4.281   6.269  14.156 -0.0041 -0.0263 -0.0702
 1732W        W11425   6.002   6.537   5.829  0.0813 -0.2658 -0.2127
 1733W        W11426  11.790   0.086  16.216 -0.2101  0.0095 -0.3123
 1734W        W11427  10.038  17.904  11.583  0.1313  0.0216 -0.0283
 1735W        W11428  13.832  12.702   5.363 -0.1859  0.1186 -0.2103
 1736W        W11429   6.978   6.607   4.537  0.2803 -0.1668 -0.1602
 1737W        W11430   5.902   6.046  14.472 -0.1416 -0.3385  0.0033
 1738W        W11431   8.890   8.711  13.534  0.0116 -0.0825  0.2614
 1739W        W11432  10.502  10.387   3.862 -0.0814 -0.1100 -0.2008
 1740W        W11433  17.333  11.648  16.647 -0.0867  0.2636 -0.1289
 1741W        W11434   7.957  13.432   1.504  0.1386  0.0763  0.0082
 1742W        W11435  10.636   2.231   6.465 -0.0289 -0.2903  0.0904
 1743W        W11436   8.354  11.290   5.217 -0.0522 -0.1006  0.1867
 1744W        W11437  10.398  16.839  16.958 -0.1564  0.0745 -0.0666
 1745W        W11438   6.950   7.256  16.923  0.2083  0.0328 -0.2972
 1746W        W11439   2.480  11.247  13.428 -0.0318  0.0376 -0.1878
 1747W        W11440   5.310   8.310  13.254 -0.0396 -0.4808  0.1320
 1748W        W11441   5.009  12.890   0.242 -0.1424 -0.3195  0.1681
 1749W        W11442   8.101   7.982  16.860  0.2386  0.0807  0.5732
 1750W        W11443   5.635   7.870   4.225  0.0286 -0.1227  0.1122
 1751W        W11444   0.018   3.604  15.336 -0.1768 -0.0577  0.1690
 1752W        W11445   8.323  15.908  11.520  0.0237  0.2637  0.0088
 1753W        W11446   3.490   5.052   1.285  0.3298  0.1600  0.1654
 1754W        W11447   4.949   0.348  17.094 -0.3522  0.2275 -0.0843
 1755W        W11448   9.529  13.773  15.394 -0.0674  0.0823  0.3684
 1756W        W11449  15.615   9.055  13.158  0.0189  0.4399  0.0908
 1757W        W11450   9.792  17.345  15.601  0.2304 -0.0478  0.0781
 1758W        W11451  10.472   9.093  15.290 -0.0457  0.1407 -0.1403
 1759W        W11452   0.273  14.090   0.625  0.1197  0.0665  0.2527
 1760W        W11453   3.872  10.855  15.974  0.6152 -0.2136 -0.0161
 1761W        W11454  14.309   3.195  16.094 -0.0696  0.2612  0.1858
 1762W        W11455   2.756   8.256   4.159  0.2670 -0.0909 -0.0895
 1763W        W11456   6.828   5.953   6.204 -0.3154  0.0679  0.4528
 1764W        W11457  17.540  15.512   4.358 -0.0958  0.1712  0.1754
 1765W        W11458   2.926   2.800   6.335  0.1158 -0.1865 -0.0150
 1766W        W11459   3.109   8.778   0.519  0.0080 -0.1075  0.3340
 1767W        W11460   4.525  14.452  12.666  0.1073  0.1578 -0.1480
 1768W        W11461   0.673   1.414  16.879 -0.2989  0.1384 -0.0430
 1769W        W11462   4.368   1.911  11.528 -0.3588  0.4622 -0.1519
 1770W        W11463  17.628  16.004   5.924 -0.1307 -0.0606  0.0384
 1771W        W11464   4.361   0.179  15.088  0.2026  0.2972 -0.2805
 1772W        W11465  12.937   3.612  14.174 -0.1255 -0.0742  0.0461
 1773W        W11466  17.414  13.975   0.323  0.2524 -0.1967  0.0703
 1774W        W11467   4.219   4.801   2.385 -0.4700  0.2476  0.3156
 1775W        W11468   1.926  10.655  11.387 -0.0668 -0.1591 -0.0971
 1776W        W11469   0.714  14.384   5.586 -0.4794 -0.1655  0.1140
 1777W        W11470   4.197  11.956   1.586 -0.1666  0.0385 -0.0479
 1778W        W11471   5.631  17.221  16.155  0.0053 -0.0104 -0.0002
 1779W        W11472   5.569  15.046   0.289  0.2513 -0.0252 -0.0737
 1780W        W11473   5.812   6.656   2.407 -0.2005  0.0039 -0.1857
 1781W        W11474   3.521  15.467  13.142  0.3265 -0.0283  0.0810
 1782W        W11475   8.161   8.655   6.654  0.0784  0.1207 -0.0294
 1783W        W11476   3.391   7.846  16.554  0.0833 -0.0526  0.0793
 1784W        W11477   3.385   8.593  14.374  0.2383  0.1434 -0.1961
 1785W        W11478  10.142   2.084  12.304  0.1252 -0.1269  0.3503
 1786W        W11479  10.731  14.377  15.096  0.0777 -0.2714 -0.1106
 1787W        W11480   2.901  16.867   5.853 -0.2266  0.1357  0.2279
 1788W        W11481   5.816  12.370   0.773 -0.0479  0.3606  0.1151
 1789W        W11482   9.829   6.191   3.969 -0.2347 -0.0575 -0.3012
 1790W        W11483   7.114   0.000   5.237 -0.0966 -0.1462 -0.1532
 1791W        W11484   0.274  15.221  14.820 -0.1119 -0.0563  0.0646
 1792W        W11485   0.117   6.680  14.475 -0.2075 -0.1495  0.1678
 1793W        W11486   4.637   4.023   4.360 -0.1793  0.2099  0.0512
 1794W        W11487   4.375  14.408   4.345  0.0809 -0.1196 -0.0594
 1795W        W11488  15.944   9.383  12.056 -0.4302  0.0946 -0.6110
 1796W        W11489   3.660   1.327  16.901 -0.0457  0.1736 -0.1605
 1797W        W11490   3.060  10.673  13.019  0.3554 -0.2776 -0.2085
 1798W        W11491   9.229   2.025  14.104 -0.0031  0.0559 -0.0400
 1799W        W11492   1.902  11.070   4.667 -0.3998  0.1182  0.0433
 1800W        W11493   3.260   3.524   2.913 -0.2543  0.0611  0.0124
 1801W        W11494  11.541  15.104   2.272 -0.1202  0.3094  0.2861
 1802W        W11495   8.121   3.573   0.221 -0.1783 -0.0048 -0.0939
 1803W        W11496   8.847   9.698  15.663  0.1108 -0.2128 -0.0648
 1804W        W11497   4.249   0.681   2.244 -0.0761  0.0514  0.0395
 1805W        W11498   6.915   2.266   4.408 -0.2099 -0.1140  0.0148
 1806W        W11499   9.862   4.683  14.275  0.1809  0.1229 -0.2742
 1807W        W11500   1.775  16.273   3.059  0.0140 -0.1764  0.0814
 1808W        W11501   8.174  13.340  15.262 -0.2034  0.0507  0.3996
 1809W        W11502   1.001   1.056   5.171 -0.2184  0.1325  0.0581
 1810W        W11503  16.957  12.445   5.114  0.1780  0.2291  0.1581
 1811W        W11504  13.173  16.553  15.365  0.2893  0.2320  0.2963
 1812W        W11505  16.007  13.866   3.461 -0.0682  0.1231 -0.0678
 1813W        W11506  12.917   6.553   5.776  0.1823  0.0228 -0.1861
 1814W        W11507   8.460   8.348   5.799 -0.3317 -0.0089  0.1018
 1815W        W11508   8.594  16.442   4.959  0.3201  0.1907 -0.0484
 1816W        W11509   6.096   5.150  15.646 -0.0288  0.3175  0.0940
 1817W        W11510   1.601   6.964  13.621  0.0850 -0.1332  0.2262
 1818W        W11511  10.334   5.341   4.703 -0.2442  0.0815  0.0195
 1819W        W11512   4.857  16.950   1.112 -0.1380  0.5029 -0.1543
 1820W        W11513  11.434   9.523  15.662 -0.0191  0.3118  0.3149
 1821W        W11514   2.551   6.272  13.199 -0.0981 -0.5013  0.0330
 1822W        W11515  10.215   5.497  13.859 -0.0808  0.1541 -0.0634
 1823W        W11516   9.509  14.472   1.658 -0.1327 -0.0072 -0.1010
 1824W        W11517   1.816  12.308  15.532  0.0361  0.1196  0.0235
 1825W        W11518   7.382   5.827   5.301 -0.0939 -0.1650  0.0082
 1826W        W11519   9.364  17.978   0.903 -0.0571  0.0822  0.0551
 1827W        W11520  17.444   7.096   5.738  0.0642  0.0576 -0.1539
 1828W        W11521   8.901   0.055  15.630  0.1399  0.1897  0.4329
 1829W        W11522   6.013  14.249   6.045 -0.1001 -0.0401  0.1801
 1830W        W11523   6.588   3.840   2.687 -0.0841 -0.0768  0.1391
 1831W        W11524   8.271  11.970  11.718 -0.0453 -0.1148  0.2984
 1832W        W11525  17.381   3.946   0.979  0.1152 -0.1411 -0.0436
 1833W        W11526  10.624  12.268   1.387  0.1503  0.2315  0.3457
 1834W        W11527   1.868   2.006  13.890  0.0686  0.2634 -0.1297
 1835W        W11528   0.606  15.117   2.006  0.3072  0.2827 -0.0804
 1836W        W11529   0.650   9.570  16.036 -0.4582 -0.1589 -0.2848
 1837W        W11530   1.413  17.311   3.427 -0.1460  0.4275 -0.2543
 1838W        W11531   9.094  16.077   3.658  0.1965 -0.1622 -0.0273
 1839W        W11532  16.914   1.608  16.490 -0.2542 -0.0143  0.2151
 1840W        W11533   4.757  12.240  13.741  0.2165 -0.1396  0.0184
 1841W        W11534   5.121   0.661   0.879  0.1003 -0.2356 -0.1466
 1842W        W11535   7.997   2.075   1.347  0.3554  0.0082  0.1992
 1843W        W11536   0.520  14.493   4.602  0.1764  0.2245  0.1487
 1844W        W11537   3.142  10.871   0.710 -0.0287 -0.3565  0.0116
 1845W        W11538  12.478  17.566  13.719 -0.0204 -0.0086 -0.0737
 1846W        W11539  17.976  13.589  13.624  0.0242 -0.5493 -0.0472
 1847W        W11540   4.807   5.121   2.050  0.0294  0.2103  0.1316
 1848W        W11541  10.231  14.631   1.825  0.1784 -0.2782  0.3110
 1849W        W11542  12.527  12.879   3.148  0.2019  0.0642 -0.4368
 1850W        W11543   4.401   9.580  15.552  0.4983  0.2127 -0.1505
 1851W        W11544   0.339   6.008  15.250  0.2329  0.3254 -0.1115
 1852W        W11545   7.448   5.286  15.090  0.1932  0.0119  0.0793
 1853W        W11546   4.551   9.152   0.974  0.0171 -0.2332 -0.0962
 1854W        W11547   6.542   4.316  13.612  0.0966  0.2139 -0.2210
 1855W        W11548   8.831  15.978  15.794  0.1167  0.0923  0.3580
 1856W        W11549   5.842  15.725   2.206  0.1185  0.2340  0.2176
 1857W        W11550   6.058   6.990   4.315 -0.2117 -0.0237  0.1559
 1858W        W11551  11.325   5.919  15.951  0.2759  0.1383  0.0630
 1859W        W11552   2.442   0.281  12.516  0.0359  0.0025 -0.3178
 1860W        W11553   0.746   8.724  12.001 -0.1885 -0.0759  0.0248
 1861W        W11554   7.226  12.448   4.010 -0.0646  0.2738 -0.1212
 1862W        W11555   5.331   9.713   2.275  0.0381 -0.3525  0.0425
 1863W        W11556   7.661   5.911   6.938 -0.4176 -0.0412  0.0912
 1864W        W11557   2.177   5.715   5.628 -0.1327  0.1193 -0.1394
 1865W        W11558   4.525  16.406  14.701 -0.1678 -0.3438 -0.0509
 1866W        W11559   8.489  13.547   2.831  0.2959 -0.1225  0.0609
 1867W        W11560   3.413   8.049   4.629 -0.0449 -0.2360 -0.0324
 1868W        W11561   5.207   6.019  16.809 -0.0825  0.0886 -0.1017
 1869W        W11562   4.352  14.204   1.302 -0.4228 -0.1958  0.0124
 1870W        W11563   3.606  15.931   5.000 -0.0138 -0.1834  0.1645
 1871W        W11564  17.194   4.026  13.082 -0.1678  0.0969  0.1288
 1872W        W11565   5.094   0.554   5.451  0.0129 -0.0219 -0.3537
 1873W        W11566   4.016  10.029  16.455  0.1059 -0.0574  0.3226
 1874W        W11567  13.593   8.405  15.694  0.1459  0.0058 -0.0679
 1875W        W11568   3.354   5.999  12.633 -0.1192 -0.1315  0.1336
 1876W        W11569   1.326   1.161  11.636 -0.0030  0.0346  0.0178
 1877W        W11570   1.197  10.115   5.758 -0.2131  0.0006  0.0905
 1878W        W11571   7.277  10.426  16.106  0.1663 -0.1803 -0.2451
 1879W        W11572   1.500   1.878   1.613 -0.1383  0.0927 -0.0685
 1880W        W11573  15.922   3.287  10.711 -0.0907 -0.3185 -0.0650
 1881W        W11574  11.443   6.857   0.848  0.1892 -0.1161 -0.1378
 1882W        W11575   2.998   6.574   1.189 -0.1745 -0.3441  0.2370
 1883W        W11576   0.717   3.814   0.456  0.2547 -0.1625  0.3535
 1884W        W11577   9.164   6.843   1.233 -0.2273  0.0881 -0.2583
 1885W        W11578  17.498  15.061  16.274 -0.0431  0.2738 -0.1775
 1886W        W11579   8.004   4.209  14.708 -0.1316  0.0280 -0.2349
 1887W        W11580   7.391   3.832  16.723 -0.2005  0.3517 -0.0952
 1888W        W11581  11.105   8.324   5.940 -0.0204  0.0714 -0.0682
 1889W        W11582  10.988   2.686  15.993 -0.0036 -0.0656  0.0227
 1890W        W11583   8.362   8.283   3.725  0.0664 -0.4730 -0.0291
 1891W        W11584   5.794  15.642  16.770 -0.1243 -0.1781 -0.1124
 1892W        W11585   7.949   1.252  13.751  0.2990 -0.1756  0.2899
 1893W        W11586   1.990  16.589   2.764 -0.0869 -0.0515  0.2331
 1894W        W11587   5.978  14.417  16.407  0.0191  0.1549 -0.0743
 1895W        W11588   5.094   0.111  12.639 -0.2442  0.1657  0.0030
 1896W        W11589   6.756  10.905   3.391 -0.0346 -0.1267 -0.3502
 1897W        W11590  16.874   3.388   1.915  0.1135 -0.2723 -0.2649
 1898W        W11591   2.264   8.489  13.930 -0.3628 -0.1591  0.0158
 1899W        W11592  17.887  13.080  11.213 -0.1501  0.1003 -0.0071
 1900W        W11593  17.684   4.064  16.799  0.3391 -0.1489 -0.2718
 1901W        W11594   6.769   8.817   4.274 -0.0724  0.0829  0.2587
 1902W        W11595  13.142  10.985   5.141  0.0385  0.5675 -0.4364
 1903W        W11596   3.039   7.692  11.761  0.0830 -0.0719 -0.1788
 1904W        W11597   3.645  16.379   0.164  0.1556 -0.1972  0.2040
 1905W        W11598  11.408   5.094   4.902  0.0176  0.0176 -0.1470
 1906W        W11599   3.514   2.568   5.766 -0.0566  0.0579 -0.0378
 1907W        W11600   9.068  15.643   4.806 -0.1742 -0.3450 -0.2773
 1908W        W11601   6.231  14.732   6.100 -0.3884  0.0737 -0.0253
 1909W        W11602  13.819  12.148  12.053  0.1104  0.1172  0.0708
 1910W        W11603   6.645  14.541  12.574  0.1426 -0.3223 -0.4956
 1911W        W11604   2.248   4.077   4.212  0.0136  0.0645 -0.1740
 1912W        W11605   2.914  12.636   6.054 -0.2069 -0.0499 -0.1955
 1913W        W11606   4.875   6.381  16.597  0.1860  0.0714 -0.1807
 1914W        W11607  15.684  11.081   3.811 -0.1142  0.1045  0.0446
 1915W        W11608   7.669   1.135  16.111 -0.0374 -0.2234 -0.1225
 1916W        W11609   9.797  11.721   6.325 -0.0839 -0.1913 -0.0364
 1917W        W11610   4.497  14.324   2.607 -0.4938  0.1119  0.1795
 1918W        W11611   1.618  11.717  13.900 -0.2492 -0.3667 -0.0313
 1919W        W11612   2.876  17.197  13.382 -0.3774  0.1024 -0.2353
 1920W        W11613   6.156  12.818   6.436  0.1487 -0.0876 -0.1256
 1921W        W11614   0.433  16.650  15.516  0.0669 -0.1595  0.3257
 1922W        W11615   3.805   1.432  13.327 -0.0349  0.0533  0.0957
 1923W        W11616  17.306   6.707   6.044 -0.1354  0.0141  0.2179
 1924W        W11617  16.449   5.816  11.761 -0.2872  0.0053  0.2717
 1925W        W11618   4.427  14.224  11.629 -0.2318  0.1430  0.0829
 1926W        W11619  14.272   4.333  13.191  0.0486  0.1534 -0.0516
 1927W        W11620  13.441  16.330  16.213  0.0607 -0.0486 -0.0420
 1928W        W11621  15.574   7.703   0.497  0.2925  0.0204  0.0042
 1929W        W11622   6.493   4.038   0.740 -0.1125  0.0774  0.0259
 1930W        W11623   7.222   2.226   2.889 -0.2106  0.2018  0.2595
 1931W        W11624   5.603   4.003  13.889 -0.1065 -0.2068 -0.1095
 1932W        W11625   2.284   3.174   3.952  0.1012  0.2146  0.2061
 1933W        W11626   6.192  13.277   2.659 -0.0533 -0.2857  0.0745
 1934W        W11627  14.320   8.480  12.938  0.0885 -0.1252 -0.4360
 1935W        W11628  11.019  17.696   0.729  0.0061  0.1863  0.2375
 1936W        W11629   6.725  15.797   4.063  0.0541  0.2407 -0.1938
 1937W        W11630   0.093   6.678  13.471  0.0387 -0.1374  0.0519
 1938W        W11631   5.077   4.706  14.127  0.1372  0.3393  0.0339
 1939W        W11632   6.822  12.104   4.090  0.2556  0.0525  0.1891
 1940W        W11633   1.952  15.135   3.164 -0.1268  0.2617  0.1042
 1941W        W11634   5.711   2.938   1.885 -0.0340 -0.0659  0.1881
 1942W        W11635  11.405   6.795   6.051 -0.3058  0.0214 -0.0335
 1943W        W11636   4.991   4.188  14.029 -0.0398  0.0552  0.1309
 1944W        W11637  13.954   8.959   2.669 -0.0681  0.0644  0.0369
 1945W        W11638   3.983  11.346  12.826 -0.1083 -0.1024  0.1394
 1946W        W11639   7.134   6.738   4.066 -0.0657  0.1576  0.3155
 1947W        W11640  16.247  10.333  16.677 -0.0900  0.3308 -0.1771
 1948W        W11641   6.073   8.472   6.253  0.1713  0.0404 -0.1241
 1949W        W11642  13.440   4.449  16.301  0.0304  0.0801  0.4817
 1950W        W11643   0.329  17.103  12.578  0.1067 -0.2821 -0.0085
 1951W        W11644   5.275  15.436  13.747 -0.0073  0.1235 -0.1332
 1952W        W11645   1.120  16.673  16.239  0.2268 -0.0747  0.2018
 1953W        W11646   9.948  11.508   2.128 -0.3375 -0.2321 -0.0153
 1954W        W11647  15.857  12.270  14.472 -0.1704 -0.0472 -0.0518
 1955W        W11648   9.269  10.674  14.353 -0.1834  0.0221 -0.2285
 1956W        W11649   0.106   0.399  16.500 -0.2982  0.2923 -0.4201
 1957W        W11650   2.801  10.467   5.851  0.1141 -0.1833 -0.1817
 1958W        W11651   5.080  14.941  13.411 -0.0183 -0.0584 -0.2483
 1959W        W11652   7.338  13.092   3.496 -0.0156  0.0115 -0.3709
 1960W        W11653   1.427  12.566   5.191 -0.1618  0.2955 -0.1221
 1961W        W11654   4.527   3.276   2.295 -0.0611  0.0042  0.0612
 1962W        W11655  16.481   8.042   4.366  0.1661 -0.0644 -0.0283
 1963W        W11656   5.804   3.317   2.767 -0.1367  0.0424  0.0414
 1964W        W11657   7.271   5.669  13.181  0.0294  0.3646 -0.1711
 1965W        W11658  10.849   2.615   2.203  0.0153 -0.0611 -0.5025
 1966W        W11659  13.824   6.044   2.080  0.2658  0.0644  0.0948
 1967W        W11660  12.754  17.498  15.701  0.1664 -0.1551  0.0714
 1968W        W11661  15.101  13.666   0.395  0.0516 -0.0672  0.2516
 1969W        W11662   2.941   1.858  15.002  0.1244  0.1197  0.0595
 1970W        W11663  13.692   5.726  15.888 -0.0693  0.2572 -0.2319
 1971W        W11664   3.419  16.163   0.644  0.0659  0.0599  0.0598
 1972W        W11665   0.425   2.356   0.113 -0.3981 -0.1585 -0.1662
 1973W        W11666   0.556   8.657  14.672 -0.0081  0.1549 -0.2936
 1974W        W11667   2.610  17.821  12.422 -0.0404  0.0087  0.0882
 1975W        W11668   5.377   3.837   3.802 -0.2371  0.1594  0.2121
 1976W        W11669  17.919  12.123   1.694 -0.1387 -0.0952 -0.3975
 1977W        W11670  16.179   2.400  15.213 -0.0035  0.0651  0.0980
 1978W        W11671   8.322   9.755  14.064  0.4375  0.2999  0.1498
 1979W        W11672  13.770   3.071  16.160  0.0442  0.2337  0.0636
 1980W        W11673   1.036  16.138   4.532  0.1239  0.3001 -0.1415
 1981W        W11674   8.929  17.325  14.185  0.2724  0.0748  0.2991
 1982W        W11675  13.888   7.896   3.291 -0.2918 -0.2570  0.1072
 1983W        W11676  17.058   9.040   1.710  0.0315 -0.0437 -0.0866
 1984W        W11677  17.538   5.035   5.708  0.0796 -0.0110  0.1449
 1985W        W11678   1.709  12.431   1.105 -0.3023  0.1714  0.0160
 1986W        W11679  11.363  17.333   2.423  0.0312 -0.0571  0.0297
 1987W        W11680  16.466   1.926   5.068 -0.1724 -0.1129  0.1492
 1988W        W11681   9.343   8.964   2.325 -0.5418  0.3318  0.2923
 1989W        W11682  14.488  12.239   0.509  0.0053  0.1091 -0.0063
 1990W        W11683   9.820  10.197   2.433  0.0980  0.2386  0.0614
 1991W        W11684   8.852   4.030  13.983  0.1418 -0.1002 -0.1904
 1992W        W11685   1.560   4.706  14.380 -0.1340  0.2086 -0.0087
 1993W        W11686   2.836  16.705  16.642  0.3442 -0.4598 -0.1101
 1994W        W11687  17.698  12.933  14.551  0.1985  0.0784  0.0918
 1995W        W11688   4.806   4.999   3.610 -0.1072 -0.2031  0.0340
 1996W        W11689   3.516  17.686  14.879 -0.0579 -0.3773 -0.2646
 1997W        W11690   7.324   7.268   5.343  0.0640 -0.0200  0.1318
 1998W        W11691  15.671  16.092   2.741  0.0798  0.2324  0.1037
 1999W        W11692   7.093  17.332  14.274 -0.4078 -0.0981  0.2110
 2000W        W11693   4.416  10.874  12.552 -0.0777  0.1691  0.0441
 2001W        W11694   3.625   8.359  11.670 -0.4741 -0.0862  0.1246
 2002W        W11695   4.864  12.365  15.756  0.0497 -0.3569  0.0826
 2003W        W11696   8.474   5.612   1.085  0.0410  0.1473 -0.0768
 2004W        W11697   6.121   1.834  15.782 -0.1361 -0.1047 -0.0186
 2005W        W11698   4.349  10.574   5.446 -0.2128 -0.0634 -0.0125
 2006W        W11699   7.220   3.145  13.945  0.0050  0.1323 -0.0286
 2007W        W11700  16.072   7.564   0.339 -0.2557  0.0761  0.2624
 2008W        W11701   9.668   9.424  14.122  0.1703 -0.0850  0.0825
 2009W        W11702  12.798  14.425   1.819 -0.0490 -0.0935  0.2288
 2010W        W11703  11.507   7.611   6.166  0.2566 -0.0263 -0.0622
 2011W        W11704   2.508  17.839   5.056 -0.2910 -0.0521 -0.4202
 2012W        W11705   8.155  15.965   3.426 -0.2090  0.2542 -0.2220
 2013W        W11706   2.662  15.807   0.155 -0.2559  0.0213 -0.0764
 2014W        W11707   8.192   1.178  16.330  0.0316 -0.1099 -0.1046
 2015W        W11708   6.439   3.233  14.405  0.1682  0.0992 -0.1174
 2016W        W11709   4.134   4.777  13.042  0.2405  0.1819 -0.2968
 2017W        W11710  13.445  15.016   0.453  0.1859  0.2461  0.0881
 2018W        W11711  12.939   1.094   1.100  0.0940  0.1326  0.1026
 2019W        W11712   8.143  15.067   5.067 -0.0576  0.2758 -0.1651
 2020W        W11713   3.763   0.230  15.067 -0.3251 -0.0120  0.0898
 2021W        W11714  10.039   2.972   1.572  0.1556  0.1332  0.3914
 2022W        W11715  11.075   2.563  15.476  0.1377  0.0621  0.0922
 2023W        W11716   9.708   3.114  12.331  0.2364  0.1351 -0.1171
 2024W        W11717   6.613   3.410   4.443 -0.0815 -0.0589  0.2653
 2025W        W11718  12.760  16.365  14.028  0.0865  0.1309  0.1990
 2026W        W11719   1.091   7.823   5.145  0.3618  0.2502  0.1621
 2027W        W11720   7.510  15.483  13.175  0.1460  0.0542  0.0881
 2028W        W11721   5.402  17.816   3.758 -0.0030  0.0583  0.0080
 2029W        W11722   2.172   6.903   4.857 -0.0904 -0.1446  0.0560
 2030W        W11723  16.269   5.525   3.953  0.0060  0.1187  0.1019
 2031W        W11724   3.293  16.543   2.296  0.1378  0.1429  0.0392
 2032W        W11725   1.837   0.349  14.856  0.1692  0.0540  0.2622
 2033W        W11726   6.018   7.456   4.163  0.0629 -0.2953  0.1329
 2034W        W11727   3.478  10.730   3.747  0.0715  0.2633  0.0818
 2035W        W11728   4.194  15.329  12.456 -0.0719 -0.0899  0.1727
 2036W        W11729   1.323   0.027  11.882  0.0183  0.3278 -0.0522
 2037W        W11730   5.125   8.423   6.595 -0.2725 -0.1551  0.0282
 2038W        W11731   5.822   7.692   4.744  0.5020  0.1090  0.0371
 2039W        W11732  10.813  14.742   5.047  0.0187 -0.0047 -0.0383
 2040W        W11733  11.888  14.815   4.637 -0.0156  0.0432  0.3347
 2041W        W11734   2.957   0.359   4.273 -0.1936  0.0924 -0.1577
 2042W        W11735   1.614  16.060   1.443  0.1375  0.1522  0.0299
 2043W        W11736  11.014  14.831   3.882 -0.0149  0.0176  0.3777
 2044W        W11737   1.628  13.375   3.844 -0.3398 -0.0053 -0.1367
 2045W        W11738   2.501  13.251  16.186 -0.1368 -0.2455  0.2878
 2046W        W11739   6.476   3.557  13.979 -0.0106  0.0502  0.0274
 2047W        W11740   3.875   8.639  11.325 -0.1422  0.3022  0.1510
 2048W        W11741   4.438   3.756   1.796  0.1352  0.0715 -0.0299
 2049W        W11742  12.776   7.700  14.926  0.2203 -0.2269 -0.0503
 2050W        W11743   3.044   9.368   4.932 -0.1857 -0.2369 -0.4567
 2051W        W11744  12.162  16.412   3.749 -0.0459  0.1377 -0.0381
 2052W        W11745  10.014  12.689   6.309 -0.0260  0.0302 -0.0247
 2053W        W11746   8.315   7.086   3.912  0.1421  0.0486 -0.0459
 2054W        W11747   4.782   8.697   0.787 -0.0963  0.0553  0.0107
 2055W        W11748   4.527   3.120  13.275  0.3727 -0.1570  0.4423
 2056W        W11749   4.240   5.892  13.774  0.0029  0.2187 -0.0866
 2057W        W11750  17.415   1.592  13.640  0.2627 -0.1726 -0.0464
 2058W        W11751   3.661   5.807  13.562 -0.1656 -0.2371  0.0065
 2059W        W11752  11.652   3.714   0.423  0.0022 -0.1245  0.1228
 2060W        W11753  17.712  11.655   1.545 -0.0953 -0.0976 -0.2321
 2061W        W11754   7.632  15.966  12.038  0.1837  0.2154  0.1159
 2062W        W11755   5.711  15.048   4.364  0.1509 -0.0644 -0.3084
 2063W        W11756  10.412   2.814   5.798 -0.0499 -0.1910  0.0847
 2064W        W11757   7.450   0.166  11.989  0.2843  0.0452  0.2495
 2065W        W11758   3.220  17.609   3.165  0.6183  0.1183 -0.2539
 2066W        W11759   2.946  10.249  11.595 -0.2462  0.0344 -0.0526
 2067W        W11760   5.917   1.733   1.980  0.1343  0.0580  0.3055
 2068W        W11761   0.988   6.241  13.516 -0.3069  0.0724  0.1211
 2069W        W11762  15.698  14.274  12.161  0.0239  0.0409  0.1894
 2070W        W11763   5.853   8.813  13.535 -0.0026 -0.0094  0.1304
 2071W        W11764   6.131  15.199  11.944 -0.1481  0.0123 -0.2156
 2072W        W11765   4.362   1.453   0.283  0.0897 -0.1460 -0.0415
 2073W        W11766   5.698  13.297   7.026  0.0425 -0.1378 -0.0539
 2074W        W11767   8.333   4.238   1.073 -0.1912  0.0017 -0.1554
 2075W        W11768   9.658  12.560  13.389  0.0426 -0.2165  0.0059
 2076W        W11769   6.718   7.099  11.252  0.0548  0.0076 -0.1783
 2077W        W11770  12.395   4.850  13.526 -0.0901  0.1443 -0.1285
 2078W        W11771  12.778  13.980   1.621 -0.0780 -0.3063  0.3034
 2079W        W11772  10.959  17.446   2.728  0.2741  0.3779  0.0157
 2080W        W11773   5.676   7.092  15.763 -0.0347 -0.0852  0.3155
 2081W        W11774  14.160  12.089  15.137 -0.0082 -0.1200  0.0338
 2082W        W11775  10.392  14.149   0.890  0.0343 -0.0047  0.1367
 2083W        W11776  11.761   1.563  16.918 -0.1323 -0.1080 -0.0549
 2084W        W11777   5.971   0.040  16.052 -0.2602  0.1616  0.1730
 2085W        W11778  14.196   0.121  16.774 -0.0183 -0.0934  0.1569
 2086W        W11779   8.670   2.979  13.341  0.2578  0.2740  0.0580
 2087W        W11780  15.201   0.928   0.670 -0.2649  0.0596  0.0972
 2088W        W11781   2.287   0.207   2.095 -0.0744 -0.0979  0.0571
 2089W        W11782  15.339  17.356   6.315  0.4121 -0.0075  0.0168
 2090W        W11783   1.300   2.643  12.043 -0.0307  0.2650  0.3122
 2091W        W11784   1.437   7.080  16.369 -0.1256  0.0408 -0.0055
 2092W        W11785  15.364  12.587   5.341 -0.1644  0.1862 -0.0516
 2093W        W11786   9.933  16.425   4.357  0.0818 -0.3381  0.1805
 2094W        W11787   7.985   2.063  15.299  0.1607  0.0779  0.0015
 2095W        W11788   6.078   4.969   0.629  0.1423  0.3227  0.1155
 2096W        W11789   7.301  10.931   2.630  0.0568 -0.0691  0.0572
 2097W        W11790   6.565   5.283   5.812  0.1478  0.0677 -0.4776
 2098W        W11791  14.492   4.059  16.512 -0.1416 -0.2652 -0.1703
 2099W        W11792   1.619   2.978   2.204  0.0905  0.1688 -0.0873
 2100W        W11793   8.073  11.836  11.180 -0.2153  0.0395 -0.0546
 2101W        W11794   5.149   2.257   1.789  0.0353  0.1989 -0.0250
 2102W        W11795   7.018   1.128   3.324  0.2542 -0.1314  0.0237
 2103W        W11796   1.387  15.637   5.357 -0.2566 -0.1220  0.1090
 2104W        W11797  12.481  14.433  16.981  0.2151  0.0604 -0.0604
 2105W        W11798  13.184   1.781  16.821 -0.1332  0.0028  0.2117
 2106W        W11799   2.989  10.518  13.768 -0.1498 -0.0377 -0.3097
 2107W        W11800   7.116   0.805  15.002 -0.0293  0.2223  0.1007
 2108W        W11801   0.381  16.756   0.743 -0.0072  0.1905  0.2290
 2109W        W11802   7.349  13.902   5.514 -0.0082 -0.1327 -0.1355
 2110W        W11803  12.871  11.960   2.180 -0.0438  0.0000  0.0954
 2111W        W11804   1.508   7.314  12.651 -0.0052 -0.0941 -0.0024
 2112W        W11805   0.707   3.756   4.812  0.0385  0.1024  0.0512
 2113W        W11806   2.257  16.370   3.223 -0.2721 -0.0178 -0.1347
 2114W        W11807  13.478  10.087   3.620 -0.1930 -0.0770  0.1933
 2115W        W11808  12.771   5.705   6.083  0.0871  0.0602  0.1699
 2116W        W11809  10.085  13.082   5.312  0.2872 -0.1676  0.1326
 2117W        W11810  10.780  10.787   0.338 -0.1637  0.1397  0.0578
 2118W        W11811   8.429  17.067  14.250  0.1125 -0.2478  0.0430
 2119W        W11812  15.766   1.207  12.145  0.0379 -0.0553  0.2154
 2120W        W11813  17.727   6.521   5.408  0.2848 -0.0840 -0.2637
 2121W        W11814   1.994  17.973   5.120 -0.0032  0.0164 -0.0082
 2122W        W11815   9.460   2.450  13.478  0.4288  0.6750 -0.1576
 2123W        W11816   5.764  15.238  16.305 -0.4304  0.2620  0.0084
 2124W        W11817  11.522  13.397   5.505  0.0090 -0.1219  0.2256
 2125W        W11818   3.033  11.096  12.757 -0.0288  0.1132 -0.0628
 2126W        W11819  11.683  11.513   4.696  0.0533  0.0006  0.1438
 2127W        W11820   9.886   9.777  16.120 -0.0418 -0.0209  0.1144
 2128W        W11821   3.574   7.916  13.288 -0.1849  0.0260 -0.0419
 2129W        W11822  13.206  13.921  11.439 -0.0610  0.5587 -0.0942
 2130W        W11823  17.773   0.731  16.202  0.0443 -0.0013  0.5711
 2131W        W11824  13.298   2.785  15.451  0.0646 -0.0991 -0.1940
 2132W        W11825   1.066   3.376  12.546  0.2012 -0.2760  0.1734
 2133W        W11826   7.908  16.114  12.846 -0.0685 -0.1921 -0.1349
 2134W        W11827   5.650   5.783   1.973  0.1401  0.1089 -0.0030
 2135W        W11828   7.433   0.520  13.023  0.0507  0.1856 -0.2787
 2136W        W11829   5.815  16.804  13.770 -0.0280  0.0756 -0.0624
 2137W        W11830  17.268  16.873  15.941  0.0901  0.0384 -0.0004
 2138W        W11831  13.320  15.135   4.463  0.3781  0.0281 -0.0030
 2139W        W11832  10.271   2.475  14.225  0.1679  0.1213  0.2124
 2140W        W11833   6.360   5.531  16.536  0.0823 -0.0871 -0.2439
 2141W        W11834   6.947  11.211  14.003  0.4670  0.1010  0.3172
 2142W        W11835  12.845  16.145   1.858 -0.5446 -0.0788  0.0402
 2143W        W11836   1.353   5.428   0.581 -0.1058 -0.4198  0.0875
 2144W        W11837   1.300  13.568   2.842 -0.3086 -0.0277  0.2045
 2145W        W11838   8.365  16.802  12.354  0.2810 -0.0298  0.2518
 2146W        W11839   0.216   8.270  16.599  0.0631  0.3985  0.5721
 2147W        W11840   6.225   2.830  14.113  0.3682  0.1770  0.0092
 2148W        W11841   5.187  16.320  12.789  0.3668 -0.1026  0.2736
 2149W        W11842  17.281  17.612   1.045 -0.2021 -0.1313  0.1083
 2150W        W11843   5.500  10.134   4.327 -0.0420  0.1142 -0.1660
 2151W        W11844  10.077  10.649   1.350  0.1484  0.3133 -0.1113
 2152W        W11845   2.157  10.772   5.543 -0.1678 -0.4801 -0.1153
 2153W        W11846  10.117  14.314   1.441 -0.1300 -0.1237 -0.0819
 2154W        W11847   6.248  12.673  16.564  0.0088 -0.2949 -0.1795
 2155W        W11848   3.557  15.065  16.842  0.1192 -0.0130  0.1812
 2156W        W11849  15.617   3.170   0.801  0.0681 -0.4043  0.2424
 2157W        W11850   9.484   5.100   6.598 -0.1708  0.1874 -0.1524
 2158W        W11851   8.100  10.800   6.342  0.0031  0.0524  0.0088
 2159W        W11852   4.570  14.639   1.409  0.1387  0.0923  0.0812
 2160W        W11853  17.678  12.339  11.718  0.0128  0.1361  0.0498
 2161W        W11854   5.699  17.818   3.298  0.0421 -0.2230  0.4080
 2162W        W11855   8.489  14.584  14.740 -0.0809 -0.0043  0.0397
 2163W        W11856   2.919   0.952  16.665  0.0951 -0.0807  0.2631
 2164W        W11857  17.337  10.776   4.256  0.1636  0.0247 -0.1766
 2165W        W11858   3.961   2.294   0.595  0.0905 -0.3108 -0.0711
 2166W        W11859  12.054  12.007   0.667  0.3868 -0.2560 -0.1048
 2167W        W11860   8.510   4.553   2.053 -0.2850  0.0859 -0.0243
 2168W        W11861   1.919   6.708   3.843  0.2471  0.0334  0.2022
 2169W        W11862   3.263  13.962   5.287  0.1567  0.1579  0.1292
 2170W        W11863  17.253   9.277   4.485 -0.0436 -0.1260  0.0435
 2171W        W11864  17.219  15.862  15.697 -0.0090 -0.1479 -0.3560
 2172W        W11865   9.566   9.963   0.918 -0.1053 -0.1725  0.2500
 2173W        W11866  16.914   6.903  12.555  0.2880  0.2592  0.1616
 2174W        W11867   9.410   9.851   0.309  0.0746  0.0681  0.0106
 2175W        W11868   5.145   5.611   1.434 -0.3390 -0.3097 -0.0457
 2176W        W11869   4.061  10.518  16.409 -0.0807  0.1674 -0.4687
 2177W        W11870   8.709  12.559   4.976 -0.0369  0.0533 -0.1259
 2178W        W11871   0.896   9.617   5.933 -0.0137  0.0483  0.1541
 2179W        W11872   7.069  16.852   4.652  0.4759  0.0326  0.0017
 2180W        W11873  11.643   6.342  13.609 -0.3677 -0.0393 -0.1697
 2181W        W11874   0.607   1.805  12.074  0.1515  0.0089 -0.1106
 2182W        W11875  16.935   5.638  11.779  0.1908  0.0201 -0.0929
 2183W        W11876   5.587  13.490   2.333 -0.0881 -0.0811 -0.0950
 2184W        W11877   3.223   3.218   6.282  0.3312 -0.4068 -0.1280
 2185W        W11878  16.119   2.111   5.405  0.0590 -0.2068  0.0198
 2186W        W11879   8.817  16.235   1.163  0.4387  0.0644 -0.0607
 2187W        W11880   5.049   7.647  16.014 -0.2123 -0.0726  0.1830
 2188W        W11881   0.263   8.984   6.174  0.0805 -0.0635 -0.3414
 2189W        W11882   4.147   1.827  15.623  0.1371 -0.0411 -0.3764
 2190W        W11883   7.381  10.130   3.700 -0.0589 -0.0466  0.3163
 2191W        W11884   8.400   8.882   2.331  0.1656 -0.2815  0.0116
 2192W        W11885   5.822   1.099  16.901  0.2326 -0.0798  0.0965
 2193W        W11886  10.027   7.187  15.148  0.2470 -0.1043 -0.1333
 2194W        W11887   0.103   9.475   2.646 -0.2500 -0.0152  0.0071
 2195W        W11888   9.434  14.255   4.750  0.3606 -0.0451 -0.1434
 2196W        W11889   8.734   2.027  14.134 -0.1468 -0.0298  0.0956
 2197W        W11890  16.024   5.746  14.175 -0.1991  0.0559  0.1009
 2198W        W11891   1.244  12.421  15.749 -0.1382 -0.0254  0.3998
 2199W        W11892  11.628   6.125  13.046 -0.0134  0.1377 -0.0580
 2200W        W11893   0.002   1.992   0.044 -0.0799  0.0742 -0.0432
 2201W        W11894   9.476   0.494  15.255  0.3097 -0.5271  0.0353
 2202W        W11895   3.495  14.728  10.795  0.3976  0.1275 -0.1074
 2203W        W11896  14.422  11.290  12.420  0.0385 -0.3723  0.1161
 2204W        W11897   7.279  11.937   6.330  0.0823  0.0301  0.1248
 2205W        W11898  17.844   3.581  15.856 -0.2025  0.2614  0.0457
 2206W        W11899   3.505  11.207  16.166 -0.1705  0.1143  0.1864
 2207W        W11900   9.337   4.689   6.355  0.3589 -0.0192 -0.1467
 2208W        W11901   6.025   5.651   5.584  0.1466  0.1306  0.0306
 2209W        W11902   6.454  16.435   2.103  0.1012  0.1084 -0.0101
 2210W        W11903  11.160   4.861  14.792  0.0134  0.0586  0.0574
 2211W        W11904  11.130   1.163   1.908 -0.1194  0.0279 -0.5233
 2212W        W11905   4.729  12.748   4.509  0.0775 -0.1725  0.0151
 2213W        W11906   9.162   7.800   1.100  0.2356 -0.3007  0.2382
 2214W        W11907   0.981   6.376  15.991  0.0537  0.1572  0.0020
 2215W        W11908   9.264   6.108   3.983 -0.2493  0.1056 -0.1076
 2216W        W11909   4.617  14.277   0.480 -0.0158  0.0754 -0.0588
 2217W        W11910   7.067  11.625   5.381  0.1939 -0.3524 -0.0115
 2218W        W11911  17.903   6.604  12.666  0.1142  0.1256  0.1445
 2219W        W11912   3.164  13.888  13.023  0.3292 -0.2180 -0.3446
 2220W        W11913   8.690  14.340   3.979  0.2216 -0.0035 -0.2439
 2221W        W11914   0.987   5.670   0.809 -0.4768 -0.2509  0.0247
 2222W        W11915   1.119  10.672  13.366 -0.1942  0.0241 -0.0133
 2223W        W11916   3.642   4.627  12.324  0.1781 -0.2100  0.2874
 2224W        W11917  12.625  10.504   2.070  0.0393  0.0842 -0.2535
 2225W        W11918   3.902  13.656   0.187 -0.0553  0.1297  0.0623
 2226W        W11919   6.516  11.375  15.421  0.3211  0.2573  0.1513
 2227W        W11920  17.340  10.057  11.466 -0.0942 -0.1473 -0.0223
 2228W        W11921   6.890  14.705   0.733  0.0726  0.2977 -0.0545
 2229W        W11922   5.587   8.752  15.062 -0.0389 -0.0184 -0.3223
 2230W        W11923  11.600  12.156   3.938 -0.1799  0.1344 -0.2023
 2231W        W11924   9.950  11.641   4.702  0.2736 -0.1799  0.0125
 2232W        W11925  12.019  10.885   4.547 -0.0408  0.0266  0.0067
 2233W        W11926   2.947  16.113   4.458 -0.1020 -0.0080  0.0862
 2234W        W11927   1.616   0.211   5.410  0.2248 -0.2858 -0.0405
 2235W        W11928   5.259   2.001   0.680 -0.0932 -0.0129 -0.2190
 2236W        W11929   5.009  12.102   0.384 -0.3199 -0.0551  0.1124
 2237W        W11930   5.915  13.462  15.535  0.0094  0.0308 -0.0003
 2238W        W11931   7.341   1.206  16.732 -0.0421  0.0213 -0.1780
 2239W        W11932   8.888  11.990  12.807  0.0089 -0.2481  0.0127
 2240W        W11933  13.062  11.513  14.020  0.1303  0.0747 -0.1432
 2241W        W11934   9.287  16.846   6.927 -0.0172 -0.2495  0.3093
 2242W        W11935   0.979  16.096  12.578 -0.0358 -0.2485 -0.0226
 2243W        W11936   5.457  16.452   0.396 -0.1617 -0.0396  0.0952
 2244W        W11937  15.227  14.143  13.712  0.0529  0.0550 -0.2336
 2245W        W11938  10.827   0.991  16.689 -0.0629 -0.0643 -0.1001
 2246W        W11939  14.649   5.585  12.636 -0.0758  0.1581 -0.1526
 2247W        W11940   0.300   2.118  14.840  0.0198  0.0814  0.2486
 2248W        W11941   4.922  17.521   1.836 -0.0517 -0.1721  0.1365
 2249W        W11942   8.347  11.694   2.335  0.2621  0.0709  0.3480
 2250W        W11943   6.515   1.396  14.925  0.0108  0.2467  0.3204
 2251W        W11944   2.903  11.071  15.547 -0.2418 -0.1157 -0.2447
 2252W        W11945   5.562   6.189   6.155  0.0805  0.0297  0.1835
 2253W        W11946   3.871  16.608   2.529  0.1210 -0.2618  0.0932
 2254W        W11947   1.037   5.424   5.857 -0.4010  0.1472  0.0250
 2255W        W11948  15.713   6.493   2.947 -0.1084  0.1077  0.0198
 2256W        W11949   4.207  12.276   5.266  0.1257  0.1323 -0.0097
 2257W        W11950   5.622   4.921  15.202  0.0098 -0.1591 -0.3050
 2258W        W11951  11.110  17.245   4.037  0.2712 -0.0730 -0.0441
 2259W        W11952   6.100   7.781   5.564 -0.0547 -0.1930  0.0457
 2260W        W11953   3.263   2.128   3.092 -0.1719  0.3815 -0.0642
 2261W        W11954  16.898   6.182  14.505 -0.1699 -0.0872 -0.0501
 2262W        W11955   6.504  15.459   3.775 -0.0133 -0.0047  0.0819
 2263W        W11956  13.506  16.916  14.162 -0.1306 -0.0199 -0.3935
 2264W        W11957   5.274  11.055   6.817 -0.0943  0.1693  0.0136
 2265W        W11958   5.241   7.696  13.050  0.0920  0.2029  0.0430
 2266W        W11959   8.533  17.478   2.078  0.0154  0.0198 -0.0286
 2267W        W11960  14.948  13.626  12.343  0.2960  0.0823  0.1398
 2268W        W11961  12.331   8.885  11.769 -0.1078 -0.1739  0.2047
 2269W        W11962   4.528   7.179   3.824 -0.0190  0.2891  0.1535
 2270W        W11963   8.405   3.587   2.388  0.0097  0.1000 -0.0599
 2271W        W11964  10.011   2.894   1.080  0.1740  0.5258  0.1096
 2272W        W11965   6.879   1.157   2.488 -0.2258 -0.1254  0.0212
 2273W        W11966   4.735  15.739   4.197  0.1298  0.0621 -0.1899
 2274W        W11967  14.914  16.422  11.807  0.0854  0.3955 -0.0467
 2275W        W11968   6.318   3.396   2.885 -0.0352 -0.1707  0.2669
 2276W        W11969   4.534  12.548  15.399 -0.0411  0.1578  0.1741
 2277W        W11970   5.376   9.205  15.247  0.3288  0.3315  0.3594
 2278W        W11971   6.147  13.655  14.537 -0.0181 -0.2759  0.3225
 2279W        W11972   1.568  12.024   4.926  0.0362 -0.3669  0.0800
 2280W        W11973   0.273  10.483   5.235 -0.3109  0.1650 -0.2096
 2281W        W11974   5.106  11.340   6.365 -0.0441 -0.0421 -0.3976
 2282W        W11975  10.669  12.323   3.651 -0.5104 -0.1246 -0.1112
 2283W        W11976  16.324  10.568   4.321 -0.2842 -0.1846  0.2054
 2284W        W11977   2.720   3.314   0.139 -0.1615  0.1043 -0.1737
 2285W        W11978   5.014   6.935   0.128 -0.3129  0.2986 -0.1426
 2286W        W11979   7.215   6.100  14.376 -0.2381 -0.0272  0.0539
 2287W        W11980   7.934  15.652   3.063 -0.3003  0.3360  0.2532
 2288W        W11981   8.480  10.637  16.757  0.0845  0.1454 -0.2332
 2289W        W11982   0.836   0.802  16.030  0.0172 -0.0171  0.1015
 2290W        W11983  14.342  15.941   0.157  0.2294  0.1860 -0.0338
 2291W        W11984   8.265  14.119  15.697  0.1628 -0.0597  0.0064
 2292W        W11985   1.519   7.654  13.028 -0.0168  0.0310  0.0836
 2293W        W11986  10.897  15.287  14.451 -0.3610  0.0027  0.2097
 2294W        W11987  10.152  10.811  14.664 -0.1156 -0.0197 -0.2526
 2295W        W11988  11.799   4.791   4.018  0.0522 -0.1173 -0.3934
 2296W        W11989   8.896  12.043   1.048  0.2205  0.1647  0.0709
 2297W        W11990   7.275  15.439   0.219  0.0798  0.1107  0.3002
 2298W        W11991   8.458   7.153   2.597  0.2171 -0.3816 -0.2438
 2299W        W11992  10.013   6.470   0.873  0.0151  0.1588  0.0729
 2300W        W11993   7.971   8.456   0.621 -0.1122 -0.0949  0.1772
 2301W        W11994   3.594   2.367  14.993 -0.1639 -0.0153 -0.2319
 2302W        W11995  17.724   6.860   4.562 -0.1713 -0.2044 -0.1033
 2303W        W11996  16.698   3.078  14.692  0.0114 -0.1284  0.4689
 2304W        W11997   3.466   5.979  14.453  0.0441  0.1210 -0.0589
 2305W        W11998   3.524   7.673   1.545 -0.1443  0.1628  0.2052
 2306W        W11999   6.041   7.340  15.225  0.1231  0.6353 -0.4799
 2307W        W12000  16.090  14.389  16.176  0.4208 -0.1429 -0.0693
 2308W        W12001   1.071   3.132   4.062 -0.2953  0.0252 -0.0497
 2309W        W12002   1.329  14.454   3.655 -0.1315  0.4070 -0.2065
 2310W        W12003   6.535   7.232  15.292 -0.1267 -0.0270  0.2958
 2311W        W12004   3.471  13.718   4.896 -0.0012 -0.5093 -0.1106
 2312W        W12005  14.779  12.035  16.194  0.2381  0.1284 -0.1047
 2313W        W12006   5.199   1.947   3.692 -0.1896 -0.1948 -0.2352
 2314W        W12007   9.834   2.995   2.137 -0.2224 -0.0825  0.1702
 2315W        W12008   2.568  15.969   3.293 -0.1952  0.2697  0.0983
 2316W        W12009   4.087  17.047   1.445 -0.0603  0.0160 -0.1346
 2317W        W12010   1.538  13.128   2.524  0.1565  0.2452 -0.1344
 2318W        W12011   1.173   4.963  15.819  0.1793  0.1575 -0.1534
 2319W        W12012   3.514  13.279   3.819  0.2585  0.0823  0.4843
 2320W        W12013  15.034  11.603  16.149  0.1363 -0.0973 -0.0707
 2321W        W12014   6.753   7.205   2.278  0.0932  0.1924 -0.1016
 2322W        W12015   3.548  13.720  13.378  0.0054  0.5304  0.1470
 2323W        W12016   2.729  11.220   2.685 -0.3758  0.0768  0.0524
 2324W        W12017   3.251  10.882   4.613 -0.1007  0.2488  0.2639
 2325W        W12018   9.582  12.603   4.625 -0.0067 -0.1071 -0.1598
 2326W        W12019   3.733   5.317  16.260  0.1508  0.1126 -0.0186
 2327W        W12020   1.987  15.054  13.305 -0.1108 -0.0949  0.1282
 2328W        W12021  12.259  14.807   3.018 -0.1898 -0.0689  0.1180
 2329W        W12022   0.674   6.623  12.204  0.0480  0.1077  0.3476
 2330W        W12023   6.422   7.966  16.924  0.1634 -0.1071 -0.3278
 2331W        W12024  10.152   2.021   6.391 -0.0115 -0.0651 -0.0335
 2332W        W12025  16.343   5.976  10.703 -0.0313  0.1169 -0.2790
 2333W        W12026   1.740   0.146   2.997 -0.2041  0.3614 -0.1987
 2334W        W12027  14.490  13.477  16.297 -0.1150 -0.2230  0.0907
 2335W        W12028   4.917   3.175   0.886  0.2576 -0.0997 -0.1589
 2336W        W12029   6.253  10.238  16.207  0.0531 -0.0457  0.0740
 2337W        W12030  10.413   4.917   4.977  0.1987 -0.2332 -0.0461
 2338W        W12031  11.710  14.196  14.905  0.0543  0.0541 -0.1965
 2339W        W12032   5.032   6.147   4.384 -0.0435 -0.2553  0.1817
 2340W        W12033   9.033  14.768  11.543 -0.5288  0.3247  0.0256
 2341W        W12034   0.141   1.217  15.079 -0.2189 -0.2858 -0.2898
 2342W        W12035   8.692  16.171   0.641  0.0289  0.0620 -0.1156
 2343W        W12036  15.052   5.337   3.188  0.1292 -0.0400 -0.2860
 2344W        W12037   5.631  15.710   5.692 -0.0640 -0.1435 -0.2172
 2345W        W12038   5.215   7.239   4.631  0.2174  0.2790 -0.0742
 2346W        W12039   9.037   4.480  13.776 -0.2649 -0.0246 -0.1267
 2347W        W12040   7.744   0.770  14.999 -0.2158 -0.1802 -0.1333
 2348W        W12041   7.327  13.257  14.613  0.0173 -0.0637  0.1965
 2349W        W12042  16.183   5.436  10.673  0.2774  0.3298 -0.1674
 2350W        W12043   4.157  15.645  14.952  0.0315 -0.1930 -0.2119
 2351W        W12044   8.838  14.374  15.837  0.0557  0.0971 -0.1506
 2352W        W12045   4.410   4.069   1.074 -0.0121 -0.1999  0.2258
 2353W        W12046   5.073   7.538   3.590  0.2092  0.0252  0.1260
 2354W        W12047   7.826   7.615  12.781  0.4623 -0.0728 -0.1076
 2355W        W12048  14.647   8.058   4.593 -0.0294  0.0294  0.3271
 2356W        W12049   7.179  12.586   4.891  0.0185  0.3037  0.0906
 2357W        W12050  10.892  13.775   2.199 -0.0080  0.1979 -0.0313
 2358W        W12051   7.248  10.421   4.071 -0.3099 -0.3066 -0.1760
 2359W        W12052  10.575   8.191   6.512 -0.2163 -0.0245 -0.0065
 2360W        W12053  12.126   0.207   4.940 -0.0616 -0.0670  0.3315
 2361W        W12054   9.767   4.738   2.552 -0.0241  0.1607  0.2299
 2362W        W12055  11.109  17.243   5.292  0.0108  0.1513  0.1273
 2363W        W12056   4.306  10.836   4.295 -0.0677 -0.2744  0.4367
 2364W        W12057   7.209   7.643   5.886  0.3066  0.0038  0.1479
 2365W        W12058   2.083   9.796   0.632  0.2220  0.1790  0.1722
 2366W        W12059  13.165   8.987  11.603 -0.1983  0.1344  0.0005
 2367W        W12060   8.023  11.823   1.062  0.3560  0.0320 -0.0832
 2368W        W12061  15.750   5.312  15.130 -0.2056  0.0725 -0.1497
 2369W        W12062   3.004   0.462  13.519 -0.1039 -0.1218 -0.0299
 2370W        W12063   9.636  16.418   5.284  0.1380  0.4173 -0.1943
 2371W        W12064   8.532  10.797   1.212 -0.2202 -0.1784 -0.0054
 2372W        W12065   2.576  11.893  12.772 -0.0166  0.1269 -0.0091
 2373W        W12066   8.885  13.292   4.386  0.0785  0.1386  0.0269
 2374W        W12067   6.125   4.426   0.834  0.2175 -0.0209 -0.0776
 2375W        W12068   3.472   5.365   2.255  0.0265  0.0328 -0.0266
 2376W        W12069  17.560  10.618   1.347 -0.1080  0.3784 -0.2577
 2377W        W12070   9.337   9.325   2.761 -0.2682 -0.0978  0.1914
 2378W        W12071   3.289  13.310  16.121  0.0035  0.2911 -0.3405
 2379W        W12072   5.613  17.242  15.215  0.1857  0.1322  0.0378
 2380W        W12073  17.558  13.321   4.839  0.2745  0.0406 -0.0659
 2381W        W12074   7.364  14.267  15.759 -0.0785 -0.0944 -0.0755
 2382W        W12075  16.378  15.065  16.780  0.0949  0.3190 -0.0363
 2383W        W12076   0.643  11.127   1.162  0.1047 -0.1673 -0.0874
 2384W        W12077   9.367   4.638  14.198 -0.2834  0.3881 -0.4659
 2385W        W12078   8.456  14.323  16.163 -0.1119 -0.0379 -0.1811
 2386W        W12079  11.916  17.725   1.940 -0.1850 -0.1020  0.0559
 2387W        W12080   0.299  13.731  12.824 -0.3801  0.1515  0.1610
 2388W        W12081  17.744  17.428   0.670 -0.0795 -0.4837  0.0351
 2389W        W12082  17.603  14.418   0.452  0.2136 -0.0927 -0.0445
 2390W        W12083   6.636   4.505  15.139 -0.0039 -0.0886  0.0121
 2391W        W12084  14.612   5.285   4.231  0.1178 -0.1676 -0.3642
 2392W        W12085  17.311   7.830  14.533  0.0377 -0.2092 -0.0289
 2393W        W12086  10.991  10.691   6.031 -0.4222  0.2005  0.1188
 2394W        W12087  14.455  11.239   3.324  0.0542  0.1000 -0.4845
 2395W        W12088  10.924   2.050  11.694 -0.1726  0.1842  0.1619
 2396W        W12089   7.798   6.699  12.928 -0.1333 -0.2048 -0.0743
 2397W        W12090   3.930   8.362  12.436  0.3847  0.1383 -0.1318
 2398W        W12091   1.635  14.774  11.846 -0.1240 -0.1571  0.2875
 2399W        W12092   0.610   7.604   5.362 -0.0621  0.0686 -0.1859
 2400W        W12093   7.408   1.847  14.190 -0.1163  0.1990  0.0700
 2401W        W12094   8.266  17.832  16.091 -0.1069  0.1067  0.0705
 2402W        W12095   5.039  12.374  16.559 -0.0455 -0.0169  0.0834
 2403W        W12096   7.760   4.957  13.583 -0.5653 -0.0122 -0.2872
 2404W        W12097   0.594  13.553  14.636 -0.0671 -0.2414  0.0590
 2405W        W12098   6.990   0.065   2.846  0.3367 -0.0730 -0.2038
 2406W        W12099  12.477   2.069   2.921 -0.1595  0.3205  0.0632
 2407W        W12100  15.998  11.279  16.559  0.0863 -0.2893  0.1361
 2408W        W12101   4.183   5.503   5.616  0.0972 -0.0763  0.1993
 2409W        W12102   5.560   9.872  15.145 -0.1568  0.1622 -0.1956
 2410W        W12103  12.919   4.717   2.218 -0.3388  0.1821 -0.2267
 2411W        W12104   8.303   7.989  15.787 -0.5886 -0.2838 -0.0906
 2412W        W12105   3.401   2.750   6.234  0.1638 -0.1658  0.1033
 2413W        W12106  13.333  10.624  13.727  0.0054 -0.0421  0.0242
 2414W        W12107  17.570   6.277   6.004  0.0282 -0.2706  0.0633
 2415W        W12108   2.713   7.305  12.847  0.1307 -0.0546 -0.3820
 2416W        W12109   0.933  15.800  13.427 -0.0558  0.1654 -0.4216
 2417W        W12110   0.868  17.628   2.322 -0.1559 -0.2113 -0.0420
 2418W        W12111   5.619  16.836   3.065  0.1278 -0.1625  0.1060
 2419W        W12112   9.305  10.203  13.939  0.1417 -0.1810 -0.1264
 2420W        W12113   3.588  14.589   4.705  0.1315  0.4270  0.0016
 2421W        W12114   6.765  17.865   4.154 -0.0019  0.0734  0.0602
 2422W        W12115  16.312   6.824  13.227  0.0497  0.0169  0.1302
 2423W        W12116   8.625  13.064   6.464 -0.1476 -0.1700 -0.1826
 2424W        W12117  16.157  10.967   0.704  0.1486  0.1089 -0.2305
 2425W        W12118   7.230   1.502   1.158  0.0962  0.2140  0.0938
 2426W        W12119   7.510  17.980  14.429 -0.0957 -0.3352 -0.0688
 2427W        W12120  16.731  15.847  12.478  0.0518 -0.2653  0.4056
 2428W        W12121   1.153   1.119  12.428  0.1891 -0.0208 -0.0423
 2429W        W12122   5.795  13.923   3.273  0.2359  0.1185  0.1730
 2430W        W12123   5.301   6.564  13.237 -0.1654  0.1086 -0.1295
 2431W        W12124  11.227  13.476  16.354 -0.3116  0.1378 -0.0816
 2432W        W12125  12.760   4.109   3.669  0.1041 -0.2326  0.0363
 2433W        W12126   5.037  12.386  12.588  0.0614 -0.1886  0.0316
 2434W        W12127  10.472  11.116  15.042 -0.1772  0.0416  0.0083
 2435W        W12128  14.677  11.659  15.864  0.2366  0.4508  0.2806
 2436W        W12129   0.301  17.265   1.442 -0.1123 -0.1579  0.0390
 2437W        W12130  12.714   8.977   1.333 -0.3558 -0.1500  0.1150
 2438W        W12131  12.005   9.226   3.074  0.2765  0.3000  0.1357
 2439W        W12132   4.201   2.224  12.002 -0.0890 -0.0747 -0.0447
 2440W        W12133   3.328  17.116   2.029 -0.1272  0.2755 -0.2456
 2441W        W12134   5.659  15.463   1.741 -0.1957 -0.0289  0.0190
 2442W        W12135   8.077   0.530   0.809 -0.4887  0.0697 -0.0264
 2443W        W12136   5.746   7.418  16.820 -0.1548  0.0415 -0.0505
 2444W        W12137   3.776  15.859   5.827 -0.4540 -0.2167 -0.1946
 2445W        W12138   8.110  11.203  15.527  0.5028 -0.1629 -0.0961
 2446W        W12139   1.826  17.771   0.296 -0.1317 -0.0095  0.1033
 2447W        W12140   1.269   9.568   5.093  0.0644 -0.0728 -0.2899
 2448W        W12141  16.806  15.188  13.622 -0.2940  0.1605 -0.0674
 2449W        W12142   0.796   5.594  14.301 -0.0590 -0.0112  0.1219
 2450W        W12143  12.311  15.222   3.975  0.1890 -0.1021  0.1477
 2451W        W12144   2.898   7.394   5.347  0.2070  0.0389  0.1135
 2452W        W12145   1.651  10.244   2.699 -0.0631 -0.0114  0.2303
 2453W        W12146   8.882   4.758  12.609  0.0535 -0.1247  0.0189
 2454W        W12147   8.710  17.305   1.091  0.0099 -0.1559 -0.2468
 2455W        W12148   3.322  12.379  13.533  0.0791 -0.0527  0.3585
 2456W        W12149  10.676  15.419   6.441 -0.3419 -0.1020  0.0902
 2457W        W12150   4.688  10.405  15.022  0.1662 -0.1003  0.0019
 2458W        W12151  10.553   9.624  13.586 -0.3449  0.0361  0.0159
 2459W        W12152  14.735  10.380   3.028  0.0688  0.1744 -0.1610
 2460W        W12153   1.145   1.509   5.237  0.0636  0.0539  0.1595
 2461W        W12154   3.846  16.454   0.681 -0.0361 -0.0948  0.0722
 2462W        W12155   6.598   0.674   3.584  0.0524 -0.0014 -0.0881
 2463W        W12156   2.111   9.212  11.611  0.0015  0.3395  0.0684
 2464W        W12157   5.460   6.519  12.754 -0.0873  0.3263  0.0823
 2465W        W12158  10.248   2.530  15.382 -0.1328 -0.1645  0.2664
 2466W        W12159   3.940  17.513  15.152 -0.0153 -0.0099 -0.1290
 2467W        W12160   9.901  16.918  12.849 -0.1648  0.0177  0.1907
 2468W        W12161   7.319  14.377  14.181  0.1209  0.0928 -0.3089
 2469W        W12162   4.288   3.753  12.035  0.0404  0.0195 -0.0124
 2470W        W12163   4.795   2.578  16.573  0.1418  0.1016 -0.5561
 2471W        W12164   8.430   2.556  12.046  0.2191 -0.4032  0.2168
 2472W        W12165   9.768  13.580   2.469  0.1940  0.2240 -0.1106
 2473W        W12166  14.741  17.529  14.066  0.0890 -0.3945  0.1422
 2474W        W12167   5.569   9.770  13.232 -0.0548  0.0354  0.0303
 2475W        W12168  10.269  16.360  13.777 -0.0350  0.1035  0.1710
 2476W        W12169   4.186   7.299  16.519 -0.3523  0.1464  0.0807
 2477W        W12170   7.237  15.645   5.783  0.0850  0.0185 -0.1223
 2478W        W12171  17.855  17.911  15.542  0.3568 -0.2962 -0.3435
 2479W        W12172   3.179   2.232   0.163  0.0699  0.2103 -0.2212
 2480W        W12173  13.585   1.374   5.311 -0.2311 -0.0482  0.2757
 2481W        W12174   5.347   3.698   2.283 -0.0512  0.3111 -0.0204
 2482W        W12175  14.804  12.013  13.251  0.2194  0.1019  0.0941
 2483W        W12176   1.832  17.410   3.928  0.1488  0.1558 -0.1003
 2484W        W12177   4.597   6.271   3.920  0.1005  0.2971  0.2556
 2485W        W12178  16.025   8.955  16.079 -0.2988  0.1612 -0.0457
 2486W        W12179   4.045  16.035  13.551 -0.3089  0.0370  0.0003
 2487W        W12180  10.583   9.032   1.406  0.1473  0.0202 -0.1796
 2488W        W12181   3.948   9.917   1.852 -0.0205  0.0517  0.1176
 2489W        W12182   5.220   3.406  13.387 -0.1261 -0.0082  0.0198
 2490W        W12183   6.768  10.601   4.018  0.1332 -0.0627 -0.0623
 2491W        W12184   2.844  17.462  14.376  0.4939 -0.1523 -0.0063
 2492W        W12185   7.170  11.761   3.117  0.1753  0.0868 -0.4164
 2493W        W12186  10.227   0.130  15.640  0.3427 -0.3695  0.1241
 2494W        W12187   7.082  11.161  14.478  0.2102  0.0447 -0.0856
 2495W        W12188   9.837   3.786  12.999  0.2006 -0.2002  0.2054
 2496W        W12189   6.063  10.043  15.679  0.3430 -0.2496  0.0553
 2497W        W12190  10.502  12.291  13.861  0.1356 -0.2722 -0.1028
 2498W        W12191  17.493   1.316  14.036 -0.0983  0.0365  0.0310
 2499W        W12192   5.471   6.395   6.594  0.0273  0.2731 -0.3382
 2500W        W12193  10.152  13.476   0.701  0.0622  0.1613 -0.2185
 2501W        W12194   9.437  12.917  14.728  0.1986  0.1155  0.1403
 2502W        W12195   4.867   2.223   0.917  0.0265  0.2152  0.0210
 2503W        W12196   2.758  12.324  16.454 -0.0006 -0.0754  0.2516
 2504W        W12197  16.818   6.804   5.828 -0.1267  0.1261 -0.1736
 2505W        W12198  12.776   8.371   1.504  0.0050  0.2478 -0.0895
 2506W        W12199   6.531  10.132  13.093  0.0200  0.0265 -0.0030
 2507W        W12200   5.185  15.522  12.305 -0.0114 -0.0664 -0.2546
 2508W        W12201   9.368   0.208  12.192 -0.0204  0.1234  0.0130
 2509W        W12202   7.729   8.030   4.269  0.2237  0.1514 -0.0619
 2510W        W12203  10.838   3.373  11.738  0.2296  0.0749  0.1144
 2511W        W12204   0.961  17.358   1.045 -0.3301  0.2027 -0.2612
 2512W        W12205  15.734   9.415   2.089  0.3413  0.3091 -0.5439
 2513W        W12206   2.551  17.392   4.595 -0.1447  0.0390 -0.0730
 2514W        W12207   4.538   9.832   0.571 -0.0512  0.1500  0.0359
 2515W        W12208   3.100   7.760   4.291  0.2524  0.2083  0.1976
 2516W        W12209   6.865   9.108  16.525 -0.0315 -0.0764  0.1857
 2517W        W12210   2.261   2.296   1.518  0.1323  0.3226 -0.3087
 2518W        W12211   5.680  13.880  15.251  0.0213 -0.0437 -0.0680
 2519W        W12212  16.824  13.085   3.161 -0.0946  0.2949  0.1489
 2520W        W12213   3.273   1.544  15.293  0.0956 -0.1130 -0.1380
 2521W        W12214   0.572  14.609   2.018  0.0167  0.2317 -0.3465
 2522W        W12215  14.512   5.688   1.068  0.0753 -0.3708  0.0725
 2523W        W12216   5.420   0.124   2.888  0.0762  0.0444 -0.0683
 2524W        W12217  12.414  10.944  12.595 -0.0744  0.0073  0.1535
 2525W        W12218  15.584  11.179   4.715 -0.3047  0.0299 -0.1377
 2526W        W12219  14.179  10.856  13.898 -0.1936 -0.1606 -0.1712
 2527W        W12220   9.185   9.655  12.160  0.3631 -0.2515  0.1079
 2528W        W12221  15.709   2.829   1.968 -0.0883  0.2367 -0.2338
 2529W        W12222   3.669  11.897   5.480 -0.0682  0.0407  0.1427
 2530W        W12223   1.974  15.396  15.865 -0.1970 -0.1189 -0.1759
 2531W        W12224   5.567   5.835   5.216 -0.3551  0.2798  0.0148
 2532W        W12225  11.279   0.763  14.906  0.3833 -0.1183  0.1779
 2533W        W12226   2.348   2.639  16.993 -0.3374  0.2681 -0.0780
 2534W        W12227   9.441  13.148   2.386 -0.1521  0.0936 -0.0875
 2535W        W12228   1.023   8.103   0.608 -0.0495 -0.0574  0.1004
 2536W        W12229  12.435   8.127  17.086  0.1214 -0.1223 -0.3862
 2537W        W12230   1.126  15.645   3.545  0.2795 -0.1199 -0.1572
 2538W        W12231  14.277   5.921  13.269  0.1059 -0.4572  0.2026
 2539W        W12232  12.494   4.246   1.621  0.0733  0.3133  0.1487
 2540W        W12233   8.642  12.428  13.644 -0.0245 -0.1979 -0.1931
 2541W        W12234   9.813   8.371   1.948 -0.1214 -0.0196 -0.2512
 2542W        W12235   4.074  15.628   3.853 -0.1390  0.0554  0.2681
 2543W        W12236   9.163  16.392  12.294  0.0523  0.1268  0.1874
 2544W        W12237   5.132   0.375   5.953 -0.1658 -0.2492 -0.3066
 2545W        W12238   8.518   4.475   5.280  0.2964  0.2596  0.0028
 2546W        W12239   0.707   0.309  13.365  0.2009 -0.2622 -0.3348
 2547W        W12240   4.817   9.042  15.236 -0.0527 -0.0954  0.0651
 2548W        W12241  10.785   8.142   5.575 -0.0126  0.0764 -0.0121
 2549W        W12242   8.819   4.307   1.267 -0.1279 -0.0447 -0.0152
 2550W        W12243  16.451   5.110   4.437 -0.3261 -0.0242  0.4903
 2551W        W12244  14.374   2.475  10.943  0.1644 -0.2012  0.0360
 2552W        W12245   3.594   2.021  14.194 -0.2216  0.0133 -0.1400
 2553W        W12246  15.353   0.044  10.364 -0.1133  0.3256 -0.0473
 2554W        W12247  11.273   3.832   1.300  0.3912 -0.2475  0.0126
 2555W        W12248   7.702  13.472  13.514  0.1727  0.0148  0.1503
 2556W        W12249   8.043   0.447  16.653 -0.0099 -0.1250 -0.3065
 2557W        W12250  10.596  10.896   2.232  0.2938 -0.0170  0.1362
 2558W        W12251  10.805  11.602   4.067 -0.1388  0.0027  0.0148
 2559W        W12252  11.778   6.238  12.155 -0.0546  0.0514  0.1351
 2560W        W12253   0.303  17.035   2.071  0.3089  0.0479 -0.1746
 2561W        W12254   6.515  17.346   0.918 -0.0319  0.3192  0.0174
 2562W        W12255  14.776   9.648   0.207 -0.0266 -0.2827 -0.0261
 2563W        W12256   6.674  13.570   1.786 -0.1266  0.2741 -0.1295
 2564W        W12257   1.128  16.676  16.754 -0.2248  0.0266  0.0367
 2565W        W12258   3.658   7.195   1.334 -0.1791 -0.1795  0.0171
 2566W        W12259  17.851  11.033   4.313 -0.2197  0.1540  0.0002
 2567W        W12260   3.292   7.942  15.018 -0.2170 -0.2071 -0.2691
 2568W        W12261   3.970  17.671   2.058 -0.3724 -0.0064 -0.2998
 2569W        W12262  14.318  14.406   3.976  0.0420  0.2762  0.0855
 2570W        W12263  15.658  12.946  15.647  0.1313  0.0764 -0.1571
 2571W        W12264   0.002   6.020   2.904 -0.0707  0.0018  0.0430
 2572W        W12265   4.068  12.470   3.480 -0.0603 -0.2282 -0.0083
 2573W        W12266  17.827   9.303   1.712 -0.0004  0.0910 -0.0813
 2574W        W12267   9.194   5.864   6.141  0.3450 -0.1161  0.1205
 2575W        W12268   6.300   7.325   2.510 -0.0547 -0.0274  0.1431
 2576W        W12269   3.130  15.836  15.692  0.0998 -0.1483  0.1220
 2577W        W12270  15.896   5.843  15.263  0.1010  0.3660  0.1810
 2578W        W12271   6.038   9.137   2.203  0.0953  0.1927 -0.0065
 2579W        W12272   6.990   2.524   2.130 -0.2059 -0.1992  0.3818
 2580W        W12273   3.412   2.864  13.956 -0.2997  0.1777 -0.1051
 2581W        W12274   2.769   3.515   4.888  0.1204  0.0193  0.1833
 2582W        W12275   1.507   8.599  11.228  0.1742 -0.2023 -0.1240
 2583W        W12276   5.691   1.771   3.915 -0.0859 -0.1658  0.1521
 2584W        W12277  16.964   7.299   5.743  0.0176  0.1571 -0.0475
 2585W        W12278  12.404   5.081   4.767 -0.0480  0.0852 -0.1467
 2586W        W12279  13.470  14.474  14.529 -0.1196  0.0618  0.2414
 2587W        W12280   2.222   7.653   6.270 -0.1044 -0.0839  0.1426
 2588W        W12281   3.023  14.935   1.072 -0.1603  0.2417  0.1123
 2589W        W12282   3.618  10.346  15.327  0.2915  0.2450  0.0619
 2590W        W12283  10.222   1.471   5.783 -0.1336 -0.0972 -0.0848
 2591W        W12284   9.845   8.894   6.252 -0.1254 -0.1460  0.1743
 2592W        W12285   9.656  17.280   2.363 -0.0248 -0.1422 -0.2345
 2593W        W12286   3.569  10.494  15.858 -0.1056  0.0807  0.1731
 2594W        W12287   6.983   4.413   1.412  0.1475  0.3415  0.0265
 2595W        W12288   5.768   6.094  16.606  0.6267 -0.0205  0.2124
 2596W        W12289  13.812  14.375   3.951  0.0805  0.0620 -0.0704
 2597W        W12290   8.739  13.441  13.618  0.1268  0.2187  0.2012
 2598W        W12291   6.146   4.631   2.435  0.0318  0.0463 -0.3309
 2599W        W12292   4.660   6.213   5.772  0.1826 -0.1590 -0.1657
 2600W        W12293   7.096   2.664   3.059 -0.1508  0.0409  0.3651
 2601W        W12294  15.468  10.137   2.073  0.0764  0.0508 -0.1592
 2602W        W12295   3.967   1.644  11.949 -0.0133 -0.0734  0.0075
 2603W        W12296   1.033  10.680  16.578  0.1090  0.0291 -0.0299
 2604W        W12297  12.223  14.460  12.420 -0.1426 -0.1743 -0.1873
 2605W        W12298   1.142   4.033   0.236  0.2831 -0.1219 -0.2430
 2606W        W12299  15.478  10.970  14.421 -0.3312 -0.1895  0.0690
 2607W        W12300  15.977   2.564  11.550  0.0218 -0.0912 -0.1264
 2608W        W12301   6.675  17.177   5.439 -0.0678  0.1889 -0.0836
 2609W        W12302  10.518   3.959   0.805  0.2449  0.1334 -0.2670
 2610W        W12303   8.144   9.322   2.322 -0.0993 -0.3291  0.2927
 2611W        W12304   6.734  16.576  13.803 -0.2173  0.1964 -0.2446
 2612W        W12305  10.061  11.944  15.152 -0.0537 -0.1359  0.2583
 2613W        W12306   9.215  10.953  12.087 -0.0827 -0.1106 -0.1816
 2614W        W12307   2.553   1.261  13.571 -0.0927  0.0850  0.0811
 2615W        W12308  10.316   9.875   1.156  0.1625 -0.0525 -0.2989
 2616W        W12309  11.200   4.400   2.017 -0.1654 -0.0263 -0.2137
 2617W        W12310   3.197  10.088   4.010 -0.1448 -0.1359  0.3618
 2618W        W12311  13.033  12.615  13.804 -0.0137 -0.1362 -0.0607
 2619W        W12312   5.378  12.640  12.044 -0.0790 -0.2396 -0.1740
 2620W        W12313   6.335   0.491   0.247 -0.0093 -0.3984 -0.1503
 2621W        W12314  17.593   9.704   4.739 -0.1502  0.0250  0.0782
 2622W        W12315   2.482   8.241   5.027  0.1218 -0.0283 -0.3355
 2623W        W12316  11.944   8.214  13.017  0.3185 -0.1888  0.1800
 2624W        W12317   6.018  10.263   0.647  0.0186  0.1620  0.0012
 2625W        W12318   6.553  16.173  14.122 -0.3157 -0.0101  0.0897
 2626W        W12319   5.332  14.204   1.590  0.0285 -0.0575  0.0133
 2627W        W12320  16.343   0.051  12.610 -0.2674  0.3144 -0.0620
 2628W        W12321  10.880   2.030  15.439  0.1068  0.5379 -0.0052
 2629W        W12322  11.566   3.396   2.526 -0.1812 -0.0948 -0.1817
 2630W        W12323  10.350  10.946   5.868  0.0352 -0.0019  0.3010
 2631W        W12324   8.688  16.930   5.309 -0.3297  0.1765 -0.4853
 2632W        W12325   7.498   9.145  11.394  0.1230 -0.1268 -0.2552
 2633W        W12326   4.960   6.090   2.563 -0.1926 -0.0869 -0.3483
 2634W        W12327  16.776  11.352   4.567  0.2693 -0.0257 -0.2194
 2635W        W12328   1.513  17.727   2.088 -0.1616  0.0486  0.1577
 2636W        W12329   1.483  10.639  13.035  0.0601  0.1008  0.0300
 2637W        W12330   8.776  11.480   0.587  0.0368  0.2057  0.1567
 2638W        W12331   6.271   2.357  13.268  0.4410  0.3633  0.1207
 2639W        W12332   9.732  13.561   3.915  0.3053 -0.0413  0.0671
 2640W        W12333   9.743   2.943  12.836  0.1551  0.2224  0.2217
 2641W        W12334   8.675   0.759   4.143 -0.0585  0.1269  0.0426
 2642W        W12335   3.090  10.933   2.958 -0.0765  0.3263 -0.2910
 2643W        W12336   4.603   0.820   3.645 -0.1271  0.1563  0.1933
 2644W        W12337   7.652   9.308  16.142 -0.0374  0.4778  0.0025
 2645W        W12338  11.924  11.302   1.289 -0.2441 -0.0443 -0.1286
 2646W        W12339   7.815  17.301   3.872 -0.1029  0.0889 -0.2293
 2647W        W12340   4.936   0.073   2.659 -0.1647 -0.1887  0.0703
 2648W        W12341  12.858   9.720   5.195  0.0930 -0.0421 -0.1321
 2649W        W12342   0.549   2.738  16.747  0.3586 -0.1337 -0.2966
 2650W        W12343  16.819  11.853  14.516 -0.0726 -0.1779  0.0634
 2651W        W12344  10.888   4.559  13.983  0.1172  0.1484 -0.2536
 2652W        W12345  17.791  11.940   0.347  0.0093  0.2001  0.0814
 2653W        W12346   2.599  13.045   4.224  0.0658 -0.2480 -0.0227
 2654W        W12347   3.120  12.942  10.673  0.0302 -0.0547  0.2980
 2655W        W12348  16.692  14.522   4.832  0.2820  0.2147 -0.1182
 2656W        W12349   6.504  11.921   2.222  0.0699  0.4447  0.0940
 2657W        W12350   0.719   7.286   6.150 -0.1664  0.0330  0.1155
 2658W        W12351   8.135  16.403   0.535 -0.0111  0.3854  0.0434
 2659W        W12352   5.095  11.262  15.143  0.2872  0.2970 -0.2385
 2660W        W12353   3.088   1.384  14.775 -0.1365  0.3341  0.0612
 2661W        W12354   7.235  10.877   0.938 -0.0145 -0.1125 -0.0815
 2662W        W12355   1.059  14.520   4.436 -0.0158  0.2221 -0.1776
 2663W        W12356   6.674  11.856   1.186 -0.0413  0.2027  0.2938
 2664W        W12357   2.099   1.844   1.366 -0.1025  0.1249  0.0233
 2665W        W12358  12.414   4.878   5.253 -0.1196 -0.0023  0.1030
 2666W        W12359   7.689   2.523  14.619  0.0115 -0.1416  0.1389
 2667W        W12360  11.353  16.142  16.449  0.2925  0.0691 -0.2800
 2668W        W12361  16.125  16.852  16.057  0.1094 -0.3658  0.0362
 2669W        W12362   5.535  11.577  15.234 -0.3391 -0.1711 -0.0695
 2670W        W12363   2.254  12.366  11.179  0.0464 -0.1643  0.1221
 2671W        W12364  10.017   8.509   3.813 -0.2473 -0.1411  0.0397
 2672W        W12365  14.195  14.853  16.711 -0.1917 -0.0253  0.2143
 2673W        W12366   3.477  17.490  14.452  0.1406  0.0347 -0.0283
 2674W        W12367  10.358   6.647  15.356  0.2091 -0.0540 -0.4308
 2675W        W12368  16.648   1.383  16.896  0.1178 -0.2977 -0.3878
 2676W        W12369   5.255   8.427   3.013 -0.3340  0.1473 -0.1484
 2677W        W12370   1.072   1.767  10.322 -0.4331  0.2656 -0.0341
 2678W        W12371   8.911   5.242  14.725 -0.1729  0.1435 -0.2467
 2679W        W12372   9.087   8.251  15.330 -0.1349  0.1938 -0.2071
 2680W        W12373   1.753  15.920   1.910 -0.1779 -0.0114 -0.0539
 2681W        W12374   7.833   2.199   0.843 -0.2376  0.0429  0.0803
 2682W        W12375   4.018  11.135  14.822 -0.1080  0.0012  0.0407
 2683W        W12376  13.616  16.830   0.055 -0.2586  0.0002 -0.1198
 2684W        W12377   8.353  17.017   2.241 -0.0293  0.0793 -0.0053
 2685W        W12378  11.788   7.832  13.882  0.0980  0.1648 -0.0805
 2686W        W12379   6.168  15.345   1.048  0.1632  0.0578  0.3320
 2687W        W12380   4.247  13.578  12.793  0.0219 -0.0480  0.0812
 2688W        W12381   2.649   7.508   2.442  0.2121  0.2637 -0.0401
 2689W        W12382  15.306   1.091   2.017 -0.0067 -0.0103  0.1602
 2690W        W12383   8.557   9.902   1.809  0.2324 -0.3130 -0.3583
 2691W        W12384  17.927   2.935  14.605 -0.0660  0.0706 -0.2730
 2692W        W12385   4.725  12.068  12.844 -0.0738  0.1196 -0.0780
 2693W        W12386   5.011   0.273   3.128 -0.4644  0.2238 -0.1536
 2694W        W12387   2.503   5.543  14.377 -0.1971 -0.2149  0.1559
 2695W        W12388   5.934   6.854   1.767 -0.1031  0.0604  0.0043
 2696W        W12389   7.387  15.920   5.299  0.0773  0.1064  0.2183
 2697W        W12390   1.457  14.339   4.112 -0.3003 -0.1041 -0.6771
 2698W        W12391  11.182   0.596   3.732  0.1781 -0.1076  0.1258
 2699W        W12392   0.820   5.791  13.368  0.2143 -0.0731 -0.4050
 2700W        W12393   0.855  13.648  11.987  0.1050  0.1367  0.1934
 2701W        W12394   6.844   2.386  16.215 -0.0434 -0.0309  0.1671
 2702W        W12395   8.440   2.319  12.415 -0.1334  0.0027 -0.0336
 2703W        W12396   3.587  10.699  13.093 -0.1146 -0.2784 -0.1057
 2704W        W12397   0.856  15.500   2.146 -0.0320  0.0089 -0.0895
 2705W        W12398   4.723  16.604  15.692  0.1010 -0.2755  0.0664
 2706W        W12399   9.560   1.048   5.210  0.1622  0.2259 -0.0853
 2707W        W12400   5.367  17.631  14.974 -0.0942 -0.2552  0.0644
 2708W        W12401  15.983  15.823   4.982 -0.0044  0.2854 -0.0896
 2709W        W12402   7.427  16.010   3.498 -0.0780  0.4466  0.2347
 2710W        W12403  16.523  12.583  16.014 -0.4084 -0.2200 -0.0055
 2711W        W12404   8.424   8.594   0.448  0.1712 -0.1999 -0.0037
 2712W        W12405  13.750  17.687   3.165  0.1887 -0.1126 -0.1080
 2713W        W12406   4.071  11.032   5.524 -0.0699  0.1765 -0.3135
 2714W        W12407   6.436  14.704  13.060 -0.0674 -0.0208 -0.0453
 2715W        W12408  11.496   7.874   1.020 -0.1536  0.3217 -0.1065
 2716W        W12409  17.073  14.543  14.268 -0.0969  0.1243 -0.3115
 2717W        W12410   2.681   7.001   2.470 -0.1751  0.0054  0.0223
 2718W        W12411  13.300  12.427   3.590  0.0569  0.1184  0.1628
 2719W        W12412  12.180   3.301   5.064 -0.1893  0.0453  0.1759
 2720W        W12413   4.850   1.225   2.684 -0.1237 -0.1003 -0.0869
 2721W        W12414  16.851  12.158   0.584  0.1623 -0.1967  0.2752
 2722W        W12415  11.742  13.979   6.922  0.1994 -0.2504 -0.1514
 2723W        W12416   5.683  10.535  11.935 -0.0101 -0.1468  0.2182
 2724W        W12417   6.199   8.939   6.401 -0.2362  0.0657 -0.0670
 2725W        W12418   4.145   8.081   5.085  0.2659 -0.0274 -0.1017
 2726W        W12419   5.590   2.444  14.711 -0.1780 -0.2167 -0.1876
 2727W        W12420  15.956  15.162  12.562  0.0890  0.0949 -0.1098
 2728W        W12421   7.099   2.753  14.901 -0.2922  0.0275 -0.3107
 2729W        W12422   9.269   4.094   0.944 -0.0231  0.1178 -0.2578
 2730W        W12423   4.676  15.752  15.823  0.1375 -0.0480  0.4507
 2731W        W12424   3.455  12.835  12.174 -0.2100  0.1295  0.0665
 2732W        W12425  13.193   3.245  12.679 -0.2526  0.1286  0.1873
 2733W        W12426   9.311   9.304  15.079  0.0524  0.2337  0.4338
 2734W        W12427   6.569   7.744   0.567 -0.4200  0.2189  0.1239
 2735W        W12428   8.104  12.829   4.838 -0.0737 -0.0983 -0.1605
 2736W        W12429   3.853   5.205   4.488 -0.2572  0.2702 -0.0790
 2737W        W12430  15.626  14.759   3.128  0.0585 -0.2150  0.2363
 2738W        W12431  14.312   8.267   3.183  0.0155  0.1362 -0.0295
 2739W        W12432   7.287   4.389  15.883  0.1451 -0.2508  0.3911
 2740W        W12433  17.258  17.777   4.543 -0.0809 -0.0497 -0.3900
 2741W        W12434   8.620  16.658   2.983  0.2256 -0.1401  0.1217
 2742W        W12435  17.713   4.427  14.886 -0.1289 -0.1600 -0.0021
 2743W        W12436   8.729  12.970   3.687 -0.2260  0.0800  0.2704
 2744W        W12437   8.358  11.447   0.334  0.4525 -0.1959  0.0804
 2745W        W12438  13.698  13.540   4.869  0.0431 -0.0549  0.1121
 2746W        W12439  10.978   6.164   0.044 -0.1338 -0.0794  0.3617
 2747W        W12440   3.985  15.302  11.935 -0.1866 -0.0104  0.1896
 2748W        W12441  13.055   0.696   3.439 -0.3145 -0.1139 -0.0634
 2749W        W12442   5.392   6.368   5.720  0.2473 -0.2379  0.0937
 2750W        W12443   2.124   7.745   2.470  0.0966 -0.1143  0.0296
 2751W        W12444   3.781  13.443   5.207  0.1070  0.0995 -0.1924
 2752W        W12445   7.107  16.994   0.940 -0.1599 -0.2805 -0.2716
 2753W        W12446   4.757   6.545  12.662 -0.0379  0.2269 -0.3271
 2754W        W12447  16.288   8.770  11.151 -0.2136  0.0120 -0.2155
 2755W        W12448   4.625   7.274   6.139 -0.2170  0.1375 -0.1902
 2756W        W12449   8.829   3.325  16.216  0.2207 -0.1028  0.0656
 2757W        W12450   4.080   1.306  14.694  0.0380  0.1857  0.1163
 2758W        W12451   8.799  10.304   0.929  0.1828 -0.0030 -0.0366
 2759W        W12452  10.460   0.669  16.635 -0.3753  0.0138 -0.0427
 2760W        W12453   9.759   0.118   6.273  0.0348 -0.0970 -0.1447
 2761W        W12454   4.860   4.115   3.500 -0.1549  0.0063  0.1800
 2762W        W12455   6.400  10.834   3.775  0.0641  0.4043 -0.1080
 2763W        W12456  16.909  15.356   6.078  0.3393 -0.3748  0.0252
 2764W        W12457   6.838   6.620   0.066 -0.4787  0.0206  0.1611
 2765W        W12458   3.730  10.183  12.055  0.0458  0.1968  0.1984
 2766W        W12459   2.880   2.497  13.605 -0.0338  0.0586  0.0647
 2767W        W12460  14.945  10.550   0.862 -0.0585  0.4854 -0.2921
 2768W        W12461   8.551   4.759  15.469 -0.0392  0.1875  0.2501
 2769W        W12462   7.470   4.888   5.906 -0.1400 -0.0217  0.2530
 2770W        W12463  16.911  16.784   0.850  0.0725 -0.0777 -0.2249
 2771W        W12464   9.387  17.008   0.004 -0.0609  0.0643 -0.0307
 2772W        W12465  13.305  17.645  17.022 -0.1685 -0.0547  0.1405
 2773W        W12466   0.856   0.416  16.908  0.2565 -0.1428  0.2061
 2774W        W12467   8.869   2.681  16.241  0.0968  0.0164 -0.1095
 2775W        W12468   9.817  14.111  12.144  0.1491  0.0165  0.4364
 2776W        W12469   2.740   9.287   0.905 -0.0896 -0.1315 -0.0533
 2777W        W12470   4.708  12.011   2.499 -0.0861 -0.0002  0.1424
 2778W        W12471   7.554  12.360   1.021 -0.2473  0.0715 -0.0055
 2779W        W12472   1.744   2.688   0.957  0.1411 -0.0906  0.2088
 2780W        W12473  14.132  14.073   1.565 -0.0857  0.1241  0.1566
 2781W        W12474  16.391   0.828   2.580 -0.0006 -0.1050  0.1758
 2782W        W12475   7.928   3.409   2.446  0.0663 -0.2149  0.0668
 2783W        W12476   9.852   5.408   4.506 -0.4577  0.1408  0.1556
 2784W        W12477   5.906  10.790  15.034 -0.0811  0.2286 -0.0531
 2785W        W12478   1.208   0.034  16.854 -0.1675 -0.0383  0.0676
 2786W        W12479   4.696   5.783  16.653 -0.1422  0.0917 -0.3043
 2787W        W12480   2.705  11.839   2.661 -0.1197  0.4055  0.0725
 2788W        W12481  13.252  14.664   3.062  0.1639  0.0772 -0.0942
 2789W        W12482  15.578   8.700   5.948  0.2584  0.0159  0.0866
 2790W        W12483   3.774  12.225  12.818  0.1429 -0.0971  0.0114
 2791W        W12484   1.426  12.492   4.132 -0.1257  0.3728 -0.0766
 2792W        W12485   0.023  13.666   2.949  0.0386 -0.1604  0.1166
 2793W        W12486  12.053   4.402   3.151 -0.2036 -0.0293  0.0622
 2794W        W12487   3.246   9.147  13.375  0.2838  0.2197  0.1272
 2795W        W12488   0.715  13.105  16.732  0.2042  0.1421  0.0487
 2796W        W12489   2.029  10.771   3.551 -0.1885  0.4519  0.1103
 2797W        W12490   9.885  11.715   3.734  0.0562  0.0702 -0.2072
 2798W        W12491   4.987  11.644  13.004  0.1586 -0.1198  0.0514
 2799W        W12492  14.871   3.288   5.146  0.0468 -0.1953 -0.3019
 2800W        W12493   8.695   0.298   3.554 -0.0355 -0.2489  0.0396
 2801W        W12494  16.857   7.251  10.957 -0.3220 -0.0606  0.3408
 2802W        W12495  11.518   9.001  15.000  0.1169  0.0730  0.2595
 2803W        W12496   3.325   3.606   4.182 -0.1079  0.3483  0.4765
 2804W        W12497  13.045   4.043  13.573 -0.1917  0.2326  0.0280
 2805W        W12498   5.378   2.052  13.732 -0.0115 -0.0216  0.0724
 2806W        W12499   3.603  11.014   5.472  0.2045  0.2798 -0.0923
 2807W        W12500   9.890  12.560   1.121 -0.2873  0.3961  0.3581
 2808W        W12501  16.363  15.878  13.283  0.3223 -0.3160 -0.2501
 2809W        W12502   1.668   8.404  15.740 -0.1911 -0.0403  0.2657
 2810W        W12503   3.726  15.456   0.800  0.3733 -0.0751 -0.1171
 2811W        W12504   5.947  11.747  13.990 -0.0464  0.0415  0.2072
 2812W        W12505   8.344  10.515  16.230 -0.0648 -0.0339 -0.0301
 2813W        W12506   3.879  12.069  15.974 -0.3712  0.3010 -0.0152
 2814W        W12507  11.799  12.485  16.858 -0.2457 -0.0331  0.1947
 2815W        W12508   6.324   1.603   2.763 -0.0750  0.1080  0.0022
 2816W        W12509   0.467   0.265   2.998 -0.0063 -0.1522 -0.0371
 2817W        W12510   7.798  11.848   4.080 -0.0300 -0.0928 -0.1698
 2818W        W12511   4.032   8.048   4.600 -0.1032 -0.0615  0.3011
 2819W        W12512  15.514   0.372   2.581 -0.1862  0.0593 -0.1403
 2820W        W12513  11.897   4.605   5.963 -0.2819 -0.0803 -0.1820
 2821W        W12514   3.979   9.350   0.192  0.0796  0.2610  0.0289
 2822W        W12515   1.131   8.718  13.921  0.2087  0.0614  0.2948
 2823W        W12516   5.744  16.790   0.935  0.2419 -0.2421 -0.0988
 2824W        W12517   4.415   6.498   0.448  0.1951  0.1610  0.1190
 2825W        W12518   1.691   4.756  13.308 -0.1177  0.0109 -0.0735
 2826W        W12519   6.155  10.718   0.441  0.1316 -0.0901  0.0899
 2827W        W12520  13.609   3.567   1.194  0.1694  0.0094  0.1218
 2828W        W12521  17.776   0.037  11.356  0.3518 -0.0811 -0.0923
 2829W        W12522   2.550  13.742   4.887 -0.4036 -0.0352  0.0300
 2830W        W12523   6.981  13.841   2.719 -0.2141  0.1068 -0.0427
 2831W        W12524   6.069   6.764  13.912  0.1230 -0.1584 -0.1774
 2832W        W12525   8.189  17.922  14.361  0.0399  0.0764 -0.1001
 2833W        W12526  12.892   7.298   3.076 -0.3338 -0.2333 -0.1370
 2834W        W12527   6.144  15.444   1.645 -0.2803  0.1718 -0.0694
 2835W        W12528   2.092   1.757   2.813  0.2739 -0.3226  0.1257
 2836W        W12529   9.229   6.049  12.995 -0.2617  0.0731  0.0800
 2837W        W12530   6.434   9.975  14.840 -0.2345  0.1557 -0.3889
 2838W        W12531   1.450  14.451  13.006 -0.1457  0.1472 -0.1649
 2839W        W12532  17.277  11.369   3.610  0.1388  0.1353 -0.1063
 2840W        W12533  17.915  16.592  15.572 -0.2935 -0.0732 -0.1725
 2841W        W12534  16.406  16.710  13.850  0.0087  0.3190 -0.0413
 2842W        W12535  10.482  11.839   1.635 -0.0360 -0.0771  0.2261
 2843W        W12536   6.341  13.226   3.280 -0.2463 -0.1527 -0.1326
 2844W        W12537  17.450  13.980   3.483  0.1435 -0.6036  0.3122
 2845W        W12538  13.556   0.654  11.502  0.0773  0.0709 -0.1641
 2846W        W12539  14.158   6.482   3.175  0.0134 -0.1042 -0.1602
 2847W        W12540   3.568  10.790   0.154 -0.1258  0.0085  0.1525
 2848W        W12541   6.263  15.734  14.252 -0.0453  0.4423 -0.0940
 2849W        W12542  15.606  13.723  12.989  0.1026 -0.1146 -0.0714
 2850W        W12543  14.699   1.487  13.021  0.1107  0.1783  0.3115
 2851W        W12544  10.221   4.842   5.955  0.1730 -0.1112  0.1293
 2852W        W12545   3.046  17.533  16.890  0.2420 -0.0450  0.0279
 2853W        W12546   4.148   4.460  16.505  0.1454  0.4735  0.1334
 2854W        W12547  12.696  15.839  16.456 -0.0521 -0.0328  0.3488
 2855W        W12548   9.477  14.522  11.606  0.2327  0.1133 -0.0712
 2856W        W12549  12.702   2.738   2.038 -0.3023  0.1559  0.1714
 2857W        W12550   8.889   6.489  13.899  0.1732  0.3900 -0.0012
 2858W        W12551   9.288  13.401  13.863 -0.1180 -0.0141  0.1184
 2859W        W12552  11.427   3.690  12.334  0.0770  0.1767  0.1284
 2860W        W12553   5.936  16.122   5.904  0.0203 -0.1732  0.0153
 2861W        W12554   5.015  16.304  14.905  0.2202  0.2552  0.0463
 2862W        W12555   2.983   1.864  11.244 -0.1031  0.3202 -0.0615
 2863W        W12556  11.143  12.930  12.124 -0.1690  0.0044 -0.0431
 2864W        W12557  10.730  15.735  13.025 -0.0785 -0.3682 -0.2830
 2865W        W12558   1.161  13.430  15.478  0.1285 -0.0116  0.1773
 2866W        W12559   2.925   1.280   3.909  0.0843 -0.1650 -0.1896
 2867W        W12560   5.531   5.655   0.052  0.2166  0.0517 -0.1675
 2868W        W12561   6.278   1.857   3.820  0.0774  0.0146 -0.0719
 2869W        W12562   8.604  10.315  11.916  0.3121 -0.4569 -0.2053
 2870W        W12563   9.942  15.815   3.382 -0.0358 -0.1114 -0.0454
 2871W        W12564   7.108   7.626   2.312  0.5651 -0.1675  0.2265
 2872W        W12565   9.202  17.502   0.930  0.1018 -0.0207 -0.0381
 2873W        W12566  17.355   1.465  13.114 -0.1170  0.0677  0.0351
 2874W        W12567   1.002   9.222  14.069 -0.0114  0.0025 -0.0589
 2875W        W12568  14.820   6.325   0.319  0.0397  0.2316 -0.1363
 2876W        W12569  16.707  14.756  16.579  0.0914  0.0455  0.0929
 2877W        W12570   1.863  15.729   1.211  0.0429  0.2044  0.3099
 2878W        W12571   7.726   3.297   2.885 -0.2569 -0.2382 -0.0967
 2879W        W12572   3.116  13.989   0.014 -0.0493  0.1750  0.2185
 2880W        W12573   4.066   0.588  15.050 -0.0973  0.1700 -0.1550
 2881W        W12574   3.076  12.111  14.702 -0.0006  0.2849 -0.0060
 2882W        W12575  12.275  11.753  15.188 -0.0309  0.1091  0.1928
 2883W        W12576   7.950  13.991   5.084 -0.0249  0.3661  0.0432
 2884W        W12577  14.285   6.394   4.174  0.0326 -0.2222 -0.0292
 2885W        W12578  16.776  10.736  10.065  0.1678  0.1816 -0.2603
 2886W        W12579   7.969  12.492  14.894  0.0514  0.0251 -0.3134
 2887W        W12580   3.714  16.267   2.061  0.2315 -0.2789  0.1268
 2888W        W12581   0.262  14.215  12.564 -0.3281 -0.1795 -0.1388
 2889W        W12582   4.296   6.573   3.047 -0.2366  0.1495  0.0614
 2890W        W12583   3.012   5.771   6.192  0.2064  0.1701 -0.1306
 2891W        W12584   5.073  12.525  14.715 -0.1498 -0.0815  0.0048
 2892W        W12585  10.667  13.536  15.633  0.0398 -0.0638 -0.5697
 2893W        W12586  13.424   9.381  16.818  0.2121 -0.0984 -0.1053
 2894W        W12587   3.921  12.395  14.863 -0.0751 -0.0760  0.0673
 2895W        W12588  11.545   5.047  14.295  0.2088 -0.0243  0.3795
 2896W        W12589  15.362   0.948  12.041 -0.1460  0.0436 -0.1793
 2897W        W12590  15.498   8.689  12.020 -0.0646  0.0313  0.1410
 2898W        W12591   4.944  10.515  12.903  0.0189  0.0101 -0.3452
 2899W        W12592   5.918   7.513  15.841 -0.0865  0.0559 -0.1382
 2900W        W12593   0.765  16.530  15.192  0.2950 -0.5053 -0.0251
 2901W        W12594   6.326   6.952  16.317  0.1631  0.2129  0.1534
 2902W        W12595   8.468  12.727  12.394 -0.0815 -0.0611 -0.0964
 2903W        W12596   1.700   1.546  13.872 -0.2086  0.0576  0.0092
 2904W        W12597   2.790   4.101   5.761  0.0823  0.2002 -0.1178
 2905W        W12598  17.103  16.075  11.597 -0.4536  0.0054  0.0389
 2906W        W12599   3.683   8.461   4.420  0.1227  0.3538  0.3370
 2907W        W12600   1.485   3.718   0.801  0.1947  0.1292 -0.2535
 2908W        W12601   0.217  14.170  14.905  0.0176  0.1071  0.1205
 2909W        W12602   8.324   5.041   5.391 -0.3391 -0.1237 -0.1685
 2910W        W12603   7.848   7.566   3.466  0.4129  0.0323 -0.0219
 2911W        W12604   2.904  13.219   1.598 -0.0994 -0.2982 -0.2837
 2912W        W12605  16.198  16.639  15.399  0.0592  0.1290 -0.3303
 2913W        W12606   8.321  12.141  14.710  0.0966 -0.0580 -0.0721
 2914W        W12607  14.705   3.658   3.073  0.4222  0.0611 -0.1462
 2915W        W12608   5.866   7.904  16.115  0.1623  0.1591 -0.2713
 2916W        W12609   4.975   4.586   3.256  0.3587 -0.1433 -0.2204
 2917W        W12610  11.151   9.066   1.399 -0.0540  0.2643  0.1868
 2918W        W12611   3.138   9.229   4.370  0.0005 -0.1435 -0.0766
 2919W        W12612   5.923   7.316   5.737  0.1667 -0.0313 -0.1244
 2920W        W12613  12.973  16.053   2.771 -0.0594 -0.0805 -0.1372
 2921W        W12614   1.680   7.038   5.072  0.1607 -0.2108 -0.0295
 2922W        W12615  10.619   4.082   3.161  0.0412  0.2116 -0.0240
 2923W        W12616  11.354   1.247   0.142 -0.1029 -0.1441  0.4387
 2924W        W12617   1.595  15.218  12.572 -0.1374  0.1400 -0.0845
 2925W        W12618   1.595   3.721   5.684  0.1950  0.0806  0.4363
 2926W        W12619   2.413   2.128   5.873 -0.0392 -0.4030 -0.4339
 2927W        W12620   0.291   4.746  16.455  0.1324  0.0149 -0.0136
 2928W        W12621   7.670  14.087   2.219  0.1936 -0.1061 -0.2156
 2929W        W12622  16.372  10.599  12.263 -0.1256  0.0691  0.0642
 2930W        W12623  13.110   2.298   5.600  0.0512 -0.0128 -0.1291
 2931W        W12624   3.381   0.634   1.158  0.1631  0.1901 -0.1788
 2932W        W12625  14.509  10.799  13.408  0.2012  0.0364 -0.0036
 2933W        W12626   6.028   8.946  13.036  0.1385  0.1273 -0.1518
 2934W        W12627   9.923   3.547  14.142 -0.1553 -0.0675 -0.3762
 2935W        W12628  12.948  10.494  11.469  0.2716 -0.0824 -0.1195
 2936W        W12629   7.346  13.975   5.002 -0.0305 -0.2988 -0.0675
 2937W        W12630  11.570   2.573   2.950  0.3335 -0.1642  0.2110
 2938W        W12631   6.486   1.395   4.526 -0.0918  0.1750 -0.1910
 2939W        W12632  12.220   6.458   1.560  0.2074 -0.1644  0.3584
 2940W        W12633  11.543   0.479   5.369  0.0069  0.3811  0.1593
 2941W        W12634   4.317   0.569  14.211  0.1521 -0.0325 -0.0346
 2942W        W12635   9.835   2.820   0.007  0.0868 -0.0953  0.0997
 2943W        W12636   5.558  11.916   3.620  0.0836  0.0468 -0.3270
 2944W        W12637   2.321   4.208  11.646  0.2037 -0.0672  0.2064
 2945W        W12638  17.114   2.855   3.324  0.0693  0.0688  0.2345
 2946W        W12639   2.417  11.851  11.191 -0.2376  0.1165 -0.1338
 2947W        W12640   7.305  17.370  15.192 -0.0136 -0.2133 -0.1378
 2948W        W12641   5.647   8.257  15.294 -0.2834  0.1411 -0.1254
 2949W        W12642  10.436  16.511  16.591 -0.0620 -0.1538  0.0559
 2950W        W12643   9.615  10.899  13.323 -0.3916  0.0588  0.2320
 2951W        W12644   6.875  12.036   6.104  0.0461  0.0220 -0.3904
 2952W        W12645   6.018   3.698   1.496  0.0682 -0.0307 -0.1732
 2953W        W12646   1.112   2.692   6.583  0.0326 -0.0414  0.0083
 2954W        W12647  14.941   0.820   1.870  0.0872 -0.1139 -0.0590
 2955W        W12648   5.293   3.089   4.562  0.0052 -0.0374 -0.1203
 2956W        W12649   1.706   4.974   2.158 -0.0043 -0.1222 -0.2670
 2957W        W12650   0.057  10.061   5.607  0.3449  0.0271  0.0252
 2958W        W12651   3.730   2.621  11.645 -0.0054  0.0964 -0.1077
 2959W        W12652  14.619   2.651  15.440  0.0257  0.0086  0.1531
 2960W        W12653  14.740  10.769   2.285  0.1425 -0.0902 -0.0228
 2961W        W12654  14.876   6.918  10.692 -0.1773 -0.1084 -0.0324
 2962W        W12655   5.617   6.876   5.757  0.0787  0.0724  0.0587
 2963W        W12656  12.872   6.840   2.193  0.2182 -0.1143  0.2318
 2964W        W12657  13.951   6.771   3.511  0.2419  0.0796 -0.0836
 2965W        W12658  17.745   0.615   4.286  0.0937 -0.2495  0.0739
 2966W        W12659   1.407   7.338   5.402 -0.0563 -0.0840 -0.0287
 2967W        W12660  17.264   3.045  13.829  0.1438 -0.2228 -0.0905
 2968W        W12661   8.237  16.050   4.758  0.1147 -0.0881  0.1881
 2969W        W12662   8.707  15.032   1.992  0.0336 -0.0425 -0.2996
 2970W        W12663  10.201   0.830   5.082 -0.2701  0.0436 -0.0011
 2971W        W12664   6.148  10.656   4.750 -0.3790 -0.0568 -0.1584
 2972W        W12665   0.907   8.506  17.017  0.0517  0.0329 -0.1152
 2973W        W12666  12.072   6.372   5.558  0.3445  0.1109 -0.3888
 2974W        W12667  17.500   8.267  15.047  0.2919  0.1972 -0.0854
 2975W        W12668   6.142   3.082   4.483  0.3390 -0.1371 -0.2389
 2976W        W12669   5.138   6.005   5.869  0.1251  0.1864 -0.0363
 2977W        W12670  17.596   5.820  16.776 -0.0192 -0.3735 -0.0388
 2978W        W12671  16.145  14.447  14.095  0.0802  0.0306  0.2513
 2979W        W12672   7.584   1.760   1.394  0.0446 -0.1466 -0.0928
 2980W        W12673  15.298   3.597  15.487 -0.3806  0.1162 -0.3597
 2981W        W12674   2.568  10.459   4.237  0.0334  0.0928  0.2487
 2982W        W12675   2.382  16.927  16.750  0.1027 -0.0410 -0.2412
 2983W        W12676   5.170   8.552   6.038 -0.2311 -0.3649  0.1314
 2984W        W12677   1.802  10.985   1.523  0.0587 -0.3239 -0.3801
 2985W        W12678   0.824   3.246   6.095  0.1252  0.1455  0.2382
 2986W        W12679   3.885   6.131  13.235  0.0119 -0.0461  0.1344
 2987W        W12680   7.046   8.609  13.866 -0.0336  0.4183 -0.5149
 2988W        W12681   1.951  14.132   4.247  0.3856  0.3904 -0.4735
 2989W        W12682   0.954   1.232  14.333  0.1929  0.1445  0.3843
 2990W        W12683   1.598   7.496  15.830  0.0602 -0.0497 -0.2586
 2991W        W12684  10.883  17.664   4.988  0.1150  0.0783  0.0067
 2992W        W12685  13.728   3.019   1.874 -0.1052 -0.0226 -0.2990
 2993W        W12686   8.841   7.615  14.962  0.1592  0.0736  0.0520
 2994W        W12687   4.455   1.896   4.712  0.1048 -0.0261 -0.3694
 2995W        W12688  12.902   1.233   4.299  0.2971  0.0510  0.0856
 2996W        W12689   1.929   0.836  16.666 -0.0521  0.0074 -0.2416
 2997W        W12690   3.893   2.425   3.571  0.2164 -0.1470 -0.0102
 2998W        W12691   6.214  11.782  16.464 -0.1290 -0.2510  0.1352
 2999W        W12692  15.921   4.469   5.017 -0.1185 -0.1235  0.1631
 3000W        W12693  12.484  12.775   6.293 -0.0155  0.1511 -0.0881
 3001W        W12694   1.124   2.241   1.609  0.1790 -0.0018  0.0797
 3002W        W12695   9.951   7.894   4.450 -0.1299  0.0886 -0.1942
 3003W        W12696  17.055  17.526  11.810  0.3626 -0.0995 -0.2415
 3004W        W12697   2.400   7.592   5.601  0.1077  0.4111 -0.0417
 3005W        W12698   2.829  16.312   3.557 -0.0808  0.2539 -0.2904
 3006W        W12699   7.990   9.482   1.391 -0.1712  0.0064  0.0098
 3007W        W12700   7.619   2.108  13.728 -0.0096 -0.3272 -0.3074
 3008W        W12701   2.318   7.097   1.189  0.0159 -0.4036 -0.1476
 3009W        W12702   9.190   2.851   5.070  0.1625 -0.1433  0.2448
 3010W        W12703  10.039  10.745  11.129  0.0456 -0.0368 -0.2124
 3011W        W12704  14.662   0.051  16.349 -0.0403 -0.1366  0.1479
 3012W        W12705   3.922   1.848  14.768  0.1236 -0.1981 -0.0370
 3013W        W12706   2.003   2.307   3.424 -0.0687 -0.0110  0.1477
 3014W        W12707   7.037   3.562   6.253  0.1022  0.0710  0.2645
 3015W        W12708   6.887  15.626   3.138  0.1437  0.1325  0.2707
 3016W        W12709   7.862   9.869   1.824 -0.1565  0.0985  0.1325
 3017W        W12710   8.365   9.995   6.526  0.1526 -0.2588 -0.0616
 3018W        W12711  10.565  11.855  14.434 -0.3726  0.1166 -0.0624
 3019W        W12712   3.459   4.526   3.759  0.3269  0.0031 -0.1015
 3020W        W12713   5.561   3.932  15.643 -0.1601 -0.1436  0.0342
 3021W        W12714  13.207   0.278  12.398 -0.2942  0.0326 -0.5863
 3022W        W12715  10.909  14.344   2.096  0.2177 -0.5624 -0.1445
 3023W        W12716   9.869   0.352  12.569 -0.0066  0.1168 -0.0204
 3024W        W12717  15.809  11.928   1.776  0.1277  0.0041  0.1071
 3025W        W12718   6.633  17.693  16.863 -0.0625  0.1344 -0.0612
 3026W        W12719   8.584   3.560   5.817 -0.0238  0.0481  0.0477
 3027W        W12720   6.185   8.522  12.790 -0.0816  0.0598  0.3360
 3028W        W12721   9.050   4.213   4.139  0.0473 -0.2300  0.1345
 3029W        W12722   7.314  12.304   0.517  0.1120  0.1136 -0.0621
 3030W        W12723   7.296   4.503   4.274 -0.1481  0.0150  0.0451
 3031W        W12724   5.323  16.732  11.486 -0.1095 -0.1994 -0.1738
 3032W        W12725   5.666  16.305   0.935  0.1608  0.0088 -0.1051
 3033W        W12726  10.998  15.631   4.903 -0.1277 -0.0759 -0.0983
 3034W        W12727  10.814   9.233   3.688 -0.0399 -0.1518 -0.2092
 3035W        W12728   5.602  16.768   1.988 -0.1745  0.2450 -0.2851
 3036W        W12729  16.647   9.935  14.589  0.0449 -0.1522 -0.1303
 3037W        W12730   3.634   7.047   4.716  0.0846  0.0324  0.4437
 3038W        W12731   6.272  15.648  14.818  0.0141 -0.1123 -0.1363
 3039W        W12732  17.858  16.951   2.841 -0.2545  0.1298 -0.0287
 3040W        W12733   1.991   3.009   1.298 -0.3954 -0.1077 -0.1559
 3041W        W12734  10.029  13.758  15.581  0.0340 -0.0126  0.0814
 3042W        W12735   1.535   4.272   1.059 -0.0689 -0.1588 -0.1476
 3043W        W12736   9.620   5.213  13.148 -0.1518  0.0416 -0.6288
 3044W        W12737   2.052   6.200  13.395  0.0926 -0.0687 -0.0839
 3045W        W12738  10.861   1.823  14.929 -0.0341  0.2562 -0.2435
 3046W        W12739   6.215  15.567  13.265 -0.0705  0.3378 -0.1676
 3047W        W12740  13.380   0.260   3.538 -0.0412 -0.1154 -0.3562
 3048W        W12741  17.167   0.558  13.889  0.1946 -0.0315 -0.1231
 3049W        W12742   5.036   7.464  14.497 -0.0113  0.0213  0.0608
 3050W        W12743   3.839  16.733  15.880 -0.3811  0.0902 -0.0319
 3051W        W12744  10.720   6.014   3.486  0.1017 -0.1092 -0.1673
 3052W        W12745  12.812  12.428   3.459  0.0543  0.1016 -0.0241
 3053W        W12746   5.025   3.333   2.460 -0.2063 -0.1218 -0.2565
 3054W        W12747   5.088   5.658  14.232  0.1915 -0.0148 -0.3044
 3055W        W12748   3.260   8.565   3.095  0.0871  0.0431 -0.0290
 3056W        W12749   2.254   9.700   3.732 -0.2254  0.0674 -0.0316
 3057W        W12750  17.101   2.975   2.813  0.0131 -0.1207  0.0498
 3058W        W12751   5.695  10.606   5.117 -0.0504 -0.1510  0.1491
 3059W        W12752   5.791   5.038   0.976  0.1023  0.0815 -0.1868
 3060W        W12753   3.295  16.891  11.420  0.1259 -0.2217 -0.1182
 3061W        W12754  17.028  12.429   0.928  0.3311  0.0047  0.3520
 3062W        W12755   9.703   9.744   4.360 -0.0115 -0.0190 -0.0387
 3063W        W12756   3.847   8.449   5.484  0.0034 -0.1692  0.2862
 3064W        W12757   0.935  10.055  16.040  0.0691  0.2973 -0.1389
 3065W        W12758   7.953   7.863   2.323  0.0748 -0.0677  0.2067
 3066W        W12759   2.843  17.084   4.348 -0.1365 -0.0873  0.0212
 3067W        W12760   4.754   4.524   3.742  0.0944 -0.0333 -0.3256
 3068W        W12761   4.853  13.203  12.839 -0.0590  0.0891  0.0519
 3069W        W12762  13.376   5.356  12.879 -0.0737 -0.0521 -0.3582
 3070W        W12763   5.407  16.623  14.640  0.0210  0.0912  0.0344
 3071W        W12764   8.028   8.359   2.210 -0.1158 -0.2891 -0.1198
 3072W        W12765   2.692   8.659  15.811  0.0680  0.0407  0.1915
 3073W        W12766  10.102   2.319  11.783  0.0863  0.1345 -0.1661
 3074W        W12767   7.149  12.003   0.920 -0.1467 -0.0634 -0.0175
 3075W        W12768  15.793  17.535   6.417  0.3103 -0.2887  0.1737
 3076W        W12769   5.096   3.273   0.058  0.2704 -0.0064  0.0333
 3077W        W12770   5.118   8.635  15.204 -0.0095  0.0527  0.0911
 3078W        W12771   7.948   1.126   4.971 -0.2448  0.1243  0.2339
 3079W        W12772  15.084  13.936   1.800  0.0554 -0.0949 -0.2379
 3080W        W12773   4.498   2.538   1.160 -0.0382 -0.1635  0.3800
 3081W        W12774   0.416   4.814   4.642 -0.1478 -0.0055  0.1623
 3082W        W12775   3.428   7.308  12.103 -0.3804 -0.2690 -0.0556
 3083W        W12776  14.816   9.268   1.550 -0.0112 -0.2599  0.2802
 3084W        W12777   0.427  14.517  11.738  0.2307  0.0364 -0.1712
 3085W        W12778   5.649   7.819   0.148 -0.1711  0.3545 -0.0548
 3086W        W12779   7.671   2.057  17.061 -0.1314 -0.0728  0.1000
 3087W        W12780  14.371  11.457   2.895  0.3049 -0.1748 -0.0122
 3088W        W12781  17.384   7.606  16.977 -0.0548 -0.0694 -0.2067
 3089W        W12782  10.360   1.442   3.906 -0.1387 -0.1197  0.1887
 3090W        W12783   8.087  13.688   0.489  0.0536  0.2203  0.4445
 3091W        W12784   6.787   3.723   3.263 -0.2000  0.0454 -0.1182
 3092W        W12785   3.239   9.330   1.149 -0.1053  0.0804  0.1564
 3093W        W12786  17.465   1.739   5.758  0.0315  0.1542 -0.0237
 3094W        W12787   0.661  13.930  12.400 -0.0224  0.0940 -0.5041
 3095W        W12788  11.456   4.433  15.061  0.0267  0.1083  0.1179
 3096W        W12789   7.177  11.502   0.913 -0.1587 -0.1153  0.0657
 3097W        W12790   3.212   2.185  15.888  0.0749 -0.2105  0.0374
 3098W        W12791   5.392  11.545   2.134 -0.0561 -0.1912 -0.0359
 3099W        W12792   2.267   0.230  15.171 -0.0017 -0.0308 -0.4458
 3100W        W12793   2.569  16.433   2.787  0.3080  0.1487  0.1561
 3101W        W12794  17.869   2.401   1.306 -0.1885  0.3710  0.0137
 3102W        W12795   0.517  17.576   5.110 -0.2497 -0.0601  0.1758
 3103W        W12796   8.742   6.953  15.199  0.2252 -0.0593 -0.3875
 3104W        W12797   8.169   7.513   6.025  0.2730  0.0472  0.1327
 3105W        W12798   6.247  15.994   2.003 -0.3919  0.0885 -0.4085
 3106W        W12799   7.149  10.686   3.060 -0.2700  0.2094  0.2689
 3107W        W12800   4.864   5.222  11.435 -0.0384 -0.0560  0.5038
 3108W        W12801  12.295  16.519   3.154 -0.0484 -0.1728 -0.2052
 3109W        W12802   6.356   8.253  16.545  0.2089 -0.2403  0.1856
 3110W        W12803   7.580   0.247   5.410  0.0361  0.1625 -0.2200
 3111W        W12804  15.792   4.077  14.983  0.0191  0.1850  0.1953
 3112W        W12805   0.586  16.179  15.991  0.0091  0.0062  0.1969
 3113W        W12806   2.278  15.385  11.420 -0.2270 -0.1168  0.0211
 3114W        W12807   2.900  15.656  16.752 -0.0040  0.1683  0.1477
 3115W        W12808  17.925  13.145  15.408  0.2626 -0.3134  0.0104
 3116W        W12809   3.194   7.044   1.436  0.3018 -0.2448 -0.0048
 3117W        W12810   2.268  16.510   5.494 -0.2168  0.0179  0.2910
 3118W        W12811   6.985   8.649   6.623 -0.0176 -0.0911  0.2304
 3119W        W12812   0.044   0.056  14.012 -0.0134 -0.3059  0.4160
 3120W        W12813   8.164   6.038   1.151  0.0934  0.1486  0.2321
 3121W        W12814   5.360   7.794   1.121  0.1870 -0.1260 -0.1328
 3122W        W12815  12.872  14.122   5.729 -0.1353  0.2729  0.2466
 3123W        W12816  12.575   1.197  16.377 -0.0514  0.3306  0.2521
 3124W        W12817  13.457  13.884  12.332  0.2480  0.0948  0.1150
 3125W        W12818  11.969  10.997  12.315  0.0192  0.1009 -0.0581
 3126W        W12819  10.997  10.459   6.497 -0.1465 -0.0126 -0.1203
 3127W        W12820  11.504   1.806  12.204  0.0990  0.0363 -0.0760
 3128W        W12821  12.102   0.825   5.951 -0.0485 -0.2883  0.2647
 3129W        W12822   2.791  14.419  16.641 -0.1026 -0.1118 -0.0382
 3130W        W12823   4.635  11.344  15.421  0.1162  0.0924  0.1468
 3131W        W12824  10.928   4.471  14.961  0.0926 -0.1025  0.1290
 3132W        W12825   8.664   3.648   0.168 -0.2477  0.0726 -0.0841
 3133W        W12826  16.656   6.631  12.961 -0.0751  0.1041  0.1793
 3134W        W12827   9.187  17.744   0.437  0.1841 -0.1723  0.2158
 3135W        W12828   5.023  14.342  11.918  0.3464 -0.0620  0.1491
 3136W        W12829   9.420  16.355   2.396 -0.0145 -0.3471  0.0315
 3137W        W12830  13.148   7.572  17.034  0.0349  0.0850 -0.0138
 3138W        W12831   9.622  10.618   2.266 -0.3425 -0.1813 -0.0623
 3139W        W12832   3.101   2.983  14.340 -0.3861  0.2071  0.0957
 3140W        W12833  13.771  13.035  11.727  0.0210  0.1951  0.2135
 3141W        W12834   7.996   5.889   4.404  0.1429 -0.1310 -0.3015
 3142W        W12835   2.532  17.934  12.935 -0.2057 -0.0078 -0.0700
 3143W        W12836   2.895   5.327   2.156  0.0452  0.2883  0.0605
 3144W        W12837  11.564  13.448  14.452  0.2307  0.0346 -0.5755
 3145W        W12838   2.590   8.895  14.047 -0.0575 -0.2192 -0.2720
 3146W        W12839   6.969  16.733  12.439 -0.0181  0.2345 -0.3442
 3147W        W12840  11.229   6.998   2.989  0.0139 -0.1248 -0.3024
 3148W        W12841  10.598   0.632  13.848  0.1219 -0.0212 -0.2387
 3149W        W12842   5.804  10.810   2.961  0.1778 -0.0098  0.1970
 3150W        W12843   2.704  14.232   5.070 -0.1984  0.3823 -0.0334
 3151W        W12844   8.177   6.819   0.992  0.2614  0.2881  0.1848
 3152W        W12845   3.177   2.260   1.729 -0.6178 -0.0286 -0.4544
 3153W        W12846  10.553  11.473  17.054  0.0408 -0.2793  0.1757
 3154W        W12847  14.722   9.264   5.529 -0.4165  0.3079  0.2195
 3155W        W12848   2.264   0.713  16.156 -0.1745 -0.0606  0.0785
 3156W        W12849   7.640  11.907   0.721 -0.1206 -0.0086 -0.1125
 3157W        W12850  12.319  12.404  16.783 -0.0728  0.0036  0.0762
 3158W        W12851   0.631   5.079  12.974  0.2745  0.1501 -0.0868
 3159W        W12852   7.360   1.462  14.670 -0.0007  0.2775 -0.1856
 3160W        W12853   2.316  10.021   4.242 -0.1527  0.1098 -0.3281
 3161W        W12854   2.286   0.448   5.030  0.0795  0.0908 -0.1082
 3162W        W12855  10.588  17.620   4.171 -0.1347  0.3589 -0.2012
 3163W        W12856   6.697   1.930   0.271  0.0112 -0.0416 -0.0647
 3164W        W12857   1.596   2.326   1.265  0.2545 -0.1096 -0.0409
 3165W        W12858   5.699   9.741  13.753 -0.0039  0.1406  0.1397
 3166W        W12859   4.224   2.822  14.215 -0.0002 -0.2447 -0.2538
 3167W        W12860   8.149  14.696   4.764 -0.1600 -0.0366  0.3274
 3168W        W12861   3.548   3.352   4.515  0.0226 -0.0108 -0.1057
 3169W        W12862  15.410  12.572   1.901 -0.0168 -0.1565 -0.0554
 3170W        W12863   8.352  15.567   3.616 -0.1508 -0.0837  0.3204
 3171W        W12864   0.478   5.994   2.068  0.3539  0.2186  0.3611
 3172W        W12865  10.175   8.191  14.965  0.0409  0.0501  0.0038
 3173W        W12866   4.339   4.977  15.071  0.0491 -0.1085 -0.0075
 3174W        W12867  17.143   3.504  13.867  0.1808 -0.4266 -0.1092
 3175W        W12868   9.784   3.595  16.672  0.3194 -0.2519 -0.0226
 3176W        W12869   6.969  10.386   0.889 -0.3935 -0.1318  0.0630
 3177W        W12870   6.387   3.447   5.216 -0.0069  0.2887 -0.1476
 3178W        W12871   2.365  13.402  14.189  0.2140 -0.4429 -0.1345
 3179W        W12872   7.204  16.869  16.679 -0.1798 -0.1371  0.0347
 3180W        W12873   5.228  15.273   1.193 -0.0944 -0.0742 -0.0447
 3181W        W12874  17.624   6.605  14.293 -0.0136  0.0753  0.0487
 3182W        W12875  11.524   0.495   0.526 -0.0074  0.0187 -0.4984
 3183W        W12876   2.814  12.376  15.884  0.1137  0.1047  0.0130
 3184W        W12877  15.267   2.429   0.296 -0.0929  0.2749  0.2142
 3185W        W12878   3.256  17.969   0.015  0.1325 -0.2903  0.0537
 3186W        W12879   0.998  16.895   0.144  0.1174 -0.2517  0.0471
 3187W        W12880  11.988  11.121  13.041  0.0908 -0.3396  0.2375
 3188W        W12881   1.160   4.106  12.212 -0.1164 -0.0918  0.0275
 3189W        W12882  15.428  17.587   2.179 -0.2757  0.0648 -0.1818
 3190W        W12883   6.499  15.005   6.715  0.0245 -0.2462  0.0481
 3191W        W12884   3.284   6.491   4.290 -0.0271 -0.0117 -0.1165
 3192W        W12885  14.104  12.921   3.183 -0.1661 -0.3026  0.1511
 3193W        W12886   6.562   4.663   0.115  0.2057 -0.2704  0.1017
 3194W        W12887   7.862   8.951   1.536 -0.1416 -0.1191 -0.0663
 3195W        W12888   4.284  11.746   5.343  0.1524  0.2060  0.0906
 3196W        W12889  12.664  10.705   4.754  0.2158 -0.1166  0.0011
 3197W        W12890  10.954   6.837   5.802  0.1417  0.2323  0.3855
 3198W        W12891  15.477   7.793   1.055 -0.2560 -0.0283 -0.0965
 3199W        W12892   4.852  14.123  14.539  0.1546  0.2756 -0.2014
 3200W        W12893  15.867  10.666   4.043  0.0546 -0.2012 -0.1047
 3201W        W12894  15.468   3.572   2.448  0.0650  0.1928 -0.0293
 3202W        W12895   6.464  10.902  16.124  0.0660 -0.0873 -0.1831
 3203W        W12896   2.750   8.212  14.165  0.2169 -0.0277 -0.3354
 3204W        W12897   4.631  15.938  16.644  0.0878 -0.0294  0.4013
 3205W        W12898  15.191  14.175   4.951 -0.0726 -0.3789  0.2420
 3206W        W12899   8.952  16.675  14.153  0.0538  0.2980 -0.1618
 3207W        W12900   3.125   6.795   4.704  0.0515  0.1646 -0.0453
 3208W        W12901   6.218   8.533  13.299 -0.1523 -0.1405 -0.0213
 3209W        W12902  15.693   6.525  11.889  0.1960 -0.0276  0.3565
 3210W        W12903   7.168   9.105  11.786 -0.1847  0.1454  0.1344
 3211W        W12904   0.399   2.446  15.442  0.1675 -0.0450 -0.0143
 3212W        W12905   5.608   3.685  14.272  0.2338  0.2648 -0.0466
 3213W        W12906   2.190  14.002  15.039  0.0672 -0.1233 -0.0950
 3214W        W12907   1.513  10.518   5.875  0.2032  0.1740  0.0925
 3215W        W12908   7.859  14.003   5.591  0.0668  0.0545 -0.2291
 3216W        W12909   6.832  12.918  13.322 -0.3046  0.0332 -0.2094
 3217W        W12910  17.122  15.071   2.249 -0.1870 -0.0331  0.4201
 3218W        W12911  12.596  17.769   4.134 -0.1191 -0.0961  0.3659
 3219W        W12912  16.730  14.590  13.847  0.5404 -0.0488 -0.1289
 3220W        W12913   4.735  13.058   5.296 -0.1835 -0.0139  0.0445
 3221W        W12914   6.727  11.130   4.078 -0.1442 -0.0445 -0.0238
 3222W        W12915   2.184   1.911   4.179  0.1507  0.0297 -0.4229
 3223W        W12916   3.076  15.271  16.527 -0.1685  0.4305 -0.0993
 3224W        W12917  13.486   1.489   1.768  0.0784  0.1139 -0.0088
 3225W        W12918  10.077   5.297   0.412 -0.0449  0.0446 -0.5185
 3226W        W12919   1.966   8.698   3.937  0.1566 -0.3669  0.0845
 3227W        W12920   7.143  12.228   4.470  0.2539  0.1435  0.0370
 3228W        W12921  14.591   9.964  12.371  0.0303  0.0917  0.0757
 3229W        W12922   3.642   4.103  11.934 -0.1509 -0.3560 -0.2688
 3230W        W12923   2.410   2.200   2.903  0.1108  0.0521  0.0167
 3231W        W12924   2.269  14.981  17.062 -0.0088 -0.1748  0.0699
 3232W        W12925  16.729   2.541   3.036  0.1964  0.2288  0.0472
 3233W        W12926  10.425   7.331   4.648  0.2973 -0.3051  0.0367
 3234W        W12927   9.189  12.090   5.548  0.2733  0.1649  0.1114
 3235W        W12928  16.393   6.417  15.883 -0.0514 -0.0695 -0.2344
 3236W        W12929   4.387   7.223   2.909 -0.0155 -0.3323 -0.0518
 3237W        W12930   8.588   0.433  17.051 -0.0384  0.1752 -0.0750
 3238W        W12931   4.579  10.439  14.410  0.0463 -0.5162  0.0520
 3239W        W12932   4.919  14.622   0.669  0.1632 -0.1796  0.0643
 3240W        W12933   4.681  17.010  12.953  0.4190  0.0535  0.1302
 3241W        W12934  13.198  17.944  13.478 -0.0052 -0.0973 -0.0505
 3242W        W12935   9.012  10.971  14.081 -0.0966 -0.2068 -0.0570
 3243W        W12936   4.733  11.873   1.593 -0.0575 -0.1681  0.0046
 3244W        W12937   4.350  12.375   1.810 -0.1548 -0.4252  0.1251
 3245W        W12938   7.340  12.682  12.191 -0.0286 -0.0538 -0.1559
 3246W        W12939   1.741   3.134  13.302  0.1312  0.0987  0.2538
 3247W        W12940   0.378   3.631  15.674 -0.0547  0.1954 -0.0272
 3248W        W12941   2.624  14.036  13.701  0.2425  0.2570 -0.0263
 3249W        W12942  11.135  17.184   0.439  0.1401  0.0812 -0.0504
 3250W        W12943   7.368  15.856  16.017 -0.2273 -0.2036 -0.5050
 3251W        W12944  17.592  15.380  12.357  0.0290  0.0040 -0.2741
 3252W        W12945   7.050  11.897  12.509 -0.1582 -0.1766  0.3685
 3253W        W12946   3.279  10.093  13.883 -0.1125  0.2406 -0.2195
 3254W        W12947  12.099  17.864  11.543 -0.0154  0.0951  0.1838
 3255W        W12948   1.070  11.257   2.003  0.0305 -0.0291  0.0947
 3256W        W12949   3.896   9.180   0.642  0.0318  0.0839  0.2193
 3257W        W12950   2.787   7.538   4.752  0.0767 -0.0840  0.2475
 3258W        W12951   4.072   7.111  15.951 -0.0703 -0.2482  0.2581
 3259W        W12952   3.978   9.682  12.894 -0.1885 -0.0309  0.2431
 3260W        W12953   1.149  10.433   4.045 -0.1156  0.3942 -0.0255
 3261W        W12954  15.289  13.313  13.912 -0.1698 -0.0991  0.0567
 3262W        W12955   1.559   8.707  16.800  0.2070  0.1505 -0.1757
 3263W        W12956   6.836  11.252   0.597  0.1991 -0.1199  0.2448
 3264W        W12957   0.698  17.946  11.364  0.0431  0.3131  0.1587
 3265W        W12958   3.528  14.372   2.771  0.3655 -0.1563  0.0815
 3266W        W12959   1.831  12.494  12.885 -0.1108 -0.0893 -0.1555
 3267W        W12960   3.675   9.935  13.302 -0.1567 -0.1887  0.2909
 3268W        W12961   6.215  17.628   0.035  0.1418  0.2526 -0.1058
 3269W        W12962   7.933  17.151  14.543  0.1867 -0.3628 -0.0982
 3270W        W12963  15.847  10.679  15.750 -0.1572 -0.2967 -0.1268
 3271W        W12964   5.029   2.442   2.821  0.2901 -0.0902  0.0581
 3272W        W12965  15.416   6.557   4.868 -0.2010  0.2295  0.3334
 3273W        W12966   8.964  14.717  16.291 -0.5200  0.0742  0.1727
 3274W        W12967   4.234  15.812   6.181 -0.0369 -0.0732 -0.1700
 3275W        W12968  16.195  15.657   1.386 -0.1570  0.3384 -0.0617
 3276W        W12969   5.804  15.900  13.397  0.3381  0.0355  0.0299
 3277W        W12970  14.231  12.776  11.799 -0.0392 -0.1385 -0.0501
 3278W        W12971   1.884   9.515  12.046 -0.0215 -0.0397 -0.0934
 3279W        W12972  14.024  11.009   5.721  0.1493  0.1632 -0.1102
 3280W        W12973   4.894   6.755  16.280  0.2002 -0.3170  0.1559
 3281W        W12974   8.001  11.567  15.214  0.1001 -0.1071 -0.1897
 3282W        W12975   1.074   0.234   5.196  0.2117 -0.2788  0.0502
 3283W        W12976   0.350   8.685   3.027  0.3791  0.0773  0.0210
 3284W        W12977   4.687  10.913   3.505  0.3637 -0.2268  0.0312
 3285W        W12978  11.291  15.679   2.865  0.0136 -0.3854 -0.0788
 3286W        W12979  13.985   9.971   0.254 -0.0147 -0.1265  0.0993
 3287W        W12980   1.010   7.478   5.717 -0.0253  0.2463  0.3167
 3288W        W12981  13.407  17.684  13.063  0.4103  0.1651 -0.2951
 3289W        W12982   6.875   5.781  14.521  0.0274 -0.0161  0.3665
 3290W        W12983   7.472  15.371   1.275 -0.1364  0.1927  0.2773
 3291W        W12984   7.699   1.523   5.288  0.0198  0.0228  0.2140
 3292W        W12985   7.477   9.797   5.435  0.0576 -0.1384  0.0573
 3293W        W12986  12.417  14.987   2.524 -0.3603  0.1629  0.2317
 3294W        W12987   9.473  12.897  15.941 -0.1313 -0.2081 -0.1937
 3295W        W12988   9.811  17.115  13.370  0.1409  0.1687  0.1679
 3296W        W12989   7.951   0.674  13.807  0.1940 -0.1070  0.2629
 3297W        W12990  17.373  11.638  15.656 -0.0168 -0.2558  0.2700
 3298W        W12991   2.258  12.978   1.474  0.2722  0.3035 -0.3189
 3299W        W12992   2.979  12.284   0.084 -0.0996 -0.2060  0.0314
 3300W        W12993  10.949  10.370  14.370 -0.3569 -0.1417 -0.0201
 3301W        W12994   6.605  12.294   1.420 -0.1757 -0.0361 -0.5894
 3302W        W12995  17.817   1.365  11.284  0.0605 -0.3007 -0.1807
 3303W        W12996   4.224   2.324   3.169  0.0373  0.0867 -0.1359
 3304W        W12997  10.683  13.408  12.774 -0.4200 -0.0262 -0.0426
 3305W        W12998   4.241   6.774  14.039  0.1621  0.1344 -0.0901
 3306W        W12999   5.450  14.008   6.233  0.3506  0.1259 -0.0258
 3307W        W13000   5.847  12.145   4.001 -0.1006 -0.0305  0.2697
 3308W        W13001   6.730  14.604  15.421 -0.0268  0.1134  0.2397
 3309W        W13002   1.885  12.743  15.211 -0.3973 -0.1204  0.0370
 3310W        W13003  12.898   2.020   1.041  0.2248 -0.0749 -0.2392
 3311W        W13004  16.915   4.494  14.513 -0.3810 -0.1170 -0.1875
 3312W        W13005   0.940   0.507  15.463 -0.0513 -0.0622  0.0704
 3313W        W13006   4.086  12.466   2.847  0.2598  0.4313  0.3282
 3314W        W13007   4.093   6.154  12.364 -0.2138 -0.0456  0.1229
 3315W        W13008   8.595   4.101  13.556 -0.1819  0.1334 -0.0963
 3316W        W13009   6.694  13.437   2.719 -0.0254  0.0640 -0.1427
 3317W        W13010   6.796  10.143   5.952  0.0829 -0.0204 -0.2024
 3318W        W13011   8.615  13.108  14.481  0.2453 -0.2521 -0.0896
 3319W        W13012  17.298   9.715  16.322  0.1159  0.0105  0.0088
 3320W        W13013   6.284   1.054  17.085 -0.3760 -0.1519  0.0231
 3321W        W13014   9.480  13.431   5.177 -0.2659 -0.0606 -0.2575
 3322W        W13015   7.897   0.969   4.056  0.3148  0.1789 -0.0971
 3323W        W13016   7.735  16.390   2.341  0.1756  0.0626  0.5479
 3324W        W13017   9.198   9.011   0.228 -0.1881  0.4225 -0.0294
 3325W        W13018  13.849   5.691  11.716  0.0008  0.1038  0.2185
 3326W        W13019   8.274  17.803  15.610  0.2510 -0.3541  0.0099
 3327W        W13020   0.571   3.142   2.462 -0.1152  0.1545 -0.2274
 3328W        W13021   7.278   4.905   2.989 -0.1073 -0.3866  0.0911
 3329W        W13022   1.339   4.458  13.083 -0.0965 -0.2725 -0.4233
 3330W        W13023  16.031   6.919   2.251  0.1857  0.0827 -0.6655
 3331W        W13024   7.337  14.270   2.716  0.0102  0.0399  0.1639
 3332W        W13025  17.456  13.060   0.580 -0.4957 -0.0305 -0.3196
 3333W        W13026   2.439  12.684  15.065 -0.3214 -0.0607 -0.1076
 3334W        W13027   7.077  17.563   2.634  0.0623  0.0395 -0.1309
 3335W        W13028   3.453   7.577  17.026 -0.2147 -0.0908 -0.3031
 3336W        W13029  16.893  11.489   2.214 -0.1743  0.2542  0.0988
 3337W        W13030  10.493  14.095  15.410  0.0887 -0.1504 -0.2879
 3338W        W13031   6.884   0.838  11.715 -0.0247 -0.2670 -0.1090
 3339W        W13032   2.462   3.041   1.064  0.3862 -0.2704  0.2179
 3340W        W13033   3.070  10.548   1.070 -0.1126  0.3503 -0.1173
 3341W        W13034   0.968  11.425   4.803 -0.1129  0.0012  0.0877
 3342W        W13035   1.016  15.257   5.881  0.2523  0.2127  0.0294
 3343W        W13036   1.176  16.358   0.066  0.0613  0.3524 -0.0104
 3344W        W13037  15.948   1.272   1.163  0.4306  0.1492 -0.1415
 3345W        W13038   3.823  17.181  15.579 -0.3778  0.0105  0.0048
 3346W        W13039   2.506   4.012  13.429  0.0409 -0.0523  0.1303
 3347W        W13040  16.996   5.559   2.693  0.1520  0.1202  0.3637
 3348W        W13041  11.830   2.570   2.424  0.1942  0.0994  0.1250
 3349W        W13042   0.154   9.722  13.806  0.3209 -0.1410 -0.1593
 3350W        W13043   7.393  11.065  13.768 -0.2228  0.3469 -0.1171
 3351W        W13044   9.891  17.711   5.452  0.0365 -0.1227  0.1505
 3352W        W13045   9.651   2.379  14.702 -0.1109  0.0563 -0.2980
 3353W        W13046   1.782   5.161   1.244 -0.0527 -0.2057 -0.0693
 3354W        W13047   2.472   0.174   5.861 -0.3091  0.2787  0.1068
 3355W        W13048  14.771   7.450  11.972 -0.2259  0.1226  0.1225
 3356W        W13049   1.568   7.723   5.034 -0.2361  0.3210 -0.0146
 3357W        W13050  17.967  12.865   5.330  0.2436 -0.0426 -0.1912
 3358W        W13051   8.966  11.695   5.152 -0.2780  0.2337  0.1561
 3359W        W13052   5.117  13.362   5.439 -0.2991 -0.2602 -0.0480
 3360W        W13053   9.551  13.926   6.130 -0.2393  0.1214  0.2625
 3361W        W13054  16.246   3.698  12.998 -0.0154  0.1942  0.0793
 3362W        W13055   7.778   6.582  15.629  0.0368 -0.0890 -0.0625
 3363W        W13056  17.220  11.178   4.652  0.0095  0.2232 -0.2731
 3364W        W13057   9.142  10.230   3.082  0.1415  0.0532  0.2774
 3365W        W13058   4.705   3.040   2.708  0.2947 -0.0565 -0.1836
 3366W        W13059   9.987   4.000   5.786 -0.1592  0.2661  0.1950
 3367W        W13060   9.893   0.696   3.451  0.1246  0.2733  0.1629
 3368W        W13061   3.866   2.097   2.379  0.1009 -0.1073  0.2880
 3369W        W13062   6.715  15.537   2.501 -0.2219 -0.0386 -0.2679
 3370W        W13063  13.716  13.473  12.433  0.1103 -0.1248 -0.2857
 3371W        W13064   6.702   7.591   2.618 -0.0645 -0.3571  0.1605
 3372W        W13065   9.509  16.497   0.024 -0.0055  0.1996 -0.1899
 3373W        W13066  17.130  13.433   2.839  0.4706  0.1845 -0.1343
 3374W        W13067   1.298  15.726   1.933  0.0612  0.0242 -0.1049
 3375W        W13068  12.228   6.524  12.272 -0.0867  0.0216 -0.0788
 3376W        W13069  13.962   1.745   0.254  0.0246  0.0308  0.0052
 3377W        W13070   3.772  11.932  11.999 -0.0775  0.0742  0.1290
 3378W        W13071   7.524   7.606  15.213 -0.0753  0.0715 -0.3011
 3379W        W13072  11.714  16.886   1.670  0.2184 -0.1408 -0.4068
 3380W        W13073   2.557   2.363  11.894 -0.0017 -0.1505  0.2015
 3381W        W13074  10.591   4.324  16.726  0.1093  0.0398  0.0810
 3382W        W13075  16.522  13.311   4.171 -0.1533 -0.1914 -0.1112
 3383W        W13076   0.408   8.610   0.081  0.0768  0.0077  0.2787
 3384W        W13077  10.221   3.008  14.140  0.3139  0.2197  0.0189
 3385W        W13078   6.130   4.341   5.579 -0.0653  0.1253 -0.0911
 3386W        W13079   9.592  11.851   5.377 -0.0985  0.2572  0.1104
 3387W        W13080  11.275  14.216   1.255 -0.2405  0.1475  0.0193
 3388W        W13081   2.755   8.747  12.611 -0.1670  0.0394 -0.1981
 3389W        W13082   1.257  10.819  14.850  0.0687  0.0840 -0.0505
 3390W        W13083   7.014  12.867   3.817 -0.3073  0.5128 -0.1508
 3391W        W13084   3.639  14.880  15.717 -0.2773 -0.0913  0.1246
 3392W        W13085   5.198   3.488  12.103 -0.0298  0.1624  0.0183
 3393W        W13086  12.061  16.513  11.803  0.0329  0.0584 -0.0511
 3394W        W13087   5.632   3.846   1.781 -0.1030  0.0045 -0.0933
 3395W        W13088   0.135  16.238   1.406  0.0874  0.0123  0.1245
 3396W        W13089   7.039   2.722   0.391 -0.0652 -0.2165 -0.1263
 3397W        W13090   5.907   5.141   5.712 -0.2084  0.0674  0.1190
 3398W        W13091   6.997   9.513  13.588 -0.0302  0.0596  0.0771
 3399W        W13092   7.636   5.353   6.129  0.0114 -0.1394 -0.1049
 3400W        W13093  16.298  12.317   2.982  0.0707 -0.3443 -0.0355
 3401W        W13094   1.970   9.323   0.365 -0.4737 -0.0097 -0.0781
 3402W        W13095   4.699  16.727  12.543 -0.0948  0.4819  0.2067
 3403W        W13096   8.859  11.459  12.832 -0.1924 -0.0382 -0.0712
 3404W        W13097  10.411   8.768  15.981 -0.0903 -0.1651  0.0008
 3405W        W13098  10.073   0.555  17.042  0.0856 -0.0538 -0.0236
 3406W        W13099  17.011  16.885  16.450 -0.1331 -0.2346 -0.1971
 3407W        W13100   2.710   4.228  12.523  0.3700  0.0742 -0.2922
 3408W        W13101   2.942  10.611   3.918 -0.1860  0.1135  0.2617
 3409W        W13102   9.732  16.630  10.642  0.1063  0.1246  0.0409
 3410W        W13103   6.504   8.431  14.959 -0.3785  0.1189  0.2647
 3411W        W13104   9.326   1.334   6.116 -0.3029  0.1644 -0.0822
 3412W        W13105  16.540   9.124  15.359 -0.1794 -0.0932 -0.1899
 3413W        W13106  12.046   4.678   4.806 -0.1987  0.2848  0.1610
 3414W        W13107  10.392  10.925   1.686 -0.0057  0.3310 -0.1893
 3415W        W13108   2.951   6.810  14.849  0.1696  0.0715  0.1348
 3416W        W13109   8.537   6.596   5.845 -0.1977  0.0197 -0.0951
 3417W        W13110   5.958   7.335   1.700  0.0192 -0.4711  0.0915
 3418W        W13111   6.396   7.006   0.835 -0.1472 -0.2978 -0.0392
 3419W        W13112   7.702  15.345   5.236  0.0635 -0.1885 -0.0904
 3420W        W13113   6.718  15.259   4.530 -0.2834  0.0853 -0.2092
 3421W        W13114   3.543  12.277  16.368  0.1415 -0.0411 -0.3063
 3422W        W13115   9.248   0.070  11.468  0.0758  0.0466  0.1694
 3423W        W13116   2.526   0.284   0.846 -0.2216 -0.5514 -0.0140
 3424W        W13117   1.026  15.277  12.012  0.0631  0.1413 -0.1359
 3425W        W13118   4.608   8.427   2.229 -0.3136 -0.1115 -0.0588
 3426W        W13119  17.196  14.596  12.428 -0.2466  0.1247 -0.1209
 3427W        W13120   7.326   3.801   2.145  0.0764 -0.2284  0.2261
 3428W        W13121   7.505   6.192   2.576 -0.1226 -0.2245  0.0669
 3429W        W13122  13.535  16.310  12.269 -0.1077 -0.1503 -0.0517
 3430W        W13123   7.313  11.253  14.897  0.2545  0.3285  0.0926
 3431W        W13124   9.094  11.954   0.079  0.2573  0.1752 -0.0112
 3432W        W13125  16.424   2.390   5.689 -0.5063  0.4540 -0.2537
 3433W        W13126   6.402  10.557  12.831  0.1761  0.1165  0.0875
 3434W        W13127  16.652  16.622   0.296  0.1915  0.2314  0.3244
 3435W        W13128   3.881   7.925  15.023  0.4478  0.1893 -0.3602
 3436W        W13129  10.543   6.910   4.992 -0.1826  0.2334 -0.4089
 3437W        W13130  14.079   3.205   3.234  0.0272  0.0164 -0.0597
 3438W        W13131   5.949   3.505   3.220  0.0317  0.1057 -0.0338
 3439W        W13132  14.892   2.473   5.273 -0.1354 -0.2939  0.2459
 3440W        W13133  17.876   2.484  15.641  0.0681  0.1635  0.3022
 3441W        W13134  11.584   9.768   5.158  0.1468 -0.3923  0.0338
 3442W        W13135   3.245  13.924   0.833 -0.2747 -0.0412 -0.0679
 3443W        W13136  14.207   2.635  11.447  0.2792  0.0873 -0.4510
 3444W        W13137   4.560   2.051  13.615 -0.0106  0.0775 -0.0527
 3445W        W13138   2.655  14.935   2.457 -0.3482  0.1352 -0.1363
 3446W        W13139   3.004   8.266  11.867 -0.2294  0.1267 -0.4613
 3447W        W13140  11.723  10.706   5.387  0.3011 -0.1933 -0.0875
 3448W        W13141   9.219  16.215  11.784  0.2686  0.0572  0.0385
 3449W        W13142   3.372   6.015  13.201  0.1418 -0.0331 -0.0078
 3450W        W13143   8.671   8.489   4.893  0.1291  0.0110  0.2270
 3451W        W13144  17.110  11.758   2.910  0.1290 -0.0641 -0.2187
 3452W        W13145   8.897  10.889   4.622 -0.3737 -0.0959  0.1731
 3453W        W13146   3.366   3.367  12.338  0.1615  0.1067  0.1596
 3454W        W13147   9.358   8.280   2.933  0.0954  0.1414  0.0460
 3455W        W13148  15.626  11.859  14.684 -0.1812  0.1598 -0.4491
 3456W        W13149  16.434   7.752   2.593  0.1186 -0.0641 -0.2633
 3457W        W13150   5.202   1.785   2.126  0.0705  0.0519 -0.1229
 3458W        W13151   7.911   6.205   3.485  0.0397  0.1414 -0.3205
 3459W        W13152  17.112  12.490   3.645  0.0161  0.2397 -0.1557
 3460W        W13153   2.153  16.174  15.989 -0.0142 -0.2492 -0.0214
 3461W        W13154  11.071  12.124  15.819  0.2293 -0.0585 -0.4018
 3462W        W13155  12.130   2.912   6.354  0.0252  0.0498  0.1492
 3463W        W13156   4.648  16.172  16.084  0.3062 -0.0472 -0.0715
 3464W        W13157   9.599   1.116   3.417 -0.1396 -0.3422 -0.1266
 3465W        W13158  15.747  11.772  10.371 -0.0204 -0.0715 -0.0320
 3466W        W13159  15.886   4.009   1.807  0.4129  0.1931 -0.1666
 3467W        W13160  14.537   4.855  13.909  0.1188 -0.1301  0.0207
 3468W        W13161  10.580   6.799  13.909  0.3042  0.1348  0.1107
 3469W        W13162   6.324  12.054   4.206  0.3297  0.4272  0.4590
 3470W        W13163   4.303  17.619   4.078 -0.0796 -0.3059 -0.2038
 3471W        W13164  15.229  16.780  15.805  0.0285 -0.3368 -0.1160
 3472W        W13165   9.181  11.481  12.134  0.0771 -0.1008 -0.0097
 3473W        W13166   8.754   7.500   5.689 -0.2256  0.1908  0.2210
 3474W        W13167   1.324  13.467  12.212  0.1345 -0.0932  0.0415
 3475W        W13168  10.013   1.769  11.881 -0.3392 -0.0266  0.1126
 3476W        W13169   2.015  16.955  11.413  0.3956  0.1972 -0.1919
 3477W        W13170  14.269  17.043  15.968  0.0151  0.0322 -0.0338
 3478W        W13171   9.467  15.941   5.151 -0.0570  0.2237  0.0539
 3479W        W13172  10.608   5.392   1.257 -0.3590  0.0544 -0.1612
 3480W        W13173  11.413  17.120   2.886 -0.1301 -0.0114  0.0214
 3481W        W13174   7.390   0.109   0.281  0.0662  0.2353 -0.0304
 3482W        W13175   7.957   8.602   1.101 -0.0482  0.1554  0.4063
 3483W        W13176  17.368  10.414  17.099  0.0954  0.2839 -0.2607
 3484W        W13177  16.970  15.194   0.792  0.1148  0.3008 -0.0674
 3485W        W13178  10.934   0.918  13.648  0.0327 -0.0669  0.1884
 3486W        W13179  11.494   5.974   1.744 -0.1703  0.0179 -0.0713
 3487W        W13180   1.863  11.116  16.075  0.3554 -0.0420 -0.0416
 3488W        W13181   9.651   8.522  14.046  0.1105  0.2101  0.1887
 3489W        W13182  12.934  11.164  16.134 -0.0687 -0.1121 -0.0693
 3490W        W13183  17.525   6.902  11.505  0.2704  0.1317 -0.0402
 3491W        W13184   1.218  13.497   4.171  0.2958  0.1264 -0.1209
 3492W        W13185  11.916   3.727   5.112 -0.0873  0.0685  0.1171
 3493W        W13186  17.721  15.523  14.902  0.3185 -0.0639  0.1436
 3494W        W13187   8.800  13.539  15.323 -0.1793 -0.0249 -0.0948
 3495W        W13188   5.611   5.143  14.722 -0.0626  0.1658 -0.1817
 3496W        W13189   7.485  13.096  15.886  0.1471 -0.2247  0.1489
 3497W        W13190   0.336   7.687  16.764  0.2590 -0.0622  0.0680
 3498W        W13191   8.819   1.995  11.405 -0.1701  0.2796 -0.0345
 3499W        W13192  10.279  11.405  13.491 -0.2309 -0.0868 -0.1283
 3500W        W13193   5.002  17.584  11.681  0.1442 -0.1791  0.2138
 3501W        W13194  17.424  13.751   5.731  0.2562 -0.0046 -0.0374
 3502W        W13195  17.110  11.774  13.623  0.0698  0.1597  0.0450
 3503W        W13196  13.721   8.035  14.729  0.1378  0.0087 -0.0737
 3504W        W13197   4.233   8.973   6.416 -0.2548  0.2077 -0.0563
 3505W        W13198   0.062   8.908   2.076 -0.1010  0.0341 -0.1546
 3506W        W13199   2.366   0.496   3.427  0.1036  0.0296 -0.0749
 3507W        W13200   5.888  16.786   5.913  0.0621  0.1466 -0.1268
 3508W        W13201  16.563   2.867  15.943 -0.0995 -0.1786 -0.3744
 3509W        W13202   4.604   0.062   4.001 -0.1605  0.1374  0.1219
 3510W        W13203   7.873  10.473   5.840 -0.1131  0.0570 -0.0179
 3511W        W13204  12.531   5.837  13.672  0.3196  0.0767 -0.1123
 3512W        W13205   7.311  10.851  12.514  0.1092  0.0290 -0.1315
 3513W        W13206   4.205  14.499   6.096  0.3471 -0.0594  0.2397
 3514W        W13207   0.316   8.826  13.408 -0.0687  0.0081  0.5066
 3515W        W13208   1.338   3.216   0.799 -0.3765 -0.0719 -0.0793
 3516W        W13209   9.773   6.265  13.625  0.0684 -0.1588 -0.4908
 3517W        W13210   7.356  14.207   4.486  0.1076 -0.1220  0.0982
 3518W        W13211   2.600   3.273   2.342 -0.1998  0.1091  0.1321
 3519W        W13212  15.272   0.006   0.239 -0.1673  0.0887 -0.3380
 3520W        W13213   7.209   2.090   4.792  0.0005  0.1637  0.1886
 3521W        W13214   5.142  11.098   2.370  0.2407  0.0334 -0.2334
 3522W        W13215   7.811  10.291   2.172 -0.1234 -0.2007  0.1687
 3523W        W13216   3.925  13.575   6.970 -0.1682 -0.0853  0.0632
 3524W        W13217  11.083   8.214  12.791  0.4887  0.2126 -0.2495
 3525W        W13218   2.666   0.825  13.900 -0.0177 -0.0532 -0.0021
 3526W        W13219  10.152   8.688   0.583  0.0834  0.2256 -0.0199
 3527W        W13220  15.356   5.376   5.002 -0.0800 -0.0564 -0.1578
 3528W        W13221   1.794  11.864  11.759 -0.1201 -0.2218  0.0804
 3529W        W13222  16.311  17.931   2.265 -0.3031  0.3111 -0.0292
 3530W        W13223   1.150  11.531   5.556 -0.1986 -0.1314 -0.1273
 3531W        W13224   4.077  12.199   4.689 -0.3448  0.3418 -0.1232
 3532W        W13225  12.391   5.983   3.312 -0.1099  0.0148  0.1351
 3533W        W13226   3.218  12.566  16.230  0.0606  0.0472 -0.2063
 3534W        W13227   5.996   1.626   5.956  0.4283 -0.1583  0.0691
 3535W        W13228  10.790  11.395  15.299  0.1194  0.2969 -0.2024
 3536W        W13229  14.688   0.843  14.896  0.2155  0.1656 -0.1568
 3537W        W13230   6.153   0.760   2.882  0.2850  0.1513 -0.1153
 3538W        W13231   1.635   8.450  13.941  0.1813 -0.1389 -0.0362
 3539W        W13232   6.211  17.467   0.499 -0.3947  0.1893 -0.0271
 3540W        W13233   2.066   6.596   1.238  0.0200 -0.2064  0.1421
 3541W        W13234  13.359   9.627   1.135 -0.1857 -0.1629 -0.1399
 3542W        W13235   5.082   9.053  12.218  0.1280 -0.4217  0.0100
 3543W        W13236   2.146   5.381   6.019  0.0516 -0.0105  0.0205
 3544W        W13237   8.069  14.501   5.267  0.0088 -0.1245  0.2002
 3545W        W13238   4.011  15.814   2.282  0.0110  0.0637  0.0470
 3546W        W13239  17.206   2.106   5.527 -0.2759 -0.3505 -0.1750
 3547W        W13240   2.381   4.104  12.189  0.2544  0.2574 -0.0448
 3548W        W13241  10.478   1.683  12.364 -0.2154 -0.1393 -0.0948
 3549W        W13242  14.949  10.349   2.082  0.1571  0.1745  0.0021
 3550W        W13243  11.598   2.116  14.981 -0.1162  0.1688 -0.1491
 3551W        W13244  13.564   9.263   0.942  0.1662  0.0558  0.1089
 3552W        W13245   8.869   4.379   6.307 -0.0500  0.1159  0.2250
 3553W        W13246   3.585  11.097   4.895 -0.0458  0.2311 -0.1387
 3554W        W13247   5.489   6.138  13.674  0.0461 -0.1496  0.0903
 3555W        W13248  17.380   1.424  15.608 -0.2272 -0.3064 -0.2434
 3556W        W13249   4.697   2.151   1.432 -0.3929  0.0225 -0.2855
 3557W        W13250  11.001   2.972   2.513 -0.1874  0.3536 -0.1651
 3558W        W13251   3.803   8.407   4.961  0.0342 -0.3945 -0.1935
 3559W        W13252   0.398   4.215  11.115 -0.0446  0.1422 -0.1614
 3560W        W13253  13.474   1.010  12.784  0.1159  0.0532  0.0813
 3561W        W13254   3.859   1.005   2.703  0.0477 -0.0594  0.2403
 3562W        W13255  12.206   7.288  14.172 -0.3508 -0.0207  0.2063
 3563W        W13256   0.217  15.035   1.552  0.0430 -0.1103  0.1317
 3564W        W13257   0.076   8.038  13.966  0.0699 -0.1001 -0.0953
 3565W        W13258   3.323   8.364  16.719 -0.0122 -0.0735  0.0108
 3566W        W13259   1.429   2.370   5.155 -0.1820  0.0237 -0.1500
 3567W        W13260   7.147  13.940  14.013 -0.0733  0.1028  0.1941
 3568W        W13261  11.737  14.056   5.421  0.0341  0.0192  0.3147
 3569W        W13262   1.809  11.378  12.426  0.2965 -0.0134  0.0250
 3570W        W13263   7.603   5.260   3.055 -0.2795  0.0764 -0.1622
 3571W        W13264   5.227  10.965  13.820  0.4645 -0.0320  0.2405
 3572W        W13265   7.354   4.780   1.968 -0.2816  0.2038  0.3937
 3573W        W13266  14.980  12.880   1.002 -0.1985  0.0453  0.2115
 3574W        W13267   0.022   7.944   0.894  0.2393 -0.2064  0.3139
 3575W        W13268  15.468   1.188   0.986 -0.1503 -0.1362 -0.0705
 3576W        W13269   3.256   4.841  16.678 -0.0748 -0.2565 -0.1003
 3577W        W13270   2.094   9.860   5.627 -0.3087 -0.0396  0.1440
 3578W        W13271   3.323  16.020  11.814 -0.0589 -0.1879 -0.4262
 3579W        W13272   9.565   7.956  15.256 -0.0139  0.2439 -0.3700
 3580W        W13273  15.475   7.368  13.722  0.0418 -0.0081  0.1782
 3581W        W13274  13.174   2.401   0.796 -0.1337  0.0352 -0.0752
 3582W        W13275   3.643  12.701   2.632 -0.4133  0.1900  0.0186
 3583W        W13276   1.699  12.356   0.291  0.2814  0.0052 -0.3208
 3584W        W13277  17.782   0.932  13.851 -0.0680  0.2130 -0.1887
 3585W        W13278  17.360   7.564   5.558 -0.1537 -0.1818  0.1166
 3586W        W13279  16.532   8.320  13.548  0.1395  0.1642 -0.2187
 3587W        W13280   6.545   5.143  16.008 -0.0932 -0.1722  0.2971
 3588W        W13281  11.051   1.430   3.027 -0.0583  0.0603  0.0707
 3589W        W13282  17.952   0.116   0.347 -0.0265 -0.2571  0.1594
 3590W        W13283  13.355   9.577  12.882 -0.1909 -0.1973  0.3142
 3591W        W13284   6.271  13.367   4.664  0.0805  0.1207 -0.1298
 3592W        W13285  10.238   3.832  15.571 -0.0947 -0.1267 -0.2006
 3593W        W13286   5.140  11.086   3.413 -0.1631 -0.1330 -0.0387
 3594W        W13287   6.365  17.208  11.908  0.1481  0.1791 -0.1533
 3595W        W13288  15.313  17.071  17.051 -0.1682  0.1312 -0.1293
 3596W        W13289  15.943   0.667   2.704 -0.3003 -0.3009 -0.1882
 3597W        W13290   7.111  13.467   1.955  0.0178 -0.2301 -0.1149
 3598W        W13291   3.723   3.462  16.506 -0.0422  0.1004 -0.0112
 3599W        W13292   5.074  12.695   1.721  0.2426 -0.1471  0.1171
 3600W        W13293   6.360   1.827  16.633 -0.1578  0.2249  0.2192
 3601W        W13294   3.479   5.787   4.854  0.1239 -0.3210  0.0259
 3602W        W13295   0.077   8.498  15.016  0.0616  0.1017  0.0613
 3603W        W13296  13.813   3.626   3.337 -0.0406 -0.1799  0.0038
 3604W        W13297  15.613  10.127  15.851 -0.0122 -0.0053  0.1827
 3605W        W13298   7.026   8.913   4.722  0.0564 -0.0482  0.0713
 3606W        W13299   4.657   4.956   4.507  0.0505 -0.1344 -0.1773
 3607W        W13300   1.108   3.136  14.233  0.0703  0.1456  0.0854
 3608W        W13301   4.679  13.985  15.408 -0.2620 -0.1209  0.0290
 3609W        W13302   8.574   1.757   0.010  0.1035 -0.1965 -0.2618
 3610W        W13303  15.399   8.045  15.376  0.0693  0.0758  0.2533
 3611W        W13304   8.156  14.961   0.604  0.0675  0.0373 -0.2226
 3612W        W13305   5.405   3.052  15.955 -0.1848  0.2405  0.0293
 3613W        W13306   0.735  17.486   1.521 -0.0632  0.1233 -0.0258
 3614W        W13307   6.314  13.324  16.633  0.0777 -0.1249 -0.0705
 3615W        W13308  10.500   0.458   2.291  0.1287  0.1015  0.1262
 3616W        W13309   8.717   5.512   5.457  0.0908 -0.2336  0.2277
 3617W        W13310   6.511   6.322   5.097  0.1484 -0.0626 -0.1693
 3618W        W13311   3.109  13.592  13.937  0.0624 -0.1668  0.1283
 3619W        W13312   3.749   8.554   3.402  0.0089 -0.4192  0.3662
 3620W        W13313   3.131   4.220   2.092  0.1134 -0.0884  0.2193
 3621W        W13314   5.073  14.652   1.640 -0.0570  0.2097  0.0832
 3622W        W13315   8.630   4.196   4.380 -0.0357 -0.0551  0.1425
 3623W        W13316   7.208   1.206  12.808 -0.2497 -0.1137  0.1667
 3624W        W13317   4.690   8.148   6.536  0.0181  0.4809 -0.1079
 3625W        W13318   0.408   2.944   1.568  0.2989  0.2760  0.1472
 3626W        W13319   7.778   4.531   0.427 -0.2331  0.2107  0.2012
 3627W        W13320   5.213   0.826   1.398  0.2032 -0.2158 -0.4706
 3628W        W13321   3.047  14.289   4.016  0.3311  0.1391  0.1310
 3629W        W13322   5.431  16.324  13.331 -0.0999  0.1836 -0.1327
 3630W        W13323  16.132   0.883   3.922 -0.1562 -0.2286 -0.1308
 3631W        W13324   4.267  10.184  12.174  0.3264 -0.1636 -0.2457
 3632W        W13325  17.646  16.768  11.108  0.1778 -0.0352 -0.3877
 3633W        W13326   5.460   5.601  15.086  0.0854  0.0543 -0.0286
 3634W        W13327   7.791  12.143   5.212 -0.0807  0.1023  0.2206
 3635W        W13328   5.304   9.658   2.793 -0.2343 -0.0225 -0.0585
 3636W        W13329  11.948  10.263  13.127 -0.0869 -0.0964 -0.2287
 3637W        W13330   7.776   0.768   2.510  0.1947 -0.0210  0.2302
 3638W        W13331   9.823  12.940   0.711  0.1881 -0.1529  0.3674
 3639W        W13332   2.721   2.514   1.186  0.2048 -0.0576  0.1116
 3640W        W13333   3.481   0.388  16.750 -0.2392  0.0767  0.1256
 3641W        W13334  10.974   1.498  15.578 -0.0223  0.0479  0.1820
 3642W        W13335   7.502  15.440  11.722  0.1274  0.1250  0.2335
 3643W        W13336   5.677  13.294  15.958  0.1027 -0.0481 -0.1398
 3644W        W13337   6.014   2.313  14.340  0.3012 -0.1806 -0.0296
 3645W        W13338   5.442   2.598  11.965 -0.2763 -0.0844 -0.0574
 3646W        W13339  12.908  13.293  14.867  0.1316 -0.1197  0.0883
 3647W        W13340  12.345   0.673  14.511 -0.1751  0.3363 -0.0422
 3648W        W13341  16.063  11.404  12.963  0.0893 -0.0098 -0.2742
 3649W        W13342   4.164  11.846  12.912  0.1076 -0.0909 -0.1249
 3650W        W13343   1.927  10.670   2.551 -0.1278  0.0523 -0.0020
 3651W        W13344   8.918   4.929  14.245 -0.4582 -0.1022  0.1704
 3652W        W13345   2.958   6.062   1.642  0.0818  0.2156  0.2149
 3653W        W13346   7.934  12.926   1.609  0.0950  0.0295 -0.1098
 3654W        W13347   8.675  12.231   1.922 -0.1151 -0.1059 -0.0699
 3655W        W13348   6.711   3.194   3.718 -0.1355  0.2199  0.0609
 3656W        W13349   8.207   4.886   1.752 -0.1560 -0.0036  0.0863
 3657W        W13350   8.477  10.502   6.482 -0.3154  0.2171 -0.2497
 3658W        W13351   9.327  15.756   2.145 -0.0126  0.1060  0.1811
 3659W        W13352   5.446   2.111  11.698 -0.1643  0.3737  0.2469
 3660W        W13353  14.296   2.392  15.756  0.0138 -0.1434 -0.0256
 3661W        W13354  10.207  10.731  12.715 -0.0482  0.0294 -0.0989
 3662W        W13355   2.689  17.285  12.223 -0.0871  0.0583  0.0916
 3663W        W13356  17.304   7.112   0.585 -0.1354  0.1185  0.2372
 3664W        W13357   7.976  13.258   2.090 -0.0337  0.0699 -0.2064
 3665W        W13358   5.409  15.499  16.504  0.0870  0.3703 -0.0052
 3666W        W13359  10.313  14.344  12.073 -0.1271  0.1926 -0.3046
 3667W        W13360   9.744  10.046   3.410 -0.0792 -0.1675 -0.0475
 3668W        W13361  12.965   5.734   4.564 -0.2950  0.0679 -0.0318
 3669W        W13362   3.237  14.657   2.431 -0.2369 -0.0448 -0.1613
 3670W        W13363   4.613   8.257  16.607  0.1658  0.2207 -0.4680
 3671W        W13364   5.873  11.674  12.044 -0.3290  0.1373 -0.0778
 3672W        W13365  14.864  17.413   2.968 -0.0103 -0.0547 -0.0744
 3673W        W13366   3.958  12.770  11.351  0.1703 -0.1321  0.1369
 3674W        W13367   2.986  16.651  13.039  0.0455 -0.0146  0.1776
 3675W        W13368   8.380   2.701  16.350  0.0644 -0.0409 -0.1450
 3676W        W13369   4.184   7.387  15.534 -0.4231  0.3644 -0.0559
 3677W        W13370  11.938   4.408  16.422 -0.0788 -0.1665 -0.2271
 3678W        W13371   8.687  14.515   3.098  0.1390  0.0699  0.2617
 3679W        W13372  12.485   1.257   2.813  0.5089  0.3038 -0.1443
 3680W        W13373   1.416  16.066  14.557  0.1310 -0.2518 -0.3204
 3681W        W13374   5.290  13.765  11.321 -0.1899 -0.2296 -0.1441
 3682W        W13375   4.348   0.906   2.674 -0.2346 -0.2040  0.0688
 3683W        W13376   3.420   2.606   0.375  0.3105  0.1615 -0.0422
 3684W        W13377  17.455   3.261  12.496 -0.1082 -0.2731 -0.1469
 3685W        W13378   9.852   1.442   3.749  0.0925  0.1513 -0.1999
 3686W        W13379   8.947  10.331   3.983  0.1872 -0.1424  0.3036
 3687W        W13380   5.139  11.193  12.140  0.4175  0.0068  0.0645
 3688W        W13381   1.381  15.501   0.527 -0.3158  0.2927 -0.3970
 3689W        W13382  10.113   4.193   2.611 -0.1981 -0.0365 -0.0430
 3690W        W13383   3.583  15.803  13.666  0.0037 -0.4127 -0.2327
 3691W        W13384   2.698  11.436  12.467 -0.1192  0.2330  0.3417
 3692W        W13385   2.716  11.731  13.449 -0.0324 -0.1920  0.0461
 3693W        W13386  15.161   0.115   2.873  0.0386 -0.1316 -0.0902
 3694W        W13387   7.440  12.476  13.119 -0.2090 -0.1911  0.1799
 3695W        W13388   8.469  12.655   5.423 -0.4369  0.0374  0.1885
 3696W        W13389   5.908   0.552   1.374  0.1050 -0.0055 -0.1669
 3697W        W13390   9.937  14.849   0.553 -0.0397 -0.0243  0.1822
 3698W        W13391  13.443  14.283  15.016  0.0119 -0.1613  0.0723
 3699W        W13392   9.236  13.843   5.219  0.1544 -0.0918 -0.0246
 3700W        W13393  13.057  10.269   1.166  0.3824  0.1344  0.3661
 3701W        W13394  13.315   7.545  12.576 -0.0730 -0.0565  0.0541
 3702W        W13395  17.960  10.837   1.131 -0.2660  0.1382 -0.0655
 3703W        W13396   2.565   1.956  11.534  0.0230  0.1015 -0.0574
 3704W        W13397   7.433   3.057   4.273  0.1355  0.0794  0.2950
 3705W        W13398  15.925  14.093  14.944 -0.0094  0.0783  0.0835
 3706W        W13399   1.019  13.740  12.767  0.0579 -0.0139 -0.2818
 3707W        W13400  16.767   1.680   1.978 -0.0571 -0.1729  0.0402
 3708W        W13401   7.624   6.363  14.053 -0.1397  0.1401  0.1460
 3709W        W13402   7.255  10.338  15.027  0.1699  0.3935  0.0089
 3710W        W13403   7.652   3.135  16.118  0.2168  0.1085 -0.0584
 3711W        W13404   5.082  15.558   0.818 -0.2936 -0.0709  0.2154
 3712W        W13405   7.221  11.391   6.450  0.0032 -0.2525  0.0665
 3713W        W13406  13.876  12.923  15.832 -0.1437  0.4349  0.0936
 3714W        W13407   6.090   0.439   4.791 -0.0974 -0.0626  0.1044
 3715W        W13408  10.173  11.917   0.106  0.0186  0.0461  0.0258
 3716W        W13409   2.586   7.731   4.322 -0.2963 -0.1511  0.1388
 3717W        W13410   3.122   9.626   5.424  0.0049 -0.2206  0.0326
 3718W        W13411   4.292   2.426  13.003  0.3197 -0.1598  0.1017
 3719W        W13412   7.835  11.249  16.305 -0.3249  0.2064  0.1720
 3720W        W13413  11.467   8.920  13.757  0.2206  0.1973  0.0931
 3721W        W13414   2.046  11.379  14.806  0.1028 -0.3935 -0.2518
 3722W        W13415   7.766   3.795   4.089  0.0283  0.2745  0.0211
 3723W        W13416   2.277   7.985   0.865  0.2290 -0.0342  0.1743
 3724W        W13417  10.744   3.798   2.711 -0.0993  0.0784  0.1950
 3725W        W13418   3.995  10.290  11.642 -0.1476 -0.0496 -0.1592
 3726W        W13419   4.570  14.028   5.234  0.5363 -0.1163 -0.3148
 3727W        W13420   4.768  10.446  15.625 -0.0465  0.0019 -0.0448
 3728W        W13421   2.428   7.880  15.636 -0.2290 -0.4902  0.3559
 3729W        W13422   8.956  15.666   1.754  0.0022 -0.1042 -0.1385
 3730W        W13423   4.195   2.405  12.458 -0.0308  0.3276  0.1762
 3731W        W13424   9.067   3.814   3.666  0.0202  0.3479 -0.5351
 3732W        W13425   4.519   6.561  14.502 -0.1811 -0.0478  0.2419
 3733W        W13426   1.775   4.078  16.958 -0.1387 -0.0877 -0.2955
 3734W        W13427   6.880   4.969  14.103  0.1074  0.1257 -0.2148
 3735W        W13428  16.763   0.378   0.960  0.1541 -0.0288 -0.0622
 3736W        W13429   3.485   5.639  15.296 -0.1736 -0.0562  0.0680
 3737W        W13430   2.709  17.303   6.227 -0.1212  0.0315 -0.0852
 3738W        W13431   2.477   8.613  14.910  0.0700 -0.0406 -0.1859
 3739W        W13432   6.128   9.958   2.639 -0.1217  0.1565  0.0243
 3740W        W13433   6.612   5.099   3.503  0.2403  0.3995 -0.1077
 3741W        W13434   1.895  13.695  10.644  0.1366  0.0445  0.1255
 3742W        W13435  16.046   3.699  13.466  0.2030  0.2337 -0.3083
 3743W        W13436   7.493  11.226  14.224 -0.1081  0.4164  0.2316
 3744W        W13437   2.191  11.739  15.095 -0.0293 -0.1044 -0.0938
 3745W        W13438   3.984  12.060   4.194  0.0938 -0.0950  0.0329
 3746W        W13439   2.495   0.424   2.501 -0.0328 -0.1429  0.2867
 3747W        W13440  15.896   7.497  14.780  0.2658 -0.2715  0.2660
 3748W        W13441   7.091   4.430  13.369 -0.3563 -0.0844  0.0516
 3749W        W13442  12.023   4.270  16.955 -0.0892  0.0265 -0.2431
 3750W        W13443   2.645   9.983  11.250  0.1746  0.1274 -0.0452
 3751W        W13444  14.324   2.631  13.331  0.0955  0.0132  0.2828
 3752W        W13445   5.256  15.086   4.691  0.0727  0.0184  0.1069
 3753W        W13446   9.474   6.694   6.259 -0.1028 -0.1711  0.0182
 3754W        W13447   8.563   7.491   2.132  0.1180  0.1483  0.2292
 3755W        W13448   8.453  12.652   1.106 -0.0747 -0.0877 -0.0073
 3756W        W13449   5.723  13.042  15.538  0.0016 -0.0899  0.1249
 3757W        W13450   9.624  15.210   4.004 -0.1428  0.0482  0.1482
 3758W        W13451  17.554   5.344  16.582 -0.2151 -0.1667  0.3008
 3759W        W13452   7.267   7.838   4.522  0.0714 -0.1954 -0.0777
 3760W        W13453  12.358  13.824  11.520  0.6060 -0.0112  0.0842
 3761W        W13454   0.752  11.797   1.857  0.0027 -0.0625 -0.0198
 3762W        W13455   6.233  16.356  13.647 -0.2427  0.2646 -0.2346
 3763W        W13456   2.805  15.101  14.789  0.0619 -0.0487  0.0390
 3764W        W13457   2.924   9.682  14.358  0.0462 -0.1239 -0.0595
 3765W        W13458   7.780   6.921   4.704  0.1419 -0.0435 -0.0855
 3766W        W13459   5.807  13.920  16.295  0.2122  0.1107  0.3208
 3767W        W13460  11.921   8.074  11.310  0.1841  0.0554 -0.0814
 3768W        W13461   7.916   1.145   3.177 -0.2522 -0.1274 -0.0812
 3769W        W13462   3.136   6.655  13.743 -0.1011 -0.1056 -0.1918
 3770W        W13463   7.529  17.664   3.569  0.1640  0.2468  0.4345
 3771W        W13464  10.073   0.576   0.802 -0.0450  0.0591 -0.1440
 3772W        W13465   5.535   7.401  15.353  0.1650 -0.0357  0.1259
 3773W        W13466   7.341   0.361  14.699 -0.1885  0.2077  0.3362
 3774W        W13467   7.466  16.423  12.850  0.1207 -0.0845 -0.3364
 3775W        W13468   7.363   2.650   2.512  0.2232  0.0510 -0.2699
 3776W        W13469   2.559   8.409  15.411 -0.0352  0.0585  0.0552
 3777W        W13470   8.953  12.950   2.414  0.1147 -0.4949 -0.1317
 3778W        W13471   9.038  12.829   6.436 -0.1838 -0.1343  0.1058
 3779W        W13472   3.508   0.607  14.837 -0.1690  0.0794  0.1285
 3780W        W13473   1.481   5.329   5.264 -0.2108  0.2249 -0.2275
 3781W        W13474  10.489   7.654   2.585  0.2554  0.3131  0.0377
 3782W        W13475  15.357   1.547  12.270 -0.0031  0.3509 -0.1196
 3783W        W13476   9.959   1.161  13.899  0.2207  0.3741 -0.0270
 3784W        W13477   3.843   6.167  16.698 -0.1394  0.2063 -0.0830
 3785W        W13478  10.692   4.926   0.985 -0.2743  0.2040 -0.1957
 3786W        W13479   8.802  10.377   4.411 -0.0216 -0.0796  0.3318
 3787W        W13480  14.251  16.443  15.087 -0.2996  0.1028 -0.1406
 3788W        W13481   8.674  12.478  14.587 -0.1225  0.0605  0.3549
 3789W        W13482  17.826  12.125   5.748  0.2760 -0.0405  0.1198
 3790W        W13483   3.905  13.499   2.642  0.1238  0.0653 -0.0721
 3791W        W13484   2.835  15.759   0.659 -0.2816 -0.2049 -0.3249
 3792W        W13485   6.455   9.528   0.621  0.1481  0.1369 -0.0568
 3793W        W13486   2.277  16.610   0.133  0.2219  0.0607  0.0424
 3794W        W13487   0.775   7.989  11.046 -0.1159  0.0839 -0.1067
 3795W        W13488  17.211  10.995   3.253 -0.3010 -0.1646 -0.0032
 3796W        W13489   4.066   8.928   1.569 -0.4196 -0.0603 -0.1816
 3797W        W13490  14.614  10.997   4.744 -0.0357  0.1369  0.2794
 3798W        W13491  16.965   8.633  14.968 -0.4116 -0.0032  0.2772
 3799W        W13492   5.145  13.168   4.873 -0.0593  0.1208  0.2113
 3800W        W13493   2.594  12.823  15.909 -0.1553 -0.0276 -0.0403
 3801W        W13494  16.436  12.166   3.514  0.0189 -0.1707 -0.2302
 3802W        W13495   6.304   9.317  13.144  0.3060 -0.0257  0.3658
 3803W        W13496  17.810   8.137  12.179 -0.0103 -0.1865  0.1734
 3804W        W13497   6.619  10.286   4.762 -0.4103  0.1391  0.1111
 3805W        W13498  11.186   3.049   5.181 -0.2038  0.1445 -0.0253
 3806W        W13499  11.567   2.065  15.992 -0.1747 -0.3454  0.2250
 3807W        W13500   2.235   0.182  15.844  0.3077  0.2430 -0.0411
 3808W        W13501  13.216   1.617   4.517 -0.0279 -0.1345  0.2310
 3809W        W13502   8.171   9.338  16.248  0.1799 -0.0467 -0.3864
 3810W        W13503   2.793  13.922   5.897 -0.1459 -0.2096  0.2722
 3811W        W13504  16.614   8.520  11.484 -0.2026 -0.1483 -0.3846
 3812W        W13505  16.892  11.482  16.912 -0.1214  0.3051  0.1109
 3813W        W13506   5.357  15.959   0.623 -0.1212 -0.3302  0.1495
 3814W        W13507   8.527   8.541  11.813  0.1584 -0.0951  0.1132
 3815W        W13508   1.720   6.059   0.928  0.1953 -0.0436  0.2196
 3816W        W13509   8.192  14.558   0.270  0.2456  0.1346 -0.0811
 3817W        W13510   7.482  16.411  16.330  0.0118  0.0125 -0.4595
 3818W        W13511   5.017  17.919  12.134 -0.0459 -0.1099 -0.3596
 3819W        W13512  11.316   2.618  12.893  0.1010 -0.1394 -0.0408
 3820W        W13513   3.399  12.517  14.037 -0.2470  0.1553  0.4082
 3821W        W13514  11.138  11.274  15.614  0.1903  0.0656  0.0700
 3822W        W13515   5.754  17.709   0.389  0.2016 -0.1133  0.2447
 3823W        W13516   0.465   0.074  13.718 -0.0667 -0.0630  0.0213
 3824W        W13517  10.545  13.094   4.446 -0.5267 -0.0207 -0.0054
 3825W        W13518  15.997  15.385   0.247  0.1267 -0.0624 -0.1657
 3826W        W13519   0.069   9.734  16.707  0.1120  0.0422  0.1895
 3827W        W13520   7.882  16.386   4.471  0.1955  0.1743  0.2345
 3828W        W13521   1.529   7.648   3.297 -0.1076 -0.1301  0.3733
 3829W        W13522  12.906   5.831   5.084 -0.0555 -0.1179 -0.1011
 3830W        W13523  17.969   7.929   0.349 -0.0167 -0.2121 -0.2139
 3831W        W13524  12.964  17.781  13.852  0.0645 -0.0228 -0.0703
 3832W        W13525   2.815   8.436   0.768 -0.0284 -0.2520 -0.0233
 3833W        W13526  17.633   6.460  12.237 -0.0904 -0.1643 -0.0118
 3834W        W13527   5.308   0.524   0.412  0.1836  0.0270  0.0954
 3835W        W13528   4.168   4.888  16.284  0.0421  0.1207  0.2723
 3836W        W13529  13.573   3.419   4.318  0.1811 -0.0221  0.0749
 3837W        W13530   1.900   5.318  17.080  0.2056 -0.0486  0.1555
 3838W        W13531  15.341   5.223  16.419 -0.1674  0.3514  0.2858
 3839W        W13532   9.123   3.963   0.479  0.2138 -0.1494 -0.1200
 3840W        W13533   3.764  14.664   5.183 -0.0626 -0.0424 -0.0903
 3841W        W13534   2.948   3.452  11.928  0.2922 -0.1733 -0.0709
 3842W        W13535   8.632  10.031  13.529 -0.1389 -0.0709  0.0600
 3843W        W13536   3.032  13.081  13.732 -0.1655  0.0047  0.2696
 3844W        W13537   6.149  15.760  12.759  0.1784  0.1439 -0.0202
 3845W        W13538  17.682  14.441  14.702  0.1232  0.0417  0.0134
 3846W        W13539   9.484   8.151   2.354 -0.0853  0.1435 -0.0119
 3847W        W13540  17.041   3.095  12.214  0.1275  0.2681  0.0323
 3848W        W13541   2.517   0.135   4.145  0.0357 -0.0961 -0.0605
 3849W        W13542   4.383   9.742   1.567  0.4160  0.1697 -0.0479
 3850W        W13543   5.534   7.709  12.567 -0.0366 -0.0823 -0.0907
 3851W        W13544   5.860  17.774  14.931 -0.1266  0.2618  0.1080
 3852W        W13545   8.926   7.498   6.139 -0.3545  0.0063 -0.0191
 3853W        W13546   4.497   5.473  15.572 -0.0564  0.2032  0.0050
 3854W        W13547  10.487  14.930  15.233  0.0562  0.1295 -0.1695
 3855W        W13548   0.053  10.497  11.505  0.1744 -0.0729 -0.2598
 3856W        W13549  12.845  13.115   4.028 -0.0042  0.0353  0.1234
 3857W        W13550   7.694   9.907  14.882 -0.2132 -0.2376  0.1029
 3858W        W13551  11.151   3.065   4.218  0.0819  0.3731 -0.2668
 3859W        W13552   9.210   6.855   2.311 -0.0025 -0.1842 -0.0230
 3860W        W13553  12.914  10.948  12.457 -0.1853 -0.0310  0.1543
 3861W        W13554   2.613  12.410  14.585  0.1161 -0.0725  0.1295
 3862W        W13555  14.297   8.719  16.852  0.0960 -0.0892 -0.1580
 3863W        W13556  17.385   8.156  11.123 -0.0253 -0.3456  0.2122
 3864W        W13557   2.972   5.268   5.562 -0.2821 -0.0838 -0.1569
 3865W        W13558   4.412  14.399  12.084 -0.1658  0.1104  0.0408
 3866W        W13559   2.447   6.530  15.706 -0.1376 -0.2843 -0.0965
 3867W        W13560   7.707   2.192   1.715  0.3598 -0.0326 -0.0656
 3868W        W13561  15.446  12.684   1.180  0.2563 -0.0557 -0.1117
 3869W        W13562  17.905  16.870   3.743  0.1491 -0.1260  0.0448
 3870W        W13563   6.534  13.332  13.408  0.0390 -0.0667 -0.0891
 3871W        W13564   8.741   2.358   2.676  0.1086 -0.1130  0.0156
 3872W        W13565   7.703   3.926   2.958  0.3510 -0.0489 -0.2550
 3873W        W13566   6.244   4.678  15.737 -0.1048 -0.1965  0.1014
 3874W        W13567   2.529   9.225  12.719 -0.0352  0.0923  0.2085
 3875W        W13568   8.331   0.318  16.190 -0.0512  0.1375 -0.1869
 3876W        W13569  14.507  14.992  11.334 -0.2584 -0.0518  0.0619
 3877W        W13570  10.972  12.183  14.631  0.2215  0.0563  0.1421
 3878W        W13571   3.851   9.704   2.272  0.1377 -0.0523  0.2260
 3879W        W13572  12.013  16.515  15.130 -0.0269  0.1889  0.0043
 3880W        W13573   3.235  13.392   1.935 -0.3038  0.0315  0.0781
 3881W        W13574   6.648  16.882   3.827 -0.3253  0.0224  0.1993
 3882W        W13575   9.384   7.957  16.941  0.1983  0.2428 -0.2076
 3883W        W13576   4.972  12.851  16.743 -0.3028  0.0184 -0.0630
 3884W        W13577  14.859   5.030   2.186 -0.5678 -0.0116 -0.1225
 3885W        W13578   3.722   6.589   4.845 -0.1884 -0.0517 -0.0666
 3886W        W13579   3.986  13.594  14.188 -0.3469  0.1410  0.3992
 3887W        W13580  10.049   7.421   1.605  0.0536  0.1814  0.0372
 3888W        W13581   7.973  14.670   5.948 -0.1234  0.1736  0.0005
 3889W        W13582  10.374   0.472  12.368 -0.0441  0.0992  0.2442
 3890W        W13583  14.186   2.353   4.917  0.1360 -0.0912 -0.2671
 3891W        W13584   4.132   8.187   3.692  0.0471 -0.0357  0.2417
 3892W        W13585  10.774  14.230  11.708 -0.0762  0.2076 -0.1427
 3893W        W13586   9.569  12.344   5.255  0.0655  0.2986 -0.0610
 3894W        W13587   0.364  16.014   1.874  0.2812  0.1637  0.0425
 3895W        W13588   0.311   9.534  12.567 -0.0221  0.3389  0.0638
 3896W        W13589   5.953   4.785  14.010 -0.1839  0.1441  0.1761
 3897W        W13590   4.616   6.881   5.785 -0.2544  0.1247 -0.1697
 3898W        W13591  14.380   7.780   1.151 -0.2482 -0.0380 -0.1270
 3899W        W13592   7.038   4.557   2.241  0.3201 -0.1099  0.1506
 3900W        W13593   5.797   3.464  16.495 -0.3085  0.1466  0.1821
 3901W        W13594  17.316   9.984  14.582 -0.1548 -0.3137 -0.2141
 3902W        W13595   3.842   5.017   1.926 -0.2609  0.0219 -0.1136
 3903W        W13596   5.420   7.619   1.633  0.0278 -0.1452 -0.1583
 3904W        W13597  15.612  14.497   0.178 -0.2972  0.1031 -0.0229
 3905W        W13598   9.037   0.322  15.217 -0.3201 -0.0390  0.1148
 3906W        W13599   5.845  12.018  12.450 -0.0184 -0.1382  0.4940
 3907W        W13600   5.116   3.165   3.511 -0.0887 -0.1502 -0.0623
 3908W        W13601   9.103   9.297  15.506 -0.0116 -0.1103  0.0496
 3909W        W13602   2.067   6.900   0.709  0.2032 -0.3353  0.3223
 3910W        W13603  17.257   2.371   3.827  0.6214  0.3876 -0.0474
 3911W        W13604   9.816   1.895   1.065 -0.0334 -0.1198 -0.0095
 3912W        W13605  12.738   8.426   4.987  0.0270 -0.1754  0.1251
 3913W        W13606   4.291  15.765   3.384 -0.1991  0.0460  0.0810
 3914W        W13607   6.013  17.799  13.675 -0.1108 -0.0304 -0.0095
 3915W        W13608   3.730  15.598  14.312 -0.0174 -0.0409 -0.1145
 3916W        W13609   9.425  14.931  16.375 -0.0199 -0.0082 -0.2054
 3917W        W13610   5.638   1.342  12.750  0.0795 -0.0753  0.1533
 3918W        W13611   2.958  13.591  15.473  0.2606 -0.3200 -0.1636
 3919W        W13612   9.351  11.527   6.183  0.2925 -0.0964  0.2356
 3920W        W13613   2.892   3.689   5.468 -0.1201  0.1925  0.3020
 3921W        W13614   6.799  12.623   3.330 -0.0070  0.1221 -0.1479
 3922W        W13615  15.602  12.740   4.380  0.0796  0.0110  0.1706
 3923W        W13616   9.891   6.489  17.097  0.0655  0.0471 -0.3537
 3924W        W13617   1.999   6.228  14.013 -0.4741  0.1140  0.0672
 3925W        W13618   4.778   8.454   4.318 -0.1570 -0.4707  0.0181
 3926W        W13619   2.153  10.731  15.254  0.3111  0.1372 -0.1149
 3927W        W13620   5.315   8.566  12.819 -0.1480 -0.3646  0.0256
 3928W        W13621   6.411   7.444   5.845 -0.3453 -0.0766 -0.1613
 3929W        W13622   7.846   3.771   4.834 -0.0360  0.2700 -0.0610
 3930W        W13623   6.968   5.959   0.817  0.0823  0.3440 -0.1992
 3931W        W13624   8.642   7.682   5.207 -0.1341 -0.0761  0.1448
 3932W        W13625   4.548  11.859  15.326 -0.0720  0.2084 -0.1203
 3933W        W13626   2.070  15.019   0.652  0.0930  0.0725 -0.1153
 3934W        W13627   0.453   3.396   0.273 -0.0481  0.1842 -0.2338
 3935W        W13628   6.643  13.589  14.326  0.1570  0.1520  0.0511
 3936W        W13629   6.798   5.900   4.459 -0.1575 -0.0266  0.3603
 3937W        W13630   5.064   9.210   2.631  0.1726 -0.0085  0.1226
 3938W        W13631   1.453  17.362  11.272  0.0577 -0.0773 -0.2278
 3939W        W13632   2.275   9.337  15.533  0.2721  0.0652  0.0226
 3940W        W13633   2.376  17.128   4.164 -0.0428  0.0969  0.4998
 3941W        W13634   1.482   2.793  15.793  0.5873 -0.0650 -0.1018
 3942W        W13635   9.808  12.523   3.235  0.1893  0.0578  0.3973
 3943W        W13636  10.315   4.981  14.599 -0.0481 -0.0035  0.1939
 3944W        W13637  15.222   1.197   2.756  0.3413  0.1029 -0.0920
 3945W        W13638   9.900   9.898  14.239  0.0763 -0.0652  0.0293
 3946W        W13639   7.768  12.829   2.130 -0.1477  0.0186  0.0754
 3947W        W13640   4.576   3.815  16.911  0.1517 -0.1613  0.1490
 3948W        W13641   6.950   9.520   6.150 -0.2631  0.0422 -0.3577
 3949W        W13642  16.481   0.827   1.829  0.0550 -0.4456  0.0677
 3950W        W13643  13.610   4.744   5.816  0.0393  0.3838  0.0081
 3951W        W13644   4.603   4.544  12.593  0.2166 -0.0165  0.0381
 3952W        W13645  10.754   1.110  14.517  0.3676 -0.2855  0.2015
 3953W        W13646   1.835  16.703  12.619 -0.0066  0.0064 -0.0141
 3954W        W13647   5.844  16.049   5.401  0.1581 -0.0352 -0.1233
 3955W        W13648   9.005   4.310   3.033  0.1210 -0.2858 -0.0397
 3956W        W13649   6.347  16.259  15.469  0.1806 -0.0505  0.1184
 3957W        W13650  13.707   2.215   5.116  0.0554  0.0847 -0.2788
 3958W        W13651   4.654  13.198  16.033 -0.0044 -0.0534  0.1215
 3959W        W13652  12.579   8.917  15.681 -0.0858  0.1024 -0.0992
 3960W        W13653   2.925   4.305   5.283  0.0323 -0.3005 -0.0699
 3961W        W13654   2.288   2.993   3.315 -0.0775  0.0359 -0.0493
 3962W        W13655  10.835   5.555  12.746 -0.3260  0.2590 -0.0069
 3963W        W13656  11.963   5.900   1.721  0.1802 -0.1884 -0.0246
 3964W        W13657  11.257  11.640   3.896 -0.2467  0.0108 -0.0853
 3965W        W13658   7.331  13.507  10.983 -0.0895  0.0361 -0.1160
 3966W        W13659   2.648  10.502  16.145 -0.3058  0.2197 -0.0797
 3967W        W13660   0.069   0.727  13.465  0.2951 -0.0726 -0.1975
 3968W        W13661   7.142   6.365   2.892 -0.1108 -0.0849  0.0019
 3969W        W13662   2.734  13.806   5.384 -0.2173  0.0367  0.1382
 3970W        W13663   0.398   6.304   0.040 -0.0419  0.2885  0.0754
 3971W        W13664   8.696   8.165   0.322  0.0240 -0.0023 -0.0129
 3972W        W13665   8.651  13.622   6.515 -0.1093  0.0730  0.0738
 3973W        W13666   4.410   3.650  14.739 -0.0228 -0.2286  0.2077
 3974W        W13667   9.592  14.443   3.943  0.1378 -0.2173  0.2555
 3975W        W13668  12.757  13.069   1.039  0.2708 -0.1952  0.1077
 3976W        W13669   9.961  13.181   6.157  0.3011 -0.0715  0.0340
 3977W        W13670   0.989  12.214  13.139 -0.0240  0.1815 -0.0821
 3978W        W13671   6.623   4.443   2.584  0.0657 -0.2413  0.0462
 3979W        W13672  11.510   2.534   0.773 -0.0109  0.0577  0.1269
 3980W        W13673   1.779  13.222   5.447  0.0893 -0.0767 -0.4414
 3981W        W13674  13.472  13.103   3.397 -0.1380 -0.0717 -0.2584
 3982W        W13675   4.264  16.638   3.077  0.0051  0.1475 -0.2921
 3983W        W13676   5.096   1.656   5.547 -0.2036  0.0139 -0.0444
 3984W        W13677   4.559   5.200   5.852  0.0641 -0.1709  0.2498
 3985W        W13678   6.937   2.903   5.162 -0.2799  0.2861  0.4283
 3986W        W13679   9.373   5.430  12.472 -0.3896  0.3818 -0.1425
 3987W        W13680  17.539  17.323  11.904  0.1861 -0.0931  0.0131
 3988W        W13681  16.945   6.228   3.333 -0.1656  0.0275  0.0075
 3989W        W13682  10.306   4.408   4.737  0.1566  0.0974 -0.1510
 3990W        W13683   8.247   0.898  13.360  0.0834 -0.0650  0.1071
 3991W        W13684   0.137  17.199   2.503  0.0583  0.1133  0.0255
 3992W        W13685  12.916  11.206   0.697  0.2243  0.1947 -0.1438
 3993W        W13686   9.100   6.374   6.332  0.3970 -0.0571 -0.1456
 3994W        W13687   6.062   5.444   4.718  0.0684  0.2824 -0.2267
 3995W        W13688  10.491  13.010   3.949  0.1118 -0.0352 -0.2183
 3996W        W13689   3.618  16.840   4.178  0.0950 -0.1105  0.0171
 3997W        W13690  13.556   8.802  16.037  0.3580  0.1878  0.2553
 3998W        W13691   8.717   3.035  16.601  0.0433 -0.0155  0.0301
 3999W        W13692   0.226   3.046   2.032 -0.0160  0.2234 -0.1250
 4000W        W13693   2.354  13.074   0.568  0.0603  0.2601 -0.4548
 4001W        W13694   2.534  14.398  14.980  0.1063  0.2148  0.2021
 4002W        W13695  10.956   0.952   1.280  0.1440 -0.1843 -0.2511
 4003W        W13696   5.514   8.191  12.163 -0.0944 -0.2477 -0.1415
 4004W        W13697   3.443  16.655  12.583  0.1046  0.2190  0.2162
 4005W        W13698  11.836  12.847   1.245  0.1677 -0.1456 -0.1914
 4006W        W13699  12.654   0.276   4.302 -0.1481  0.0648 -0.2847
 4007W        W13700   0.838   3.231   3.067 -0.2965  0.0799 -0.3971
 4008W        W13701  10.312   1.023  12.948 -0.1994  0.0576  0.2522
 4009W        W13702  17.380   3.298  14.255 -0.1679  0.1752  0.1194
 4010W        W13703   8.226  12.809  16.128  0.2339  0.3156  0.4271
 4011W        W13704   6.558   1.615   5.619 -0.0050  0.0635 -0.0575
 4012W        W13705   5.891  14.185   6.527  0.0315  0.0630  0.1621
 4013W        W13706  17.741   5.500   4.745 -0.0215  0.1744 -0.1181
 4014W        W13707  11.950   1.269   0.225  0.0782 -0.0370  0.0986
 4015W        W13708  17.084  12.058  12.553  0.3188 -0.3516 -0.1728
 4016W        W13709   6.216   3.906   2.993 -0.0651  0.1243 -0.1138
 4017W        W13710   4.613   7.940  12.334 -0.0010 -0.3125 -0.0728
 4018W        W13711   7.264   1.061  14.166 -0.0926  0.0513 -0.0682
 4019W        W13712   4.881  14.066  11.050  0.0016  0.0587  0.0726
 4020W        W13713   0.197   9.795   3.117 -0.2387  0.0223  0.0633
 4021W        W13714   5.575  12.910   2.065 -0.2136 -0.0387 -0.0682
 4022W        W13715   2.431   6.233   3.707  0.2520 -0.0160 -0.0314
 4023W        W13716   0.549   4.717   5.464  0.0801  0.1616  0.1672
 4024W        W13717   6.479  14.587  14.548  0.2786  0.0632 -0.1693
 4025W        W13718   3.404   0.180   1.846  0.0517  0.0724  0.2904
 4026W        W13719   9.912   6.929   5.468 -0.2099 -0.1718 -0.2434
 4027W        W13720   9.998   4.865  12.225 -0.0975 -0.0208 -0.2585
 4028W        W13721   1.764   9.038  12.013  0.1939 -0.2208 -0.0966
 4029W        W13722  16.183   6.312  12.897  0.3357 -0.2819  0.0470
 4030W        W13723   4.241   5.023  15.619 -0.1845  0.1780  0.1137
 4031W        W13724   5.608   1.633   6.425  0.3792  0.0338  0.0643
 4032W        W13725   1.129  12.594  16.714  0.1122 -0.1374  0.1061
 4033W        W13726  15.262   0.967  14.873 -0.2825 -0.0767  0.2158
 4034W        W13727   1.983   9.700  15.788  0.2745 -0.0189 -0.4713
 4035W        W13728  12.977  15.565   1.899  0.0314  0.2006  0.1016
 4036W        W13729   5.344  11.808   1.307 -0.2678  0.1179  0.3524
 4037W        W13730  13.986   3.476  12.111 -0.0747  0.1145 -0.0242
 4038W        W13731   0.211   0.683  12.613 -0.1137 -0.1493 -0.0471
 4039W        W13732   2.543  17.643   1.087  0.5885 -0.2482 -0.0485
 4040W        W13733  17.701   7.491  14.662  0.0806  0.2419 -0.0323
 4041W        W13734   4.174   1.196  13.700  0.0281  0.1639 -0.1005
 4042W        W13735  14.635  17.120   3.413 -0.0995  0.2051 -0.2089
 4043W        W13736   2.576  16.255  16.309 -0.1759  0.4460  0.0885
 4044W        W13737   6.977   1.299  15.054 -0.4146  0.0790 -0.1548
 4045W        W13738  10.411  12.032  16.639 -0.0469 -0.0669  0.3751
 4046W        W13739  11.804  15.105  15.582 -0.2139  0.2594 -0.1142
 4047W        W13740   8.591   9.331   5.646  0.1205 -0.0188 -0.1076
 4048W        W13741  14.755   7.831  16.943 -0.1290 -0.1894 -0.2466
 4049W        W13742  17.075   0.902   0.711  0.0881 -0.0463  0.1006
 4050W        W13743   5.378   0.639  17.033 -0.3931 -0.2305  0.1471
 4051W        W13744   8.402   1.132   1.472  0.2236  0.3460  0.0749
 4052W        W13745   6.638   1.783  12.877  0.1221 -0.0648  0.3151
 4053W        W13746   7.670  12.344   4.300 -0.0097 -0.1580  0.0714
 4054W        W13747  11.005  14.215  16.431  0.1868  0.1199  0.0216
 4055W        W13748   4.317   6.885   4.450  0.0952  0.2170 -0.2229
 4056W        W13749   5.852   2.839  12.242 -0.3498  0.0034  0.1257
 4057W        W13750  10.119   1.120   3.388 -0.2939 -0.3320 -0.5190
 4058W        W13751   6.942   4.846  13.023 -0.0763 -0.0239  0.2069
 4059W        W13752   5.508  16.743   2.491 -0.2394 -0.1157  0.2553
 4060W        W13753   6.309   3.434   0.253  0.1067  0.0378  0.1737
 4061W        W13754   2.053  17.738   2.000  0.0886 -0.0891  0.2445
 4062W        W13755   4.716   8.916  16.740  0.2712  0.0230 -0.0873
 4063W        W13756   5.931   6.534   6.305  0.1868 -0.1150  0.0905
 4064W        W13757   8.015   3.780  14.992  0.1726  0.0396 -0.1747
 4065W        W13758  17.170  14.506  16.808 -0.0170 -0.0846  0.1058
 4066W        W13759   6.231   4.113   3.471 -0.2476 -0.0452 -0.2982
 4067W        W13760   4.645   7.785   6.176 -0.1449  0.2665  0.2983
 4068W        W13761   0.903   4.130  14.149  0.1266 -0.1252 -0.1236
 4069W        W13762  10.919  11.076   4.645  0.2663  0.1115 -0.1835
 4070W        W13763   5.078  17.260  16.497  0.1784 -0.0172  0.2962
 4071W        W13764   1.096  11.019  10.754 -0.1264 -0.1492  0.1056
 4072W        W13765   9.337   1.093   0.214 -0.3323  0.3367 -0.0221
 4073W        W13766   0.471   5.415   0.884  0.2031 -0.1117 -0.1786
 4074W        W13767  10.041  16.150   5.171  0.0159 -0.0415  0.0116
 4075W        W13768   4.411  11.506   4.891 -0.0432 -0.0240  0.0674
 4076W        W13769  15.561  13.199  14.321  0.2582 -0.1780  0.3872
 4077W        W13770  12.494  12.644   5.423  0.0206  0.1421  0.1428
 4078W        W13771   0.412   4.992  15.973  0.0021 -0.0233  0.1608
 4079W        W13772   1.305   5.936  15.783 -0.1788 -0.3529  0.2140
 4080W        W13773   1.945  14.078   1.786 -0.0593 -0.3009  0.1207
 4081W        W13774   2.087   9.447  16.994 -0.0363  0.0521 -0.2245
 4082W        W13775   4.645   2.831  12.223  0.1779 -0.2246 -0.0178
 4083W        W13776  17.480   3.961  14.742 -0.1353 -0.2746 -0.2326
 4084W        W13777   9.991  15.813   4.730  0.2959 -0.2782  0.2491
 4085W        W13778   0.904  12.813  15.928  0.4170 -0.3059  0.0527
 4086W        W13779   3.586  15.986  11.299 -0.0093  0.0059 -0.2935
 4087W        W13780   7.476   4.030   4.465  0.2786  0.2264  0.0259
 4088W        W13781   9.684   7.040  14.845 -0.0872 -0.0726  0.0273
 4089W        W13782  15.029   0.620  13.334 -0.2217  0.2176  0.3190
 4090W        W13783   2.727   9.026   2.878 -0.2702  0.3611  0.0109
 4091W        W13784   6.334   7.306   1.951 -0.0435 -0.1420 -0.7029
 4092W        W13785   5.124   1.090  12.664  0.0317  0.0474  0.2470
 4093W        W13786   0.387  12.708   0.962  0.0397 -0.0201  0.3087
 4094W        W13787   3.591   7.015  13.549  0.2532 -0.0787  0.1723
 4095W        W13788   9.997   7.120   0.177  0.0976  0.3243 -0.1465
 4096W        W13789  17.249  13.582  14.709 -0.1066 -0.0895 -0.0824
 4097W        W13790   7.577  16.272   0.559 -0.1032 -0.1712 -0.0030
 4098W        W13791   4.938  15.476  16.052 -0.2320  0.1394  0.0564
 4099W        W13792  12.632  17.921  11.732 -0.2260 -0.3332 -0.1458
 4100W        W13793   4.361  17.094   1.016 -0.0489  0.0293 -0.1689
 4101W        W13794  17.703   6.428   1.695 -0.1012 -0.0097  0.1885
 4102W        W13795   4.448  13.991  13.012  0.0894  0.1643 -0.4405
 4103W        W13796   4.551   9.983  14.636 -0.4045  0.0309 -0.4952
 4104W        W13797   5.393   2.763   3.626 -0.0051  0.2081  0.2342
 4105W        W13798   5.215  11.578  16.116 -0.1366  0.0687  0.0642
 4106W        W13799  15.738   3.103   2.532  0.1215  0.1209  0.0181
 4107W        W13800   9.969  15.080   5.874 -0.0259  0.2263  0.3084
 4108W        W13801   2.913  12.812  16.820  0.1659  0.1063  0.1484
 4109W        W13802   6.622  12.466   2.368  0.3654  0.0040  0.1909
 4110W        W13803   1.691   9.965  16.198 -0.0943  0.1444 -0.1136
 4111W        W13804   6.900  17.296  16.937 -0.2773 -0.1106  0.1493
 4112W        W13805   3.854   4.957  11.942 -0.0335 -0.0375  0.1617
 4113W        W13806  17.975   6.649  11.328  0.2376 -0.0999  0.0338
 4114W        W13807   7.355   2.612   4.637 -0.2549 -0.0761 -0.2582
 4115W        W13808  11.999   4.448   4.331 -0.1677  0.0124 -0.0354
 4116W        W13809  13.748  14.903   2.069 -0.1145  0.1962  0.2655
 4117W        W13810   6.024   1.484   3.621  0.0277 -0.1118  0.2881
 4118W        W13811   5.930  10.452   1.261  0.1158 -0.0613 -0.1142
 4119W        W13812   5.468  12.482   5.050  0.0353  0.0764  0.0736
 4120W        W13813  14.288  11.554   5.050  0.0941 -0.1283 -0.0803
 4121W        W13814  11.170  16.696  14.873 -0.0458 -0.0212  0.1635
 4122W        W13815   4.038   3.897   5.725  0.0683  0.0531 -0.0253
 4123W        W13816   3.743  17.344   1.266  0.0699 -0.1914 -0.5343
 4124W        W13817  11.620   0.930   3.514  0.0071  0.2357  0.2482
 4125W        W13818   4.429   2.804  16.233 -0.2522  0.3426  0.1312
 4126W        W13819   3.406   1.093   2.008  0.1782  0.0817 -0.0761
 4127W        W13820   7.013  15.588   1.158  0.0043 -0.1796 -0.2860
 4128W        W13821   1.237   4.613  16.622  0.0066  0.0036  0.3522
 4129W        W13822   5.185  14.220   0.704 -0.1637  0.4236 -0.1037
 4130W        W13823   7.958   5.402   1.765 -0.2655  0.0935  0.0188
 4131W        W13824   8.544   1.411  12.796 -0.1512  0.0999 -0.3447
 4132W        W13825   9.425  13.241   3.678 -0.0584  0.2087  0.0609
 4133W        W13826   7.947  12.813  12.272  0.1183 -0.0347 -0.2042
 4134W        W13827   9.524  16.230   3.880  0.0953  0.0345 -0.1276
 4135W        W13828   9.777  14.345   3.041  0.1142 -0.1406 -0.0021
 4136W        W13829  11.126  15.505  14.951 -0.0238  0.2891 -0.0175
 4137W        W13830   9.519  12.511  16.773  0.0255 -0.0047  0.2012
 4138W        W13831   7.831  14.461   0.608  0.5743  0.0441  0.0564
 4139W        W13832  17.646  16.542  13.042  0.0827 -0.1384 -0.2135
 4140W        W13833   0.165   5.853   1.029 -0.0218  0.1770  0.0158
 4141W        W13834   6.088  11.883   1.982  0.2365  0.1617 -0.1325
 4142W        W13835   4.609   3.347  17.090  0.1594 -0.2392 -0.2609
 4143W        W13836   9.854  15.511   4.351  0.1122 -0.4703  0.1960
 4144W        W13837   2.627  16.655   3.904  0.0166  0.1161  0.0938
 4145W        W13838   5.282   2.541   4.488  0.1836  0.1055 -0.0930
 4146W        W13839   1.840   7.820   0.563  0.1508 -0.3621 -0.1322
 4147W        W13840   5.238   6.570  14.995  0.3014 -0.0382 -0.0495
 4148W        W13841   5.877  10.664   4.320  0.4488  0.1102  0.3849
 4149W        W13842  17.782  15.252   1.356 -0.0995 -0.1548  0.0844
 4150W        W13843   4.970   5.092   5.468 -0.0649 -0.0732 -0.1293
 4151W        W13844   3.313   7.067   4.247  0.1817  0.1665  0.1212
 4152W        W13845   9.754  14.464   4.440 -0.1484 -0.1298  0.2169
 4153W        W13846  17.377  16.949   6.006  0.0030  0.2003 -0.0253
 4154W        W13847  10.669  12.957   5.888  0.1087  0.0660  0.1100
 4155W        W13848   6.861  13.858  12.708  0.1729 -0.5108 -0.0661
 4156W        W13849   3.056   1.318  15.656  0.4686 -0.1406 -0.1052
 4157W        W13850   4.390   6.931  15.604  0.2325  0.2415  0.0762
 4158W        W13851   8.344  10.487   4.159 -0.1294 -0.2697 -0.0786
 4159W        W13852   7.244   5.305  12.843 -0.1027 -0.0415 -0.1431
 4160W        W13853   6.493  17.814  13.613 -0.3311 -0.1548 -0.2251
 4161W        W13854   2.156  14.205  13.617 -0.0422 -0.1421 -0.1927
 4162W        W13855   4.224   5.245  13.085  0.1008  0.0107 -0.1596
 4163W        W13856  10.517   8.984   0.338  0.1465  0.2875  0.2495
 4164W        W13857   7.719   1.091  12.184  0.1688 -0.1490  0.0751
 4165W        W13858   7.374  10.766   0.065  0.0522 -0.1738 -0.0736
 4166W        W13859  16.506   9.269  13.511  0.2052 -0.0366  0.0144
 4167W        W13860   7.958   2.604   1.084 -0.0256 -0.1097  0.3328
 4168W        W13861   5.737  15.452  12.024 -0.0718 -0.0658  0.0226
 4169W        W13862  10.380   8.944   3.446 -0.1133 -0.0045  0.4226
 4170W        W13863   3.346   9.134   1.918  0.2506 -0.1625  0.0044
 4171W        W13864  13.697   0.132  13.328  0.0916 -0.1491 -0.1173
 4172W        W13865   1.570  15.791  16.676 -0.1360  0.0529 -0.2328
 4173W        W13866  17.734   3.524   5.546 -0.1113 -0.0696  0.1208
 4174W        W13867  11.235   7.973  16.579 -0.0154  0.3171  0.2232
 4175W        W13868   9.991  14.662  12.866 -0.0734 -0.1142  0.2177
 4176W        W13869  17.518   0.021  13.500 -0.0610 -0.2322  0.3610
 4177W        W13870   7.432   2.712   0.839  0.1704 -0.1056 -0.0063
 4178W        W13871  12.650   9.419  14.018 -0.1944 -0.4722  0.0853
 4179W        W13872   7.074   1.257  13.678  0.3562 -0.1806  0.0801
 4180W        W13873   0.188  10.813  11.922 -0.0132 -0.1088  0.3214
 4181W        W13874   4.707   7.276  16.551 -0.0589  0.1222 -0.0853
 4182W        W13875  10.887  15.748   4.390  0.1669 -0.2090 -0.1897
 4183W        W13876  14.807   4.935  12.183  0.0013 -0.0044 -0.2552
 4184W        W13877  15.928  16.454   1.705 -0.0217 -0.1563  0.2498
 4185W        W13878   3.219   8.147  16.189 -0.0338 -0.0271  0.1291
 4186W        W13879   9.886   0.154   4.144  0.0706 -0.0412 -0.0897
 4187W        W13880  10.031  10.177  13.530 -0.0936  0.0360  0.0670
 4188W        W13881   9.582   7.580   0.902 -0.0113  0.2484  0.1579
 4189W        W13882  16.371   4.062   2.011  0.0331 -0.1533 -0.1181
 4190W        W13883  17.271   3.732   0.545 -0.1457  0.1978  0.2032
 4191W        W13884   6.199  16.106  13.195 -0.2519 -0.2071 -0.0129
 4192W        W13885   2.870   2.623   3.863  0.0379 -0.0977 -0.1829
 4193W        W13886  17.116   6.918  16.534  0.1170  0.1245  0.0984
 4194W        W13887   8.733   5.694  13.911 -0.0370  0.1219  0.2243
 4195W        W13888   9.727  14.560  15.656 -0.1575  0.1213  0.1479
 4196W        W13889   0.129   6.272   5.763 -0.0322  0.1340 -0.1803
 4197W        W13890  13.026  16.461   3.128  0.0168 -0.0505  0.1946
 4198W        W13891   7.429  15.609  15.054 -0.2475  0.1028  0.1200
 4199W        W13892   2.564   0.096   3.628 -0.1841 -0.0852  0.3053
 4200W        W13893   7.868   0.139   5.891  0.2919 -0.1452  0.2049
 4201W        W13894   3.667   4.499  16.838  0.0841  0.1529  0.1673
 4202W        W13895   7.313   1.485   1.691  0.0112 -0.2661  0.0105
 4203W        W13896   3.593  12.048   4.596  0.1069  0.3584 -0.2021
 4204W        W13897   7.740  14.826   2.150  0.3532  0.0725 -0.0351
 4205W        W13898   9.573  16.056  12.517 -0.0398  0.1804 -0.2302
 4206W        W13899   0.927   9.491   5.450 -0.0849 -0.0898  0.0435
 4207W        W13900   0.544  14.170   1.799  0.2432  0.2324 -0.2000
 4208W        W13901   8.474   0.145  12.070  0.0329  0.1743 -0.1726
 4209W        W13902   3.324   9.148  11.005 -0.2136  0.1048  0.0821
 4210W        W13903   8.891   2.389   5.984  0.3886  0.0537  0.0013
 4211W        W13904   9.628  12.684   1.610 -0.1331  0.2193 -0.0837
 4212W        W13905   3.587   0.516  16.253 -0.1664 -0.0301  0.4192
 4213W        W13906  16.403  17.373  16.242 -0.0818  0.0343  0.1655
 4214W        W13907   9.323   9.800   5.975  0.0474  0.1151 -0.1622
 4215W        W13908  15.928  11.071  15.989 -0.3996 -0.2001  0.2754
 4216W        W13909  17.600  10.352   5.703  0.1751  0.1471  0.3905
 4217W        W13910   5.513  15.836   3.490  0.4103 -0.0072  0.0933
 4218W        W13911  13.290  11.507  13.468 -0.2345 -0.1963 -0.0048
 4219W        W13912   2.030   1.119  15.856 -0.3906  0.3815  0.0902
 4220W        W13913   5.821  16.667  14.274 -0.1699 -0.2127 -0.2072
 4221W        W13914   4.839   7.294   5.587  0.3234  0.0819  0.0340
 4222W        W13915  12.975   4.507   4.494  0.1354 -0.3085 -0.3250
 4223W        W13916   3.812   7.242   6.073  0.0831 -0.0422 -0.0921
 4224W        W13917   0.959   8.574   2.870  0.1463 -0.0827 -0.1576
 4225W        W13918  17.391  17.370   4.220  0.0998 -0.0623  0.1535
 4226W        W13919   8.588   8.941  14.795 -0.0857 -0.1540  0.0113
 4227W        W13920  17.822  17.019   1.638 -0.0967 -0.0722 -0.1916
 4228W        W13921   9.806   6.829   0.671  0.0002  0.0444  0.2164
 4229W        W13922   6.584  12.402  11.978 -0.1506  0.1611  0.1107
 4230W        W13923   6.981   0.269  14.153 -0.2381 -0.0606 -0.3323
 4231W        W13924  10.738   7.151  17.105  0.2875  0.1201  0.0492
 4232W        W13925   9.798   1.987   3.214  0.0869 -0.0080 -0.0575
 4233W        W13926   3.549   6.211   0.382 -0.0604  0.1777  0.1481
 4234W        W13927  11.938   1.351  16.516  0.1755 -0.2274  0.1809
 4235W        W13928   1.669   5.161  14.184 -0.3255 -0.0606 -0.0259
 4236W        W13929   6.752  14.282  13.894  0.0684  0.0728  0.0473
 4237W        W13930   3.643   1.761   4.755 -0.1590 -0.4266 -0.2254
 4238W        W13931   5.535   1.282   4.705  0.0536  0.0557 -0.3309
 4239W        W13932  14.925  14.377   1.421 -0.0559  0.2688 -0.1552
 4240W        W13933   0.744  13.387  12.450  0.1014 -0.2353 -0.0128
 4241W        W13934   7.302  14.396  16.806  0.1472 -0.0139  0.1240
 4242W        W13935   1.394  12.740  15.372 -0.2103  0.0594  0.4376
 4243W        W13936  10.290   9.749   0.602  0.0829  0.0253 -0.0217
 4244W        W13937  13.771   5.758  13.495  0.2132  0.0167 -0.1800
 4245W        W13938  16.550  11.908  16.791  0.1853  0.0898 -0.1802
 4246W        W13939   1.589   0.047  13.033 -0.0908 -0.0792  0.1048
 4247W        W13940  13.853   4.768   4.695  0.0795 -0.2031 -0.1073
 4248W        W13941  13.109  13.940   4.301 -0.3357 -0.1366  0.2807
 4249W        W13942   6.293  12.801  12.215  0.3604 -0.0355 -0.1472
 4250W        W13943   0.939  16.544   0.745  0.0457  0.0569 -0.0119
 4251W        W13944  15.406   0.134  15.592 -0.0058 -0.0493 -0.1002
 4252W        W13945   5.186  13.098  13.681 -0.0744  0.0709 -0.1255
 4253W        W13946   4.419  12.360   4.360 -0.2041  0.0871  0.0150
 4254W        W13947  16.951  17.472   1.961 -0.2075 -0.0543  0.3985
 4255W        W13948   2.138  11.850   2.701 -0.0438  0.0388  0.0489
 4256W        W13949   4.519   7.702   2.969 -0.0196  0.1552 -0.1730
 4257W        W13950   6.242  17.656   6.318  0.5090 -0.0800  0.3065
 4258W        W13951   4.122   9.190  14.831  0.1915 -0.0377 -0.2693
 4259W        W13952   6.662   7.579   1.588  0.1208 -0.2097  0.0897
 4260W        W13953  17.725   9.055  14.754 -0.4161 -0.2236  0.0133
 4261W        W13954  12.074   6.998   3.559  0.1282  0.1950  0.1718
 4262W        W13955   3.371   7.214   5.880 -0.0802 -0.2238  0.1609
 4263W        W13956   0.832   0.458  10.767 -0.0639 -0.3614 -0.2812
 4264W        W13957   3.022   4.784  14.503  0.3565 -0.3858 -0.0342
 4265W        W13958  13.616  11.701   5.453 -0.0700 -0.2898  0.1889
 4266W        W13959   7.057   5.000   2.523 -0.0141 -0.0075 -0.0074
 4267W        W13960  10.490  10.556  13.609 -0.0531  0.0924  0.0310
 4268W        W13961  11.142   3.913  14.857 -0.0262 -0.1565 -0.0870
 4269W        W13962   7.721   7.850   4.787 -0.1707  0.3736  0.0944
 4270W        W13963   7.790   5.514   5.401 -0.0414 -0.1195 -0.1358
 4271W        W13964   3.564   2.229  13.059  0.1560  0.0417  0.1335
 4272W        W13965   4.838  10.363   5.487  0.0217  0.2496 -0.1890
 4273W        W13966   9.891   4.824   6.772 -0.2092 -0.0445  0.0096
 4274W        W13967  16.042   2.970  16.944  0.1537  0.0722 -0.1158
 4275W        W13968   8.635   2.401  14.569  0.1054 -0.1647  0.0700
 4276W        W13969   3.435  13.062   5.397 -0.0442 -0.1654  0.0274
 4277W        W13970   0.446  13.135   5.178 -0.1852 -0.0827  0.2948
 4278W        W13971   1.916   2.910   3.665 -0.0126 -0.0629  0.0349
 4279W        W13972  11.785   0.374   1.856 -0.0481  0.1996 -0.1324
 4280W        W13973   2.585  14.400   5.917 -0.4129 -0.1550 -0.0308
 4281W        W13974   3.588   2.704  15.749 -0.0782 -0.2648 -0.1286
 4282W        W13975   7.690   8.445   3.049  0.2378 -0.1891  0.1958
 4283W        W13976   2.002   4.743   2.907  0.0257 -0.0733 -0.2777
 4284W        W13977   5.235   7.496  13.526 -0.3285 -0.2301  0.1037
 4285W        W13978  17.938   6.198   2.095  0.0708 -0.4712 -0.0598
 4286W        W13979   4.283   2.125   6.406  0.0226  0.1756 -0.1419
 4287W        W13980  13.310  13.605  11.902  0.1215 -0.1852  0.1039
 4288W        W13981   7.334  14.454   2.256  0.2164  0.2079 -0.0235
 4289W        W13982   8.074  16.431   5.050 -0.0961 -0.0110  0.0179
 4290W        W13983   3.020   8.868  12.985 -0.0549  0.2530  0.0841
 4291W        W13984   2.443   1.515   3.091  0.4023  0.1829 -0.0254
 4292W        W13985   9.640   4.942   1.085  0.1135  0.3506 -0.0694
 4293W        W13986   5.389   8.008  16.191  0.2361  0.1197 -0.0054
 4294W        W13987  15.941  11.335   3.371 -0.2071 -0.0544 -0.0036
 4295W        W13988  15.425   7.125  14.299 -0.0127  0.2209 -0.0691
 4296W        W13989   5.617  10.428  15.298  0.3777  0.0994 -0.0077
 4297W        W13990   9.047   9.690  15.202  0.0860  0.3113 -0.0283
 4298W        W13991   5.007   9.042  12.748 -0.0403 -0.1661 -0.2289
 4299W        W13992  14.640   5.272   1.320  0.0034  0.0333  0.1634
 4300W        W13993  15.721   4.014   5.038  0.3301  0.0176 -0.2572
 4301W        W13994   1.731   8.695   5.106  0.0186 -0.0103 -0.0921
 4302W        W13995  14.514  12.032  15.494 -0.1930  0.0824 -0.5410
 4303W        W13996   3.740   1.288   3.450  0.5134 -0.4013 -0.1351
 4304W        W13997   4.656  17.701   5.021  0.2027  0.1164 -0.1175
 4305W        W13998   9.448   3.113   0.206 -0.0851  0.0468  0.3587
 4306W        W13999   5.385  10.678   3.244 -0.0518 -0.0478 -0.2216
 4307W        W14000  17.538  15.865  15.272  0.2164  0.0135  0.1624
 4308W        W14001   6.485   8.355   2.681  0.0683  0.2823 -0.1915
 4309W        W14002  17.306  15.272  13.950 -0.0834 -0.1274  0.2353
 4310W        W14003  14.508  14.439   1.691  0.1988 -0.0938  0.1586
 4311W        W14004   6.564   2.048  15.748  0.3395 -0.2322  0.3131
 4312W        W14005   7.531  16.183   4.811 -0.1554  0.0219 -0.2369
 4313W        W14006  16.098   3.374  15.580 -0.2315 -0.1279 -0.1347
 4314W        W14007   4.662  17.613  15.617  0.4212 -0.0620  0.0919
 4315W        W14008  17.322   5.661   3.136  0.0622 -0.0295  0.2647
 4316W        W14009   2.145   3.677   2.492  0.3762 -0.1228  0.1458
 4317W        W14010   3.002   4.583   4.415 -0.1776 -0.0939 -0.1645
 4318W        W14011   2.702   3.605   2.651 -0.3225  0.0427  0.0473
 4319W        W14012  11.493  17.763   3.545  0.2982 -0.3459  0.1710
 4320W        W14013  11.903  13.914   3.752  0.1205  0.1474 -0.0067
 4321W        W14014  17.677  14.245  12.436 -0.0831 -0.1427  0.2940
 4322W        W14015  16.839   5.996  16.925 -0.1268  0.0884 -0.1724
 4323W        W14016   9.208   1.287  15.069 -0.0609  0.2229 -0.0743
 4324W        W14017   2.950   3.333   4.408 -0.0874 -0.0505  0.1111
 4325W        W14018   0.119  17.451  14.953  0.2425  0.2333  0.4160
 4326W        W14019   7.244   0.065   3.276  0.0941  0.3951 -0.0238
 4327W        W14020   4.514   4.918   4.000  0.0123  0.1835 -0.0252
 4328W        W14021   6.415   6.456  16.118  0.0492 -0.0950 -0.3692
 4329W        W14022   6.063  13.073   4.265  0.1628 -0.0432  0.1667
 4330W        W14023   3.589  12.818  15.368  0.0886  0.0819  0.1110
 4331W        W14024   4.508  15.652   7.015 -0.0842 -0.0711 -0.0977
 4332W        W14025   4.504  15.260  13.073 -0.1080 -0.1091  0.0047
 4333W        W14026  12.721  10.652   6.519 -0.0054 -0.2385  0.0470
 4334W        W14027   5.662   7.281   0.262  0.2022 -0.0529  0.1221
 4335W        W14028   5.750  10.500  16.165 -0.0319  0.0022 -0.1559
 4336W        W14029   4.244  15.717  15.474  0.1731 -0.2010 -0.1339
 4337W        W14030  12.635   8.473   2.789  0.2173 -0.3477 -0.0480
 4338W        W14031  11.206  10.397   1.227 -0.1686  0.2438 -0.2142
 4339W        W14032  15.602   5.291   0.748 -0.2902 -0.0142  0.0705
 4340W        W14033   2.009   7.850  10.909  0.4969  0.2580  0.0755
 4341W        W14034   6.818   1.660  10.846 -0.1445  0.3036  0.1255
 4342W        W14035  11.159   2.527  11.473  0.2620 -0.2794 -0.0432
 4343W        W14036   1.772   7.745  13.468 -0.0379  0.0048  0.3843
 4344W        W14037   7.863   6.937  15.994 -0.0948 -0.0872  0.1486
 4345W        W14038  17.426  13.701  12.030 -0.5814  0.0984 -0.3205
 4346W        W14039   0.716  10.820  14.905  0.2312  0.2318 -0.1584
 4347W        W14040   9.180   8.292   1.106  0.0165 -0.1374 -0.1515
 4348W        W14041  14.902   5.012  16.067 -0.1268  0.0015 -0.0935
 4349W        W14042   3.555  11.260   3.770 -0.1404  0.1203  0.0903
 4350W        W14043   6.524   0.130  13.184 -0.2841  0.0441 -0.1124
 4351W        W14044  14.279  12.022  16.060  0.0580 -0.1290  0.1092
 4352W        W14045   2.858  17.052   4.833  0.0843  0.3575 -0.0686
 4353W        W14046  14.441   1.654   1.891 -0.0237  0.0217  0.1355
 4354W        W14047   7.245   9.750   4.998  0.0646 -0.1316 -0.1468
 4355W        W14048   2.752  16.605   5.378  0.0520 -0.3010 -0.0433
 4356W        W14049   7.788  17.636   1.127 -0.0818  0.2264 -0.2213
 4357W        W14050  15.330   1.851  11.885 -0.0584  0.1804 -0.2400
 4358W        W14051   4.841   2.976  15.911  0.0965  0.1834  0.1364
 4359W        W14052   6.111  10.418   0.085  0.1590  0.1253 -0.1422
 4360W        W14053   3.427  11.405  14.047 -0.1887  0.0431  0.0641
 4361W        W14054  12.993   4.550  13.917 -0.1142  0.0505 -0.0193
 4362W        W14055   4.206   0.030   1.542  0.1115 -0.1360  0.1645
 4363W        W14056   4.822   4.224   0.106  0.1589  0.0727  0.0836
 4364W        W14057   2.610   4.288   1.353 -0.1965 -0.1580 -0.0694
 4365W        W14058   1.815  13.463  11.904 -0.2018 -0.0201 -0.1484
 4366W        W14059  15.338  11.287   0.820 -0.0650  0.1347 -0.1394
 4367W        W14060  16.263   0.614  12.703 -0.3685  0.2064 -0.5342
 4368W        W14061  17.442   7.453   1.086  0.0319 -0.1891 -0.0886
 4369W        W14062  13.662  16.561   5.505 -0.0270  0.4477 -0.0354
 4370W        W14063   5.230   5.245   0.150  0.1683  0.0388  0.1549
 4371W        W14064  12.900   5.662   1.990  0.1185  0.0091  0.0488
 4372W        W14065   7.739   5.140  15.741 -0.1090 -0.0414  0.1831
 4373W        W14066   6.078   5.641   1.186  0.1305 -0.0496  0.2215
 4374W        W14067   3.622   0.223  15.740 -0.0679  0.0651 -0.0211
 4375W        W14068   7.659   7.583   1.884 -0.2205  0.2032 -0.2613
 4376W        W14069   3.768  10.094   0.895  0.4065  0.1223  0.2852
 4377W        W14070  10.869   3.990   4.082 -0.0932 -0.2811 -0.1660
 4378W        W14071   1.614   6.433  12.621 -0.1519  0.0228 -0.3015
 4379W        W14072   0.671   8.427   0.431  0.0771 -0.0692  0.1567
 4380W        W14073   3.441   6.854  12.740  0.0165  0.0756 -0.0530
 4381W        W14074   4.313   5.833  15.877  0.0193 -0.2072 -0.1488
 4382W        W14075   6.144   6.557   5.354  0.0603  0.2189 -0.1888
 4383W        W14076   2.129  11.904   0.445  0.1673  0.1065 -0.2389
 4384W        W14077   9.116  13.108   5.330 -0.0787  0.0079  0.3442
 4385W        W14078   4.348  12.999  13.136 -0.0076 -0.2839  0.0750
 4386W        W14079   0.641   1.779   5.177 -0.4555 -0.1264  0.0989
 4387W        W14080   5.864   2.294  11.963  0.1110 -0.0439  0.0707
 4388W        W14081  12.594   9.802   4.163  0.1187  0.2764  0.2501
 4389W        W14082  16.153   6.643  14.567 -0.2329 -0.0439 -0.0302
 4390W        W14083   5.630  17.131  12.361 -0.0787  0.0044 -0.0722
 4391W        W14084   3.475   9.488   2.968  0.1644 -0.2978 -0.1897
 4392W        W14085   6.215  11.218   0.125  0.1981  0.0297  0.3886
 4393W        W14086   3.927  15.027   5.819 -0.1049 -0.0061  0.0762
 4394W        W14087   1.793   4.358   3.266 -0.4294 -0.1369  0.2040
 4395W        W14088  12.153   2.600   5.320  0.0144  0.0281 -0.0102
 4396W        W14089   3.399  12.128   0.307 -0.1678 -0.2426 -0.1689
 4397W        W14090   3.405   3.705   3.358  0.3057  0.2242 -0.1282
 4398W        W14091   4.649  13.959  11.936 -0.0431 -0.0242  0.0810
 4399W        W14092  13.627   0.284  15.914 -0.0808 -0.3077 -0.1474
 4400W        W14093   5.568   8.585   5.299  0.1498 -0.0534 -0.2817
 4401W        W14094  12.842  12.289  13.006  0.1910  0.0729  0.1073
 4402W        W14095  11.002   2.154  12.819  0.0508  0.1621 -0.2654
 4403W        W14096   5.866   7.763  15.417  0.0453 -0.0898 -0.0229
 4404W        W14097   3.904   0.288  14.158  0.2123 -0.0714 -0.2274
 4405W        W14098   3.842  15.003   1.529 -0.1135 -0.1234 -0.0421
 4406W        W14099   9.314   3.341  10.783 -0.2215  0.0090  0.0834
 4407W        W14100  17.152   8.456   2.360  0.1966 -0.0323 -0.0890
 4408W        W14101   1.980   5.278   0.443 -0.0112 -0.0242  0.4245
 4409W        W14102  16.342   4.748   0.697  0.0100  0.2706 -0.0016
 4410W        W14103   6.374   0.236  12.082  0.2207 -0.0570  0.0248
 4411W        W14104   0.644  16.049  13.038 -0.0017 -0.0727  0.2405
 4412W        W14105  17.638  11.517  10.255 -0.1213  0.1080 -0.0195
 4413W        W14106  17.880  17.065  12.203 -0.0899  0.2681 -0.1836
 4414W        W14107  17.651  17.070  13.162 -0.0160  0.2918 -0.0975
 4415W        W14108   5.120  14.269  14.159  0.0350  0.3654  0.2099
 4416W        W14109  16.074  15.525  10.743 -0.4244  0.1943 -0.0414
 4417W        W14110  15.935  16.093   0.566 -0.0969 -0.0012 -0.0142
 4418W        W14111  16.152   9.074   0.628  0.1832 -0.1228 -0.0911
 4419W        W14112   3.085   4.122   4.806 -0.0865  0.2589 -0.0972
 4420W        W14113   9.247  10.530  13.179 -0.0355 -0.2751 -0.1451
 4421W        W14114  10.846  17.832  11.009  0.0002 -0.1440  0.1262
 4422W        W14115   4.370   5.990   4.792  0.0042  0.0563  0.1468
 4423W        W14116  15.759  10.277   0.677  0.0273  0.0575  0.0599
 4424W        W14117   4.352   6.344  16.635  0.0764  0.1362  0.1962
 4425W        W14118   1.086   5.343  13.331 -0.0122  0.0708  0.1092
 4426W        W14119   7.583   3.741  13.459  0.0567 -0.0013  0.0150
 4427W        W14120   5.021   5.108  12.970  0.2429  0.1042  0.1496
 4428W        W14121   8.624  16.047   2.394 -0.0454 -0.0669 -0.1402
 4429W        W14122   7.439  11.788   5.084 -0.1506  0.1365 -0.2176
 4430W        W14123   2.698   4.716  14.920  0.1387  0.0272  0.0458
 4431W        W14124  10.234   9.311   2.415 -0.3330 -0.0232  0.2242
 4432W        W14125   2.543  14.959  11.514  0.2362 -0.0024 -0.3236
 4433W        W14126   7.507   6.919  15.406  0.0021 -0.2298 -0.1151
 4434W        W14127   7.472   9.587   3.298 -0.0235 -0.1181 -0.0124
 4435W        W14128   2.833  12.904  14.701 -0.3657 -0.0391 -0.0478
 4436W        W14129   8.644  15.421   5.924  0.0160 -0.2223  0.2192
 4437W        W14130   2.320   8.267  16.305  0.1945  0.2919 -0.0388
 4438W        W14131   7.661   5.990   1.257  0.0580 -0.1173  0.1003
 4439W        W14132   1.025   4.885  16.971 -0.0629 -0.0864 -0.1742
 4440W        W14133  13.138   1.018  16.285 -0.3041  0.1891  0.0912
 4441W        W14134  11.547   6.800   2.129  0.0108 -0.1152 -0.0892
 4442W        W14135   6.465  15.049   2.429  0.0208 -0.3600  0.0305
 4443W        W14136   8.318  13.864  12.191 -0.3053 -0.1817 -0.2688
 4444W        W14137   9.825  11.499   3.253  0.0277  0.0863  0.1183
 4445W        W14138  17.403   5.123  15.636  0.0831 -0.0528  0.1745
 4446W        W14139  15.802  13.136  11.017 -0.1087  0.1436  0.2381
 4447W        W14140  16.307   3.412  16.766 -0.1330 -0.1363  0.0031
 4448W        W14141   4.853   9.950   0.115  0.0052 -0.0106 -0.0471
 4449W        W14142   7.695  15.528  15.549 -0.0327 -0.2747 -0.0342
 4450W        W14143   7.661  16.782  16.979  0.1103  0.0958 -0.0175
 4451W        W14144  12.003   7.387   1.675  0.1842  0.2956  0.2348
 4452W        W14145   9.643  15.010  15.957 -0.0123 -0.0634  0.3259
 4453W        W14146   1.089   6.225  15.372 -0.0999 -0.1110 -0.1443
 4454W        W14147   6.661   1.596  13.833  0.0394  0.1325  0.2627
 4455W        W14148   5.802  16.168  16.819  0.1983  0.3733  0.1652
 4456W        W14149   4.355  16.071   5.781 -0.0316  0.1378 -0.2949
 4457W        W14150   8.934   7.344  13.707  0.1051  0.0092 -0.0914
 4458W        W14151  15.858   5.908  15.814  0.0770 -0.1264 -0.0849
 4459W        W14152  11.762  13.237  10.799  0.0857 -0.4277 -0.2853
 4460W        W14153   3.844   3.058   2.229 -0.1692  0.0977  0.1152
 4461W        W14154  17.081   8.656   3.968  0.1939  0.1158  0.0700
 4462W        W14155   1.823   1.467   0.345 -0.0700  0.2428 -0.2213
 4463W        W14156   2.995  15.338   1.503  0.0584  0.0234 -0.0264
 4464W        W14157   6.418   2.546   4.984  0.1331 -0.5981  0.2092
 4465W        W14158   3.571  10.372  14.601  0.1520  0.2988 -0.0525
 4466W        W14159   2.132  12.600  14.722 -0.1417  0.1143 -0.1536
 4467W        W14160   2.465   5.378   1.795  0.0834  0.1336  0.2700
 4468W        W14161   3.149   7.840  12.219  0.0322  0.0473 -0.1092
 4469W        W14162  11.165  15.473   1.876  0.0091  0.0241  0.0100
 4470W        W14163  14.429   8.649  16.379  0.1203 -0.0203  0.0049
 4471W        W14164  14.550   9.535   3.902  0.0598 -0.0272  0.1284
 4472W        W14165   2.927   9.664  12.079 -0.1115  0.0102  0.1222
 4473W        W14166   8.190  15.759  15.484  0.4683 -0.2019  0.0644
 4474W        W14167   4.919  12.749  16.177  0.0586  0.0404 -0.2574
 4475W        W14168   3.960  10.668   3.017  0.0146  0.1693 -0.1538
 4476W        W14169  14.951   1.571   5.381  0.1065 -0.0185 -0.0895
 4477W        W14170  11.673   2.958  12.911  0.0128  0.2186  0.1558
 4478W        W14171   4.171  14.304   3.230 -0.0777  0.0367  0.1556
 4479W        W14172   4.173   4.303  14.385 -0.1303  0.0847 -0.0646
 4480W        W14173   4.900   6.462   3.473  0.0030  0.0745  0.1163
 4481W        W14174   2.231   8.808   1.728 -0.0609  0.3807 -0.1071
 4482W        W14175   0.740   9.153  15.792 -0.1999 -0.0173 -0.0500
 4483W        W14176   5.369   0.910   5.244  0.0466 -0.0191  0.0771
 4484W        W14177   4.122  10.649  12.042 -0.1923 -0.0746 -0.0799
 4485W        W14178  12.473   9.083   3.260  0.0552 -0.1397  0.0910
 4486W        W14179   8.351   4.508  12.910  0.2672 -0.0831  0.0765
 4487W        W14180   2.864  14.897   3.524 -0.0094 -0.1961 -0.0742
 4488W        W14181   7.656  15.019  14.956 -0.1899 -0.2560 -0.0385
 4489W        W14182   3.560  16.768  11.846  0.5350  0.1849  0.3599
 4490W        W14183  17.305  16.547   1.055  0.1422 -0.0308  0.2906
 4491W        W14184  17.755   4.855  15.377  0.1960  0.0858 -0.3943
 4492W        W14185   3.954  10.524  12.541  0.2471  0.0476  0.1558
 4493W        W14186   4.882  13.570  11.766 -0.0100  0.1038  0.3290
 4494W        W14187  13.274   5.542   5.429  0.0015 -0.3029  0.0084
 4495W        W14188   8.230   1.633   2.301 -0.2434 -0.0229  0.2962
 4496W        W14189  17.942   7.015   5.630 -0.0236 -0.2496 -0.0341
 4497W        W14190   5.867  11.257  12.657 -0.1248 -0.2957 -0.0249
 4498W        W14191   3.480   0.976   0.102 -0.0993 -0.2188 -0.1334
 4499W        W14192   7.935   5.477   2.277  0.0329 -0.0577  0.1215
 4500W        W14193   0.513  13.172  12.837 -0.1417  0.1430  0.0145
 4501W        W14194  12.053   2.599  12.913 -0.0202 -0.3654 -0.1393
 4502W        W14195   9.904   7.897   1.850 -0.0571  0.0783  0.0890
 4503W        W14196   5.861   1.424  16.017 -0.0160 -0.1460 -0.0925
 4504W        W14197   4.559   0.939  11.654 -0.0887  0.0686 -0.1947
 4505W        W14198   2.606  14.265  15.808 -0.1386 -0.1090  0.0738
 4506W        W14199   6.306  14.928   2.892  0.0722 -0.1481 -0.3489
 4507W        W14200   0.489  13.638   5.034 -0.1137 -0.1411 -0.1009
 4508W        W14201   4.951  15.976   2.050 -0.1252 -0.1467 -0.2250
 4509W        W14202   4.504   6.698   2.197 -0.1121  0.1214 -0.0591
 4510W        W14203   2.408  14.430  12.654  0.1550  0.1961  0.1159
 4511W        W14204   6.327   9.529   4.797  0.2879 -0.1296 -0.3944
 4512W        W14205   9.969  14.363  13.268  0.0719  0.3925 -0.1327
 4513W        W14206   7.308   9.074   3.355 -0.0553  0.1065 -0.0784
 4514W        W14207  11.293   5.626  11.927 -0.0691  0.0449 -0.3839
 4515W        W14208  10.520  16.291   5.187  0.1271 -0.0964 -0.0001
 4516W        W14209   8.181  12.362  16.425 -0.2552 -0.0076  0.1445
 4517W        W14210   5.766   4.316  15.932  0.0460  0.0765 -0.1106
 4518W        W14211   4.430  15.700  13.447 -0.2285  0.1339  0.2172
 4519W        W14212   3.373   6.410  14.227  0.0174 -0.1109 -0.2303
 4520W        W14213   0.905   6.057  12.633  0.0029 -0.3735  0.1290
 4521W        W14214   9.919  12.830  15.501  0.0588 -0.1706 -0.2365
 4522W        W14215  16.325  15.426   2.995 -0.2513  0.4170 -0.1896
 4523W        W14216  14.642  12.422   1.262 -0.2578 -0.0763 -0.3938
 4524W        W14217  10.340   0.277  14.014 -0.1537  0.0924 -0.0726
 4525W        W14218   2.617  14.506   0.858  0.4230  0.0164  0.3175
 4526W        W14219  12.692  13.181   6.117  0.0657 -0.0399  0.0519
 4527W        W14220   7.142  11.122  13.027 -0.0466  0.2473 -0.1007
 4528W        W14221   0.740   2.601  15.817  0.1751  0.1548  0.1604
 4529W        W14222   3.959  11.609   2.797 -0.0097 -0.2067 -0.1312
 4530W        W14223   8.409   5.340   1.558 -0.1461 -0.2304  0.0229
 4531W        W14224   5.889   4.061  11.655 -0.1623  0.0464 -0.2937
 4532W        W14225   7.105  16.680   0.570 -0.0884  0.0609 -0.0092
 4533W        W14226   5.478  11.207  17.068  0.2416  0.2409 -0.1443
 4534W        W14227  16.552  12.186  14.808  0.0639 -0.4264  0.1039
 4535W        W14228   6.021   9.163  16.811  0.1228 -0.3748  0.1427
 4536W        W14229   5.620   5.159   3.695 -0.2210  0.2106 -0.0231
 4537W        W14230   5.287  10.101   3.618  0.0697 -0.0091  0.0793
 4538W        W14231   2.419   8.762  16.229 -0.1226 -0.1041 -0.0364
 4539W        W14232   5.758   7.588   5.231 -0.5827  0.1830  0.0208
 4540W        W14233   0.065  13.556   4.778 -0.1115 -0.4291 -0.0640
 4541W        W14234  14.428   4.857   4.998  0.0142  0.1205  0.3465
 4542W        W14235  17.980  10.693   5.677 -0.0085 -0.3606 -0.0732
 4543W        W14236   0.896   8.026   5.542  0.0073  0.1209  0.0078
 4544W        W14237  17.833  14.479   5.136 -0.0485 -0.1376 -0.1337
 4545W        W14238   1.855   5.269   3.797  0.0205 -0.0620  0.1773
 4546W        W14239   0.485  17.496   1.960  0.1305  0.0756 -0.0318
 4547W        W14240   6.728  16.017   2.317 -0.0972  0.3189 -0.0128
 4548W        W14241   4.571   4.415  14.113  0.1351  0.1326  0.1815
 4549W        W14242  15.138   1.171  13.824 -0.1834  0.0641  0.1940
 4550W        W14243  12.865   9.754   2.736  0.0183 -0.0375  0.2343
 4551W        W14244   8.017  12.793   4.234 -0.1821 -0.2168 -0.3363
 4552W        W14245   0.479   3.777  14.514 -0.0028 -0.5056  0.0115
 4553W        W14246   5.200  15.864   4.086 -0.0621 -0.0893  0.1393
 4554W        W14247   6.866   0.756   0.907 -0.2747  0.0142  0.0342
 4555W        W14248  12.269  15.110   3.486  0.1769 -0.2746  0.0491
 4556W        W14249   3.772   2.506  13.980 -0.3722  0.1648  0.4426
 4557W        W14250   8.103   5.339   0.200  0.1298 -0.2242  0.0623
 4558W        W14251   8.444   9.544  15.938  0.0071 -0.2007 -0.0490
 4559W        W14252   9.148  10.690   3.600  0.1471 -0.2236  0.0978
 4560W        W14253   7.915   6.645  12.106  0.0104 -0.1147  0.3848
 4561W        W14254  16.459  16.665   5.424  0.0921 -0.1415  0.0735
 4562W        W14255   9.895  16.868   0.142  0.2499  0.1322  0.0417
 4563W        W14256   1.075  12.070   5.439 -0.0561  0.0609  0.0781
 4564W        W14257  11.560   9.904  12.233  0.2535  0.1429 -0.0506
 4565W        W14258  15.560  11.869   9.898 -0.2174 -0.1227  0.3566
 4566W        W14259  14.391   4.012   2.878  0.0781  0.0432  0.0601
 4567W        W14260   1.881   6.994  14.491  0.2060 -0.0889  0.1220
 4568W        W14261   5.585  16.226   2.237 -0.0059 -0.0794 -0.0297
 4569W        W14262  14.866  12.660   5.353 -0.0138 -0.1764  0.3438
 4570W        W14263  16.476   5.885   5.357  0.2379  0.2049 -0.0821
 4571W        W14264  11.953   2.027  15.669  0.0934  0.2200 -0.1412
 4572W        W14265  15.065   5.125  14.581  0.2597  0.2890  0.0476
 4573W        W14266   7.250  13.871  13.028 -0.1826  0.0303  0.1733
 4574W        W14267  10.224   3.165   4.419 -0.1117 -0.0922  0.1544
 4575W        W14268   5.901  13.429  11.933 -0.1204 -0.1156 -0.0104
 4576W        W14269  13.250  13.148   0.392  0.1805 -0.0929 -0.0161
 4577W        W14270   5.963  16.499   2.858  0.0158  0.1590 -0.2188
 4578W        W14271   6.973  17.753   3.655 -0.0829  0.0011  0.2098
 4579W        W14272   3.714   2.352  12.593 -0.1540  0.3206 -0.0870
 4580W        W14273   6.089   7.820   0.503  0.0411 -0.3064 -0.0396
 4581W        W14274   5.540   4.705  16.113  0.0205  0.0396 -0.0462
 4582W        W14275  10.182   8.093   6.197 -0.1427 -0.1383  0.0524
 4583W        W14276   4.843   3.596   2.097  0.1447 -0.1593  0.2492
 4584W        W14277   1.295   4.458  13.607  0.3476  0.1956 -0.5490
 4585W        W14278  10.391   1.920   6.010 -0.1418  0.0290  0.0953
 4586W        W14279   8.527   1.722   3.808 -0.0248 -0.1066  0.0151
 4587W        W14280   5.681   4.570   0.581 -0.3809 -0.1710 -0.1038
 4588W        W14281  11.511   0.789  15.397  0.0316 -0.1871 -0.1116
 4589W        W14282   6.914  17.394   1.801 -0.1270 -0.2493 -0.0602
 4590W        W14283   0.910   7.535  17.082 -0.3620 -0.1251 -0.0039
 4591W        W14284   9.999   8.728   3.143  0.2437  0.1898  0.5442
 4592W        W14285   5.994  14.062   2.792  0.0762  0.1033 -0.0036
 4593W        W14286   5.321  13.067  12.242  0.2656  0.0303  0.1555
 4594W        W14287   9.914  14.213   6.264 -0.2010 -0.0914  0.1471
 4595W        W14288   8.009  17.585  13.161  0.1504  0.1037 -0.1781
 4596W        W14289   4.987  15.504   5.155 -0.4127  0.0425  0.0487
 4597W        W14290   7.284   1.985   0.886 -0.2386  0.1317 -0.2404
 4598W        W14291   5.279   9.729  14.122 -0.0913  0.0396  0.0542
 4599W        W14292   2.434  14.175   5.520  0.0788 -0.0586 -0.0805
 4600W        W14293   6.681  10.096   3.461  0.2311 -0.1685  0.0378
 4601W        W14294   7.224  14.177  14.717  0.0476 -0.1289 -0.2484
 4602W        W14295  11.660  15.461  16.387 -0.0334 -0.0849 -0.2013
 4603W        W14296   6.816  12.898   0.128 -0.1646 -0.1309 -0.1304
 4604W        W14297   1.728   3.687  15.109  0.2073  0.2252  0.2062
 4605W        W14298   2.780   5.384  13.281  0.1818 -0.1940 -0.1221
 4606W        W14299   0.555   3.028  15.707  0.1357  0.1469 -0.2094
 4607W        W14300  13.129   0.717   1.743 -0.1012  0.0702  0.0555
 4608W        W14301   3.309  14.430   1.893  0.0082 -0.1490  0.2357
 4609W        W14302   8.282   1.944  15.758 -0.0199 -0.0950  0.2972
 4610W        W14303   3.468   0.890  12.873  0.4785 -0.2207 -0.2071
 4611W        W14304   0.848  16.416   5.104  0.1763  0.0683 -0.1506
 4612W        W14305  12.963  11.021  11.837  0.1854 -0.2568 -0.0487
 4613W        W14306   5.283   1.590   6.016 -0.1896  0.1974  0.0967
 4614W        W14307  15.191   2.720  12.953  0.2812  0.0200  0.0285
 4615W        W14308  16.860  17.482  14.712 -0.0875  0.0924  0.0776
 4616W        W14309   4.905   0.892   3.017 -0.1119  0.1501 -0.1816
 4617W        W14310   9.245   1.437  14.602  0.0422  0.0164 -0.0047
 4618W        W14311   3.080  11.918   5.240  0.0301  0.0607 -0.0734
 4619W        W14312   0.087   4.446   5.480 -0.3114 -0.3290  0.0097
 4620W        W14313   2.600  17.696  16.649 -0.0340  0.0164  0.0252
 4621W        W14314  16.780   4.099   1.199 -0.1429  0.0891  0.0779
 4622W        W14315   7.748  16.435   6.071  0.2392  0.0576  0.1645
 4623W        W14316  17.920   5.329  15.636  0.1577 -0.0425  0.1165
 4624W        W14317   9.598  12.937  12.095  0.0986 -0.1074 -0.0399
 4625W        W14318  14.774  16.227  14.482  0.3545  0.2024 -0.0182
 4626W        W14319  10.991   0.100   3.602 -0.0638  0.2127  0.0335
 4627W        W14320  10.587  17.339   5.194  0.1131 -0.1143 -0.0433
 4628W        W14321  16.578   8.493  14.024  0.1618 -0.1534 -0.0275
 4629W        W14322   8.892  16.597  12.671 -0.1220 -0.0806  0.0865
 4630W        W14323   3.908  10.456   0.485  0.2637  0.2359  0.0761
 4631W        W14324   7.928  10.482   1.274 -0.0718 -0.0403  0.1906
 4632W        W14325  12.655   1.649  15.443  0.0024  0.0323 -0.3270
 4633W        W14326   8.804   7.753  13.258  0.1620  0.0338 -0.0418
 4634W        W14327  10.700   9.177  13.710 -0.1186 -0.1074  0.0182
 4635W        W14328   1.734   5.811  13.789  0.1831  0.0095 -0.0634
 4636W        W14329   5.922  15.315   0.094 -0.1677  0.0538  0.0334
 4637W        W14330   2.968  16.311  15.010  0.1934  0.0631  0.1332
 4638W        W14331   0.235  16.608   5.609 -0.0690 -0.2875 -0.0411
 4639W        W14332   4.346  10.284   6.230 -0.1910 -0.0740 -0.4125
 4640W        W14333   3.058   2.049  13.459  0.1239  0.3575  0.3372
 4641W        W14334  14.880  17.048   4.382 -0.1553 -0.2470 -0.1751
 4642W        W14335  10.439  10.847  16.968  0.0943 -0.0445 -0.1559
 4643W        W14336  14.513   2.837  12.213  0.0330  0.1632  0.2597
 4644W        W14337   1.750   3.700   2.927 -0.4602 -0.1116 -0.0892
 4645W        W14338  11.146  13.123  15.449 -0.2267 -0.0740  0.1723
 4646W        W14339  12.222  14.970  15.906  0.1402  0.0191  0.0795
 4647W        W14340   3.622  11.236  12.117 -0.3302 -0.0567 -0.0055
 4648W        W14341   3.752  11.769  14.296 -0.0667 -0.3179  0.0820
 4649W        W14342   0.631  17.214  14.134 -0.2619  0.0794 -0.1795
 4650W        W14343   6.685  11.553   0.196 -0.0880 -0.0059  0.2421
 4651W        W14344   9.216   2.846  12.644 -0.0212 -0.1876 -0.3946
 4652W        W14345   0.763   8.991   3.732 -0.0213 -0.2098  0.3416
 4653W        W14346   5.253   8.116  12.582  0.0454 -0.0034 -0.0849
 4654W        W14347  11.964   8.108  15.440 -0.0834 -0.2302  0.1208
 4655W        W14348  13.369   1.836   2.109  0.2074  0.4182  0.0118
 4656W        W14349  15.544   9.940  12.093 -0.1675 -0.0901  0.2479
 4657W        W14350   2.461   2.170   0.940 -0.3974 -0.1093 -0.1136
 4658W        W14351   1.627   7.578  17.036  0.2102 -0.0191 -0.1166
 4659W        W14352   1.359  17.166  13.424  0.2642  0.0174 -0.0570
 4660W        W14353   4.961   6.667   4.437  0.0405 -0.2429 -0.0767
 4661W        W14354  10.276  16.809   4.450  0.0248  0.2343 -0.1717
 4662W        W14355  14.736   9.129  12.597  0.1990  0.3796  0.0332
 4663W        W14356   9.374   4.931   1.515 -0.0225 -0.0178 -0.3655
 4664W        W14357  13.098   3.915   3.259 -0.0091  0.1445  0.0790
 4665W        W14358   1.192  11.161   1.433 -0.1109 -0.0326 -0.0037
 4666W        W14359  11.218  12.968  13.569 -0.0577  0.0478 -0.0514
 4667W        W14360   3.457   7.540   3.440 -0.4734 -0.0762  0.2386
 4668W        W14361  10.645  15.439  15.094  0.2528 -0.1123  0.0792
 4669W        W14362   6.641   4.529   4.407 -0.1105 -0.2938 -0.1866
 4670W        W14363   7.876  13.287   4.792  0.1291  0.0018  0.0146
 4671W        W14364  10.029  10.693  16.005  0.1726  0.2670 -0.2770
 4672W        W14365   9.282   4.769  15.725 -0.1114 -0.1738  0.0823
 4673W        W14366   4.573   8.224   3.870  0.2267 -0.3066  0.3337
 4674W        W14367   1.536  11.313   3.207  0.0538  0.2607  0.1257
 4675W        W14368   1.532   9.110  13.906  0.0314  0.1253 -0.0424
 4676W        W14369   2.885  13.748   0.410  0.0846 -0.1929 -0.1211
 4677W        W14370   1.194  13.560   1.397 -0.0028  0.0189  0.0140
 4678W        W14371   3.511  10.201   5.410 -0.1960  0.3853  0.2121
 4679W        W14372  11.668   1.031   1.086  0.0946  0.0978  0.0704
 4680W        W14373   7.605   8.488  14.047  0.0625  0.0584 -0.0946
 4681W        W14374   9.466   5.559   6.445 -0.0667 -0.2681 -0.3361
 4682W        W14375  14.746   6.494  16.557 -0.2822 -0.2420  0.0564
 4683W        W14376  17.161  10.086  14.066 -0.0660 -0.2450 -0.3526
 4684W        W14377  15.972   8.098   5.266 -0.0777  0.2323 -0.1829
 4685W        W14378  10.782   4.756  14.504 -0.0576 -0.0523  0.4672
 4686W        W14379   5.531  17.076  16.691 -0.1979 -0.1903 -0.0084
 4687W        W14380   6.716  17.765   6.537  0.1562  0.0762  0.0765
 4688W        W14381   8.408   8.623   1.438  0.0821  0.1192  0.0088
 4689W        W14382   3.712   2.578   2.332  0.0853 -0.2348 -0.2312
 4690W        W14383  14.541   4.359  14.074  0.0884  0.0007 -0.0216
 4691W        W14384  17.417   2.613  15.691  0.2133  0.2428  0.0831
 4692W        W14385   3.180  13.927   3.102 -0.1068 -0.2531  0.1873
 4693W        W14386   6.676  12.600  14.118 -0.4261 -0.1248 -0.0003
 4694W        W14387  11.523  17.598  16.627 -0.0616 -0.0254  0.1610
 4695W        W14388  11.662   2.652   1.266  0.1162 -0.1683 -0.1320
 4696W        W14389  11.733   8.458   4.241  0.1923  0.2066  0.0592
 4697W        W14390  14.899   1.827   4.049  0.1765 -0.4605  0.4217
 4698W        W14391   7.470   2.091  14.608  0.1023 -0.0272 -0.1796
 4699W        W14392  12.002  13.984  16.755  0.0532  0.2913  0.2388
 4700W        W14393  15.655  11.345  15.444 -0.0209 -0.2647  0.1547
 4701W        W14394   1.115   0.259  13.062  0.2462 -0.2406 -0.2975
 4702W        W14395  17.967   1.731  15.732  0.0011  0.0238  0.4249
 4703W        W14396   3.765   8.993   5.795  0.2343  0.0842 -0.1853
 4704W        W14397   2.797   8.714   3.285 -0.0000  0.1854 -0.3279
 4705W        W14398   9.911  15.530  13.331 -0.2859 -0.2356 -0.1898
 4706W        W14399  17.338   1.512  11.274  0.3000  0.0390 -0.1123
 4707W        W14400   7.449  15.188   5.705 -0.2519 -0.1345  0.3617
 4708W        W14401   0.380   5.333  12.582  0.1193 -0.5186  0.1274
 4709W        W14402   1.740   0.026   4.656 -0.1215 -0.1309 -0.0622
 4710W        W14403   2.142   2.791   2.328 -0.1216 -0.2573 -0.0373
 4711W        W14404   2.204  12.958  15.540  0.0740 -0.0226  0.2013
 4712W        W14405  13.887   3.723   0.543 -0.0140 -0.0815 -0.1346
 4713W        W14406   3.836  11.610  14.772 -0.0063  0.2585  0.2599
 4714W        W14407   3.937   3.923  14.752 -0.1908 -0.1860 -0.2457
 4715W        W14408  13.082  14.496  14.171  0.1016 -0.2399  0.0556
 4716W        W14409  15.299  11.289  16.854 -0.1746  0.0380 -0.0338
 4717W        W14410   1.955   7.569  12.730 -0.0598  0.1742 -0.2282
 4718W        W14411   1.946   7.904   3.074 -0.0224  0.0605 -0.3051
 4719W        W14412   8.505   6.408   1.337  0.2819 -0.4644  0.0936
 4720W        W14413  16.349  15.488  12.568 -0.0861  0.0635  0.2967
 4721W        W14414   1.478   8.801  14.334 -0.0290 -0.1132 -0.2534
 4722W        W14415   6.284  16.912  13.543  0.1375  0.0532 -0.0363
 4723W        W14416  17.649  14.457   3.460 -0.1317 -0.2394 -0.0636
 4724W        W14417   2.125  15.310  15.262  0.0880 -0.0419  0.2009
 4725W        W14418   8.338  17.830   2.311  0.0960 -0.0546 -0.0984
 4726W        W14419   2.974  10.675  10.629 -0.0063  0.3173  0.0446
 4727W        W14420   2.156   9.775   5.148  0.0815  0.1045  0.3572
 4728W        W14421   5.971   5.280  13.238  0.2554  0.0203 -0.1549
 4729W        W14422   4.025  14.619  13.368  0.0094 -0.0785 -0.0315
 4730W        W14423   6.308  12.160   0.584 -0.2817 -0.1354  0.4273
 4731W        W14424   5.372  15.922  16.771 -0.0857  0.0837  0.0441
 4732W        W14425  16.442   7.174  12.350  0.0847  0.1007 -0.1628
 4733W        W14426   0.085   8.463   2.269 -0.0595  0.2923 -0.0660
 4734W        W14427   9.889   6.891   4.442  0.0166  0.0051  0.1748
 4735W        W14428   6.579   2.985   4.780 -0.0574  0.1593 -0.1620
 4736W        W14429   6.910  17.233   4.888 -0.0149 -0.2236 -0.2328
 4737W        W14430   6.933  12.125   6.611 -0.0210  0.1699  0.1499
 4738W        W14431  11.922   4.333   1.591  0.0926  0.1118  0.1023
 4739W        W14432   0.473   7.920   0.523  0.0508  0.4199 -0.0160
 4740W        W14433   3.267   7.716   6.040  0.1180  0.0844 -0.1174
 4741W        W14434  17.174  16.614  15.105  0.2805  0.0766  0.0495
 4742W        W14435   8.621  12.152   4.603  0.0445  0.1765 -0.2568
 4743W        W14436  15.172   3.182  13.445  0.2660  0.1708  0.0329
 4744W        W14437  12.045   4.323   3.734 -0.0443  0.1375 -0.0980
 4745W        W14438   7.280   8.854   2.937 -0.1961  0.1781 -0.1484
 4746W        W14439   6.409   0.638  11.755 -0.0720  0.0811 -0.3564
 4747W        W14440   4.855  14.980  15.801  0.0756  0.2395  0.1288
 4748W        W14441   3.809  15.868  16.303  0.2868 -0.0209  0.2225
 4749W        W14442   6.201   3.080  14.852 -0.1738 -0.1283 -0.0414
 4750W        W14443   0.262   4.065  15.855  0.1245  0.0948 -0.0690
 4751W        W14444  13.110  14.342   1.383 -0.1004  0.2447 -0.2911
 4752W        W14445   8.443   8.865   5.757 -0.3006 -0.0074 -0.2592
 4753W        W14446   3.749  16.059   4.494  0.1140 -0.2568 -0.0502
 4754W        W14447   5.840  15.487  14.571  0.3016 -0.0016  0.0942
 4755W        W14448   1.163  17.454  15.889  0.2031 -0.0345  0.2440
 4756W        W14449  13.737  17.123  15.691  0.3530 -0.1712  0.2161
 4757W        W14450  14.031   1.039   5.911  0.2938 -0.1265  0.0602
 4758W        W14451   6.695   3.133  13.408 -0.0094 -0.0994  0.2363
 4759W        W14452   8.262   3.574  12.195  0.0486  0.1551  0.1765
 4760W        W14453   4.040  10.505   3.668  0.2006 -0.1646  0.0047
 4761W        W14454   2.592  17.858   2.509  0.2584 -0.1177  0.1723
 4762W        W14455  11.915   3.089  16.291  0.0123 -0.1233 -0.0765
 4763W        W14456  16.293   1.147  12.084  0.0080  0.0893 -0.0283
 4764W        W14457   8.998   2.659  13.609 -0.1252  0.2124 -0.1710
 4765W        W14458   0.209   5.328   3.944 -0.0809  0.1138 -0.2010
 4766W        W14459   0.748   2.071   1.896  0.1435  0.0634  0.0105
 4767W        W14460   4.825  10.731  14.054 -0.0262  0.1223  0.4296
 4768W        W14461  12.140   8.461  16.731  0.2779  0.1069  0.2259
 4769W        W14462  13.262   9.544   3.593 -0.3654 -0.4933 -0.1224
 4770W        W14463   0.376  13.427  14.083 -0.2410 -0.0487  0.0387
 4771W        W14464   4.833   3.386  11.790 -0.0700  0.1014  0.2146
 4772W        W14465   7.242   6.750   1.227  0.1191 -0.0920 -0.0813
 4773W        W14466   8.277   1.011  14.116 -0.0176 -0.2645 -0.0167
 4774W        W14467   6.826   6.131  16.338  0.0019  0.3242  0.2957
 4775W        W14468   7.263  10.965   1.771  0.2740  0.0917 -0.1512
 4776W        W14469  17.642  13.522   6.153 -0.0804  0.0659  0.0543
 4777W        W14470   3.684   5.701  12.274 -0.2197 -0.2922 -0.0390
 4778W        W14471   5.083  14.103  16.492  0.1240  0.2231  0.2042
 4779W        W14472   9.243  15.703  15.564 -0.1283  0.0111  0.2702
 4780W        W14473   2.656  15.694  13.427 -0.0984  0.4017  0.2398
 4781W        W14474   5.563   6.139  14.925 -0.4579 -0.1759 -0.1115
 4782W        W14475   5.322   4.980   3.291 -0.0415 -0.0979  0.3288
 4783W        W14476   7.592   4.659  12.312  0.0668  0.0337  0.2944
 4784W        W14477   4.517   1.556  16.084  0.0056 -0.2236 -0.0876
 4785W        W14478   3.465   3.240   1.988  0.0089  0.4793 -0.3358
 4786W        W14479   2.605  14.010  15.345 -0.0464 -0.2101 -0.1004
 4787W        W14480   3.871  13.143  14.481  0.0754  0.1995 -0.3216
 4788W        W14481   0.196  10.581  16.877 -0.4605  0.2254 -0.2837
 4789W        W14482   2.301  17.536  12.010 -0.0879  0.0949  0.1012
 4790W        W14483   7.331  15.201  12.632 -0.5298 -0.0105  0.1953
 4791W        W14484  16.002  14.274  17.017  0.3948 -0.2552  0.1332
 4792W        W14485   6.285   6.081   5.534 -0.2422 -0.1076 -0.0271
 4793W        W14486  17.036   3.426   0.113  0.1202  0.0136 -0.0742
 4794W        W14487   8.529   4.309  12.439  0.1001  0.0813  0.0095
 4795W        W14488  10.948  16.591  16.957  0.0139 -0.0393  0.1851
 4796W        W14489  14.991  10.177  16.361 -0.3837  0.1471  0.2927
 4797W        W14490  15.628   8.257   0.947 -0.0754 -0.2497  0.0990
 4798W        W14491   7.116  17.449   3.296  0.0265  0.0432  0.0233
 4799W        W14492   3.347   3.038   5.828 -0.0307  0.0149  0.2458
 4800W        W14493  16.804   9.317   3.168  0.0143  0.1256  0.0666
 4801W        W14494   5.270   9.111   4.722  0.1133 -0.0286  0.2309
 4802W        W14495  13.909  14.782   0.483 -0.1692 -0.0184  0.0466
 4803W        W14496   9.349  13.857  12.203 -0.0341  0.0123 -0.1274
 4804W        W14497   0.387   1.435  16.322 -0.0783 -0.2576  0.0631
 4805W        W14498  10.472  13.084  16.269 -0.0209  0.1068  0.2305
 4806W        W14499   1.761  17.168  14.181  0.1027  0.3725  0.1142
 4807W        W14500   6.518  12.562  16.974 -0.5884  0.4435 -0.0196
 4808W        W14501   5.641  13.665   1.007 -0.2517  0.0416  0.0306
 4809W        W14502   1.690  17.666  11.656  0.0655  0.1907  0.0522
 4810W        W14503  11.634   6.529  16.582  0.0951 -0.0374 -0.0645
 4811W        W14504   1.223   6.141  16.537 -0.3451 -0.0526 -0.0632
 4812W        W14505  10.803  12.944  12.893 -0.2266 -0.0436 -0.1951
 4813W        W14506   6.672  15.931  15.735  0.0669 -0.0056  0.1391
 4814W        W14507   7.196  15.261   2.915  0.2818 -0.2179  0.2015
 4815W        W14508   6.232   7.964  14.662  0.0224 -0.1788  0.1616
 4816W        W14509  15.476   9.320   1.230 -0.1314 -0.0180 -0.0400
 4817W        W14510   1.007   7.059   1.915 -0.0531  0.3700  0.2065
 4818W        W14511   4.545   3.921  14.043  0.2315  0.1592  0.0030
 4819W        W14512   7.890   2.569   0.023 -0.1184  0.0532 -0.0812
 4820W        W14513   7.792   7.067  12.375 -0.0671  0.2498 -0.0298
 4821W        W14514  12.344   5.226  10.992  0.5146  0.1504 -0.2040
 4822W        W14515  13.184   9.871  17.026 -0.1479 -0.0270  0.1314
 4823W        W14516   3.598  14.534   3.279 -0.4335  0.0792 -0.2250
 4824W        W14517  14.254  14.309   3.149  0.0771 -0.2076  0.1772
 4825W        W14518   2.547   5.363   1.260  0.0707  0.1881 -0.1763
 4826W        W14519   7.735  10.814   5.353  0.0722 -0.2071  0.0162
 4827W        W14520   3.346  12.552   0.937 -0.0115 -0.1896  0.0486
 4828W        W14521   5.100  11.965  14.618  0.0337  0.5287  0.0456
 4829W        W14522   9.444   7.252  13.616 -0.0658 -0.0511  0.2473
 4830W        W14523   7.317  12.633  15.958  0.0026  0.2020 -0.1339
 4831W        W14524  10.558   1.377   3.438  0.3356 -0.1705  0.0072
 4832W        W14525   7.914  16.881   4.576  0.1710 -0.3262  0.1256
 4833W        W14526  16.486   1.879   0.458 -0.0555  0.1472  0.2841
 4834W        W14527   9.255   2.993  15.422 -0.0244  0.0899  0.1151
 4835W        W14528   7.580   9.520   6.180  0.0153  0.2132  0.1315
 4836W        W14529   7.456   7.757   6.477 -0.2479  0.2161  0.1339
 4837W        W14530  11.487  15.596   4.992 -0.0701  0.0783 -0.1814
 4838W        W14531   8.238   3.234   2.790  0.0802 -0.0067 -0.0442
 4839W        W14532   6.960   9.253  14.576 -0.0451  0.3993 -0.0538
 4840W        W14533  15.222   7.958  16.813 -0.0162  0.1852  0.0700
 4841W        W14534   2.571   2.176  13.309 -0.1778 -0.1973 -0.0551
 4842W        W14535   9.265  10.815   4.961 -0.2722  0.0867  0.0608
 4843W        W14536   3.376   8.213   6.096 -0.2312  0.0496  0.2179
 4844W        W14537  17.582  12.358  16.971  0.0449  0.0489  0.2250
 4845W        W14538  14.083  15.830  13.321  0.0448  0.0748 -0.0189
 4846W        W14539   2.497  15.714  13.888  0.2082 -0.2057 -0.0032
 4847W        W14540  10.261  17.195  11.605 -0.0845 -0.2121 -0.0126
 4848W        W14541  10.174   8.579  12.178 -0.0432  0.2388  0.1483
 4849W        W14542   4.923   6.376  15.954  0.0988 -0.1668 -0.0564
 4850W        W14543   4.748  11.673   5.197  0.0432  0.0846  0.0630
 4851W        W14544  16.677   7.702   1.701 -0.1103 -0.1463  0.2092
 4852W        W14545   4.501   8.091   4.745  0.0297 -0.3486  0.0119
 4853W        W14546  14.307   1.441  16.061  0.0942 -0.0092 -0.1936
 4854W        W14547  14.102  17.636  16.943 -0.2508  0.0250 -0.2290
 4855W        W14548   8.109  11.387   1.839 -0.2422  0.1132  0.1239
 4856W        W14549  13.097  17.789  14.390  0.2442 -0.0214  0.0076
 4857W        W14550  16.836  16.487   5.119 -0.3013 -0.1499 -0.1274
 4858W        W14551   4.692   2.330   3.193 -0.0608 -0.0246 -0.0417
 4859W        W14552  17.858   5.841  15.338 -0.1590 -0.0947  0.2224
 4860W        W14553   9.489  10.573  16.780 -0.2765 -0.0676  0.0729
 4861W        W14554   1.533   1.873   5.040 -0.3139 -0.1728  0.1163
 4862W        W14555   8.565   9.092  16.442  0.1317  0.1576  0.1320
 4863W        W14556   1.968   4.290   0.773 -0.1151 -0.0647  0.2090
 4864W        W14557   6.693  16.392  15.956 -0.0853 -0.2855  0.0713
 4865W        W14558   9.474   7.944  12.335  0.1704  0.0329 -0.1324
 4866W        W14559   3.628  14.181  15.506 -0.1008  0.1003  0.2632
 4867W        W14560   0.231   3.540   5.419 -0.0145  0.1309  0.0485
 4868W        W14561   0.199   4.889  12.753  0.1055 -0.1374 -0.0665
 4869W        W14562   0.880  10.641   3.663 -0.0396  0.0164  0.0050
 4870W        W14563   2.852   7.782   0.529  0.2252  0.2317 -0.3780
 4871W        W14564   1.059   4.957   1.461 -0.0558 -0.3422 -0.2728
 4872W        W14565   7.647  13.066   3.064  0.0323 -0.2416 -0.1573
 4873W        W14566   9.168   0.550  15.834 -0.0488  0.2219  0.0697
 4874W        W14567  10.366  16.328   4.178 -0.3205 -0.2324 -0.1095
 4875W        W14568   3.465   3.669  12.713  0.2570 -0.0873  0.1823
 4876W        W14569   6.585   9.730  10.798  0.1530  0.1237  0.1043
 4877W        W14570   8.380   4.128   2.438 -0.0760 -0.4355 -0.1522
 4878W        W14571   0.959   3.681  14.014 -0.2167  0.2297 -0.0516
 4879W        W14572   3.541   8.961  12.948  0.2420 -0.0627  0.2840
 4880W        W14573   3.005   0.743   4.598  0.1946 -0.2754  0.2878
 4881W        W14574   8.979   3.254   0.281  0.0903 -0.0495 -0.0867
 4882W        W14575  11.207   6.212  13.844  0.0192 -0.0723  0.3623
 4883W        W14576  16.915   6.167  13.170  0.2072  0.1631 -0.2253
 4884W        W14577   4.852  13.447  13.584  0.1087  0.2332 -0.1168
 4885W        W14578  16.808  13.867  11.287  0.0191 -0.1118  0.0773
 4886W        W14579   5.767  15.027   4.879  0.3002  0.0544  0.1820
 4887W        W14580   7.262   6.714  14.705  0.0224  0.1131  0.2538
 4888W        W14581   2.159   0.427   2.924 -0.1563 -0.0481  0.0047
 4889W        W14582  17.328  16.734   4.976  0.0028  0.0482  0.2281
 4890W        W14583   5.170  17.426  16.028 -0.0430  0.2093 -0.1759
 4891W        W14584  15.834  13.118   4.603  0.0244  0.1081  0.1526
 4892W        W14585   6.919   2.652   3.513  0.1593 -0.0103 -0.1396
 4893W        W14586  11.141   4.949   4.484  0.1752 -0.1150 -0.0727
 4894W        W14587   9.040  12.434  16.833  0.1116 -0.0303 -0.3589
 4895W        W14588  17.236   2.518  11.263  0.1796  0.1374  0.0374
 4896W        W14589   1.727   1.326  16.627  0.2171  0.2025 -0.2311
 4897W        W14590   5.282  11.202   0.647  0.2507  0.1277 -0.3601
 4898W        W14591   5.513   5.472  13.964  0.0290 -0.1115  0.2889
 4899W        W14592  15.749  11.242  11.585  0.2706  0.1733 -0.1747
 4900W        W14593   8.390   6.981  12.857 -0.0204  0.2222 -0.0698
 4901W        W14594   4.982  13.841  16.938  0.2948  0.1418 -0.0058
 4902W        W14595   9.692  15.098  12.956  0.1649  0.2150 -0.5005
 4903W        W14596   8.540  16.057   6.553 -0.1074  0.1559 -0.1938
 4904W        W14597  11.653   6.963  12.772 -0.1262 -0.5756 -0.1558
 4905W        W14598  10.340  16.459   3.239  0.1174  0.0348 -0.1384
 4906W        W14599  13.416  12.902  16.383  0.0073  0.1159 -0.1222
 4907W        W14600  11.483  10.239  11.754 -0.2674 -0.2118 -0.1070
 4908W        W14601   1.792  16.430  14.613 -0.1770  0.0945 -0.4622
 4909W        W14602  10.968  11.177   2.502 -0.2412 -0.1964  0.0550
 4910W        W14603  17.162  14.609  14.920 -0.2280  0.0359  0.2393
 4911W        W14604   5.506   0.596  11.742  0.3472 -0.0371 -0.2330
 4912W        W14605   4.182   8.808  14.409 -0.3438 -0.0846  0.1742
 4913W        W14606   7.541   1.533  16.410 -0.1620 -0.0142  0.1519
 4914W        W14607  11.725  15.726   4.070  0.2849  0.4082  0.1155
 4915W        W14608   9.856   0.981   2.106  0.1826 -0.0259  0.4344
 4916W        W14609  17.877   8.587  12.452 -0.2289  0.4840  0.1863
 4917W        W14610  12.268   0.450   2.667  0.0136  0.3451 -0.1646
 4918W        W14611  17.019  10.301   1.754 -0.0932  0.2478  0.0702
 4919W        W14612   1.609   2.664   4.489 -0.1389  0.4993 -0.1072
 4920W        W14613   8.210  14.570   0.907 -0.1103 -0.0299 -0.1702
 4921W        W14614   2.540  14.303  17.092  0.0170  0.0277 -0.0185
 4922W        W14615  12.362  12.444  11.779  0.1853 -0.2087 -0.0307
 4923W        W14616   8.534  15.469   5.005 -0.1059  0.5738  0.4052
 4924W        W14617  12.396   3.771  12.949  0.1014 -0.0338  0.0793
 4925W        W14618   6.944  16.258  11.746  0.2109  0.2849 -0.0491
 4926W        W14619  10.891  10.707   0.992  0.1036 -0.0909  0.1185
 4927W        W14620   6.000   1.187   4.544 -0.1515  0.2845 -0.0741
 4928W        W14621   1.395  12.398   2.168 -0.0433 -0.0789  0.2980
 4929W        W14622  16.618   4.628   4.371  0.0494  0.0833 -0.1554
 4930W        W14623   1.883  17.181  13.675 -0.2604 -0.1644  0.1729
 4931W        W14624   8.837   2.766   3.774  0.3394  0.1430 -0.0173
 4932W        W14625   6.246  16.368   5.079 -0.1784  0.3692 -0.0858
 4933W        W14626   8.223   2.476  15.521 -0.1430  0.3043  0.2728
 4934W        W14627  17.860   9.354  11.754  0.0867  0.0468  0.0234
 4935W        W14628   5.963  13.893  12.230  0.1739  0.1389 -0.0222
 4936W        W14629   7.809  12.162  13.878 -0.0804  0.0980 -0.0123
 4937W        W14630  15.606  17.461  16.920  0.1393 -0.0155  0.0176
 4938W        W14631   1.015  11.022   0.808  0.1621  0.0490 -0.1297
 4939W        W14632   3.156   5.344  11.440 -0.2696  0.0936 -0.0256
 4940W        W14633   8.907   1.150   1.312 -0.0376  0.1080 -0.2802
 4941W        W14634   7.316   9.386   3.785  0.0064 -0.0475 -0.4919
 4942W        W14635   9.681   8.601   2.382  0.0681 -0.0059  0.2477
 4943W        W14636  13.520  17.683   4.950  0.0917 -0.1600  0.2668
 4944W        W14637   8.996   2.629   4.248  0.0501 -0.1665  0.2074
 4945W        W14638   1.779   9.778   3.510  0.1945 -0.0455  0.3239
 4946W        W14639   5.520   6.606  12.246 -0.3268 -0.0815 -0.1357
 4947W        W14640   8.227  12.217   2.155  0.1882  0.0145 -0.0177
 4948W        W14641   9.322  12.959  13.037  0.0008  0.1951 -0.1965
 4949W        W14642   7.237  16.209   1.950  0.0933 -0.1171 -0.1652
 4950W        W14643   5.903   5.756   4.171  0.3227 -0.1609  0.3083
 4951W        W14644  14.193   3.625   1.959  0.3096 -0.2760  0.0425
 4952W        W14645  15.503   6.279   0.595 -0.1133 -0.0508 -0.2204
 4953W        W14646   0.043   5.522   5.242  0.1666 -0.1381 -0.2577
 4954W        W14647   0.890  12.602   0.968  0.2138  0.0950  0.0391
 4955W        W14648   6.014   3.405  16.033 -0.0380  0.2391 -0.2859
 4956W        W14649   4.698   2.063  13.086 -0.0850  0.4121 -0.0775
 4957W        W14650  15.578  11.794   1.327 -0.0904 -0.0120  0.0151
 4958W        W14651   1.917  13.810   3.301  0.1032 -0.1163 -0.1924
 4959W        W14652  17.226  13.060  14.734 -0.2201  0.2196  0.1131
 4960W        W14653   2.196  13.767  12.054 -0.1065 -0.0710 -0.1816
 4961W        W14654  14.659  16.222  10.927 -0.0389 -0.1350  0.2453
 4962W        W14655   5.189   7.563   5.083  0.2583  0.1145  0.0471
 4963W        W14656  17.897  16.249  13.349 -0.1236  0.0683 -0.3526
 4964W        W14657   7.259   1.523  15.511 -0.0138  0.0621  0.0922
 4965W        W14658   0.038   0.986   4.968  0.2762 -0.1001  0.1044
 4966W        W14659   6.748  11.148   1.924 -0.1310  0.0876  0.5671
 4967W        W14660   1.298  14.222  15.651 -0.2839  0.0778 -0.1301
 4968W        W14661  12.766   1.916  16.141  0.1202  0.1824 -0.2225
 4969W        W14662  13.040   3.119  13.958  0.1969  0.0716 -0.0823
 4970W        W14663   6.182   4.437   1.961  0.0817  0.4631 -0.1486
 4971W        W14664  11.532  13.664   2.786  0.0973  0.1971 -0.0110
 4972W        W14665   2.862  14.535  15.364  0.1521 -0.0733 -0.2135
 4973W        W14666   0.709  15.334   1.225  0.4757 -0.2156  0.0206
 4974W        W14667   3.652   7.297  12.583  0.0093  0.0585 -0.0949
 4975W        W14668   5.273  13.975   1.147 -0.0533 -0.2884  0.2005
 4976W        W14669   4.076  16.255   3.463 -0.0142  0.1075  0.4888
 4977W        W14670  17.133  13.440   1.949  0.0265 -0.1428  0.1552
 4978W        W14671   6.675  13.663   3.309  0.0159 -0.2259 -0.0573
 4979W        W14672   2.858  13.587   1.135  0.1279 -0.2230  0.1919
 4980W        W14673   1.471  16.884   5.438  0.1883  0.1649 -0.0647
 4981W        W14674   8.226   1.456   4.683 -0.0450  0.2941  0.0182
 4982W        W14675  15.844  15.297  11.122 -0.2347 -0.0469  0.1544
 4983W        W14676   5.370  16.058  12.406  0.1202 -0.1301  0.1081
 4984W        W14677  12.254   0.190   1.815  0.0285  0.1305  0.1252
 4985W        W14678   4.287   4.162   5.322 -0.2527  0.1953  0.2813
 4986W        W14679   5.286   1.420  11.238  0.0592 -0.0463  0.0411
 4987W        W14680   4.652   8.237  12.942 -0.1460  0.0726  0.0514
 4988W        W14681  13.473   0.478   0.168 -0.3021  0.3552 -0.0030
 4989W        W14682   9.179   5.098  16.618  0.3505 -0.2194  0.0638
 4990W        W14683  11.019  10.547  12.775 -0.1823 -0.1372  0.1387
 4991W        W14684  11.227  16.756  12.736 -0.0474  0.1418  0.0512
 4992W        W14685   5.967   2.234   3.857  0.1298  0.0030 -0.3704
 4993W        W14686  15.035   9.093   3.660  0.0444  0.2872 -0.2888
 4994W        W14687   9.872   3.295   0.777 -0.0396 -0.2066  0.0227
 4995W        W14688   3.751  16.248  11.757  0.1744 -0.2724  0.0304
 4996W        W14689   3.390  16.094  16.036 -0.4965  0.1800 -0.3370
 4997W        W14690   1.141  13.929  12.290  0.1699  0.0621  0.0142
 4998W        W14691   4.962   4.791   4.946 -0.0160  0.0762 -0.1604
 4999W        W14692   2.434   5.587  15.783  0.2901 -0.3392 -0.2771
 5000W        W14693   8.224   2.875  16.806 -0.0369 -0.2935  0.3447
 5001W        W14694  12.086  17.943  13.638 -0.0912  0.0842  0.1521
 5002W        W14695   0.550   8.353   4.598 -0.0614 -0.0120 -0.1613
 5003W        W14696  12.846  10.632  15.992 -0.1181  0.0746 -0.1045
 5004W        W14697  10.750   8.633   2.568  0.0617  0.1864 -0.0404
 5005W        W14698   4.358   7.508  13.481  0.4226 -0.0307 -0.1233
 5006W        W14699  11.802  16.827  11.460  0.1891 -0.3625  0.0175
 5007W        W14700   1.712   6.503   3.251 -0.3296  0.2291  0.2096
 5008W        W14701   4.646  11.947   0.694 -0.0306  0.1389  0.0301
 5009W        W14702  17.788  13.299   0.821  0.5083 -0.1170 -0.2967
 5010W        W14703   9.260  12.491  15.746  0.2920 -0.0335  0.3285
 5011W        W14704   5.480   2.376   4.952  0.1826 -0.0901 -0.3300
 5012W        W14705  16.641  11.643  12.581 -0.0961  0.1438 -0.1599
 5013W        W14706   3.710   3.588   1.635  0.1993 -0.1189 -0.1194
 5014W        W14707  14.890   8.178  16.095 -0.2185  0.0969 -0.0233
 5015W        W14708   4.176   7.320   1.060  0.0054  0.1179 -0.2272
 5016W        W14709   9.715   2.943  14.810  0.0121  0.5236 -0.0116
 5017W        W14710   6.367   9.279  12.210  0.2236 -0.3543  0.2305
 5018W        W14711   8.123  12.813  16.621  0.0765 -0.0595 -0.0662
 5019W        W14712  15.904  13.556  14.737  0.0334  0.1660  0.0201
 5020W        W14713   4.786   0.619  12.524 -0.1951 -0.2442 -0.4588
 5021W        W14714   2.936  10.589  14.708  0.2109 -0.1142 -0.1665
 5022W        W14715  12.607   6.982  14.100 -0.1050  0.1958  0.0925
 5023W        W14716   4.313   5.744   3.964 -0.0409 -0.1263  0.1211
 5024W        W14717   3.914  11.859   2.029 -0.1789  0.1838  0.2063
 5025W        W14718  11.158   7.550   3.551  0.0666  0.1756 -0.1134
 5026W        W14719   6.154  12.371   2.452 -0.0442 -0.1004  0.3220
 5027W        W14720  17.313  12.211   0.329 -0.3574 -0.1483  0.0811
 5028W        W14721   0.098   4.925  13.680  0.1186 -0.2576 -0.3547
 5029W        W14722   1.182   8.733  13.117  0.0058 -0.3387 -0.2031
 5030W        W14723   4.720  12.938   2.467 -0.3838  0.0999  0.0487
 5031W        W14724  13.037   5.805  15.259 -0.0002 -0.1477 -0.1454
 5032W        W14725  10.553  16.800   4.887 -0.0280 -0.0859 -0.0040
 5033W        W14726  17.930  16.993  15.277  0.1861  0.1021  0.0140
 5034W        W14727   2.543   2.443   3.339  0.0095 -0.1385 -0.5608
 5035W        W14728   8.398   0.302  15.666  0.2762 -0.0285  0.0075
 5036W        W14729  16.547   9.362   1.271  0.2341 -0.0075 -0.1107
 5037W        W14730   4.760  10.839   5.615 -0.2127  0.2237 -0.1329
 5038W        W14731  13.261   5.006   0.262  0.2301  0.0140 -0.1496
 5039W        W14732   3.259  17.057  16.785  0.2210 -0.2641 -0.0870
 5040W        W14733  15.828   7.030  14.538 -0.2745 -0.2616  0.3359
 5041W        W14734  17.766   8.056   2.020  0.1889 -0.2672 -0.0371
 5042W        W14735   3.800  17.929   5.064  0.0539 -0.0966  0.0607
 5043W        W14736  17.708   2.211  14.247  0.0142 -0.0906  0.1091
 5044W        W14737   6.600  13.459   1.261 -0.0263  0.0920 -0.0367
 5045W        W14738  15.595   2.180   0.574  0.0560  0.1564 -0.3002
 5046W        W14739   4.100   4.801   4.243  0.0639 -0.2551  0.1918
 5047W        W14740  11.249   1.705  13.917  0.3416 -0.1856  0.2081
 5048W        W14741   8.968  16.264  11.376  0.0581 -0.1692  0.0578
 5049W        W14742   1.621  14.302   2.640 -0.1597  0.2963 -0.0155
 5050W        W14743   2.505  16.604  13.225  0.3228  0.0656  0.0468
 5051W        W14744   5.812   6.382  16.172  0.0072 -0.2902 -0.2366
 5052W        W14745   0.340   6.669  12.987  0.2872  0.0242  0.1185
 5053W        W14746   1.016   1.712   1.587  0.2104  0.0189  0.0054
 5054W        W14747   4.265   4.197   3.519  0.0312 -0.0689  0.1878
 5055W        W14748   9.616  16.546  15.275 -0.0793 -0.0044 -0.0680
 5056W        W14749  10.268   4.803   6.494 -0.3749 -0.0520  0.1963
 5057W        W14750   4.113  17.356   4.471  0.0320 -0.1323  0.2037
 5058W        W14751  13.146   6.963  15.841 -0.5247 -0.0867  0.0332
 5059W        W14752  11.969   2.799   0.887  0.3566 -0.4662  0.1469
 5060W        W14753   6.219   4.645   3.401  0.2746 -0.1356 -0.2206
 5061W        W14754   1.246  17.360   2.376  0.0625  0.1136  0.1970
 5062W        W14755   4.178   0.241  12.227 -0.0712  0.1489 -0.2678
 5063W        W14756   1.095   9.992   0.769 -0.1458 -0.0213  0.1242
 5064W        W14757   7.576   4.112   0.381 -0.0065  0.2501 -0.0875
 5065W        W14758   1.521   9.730  13.509  0.1056  0.0080  0.1068
 5066W        W14759   8.834   4.571  16.445  0.0422 -0.3449 -0.2231
 5067W        W14760   5.737   1.800  12.979 -0.1274 -0.1868 -0.0202
 5068W        W14761  15.193  10.729   3.204 -0.0204  0.2054  0.1987
 5069W        W14762   7.035  12.409  16.719  0.2308 -0.1578 -0.0053
 5070W        W14763   5.607  16.144  10.707  0.2630 -0.0279  0.3452
 5071W        W14764  11.009   1.401  16.512  0.1169 -0.0973 -0.0445
 5072W        W14765   6.576  16.145  16.886  0.0864 -0.1639 -0.2833
 5073W        W14766   6.834   7.172   1.812 -0.2565  0.1010 -0.0963
 5074W        W14767   6.174   3.979   5.109  0.0268  0.3921  0.0071
 5075W        W14768   8.194  11.906   4.558  0.0930  0.4118 -0.1853
 5076W        W14769   6.468   1.548  13.300 -0.1831  0.0481  0.0170
 5077W        W14770   3.434  11.817  12.320 -0.2012 -0.1608  0.0997
 5078W        W14771   5.572  13.795   1.940 -0.1616 -0.0656  0.2121
 5079W        W14772   0.751   9.118   0.904  0.0983 -0.0890  0.0528
 5080W        W14773   5.853   6.621  15.768 -0.1797  0.1662 -0.0027
 5081W        W14774   8.342   8.347   6.969 -0.0214  0.2161 -0.1051
 5082W        W14775   2.931  12.728  14.185 -0.1810  0.1031 -0.0085
 5083W        W14776   5.042  14.088  13.670 -0.1350  0.1977  0.1211
 5084W        W14777   9.372   0.067   4.229  0.2513  0.1293  0.3244
 5085W        W14778   2.896   7.084  16.843 -0.3355 -0.0886 -0.1319
 5086W        W14779  11.176  11.833   1.211 -0.0516  0.0447 -0.2395
 5087W        W14780   5.234   2.642  15.748  0.0197  0.1999  0.0454
 5088W        W14781   7.019   2.764  12.165  0.0152  0.1147 -0.2445
 5089W        W14782  17.638  13.286  12.412  0.3072 -0.2075 -0.0919
 5090W        W14783   7.684  13.490  12.728 -0.0964  0.0624  0.1607
 5091W        W14784  10.847   0.044   1.676  0.1117  0.3359  0.1946
 5092W        W14785  10.387  13.673  14.595  0.0700  0.0073 -0.0768
 5093W        W14786   2.106  17.867  11.382  0.0983  0.2372  0.1924
 5094W        W14787  15.023   9.998   2.405  0.0360 -0.1033  0.0424
 5095W        W14788   5.161   3.653   5.562  0.1555  0.1293  0.0208
 5096W        W14789   0.846  13.999   0.586  0.1272 -0.2361 -0.0069
 5097W        W14790   8.740   5.364   3.989 -0.2402 -0.0318  0.0401
 5098W        W14791   3.618   9.670  12.065 -0.2384  0.2724  0.0923
 5099W        W14792   7.502  15.862   2.226 -0.1433  0.0009 -0.0744
 5100W        W14793  12.777   0.060   0.594 -0.2645  0.3968 -0.0378
 5101W        W14794   1.369  15.295  14.540 -0.1186 -0.0200  0.1041
 5102W        W14795  11.431   6.590  12.231 -0.1939 -0.2157  0.1355
 5103W        W14796   6.089   6.478   3.137 -0.0967 -0.1139 -0.0896
 5104W        W14797  17.350   3.403  10.135 -0.1842 -0.2344 -0.0939
 5105W        W14798   4.396  17.271   4.986 -0.1823 -0.0683  0.0355
 5106W        W14799   3.040  14.360   4.571  0.3699  0.0315 -0.2260
 5107W        W14800   5.500  15.408  15.257  0.0758 -0.2860 -0.0409
 5108W        W14801  17.416  10.679   0.377 -0.1892 -0.1254 -0.3167
 5109W        W14802   7.581   7.574  14.733  0.0918  0.1059  0.3072
 5110W        W14803  15.339   9.859   3.383 -0.0175  0.2981 -0.2021
 5111W        W14804   8.435   5.717  12.173  0.1100 -0.1602 -0.0233
 5112W        W14805  17.190  17.093   2.701  0.0041  0.1786 -0.2458
 5113W        W14806   2.237   1.170  15.080  0.1480  0.1164  0.1568
 5114W        W14807   6.915  14.214   4.819 -0.2912 -0.0341  0.0354
 5115W        W14808  11.491   0.527   5.837  0.1315 -0.1853  0.0557
 5116W        W14809   3.368   5.912   0.782 -0.3374  0.1312  0.1533
 5117W        W14810   3.841   0.756   0.368 -0.1590 -0.1658  0.0094
 5118W        W14811  13.674   9.598  12.087  0.0443  0.3216  0.1206
 5119W        W14812   2.398   5.725  10.955 -0.0356  0.0481  0.0660
 5120W        W14813   0.702   8.357   2.114  0.2687  0.2783 -0.0979
 5121W        W14814   5.569   4.941   4.175 -0.0869 -0.0485 -0.1220
 5122W        W14815  12.719   2.667  16.807  0.2212  0.0946  0.1048
 5123W        W14816   8.131  14.693  15.204 -0.0784 -0.1300  0.1719
 5124W        W14817   2.249  13.082   2.946 -0.2314 -0.1318 -0.0550
 5125W        W14818  16.261  16.792  12.275 -0.2584 -0.0175 -0.2728
 5126W        W14819  15.119   1.292  13.291  0.1228  0.0776  0.1696
 5127W        W14820   5.449   3.565   4.380 -0.0728 -0.0711 -0.2470
 5128W        W14821   1.460  17.400   5.242  0.1102  0.2755 -0.1966
 5129W        W14822   5.653  16.592  12.377 -0.5332  0.1563 -0.0167
 5130W        W14823   3.184  11.435   2.873 -0.2312 -0.0231 -0.1002
 5131W        W14824   1.407   1.646  11.240  0.0140 -0.2232 -0.1966
 5132W        W14825   9.355   1.114  16.015  0.0245  0.2818  0.3081
 5133W        W14826   8.455  16.560   1.368  0.3329 -0.1090  0.5167
 5134W        W14827   8.285   4.365  16.595 -0.0685  0.1062 -0.2836
 5135W        W14828   6.919  16.071   3.532 -0.1818  0.3384 -0.1758
 5136W        W14829   2.475   3.588  15.787 -0.3578  0.0318 -0.0949
 5137W        W14830   8.127   1.674   5.508  0.1238 -0.1722 -0.2653
 5138W        W14831  17.946  17.563   3.314  0.0791 -0.1062 -0.4305
 5139W        W14832   8.596   6.235   4.770 -0.1678 -0.0868 -0.3142
 5140W        W14833   7.008  15.273  15.261 -0.0617 -0.1131  0.2455
 5141W        W14834   7.893  11.336   5.433 -0.0389 -0.2974  0.0886
 5142W        W14835   6.602   9.444   1.198 -0.3317 -0.2107  0.1960
 5143W        W14836   9.643  12.158   1.291  0.2050  0.1475 -0.0424
 5144W        W14837   8.797   8.138  14.717 -0.1911 -0.1745 -0.1903
 5145W        W14838  10.110  13.149  11.494  0.3802 -0.2317 -0.2614
 5146W        W14839   3.471   0.065  16.207  0.1457  0.0753  0.1202
 5147W        W14840   8.737   9.503  12.055  0.1313  0.2932  0.1385
 5148W        W14841   2.363   9.853  13.930  0.0528 -0.0339  0.1238
 5149W        W14842   6.078   4.452  13.275 -0.0944 -0.4551  0.3122
 5150W        W14843  11.620   3.721   6.076 -0.3204  0.1799  0.1573
 5151W        W14844  11.938   0.186   1.381  0.1122  0.0964 -0.1380
 5152W        W14845  10.189   3.029  12.468  0.1987 -0.1960 -0.2036
 5153W        W14846  10.663  16.710  14.742 -0.0673  0.2656  0.0449
 5154W        W14847   6.316  14.420  16.828  0.1334 -0.1169 -0.1630
 5155W        W14848  12.301  11.595  15.685 -0.0646 -0.0309 -0.1841
 5156W        W14849   1.407   3.374   2.458 -0.0520  0.1476 -0.2056
 5157W        W14850   5.514   0.203   5.660 -0.0285 -0.1850  0.1384
 5158W        W14851  15.680   2.821   4.223 -0.1636  0.2504 -0.0924
 5159W        W14852   7.437  13.436   3.925 -0.1466 -0.1530  0.4272
 5160W        W14853   8.167   4.457  15.655 -0.3267  0.5235  0.1782
 5161W        W14854   7.064   4.106   0.431  0.0404  0.1343 -0.1739
 5162W        W14855   8.925  15.213   4.417  0.0814  0.5288 -0.3203
 5163W        W14856   5.281  16.875   0.712 -0.0434  0.1256 -0.1078
 5164W        W14857  16.083   7.824  16.937 -0.2639  0.2983  0.1049
 5165W        W14858   1.253   0.730  13.418  0.1245  0.1162 -0.0127
 5166W        W14859   2.553  17.707   2.035  0.0611 -0.0329  0.0694
 5167W        W14860  15.905   0.282  16.407  0.2273  0.1654  0.1065
 5168W        W14861  15.010   1.936  12.237 -0.2539  0.0234  0.2059
 5169W        W14862   3.019   0.811   3.759 -0.0469  0.0946 -0.2764
 5170W        W14863  17.839  17.718  12.149  0.2078  0.1677 -0.0867
 5171W        W14864   1.835   6.351   4.230  0.0971 -0.1415  0.2058
 5172W        W14865   9.431  17.912   4.656 -0.1094  0.0400  0.0310
 5173W        W14866  10.408   1.118   0.735  0.3238 -0.0642 -0.1298
 5174W        W14867   2.593  16.445   5.885 -0.0105  0.0479  0.1906
 5175W        W14868   6.319   7.645   2.889  0.1692 -0.1272 -0.3368
 5176W        W14869   3.661  14.532  16.939 -0.0945 -0.1345  0.0969
 5177W        W14870  16.413   4.248   0.659 -0.1636  0.0508  0.0681
 5178W        W14871   6.137   8.306   4.072  0.1649 -0.1170  0.0691
 5179W        W14872   7.399  14.861  17.002  0.0362  0.0684  0.0225
 5180W        W14873  13.559   4.259   6.214 -0.1160  0.0786  0.3027
 5181W        W14874  17.327   9.377   3.330  0.2838  0.3607  0.1496
 5182W        W14875   8.922  16.521   4.510 -0.1999 -0.1488  0.1678
 5183W        W14876  17.974   2.563  15.054  0.2847 -0.0683 -0.0180
 5184W        W14877   9.660   8.866  16.542  0.0635  0.0186 -0.1894
 5185W        W14878   9.102   8.357  11.089 -0.3341 -0.2755 -0.4009
 5186W        W14879   9.059   2.308  15.957  0.1275  0.2414 -0.3040
 5187W        W14880  16.219  15.236   1.739 -0.2262  0.1713  0.0601
 5188W        W14881   5.722   7.913  14.778 -0.1781 -0.4514  0.0226
 5189W        W14882   7.780  13.245   0.584  0.1033  0.1432  0.0557
 5190W        W14883   0.797   8.920   3.192  0.1088 -0.1567 -0.2100
 5191W        W14884   1.546  15.226   6.304  0.2063 -0.0741  0.0780
 5192W        W14885   7.512  16.960  12.842 -0.2665  0.0027  0.2034
 5193W        W14886   8.927  12.891   4.161 -0.1145 -0.0159  0.2674
 5194W        W14887   3.435   3.347   3.756 -0.2915  0.0038 -0.0931
 5195W        W14888   8.013  11.934  12.985 -0.0481  0.1788  0.0458
 5196W        W14889   5.203  12.899  12.659 -0.2100  0.1332 -0.1896
 5197W        W14890   3.950  11.239   0.379 -0.1989 -0.1698  0.1095
 5198W        W14891   6.642   1.538   2.274  0.0269 -0.2039  0.1445
 5199W        W14892   3.134  13.373  15.039  0.0295 -0.1712  0.0207
 5200W        W14893   3.150   2.037  14.472  0.0978 -0.0175 -0.0817
 5201W        W14894  16.800   4.682  11.155  0.0886 -0.2513 -0.1826
 5202W        W14895  12.302   1.297   1.100 -0.2494  0.3725  0.0821
 5203W        W14896  15.548   8.676   1.867  0.0766 -0.4299  0.0137
 5204W        W14897   2.864  14.901  16.303  0.0605 -0.0650 -0.2120
 5205W        W14898  12.737   1.102  11.164  0.0693 -0.0464 -0.1878
 5206W        W14899  13.900   6.989   1.052  0.3179 -0.1274  0.2118
 5207W        W14900   3.130   0.538  15.219 -0.1680  0.0738  0.2649
 5208W        W14901  17.013   7.300   4.367 -0.0949  0.1333  0.0089
 5209W        W14902   5.368  15.818   2.477 -0.2554  0.1993 -0.3536
 5210W        W14903   7.362   9.243  13.336 -0.0912  0.2866 -0.2642
 5211W        W14904   2.214  10.748  16.136 -0.1892 -0.1018  0.4209
 5212W        W14905  14.280  15.521   4.328  0.4434 -0.0256 -0.1909
 5213W        W14906   1.426   1.363  17.090 -0.0544 -0.0818  0.2355
 5214W        W14907  10.922   8.372   3.072  0.0428 -0.2363 -0.2109
 5215W        W14908   8.172   6.860  13.342 -0.1010 -0.2784  0.2297
 5216W        W14909   5.089   9.227  16.504 -0.0225  0.0456  0.1207
 5217W        W14910   8.585  12.873   5.949 -0.1579 -0.1121  0.0753
 5218W        W14911   8.087  12.786   2.834  0.1074  0.1884 -0.1904
 5219W        W14912  10.604  11.891   1.065  0.1865 -0.3593 -0.2882
 5220W        W14913   9.327  16.727  12.669 -0.0651  0.1172  0.1308
 5221W        W14914   3.816  16.257  15.872  0.0684  0.0185  0.5402
 5222W        W14915  10.746   2.731   4.140 -0.2450 -0.2140  0.0429
 5223W        W14916  10.239  17.470   1.763 -0.2874  0.1687  0.0067
 5224W        W14917   3.406   5.744   0.252 -0.0913 -0.4572 -0.0423
 5225W        W14918   1.931  10.358  12.296  0.3248  0.3469  0.3301
 5226W        W14919   5.439   3.055  12.471  0.1760  0.2221 -0.3820
 5227W        W14920   6.585  10.968   4.966 -0.1680 -0.2376  0.1562
 5228W        W14921   0.701   0.109  12.636 -0.1415 -0.1114  0.1543
 5229W        W14922   4.291   5.556   1.583  0.0904 -0.0593 -0.0216
 5230W        W14923   0.566   6.174  12.007  0.1676 -0.1703  0.2626
 5231W        W14924   7.067   6.377   2.366  0.1967 -0.0388  0.2386
 5232W        W14925   3.198  12.402  15.489  0.1870 -0.3968 -0.1409
 5233W        W14926   5.200   3.939   0.511  0.2716 -0.4560  0.0157
 5234W        W14927   5.466   1.832  16.298  0.0772 -0.0826  0.0998
 5235W        W14928   3.736  17.870   0.629 -0.0794 -0.0016  0.1477
 5236W        W14929   4.376   1.550  16.920  0.0653 -0.0127  0.2550
 5237W        W14930   6.088   9.796   5.967 -0.1189 -0.0052  0.1706
 5238W        W14931   7.721  14.825   4.991  0.1056  0.2561 -0.2425
 5239W        W14932   9.053  10.973  15.593 -0.0037  0.0356 -0.2644
 5240W        W14933   4.891   4.054   1.339  0.1651 -0.0825  0.0011
 5241W        W14934  15.865   6.730   5.074 -0.3060 -0.0993  0.0143
 5242W        W14935   9.640   7.899   2.826  0.1900  0.6194 -0.1096
 5243W        W14936   3.560  13.995  12.553  0.3098  0.0840  0.4185
 5244W        W14937   0.189  11.692   0.791 -0.1422 -0.1353  0.1791
 5245W        W14938  10.339  10.767   3.607  0.0942 -0.1288 -0.2434
 5246W        W14939   9.241  14.131  11.237  0.1900 -0.3093  0.2520
 5247W        W14940   3.251  11.498  15.332  0.0785 -0.0803 -0.1906
 5248W        W14941   5.882   7.147   2.272 -0.0422 -0.1809  0.1371
 5249W        W14942  12.513  10.247   0.653 -0.1460 -0.0084 -0.3375
 5250W        W14943   8.203  14.388  14.421  0.1309 -0.1095  0.6051
 5251W        W14944  17.593   3.196  13.244 -0.0257 -0.0395  0.2969
 5252W        W14945   1.655   3.929   1.893 -0.0768 -0.1250 -0.0272
 5253W        W14946   6.897   8.049  13.500  0.1020  0.0766 -0.1636
 5254W        W14947  16.862   5.394   5.315  0.0439 -0.1142 -0.1690
 5255W        W14948  17.371  15.145   3.256 -0.2299 -0.2496  0.1367
 5256W        W14949   3.477   9.812   5.689  0.1940  0.1310  0.0039
 5257W        W14950  14.425   0.497   6.519 -0.0385 -0.1629  0.1561
 5258W        W14951   6.420   6.932   5.173  0.0610 -0.0053 -0.0154
 5259W        W14952   5.919   8.097   2.243 -0.4247  0.0808  0.0641
 5260W        W14953  16.784  11.774   1.115  0.1461  0.0108  0.1440
 5261W        W14954  12.362  11.842  12.615 -0.3860 -0.0457 -0.0835
 5262W        W14955   8.347   3.450  13.051 -0.2604  0.2785 -0.0115
 5263W        W14956  10.667  13.548  14.043  0.1572 -0.2288  0.1566
 5264W        W14957   6.242   5.451   0.639  0.1662 -0.3241  0.1523
 5265W        W14958   9.668   0.456  14.807  0.1013 -0.0759  0.1405
 5266W        W14959  12.620   1.907   1.665 -0.0490  0.1425  0.0158
 5267W        W14960   2.506   2.475  10.615  0.5393 -0.4050  0.1830
 5268W        W14961   2.085   1.042   5.225 -0.0704 -0.2015 -0.3300
 5269W        W14962   3.017   6.262   5.559 -0.0143 -0.2097 -0.0882
 5270W        W14963  15.613   1.816  14.859 -0.0448  0.1094 -0.1958
 5271W        W14964   4.515   4.759   3.271 -0.0851  0.1663 -0.0563
 5272W        W14965   5.486   9.176  14.728  0.0098 -0.1354 -0.0249
 5273W        W14966   8.794   2.395   1.160 -0.4206 -0.1076 -0.0302
 5274W        W14967   5.281   3.024  13.852  0.0899 -0.1998 -0.1049
 5275W        W14968   2.965   4.617   2.806 -0.0755  0.2475 -0.4457
 5276W        W14969   8.240   5.860  15.282  0.0041  0.1452 -0.2451
 5277W        W14970  16.799  11.294   1.758  0.2511 -0.1875  0.1267
 5278W        W14971  14.079   9.926  15.547  0.1004 -0.0465  0.4180
 5279W        W14972   7.814   1.633   3.171  0.3901  0.1365 -0.1267
 5280W        W14973   6.173  16.827   3.764 -0.0957 -0.0521  0.4231
 5281W        W14974   8.163  16.713   0.163 -0.0252  0.2321 -0.0156
 5282W        W14975   8.241   3.784   2.875 -0.2785  0.2263  0.0727
 5283W        W14976  16.777   5.763  15.068 -0.0828  0.0520  0.0977
 5284W        W14977   4.144  11.305  13.807  0.0689  0.1034 -0.1081
 5285W        W14978   1.920  10.552  15.807  0.2697 -0.0731  0.4520
 5286W        W14979  15.476   5.980   1.090 -0.0748 -0.2467  0.0398
 5287W        W14980   8.360   2.223   3.631 -0.0649 -0.1620 -0.1396
 5288W        W14981   8.608   7.299   3.583 -0.3059  0.0406 -0.1416
 5289W        W14982   3.565   8.282   1.883  0.0963 -0.2026  0.3047
 5290W        W14983   4.732   4.127   0.680  0.0887  0.3173  0.1341
 5291W        W14984   8.352   0.760   2.368  0.0691 -0.3976 -0.3104
 5292W        W14985   6.862   6.561   6.274  0.2299 -0.3038  0.1215
 5293W        W14986  10.701   6.452   1.501 -0.0442  0.0620 -0.1749
 5294W        W14987   1.009  13.909  16.644  0.1460 -0.2906 -0.1828
 5295W        W14988  14.567  16.981   3.920 -0.0157 -0.0589  0.1583
 5296W        W14989   6.566  14.813   4.333  0.0356 -0.2037  0.1041
 5297W        W14990   0.964  10.555   0.643 -0.1071  0.1119  0.1460
 5298W        W14991  16.021  10.812  14.284 -0.2459 -0.2014 -0.0304
 5299W        W14992   2.273   2.259   6.359 -0.1118  0.1508 -0.3623
 5300W        W14993   5.848   8.643   1.380 -0.1038 -0.0500 -0.1684
 5301W        W14994  12.091  15.228  16.343  0.2429  0.0432 -0.1571
 5302W        W14995   8.291   7.200  15.122  0.3323 -0.4056 -0.0495
 5303W        W14996  15.607  13.201   1.541  0.3535  0.1864  0.1490
 5304W        W14997   3.330  10.718  15.474  0.1007  0.3092  0.2875
 5305W        W14998   5.993   3.786   5.622  0.0021  0.0053 -0.1953
 5306W        W14999  11.184  11.651  16.045 -0.1366 -0.1700  0.0491
 5307W        W15000  17.654  11.248  14.944 -0.1461 -0.0742  0.0987
 5308W        W15001  12.374  10.777  16.246 -0.2451 -0.0454  0.0128
 5309W        W15002  10.785  12.631  16.007  0.1569 -0.0780 -0.2530
 5310W        W15003  10.623  15.310   5.047  0.2736  0.0332  0.0492
 5311W        W15004   3.672  10.935   5.971 -0.0533  0.0956  0.0009
 5312W        W15005  17.142  16.326   1.510  0.0023  0.2352 -0.0137
 5313W        W15006   0.366   8.336  13.210  0.1750  0.0283  0.1196
 5314W        W15007  13.152   7.668   3.277 -0.0829  0.1191 -0.0866
 5315W        W15008   4.131  11.960  13.815 -0.0882 -0.2652  0.0769
 5316W        W15009   1.213  16.087   5.191 -0.1709 -0.0798  0.0512
 5317W        W15010   0.423   6.134  15.970  0.0347 -0.2247  0.2474
 5318W        W15011   6.506   3.842   5.473 -0.1755 -0.4326 -0.2260
 5319W        W15012  17.746  10.611   5.206 -0.1804  0.1695 -0.0650
 5320W        W15013   7.644  12.306  12.326  0.2027 -0.0711  0.3030
 5321W        W15014  10.345   0.563   3.328  0.1176 -0.0451 -0.2179
 5322W        W15015   8.467  13.159  13.196 -0.0945 -0.4075 -0.2146
 5323W        W15016   6.619   0.309   3.078  0.2603  0.2696  0.0902
 5324W        W15017   4.648   7.421   3.370 -0.0438 -0.0399 -0.1799
 5325W        W15018   1.469  15.431   1.551  0.0757 -0.2327  0.0197
 5326W        W15019   3.837   7.990  16.358 -0.1052  0.1746 -0.1576
 5327W        W15020   5.871   1.637   3.024  0.0950 -0.1424  0.0096
 5328W        W15021  14.738  13.108   0.500 -0.2071 -0.0236 -0.0033
 5329W        W15022   5.769  15.675   0.908  0.1580 -0.0269  0.0469
 5330W        W15023   5.757   5.299  15.969  0.3607 -0.2481  0.3154
 5331W        W15024   6.755  13.311   6.019 -0.0928  0.0648 -0.1652
 5332W        W15025   1.324   1.530   2.552  0.1643  0.1607 -0.0772
 5333W        W15026   8.096  10.976   6.805  0.0800  0.0073  0.3607
 5334W        W15027   7.990   9.597  12.686 -0.2906  0.1123 -0.2827
 5335W        W15028   0.599  11.938  11.569  0.1327  0.0019  0.2411
 5336W        W15029   0.841  14.108  11.744 -0.3066  0.3827 -0.0248
 5337W        W15030  12.899  11.479   2.181  0.1597 -0.1786  0.2926
 5338W        W15031   3.190   4.553  12.958  0.1948 -0.3973  0.0897
 5339W        W15032   6.166   4.175  16.915 -0.3636  0.0507 -0.1395
 5340W        W15033   3.402  13.895   6.839  0.2520  0.1162  0.1365
 5341W        W15034   3.738   8.860  14.657  0.0319  0.1553 -0.1506
 5342W        W15035   7.869  12.955  13.672  0.2173  0.1450  0.2095
 5343W        W15036   9.418   9.773  15.813 -0.1452  0.2039  0.1427
 5344W        W15037   0.648   8.512   5.602  0.0867  0.0874 -0.0942
 5345W        W15038  11.971   9.247  16.945 -0.0363 -0.3078 -0.1252
 5346W        W15039   4.902  15.015   3.226  0.2531  0.0380 -0.0688
 5347W        W15040  15.844  11.473   0.915  0.1911 -0.0358 -0.1706
 5348W        W15041   5.745  10.327   5.576  0.1336  0.2774 -0.1688
 5349W        W15042   3.240   3.101  15.646  0.1335 -0.0979 -0.1620
 5350W        W15043   1.011  16.671   1.187 -0.1971  0.1096 -0.2512
 5351W        W15044   8.943   0.032  17.086  0.2583 -0.3994  0.0080
 5352W        W15045   4.888  15.759  13.614  0.0396  0.0269  0.0990
 5353W        W15046   9.642   1.913  15.494  0.0595  0.1855  0.0964
 5354W        W15047  10.006  11.523   0.480  0.0856 -0.1704 -0.0411
 5355W        W15048   7.820   3.156   1.622  0.0001  0.2753  0.0438
 5356W        W15049   7.575   6.795   4.273 -0.0844 -0.2114 -0.0026
 5357W        W15050  14.570   7.433   6.429  0.1088 -0.1878 -0.0458
 5358W        W15051  17.066   8.800  11.634  0.1575  0.0091 -0.1128
 5359W        W15052   0.803  12.526  14.538 -0.1881  0.1176 -0.0911
 5360W        W15053  10.366  17.134  12.658  0.0023  0.0603  0.1409
 5361W        W15054   1.711   2.286  17.090 -0.0586  0.2274 -0.1231
 5362W        W15055   3.377  14.845   0.234 -0.2297  0.4283  0.3052
 5363W        W15056   7.227   0.428   2.596 -0.0920  0.1290  0.2343
 5364W        W15057  11.333   9.538   5.518  0.1915 -0.0863 -0.1008
 5365W        W15058   2.696   8.198  15.992  0.3218 -0.4037  0.2009
 5366W        W15059  15.143   2.214   3.676  0.0587  0.0486 -0.1056
 5367W        W15060  12.731  14.484   4.422 -0.1351  0.4406  0.2911
 5368W        W15061   8.320   2.693   5.486 -0.1292 -0.1710  0.3132
 5369W        W15062  17.494   7.149   0.083 -0.1123 -0.1331  0.1821
 5370W        W15063   1.493   0.297   2.420 -0.5515 -0.1939  0.0305
 5371W        W15064  11.950  13.303   0.605  0.4488  0.0305 -0.0089
 5372W        W15065   2.613   7.124  15.069  0.0246 -0.0696  0.0186
 5373W        W15066   6.119  10.302   6.550  0.1098  0.0662 -0.1425
 5374W        W15067   3.565   5.377  14.814 -0.1482 -0.2923  0.2171
 5375W        W15068   2.687   2.941  15.737 -0.0530  0.0184 -0.1441
 5376W        W15069  17.471   7.233  16.664  0.2815  0.1748 -0.1251
 5377W        W15070  10.080  10.390   3.317  0.0731 -0.2562  0.2111
 5378W        W15071   8.202   5.986  13.057 -0.1016 -0.1409  0.0241
 5379W        W15072   9.945  13.898  13.520  0.0394  0.1942 -0.1106
 5380W        W15073   8.056  14.552  12.951 -0.2809  0.0883  0.0384
 5381W        W15074   1.028   1.082   4.661 -0.1893  0.2387 -0.2060
 5382W        W15075  16.562   4.027   3.519 -0.2356  0.1190 -0.0880
 5383W        W15076   9.384   8.749  14.406  0.2189 -0.0255 -0.4672
 5384W        W15077  11.125   4.720   2.828 -0.2889  0.2008  0.3684
 5385W        W15078   2.630  14.627   4.375 -0.0881 -0.1333 -0.0895
 5386W        W15079  17.949   8.490  14.140 -0.4371 -0.0811  0.1864
 5387W        W15080   3.469   6.521   5.651  0.1550 -0.0504 -0.0175
 5388W        W15081   0.128   7.521  13.852 -0.0117  0.0571  0.1826
 5389W        W15082   6.134  10.960  14.604  0.1584  0.2171 -0.1372
 5390W        W15083  16.319  11.980   2.630 -0.0582 -0.1965  0.0654
 5391W        W15084   3.402   6.856  15.795  0.0484 -0.2058 -0.0224
 5392W        W15085  16.661   3.614  14.706 -0.3897 -0.0132  0.0444
 5393W        W15086   2.377  14.355  14.518  0.0338  0.1802 -0.0207
 5394W        W15087  11.815   0.034  16.720 -0.0636 -0.0152  0.5687
 5395W        W15088   2.147  16.242   2.187  0.0120 -0.0682  0.3537
 5396W        W15089   6.260  17.827  12.790 -0.2417  0.2248 -0.0672
 5397W        W15090  12.874   0.969   5.659  0.1821 -0.0727 -0.0356
 5398W        W15091   7.547  17.431  13.038 -0.1264  0.2568 -0.0733
 5399W        W15092  10.225   9.651  17.116 -0.3206  0.0882  0.0192
 5400W        W15093  11.522   7.478   2.655 -0.3017  0.0124  0.0381
 5401W        W15094  13.750  11.292  11.127 -0.2560 -0.1004  0.2774
 5402W        W15095   9.446   5.293   0.334  0.3050 -0.1094 -0.2451
 5403W        W15096   6.855  16.429  14.784 -0.3924  0.1977 -0.0739
 5404W        W15097   2.602   3.740   1.629 -0.0368 -0.1225 -0.1684
 5405W        W15098  17.916   9.889   1.506  0.2454  0.0304 -0.1685
 5406W        W15099   7.707   0.250  14.998  0.1870  0.1708 -0.2362
 5407W        W15100   9.126   6.455  15.991 -0.1635 -0.3596  0.2864
 5408W        W15101  13.886   5.423  13.813  0.1902 -0.1218  0.0491
 5409W        W15102   7.412  14.820   1.388  0.1045 -0.2723  0.0007
 5410W        W15103   3.394  14.208   0.370  0.1617  0.0968  0.0962
 5411W        W15104  10.592  15.835   4.972  0.0130  0.0099 -0.0578
 5412W        W15105  15.761   7.730   3.659 -0.1575 -0.0001 -0.0524
 5413W        W15106   4.887  15.053   5.768 -0.3944  0.1113 -0.1430
 5414W        W15107  16.224  17.339  11.228  0.3141  0.2276 -0.4944
 5415W        W15108  16.612  12.816  10.918 -0.1363  0.0718  0.2159
 5416W        W15109   5.521   5.791   3.809  0.3948 -0.2415 -0.2157
 5417W        W15110   7.081  15.086   6.024 -0.0116 -0.0229  0.1926
 5418W        W15111   0.288  16.841  16.585 -0.1228 -0.3074  0.0315
 5419W        W15112   7.962   8.916   2.068  0.0370  0.0043 -0.1761
 5420W        W15113   4.967   9.331   3.147 -0.1490  0.3307 -0.1879
 5421W        W15114  17.404   5.831  14.692 -0.0011  0.0204  0.5132
 5422W        W15115  11.287  12.108  16.453 -0.2315  0.1773  0.1185
 5423W        W15116   2.574  13.802   0.020  0.0454  0.2360 -0.0238
 5424W        W15117   9.897   7.292   6.257 -0.0441  0.0160  0.1371
 5425W        W15118  17.833   1.742   0.461  0.0579 -0.1038 -0.2552
 5426W        W15119   5.167   5.097   1.482  0.2572  0.0912  0.2726
 5427W        W15120   0.370  15.427   0.180 -0.0378 -0.2772 -0.3006
 5428W        W15121   5.568   4.199   0.249  0.0624 -0.3195 -0.2542
 5429W        W15122   1.207   1.490   3.218 -0.1232  0.1828  0.0312
 5430W        W15123   4.845  10.692   2.496  0.2763 -0.0736  0.0146
 5431W        W15124   4.014  13.867   4.053 -0.2638 -0.2860  0.4456
 5432W        W15125   7.389  13.393   0.858 -0.2866 -0.1793  0.0741
 5433W        W15126   8.244  13.343   6.574 -0.1815 -0.0451 -0.1601
 5434W        W15127   2.568   4.501   0.033 -0.3086  0.4708 -0.0521
 5435W        W15128   7.613  13.545   3.230  0.3299 -0.2302 -0.2901
 5436W        W15129   5.518   5.594  14.524  0.1852 -0.1701 -0.2261
 5437W        W15130   9.393   2.952   4.603  0.0034  0.1167 -0.0965
 5438W        W15131  11.540  12.854   2.148  0.0482 -0.0585  0.0178
 5439W        W15132   5.002  16.788   1.645  0.2141 -0.0906 -0.0114
 5440W        W15133   3.464   8.013  15.462 -0.3401  0.0224 -0.0116
 5441W        W15134   9.095   4.606   5.357  0.1289  0.1936  0.0310
 5442W        W15135   1.631   0.174  11.470 -0.0590 -0.1781  0.0116
 5443W        W15136  14.851  17.569  16.585 -0.0628 -0.1763 -0.3364
 5444W        W15137  11.861   6.085  11.376  0.1470 -0.1446  0.0586
 5445W        W15138   0.923  10.732  12.935  0.0520  0.0346  0.1680
 5446W        W15139   1.020   3.005  16.731 -0.1342  0.2833 -0.1759
 5447W        W15140   3.908  10.990  12.463 -0.1468 -0.2316 -0.4335
 5448W        W15141   2.007  11.589  16.600  0.5106 -0.1058  0.0826
 5449W        W15142   3.382   5.821  16.793  0.0231  0.0977  0.0420
 5450W        W15143   0.456  11.189  11.584 -0.1401  0.1503  0.0288
 5451W        W15144   3.912  15.404   3.416  0.0883 -0.2264 -0.1913
 5452W        W15145   2.632  10.028  16.325 -0.2695  0.0726  0.1383
 5453W        W15146   8.102   8.585  16.810  0.1004 -0.0154 -0.2124
 5454W        W15147   3.703  13.552   1.875 -0.0015  0.1729  0.0081
 5455W        W15148  12.288   5.511   5.371 -0.0999 -0.0125  0.3120
 5456W        W15149   1.384  17.819   2.612  0.4356  0.0669 -0.0978
 5457W        W15150  12.387   1.941   6.065 -0.1598  0.0612 -0.0184
 5458W        W15151   5.428  14.635   0.823 -0.1652  0.0255  0.2483
 5459W        W15152   5.107   1.713  16.682 -0.1295  0.5105 -0.1289
 5460W        W15153  10.332   1.589   0.352  0.1623 -0.0489 -0.1357
 5461W        W15154   7.813  13.501   5.331  0.0963  0.0339 -0.3158
 5462W        W15155   0.321  17.235   2.993  0.1194 -0.1716 -0.2044
 5463W        W15156   8.041   7.333   2.332 -0.1063 -0.1132 -0.0682
 5464W        W15157   9.581   3.490   5.673 -0.1134  0.0855  0.0962
 5465W        W15158   4.927  13.779  13.994  0.1046 -0.2938  0.1122
 5466W        W15159  14.558  13.551  14.269  0.1892 -0.0495  0.3427
 5467W        W15160   4.244   1.044   1.228  0.0074 -0.0230 -0.3074
 5468W        W15161  12.605   1.908   3.363 -0.0870 -0.0585  0.0510
 5469W        W15162   5.600   7.075  13.896  0.1638 -0.1449 -0.1282
 5470W        W15163   6.967   3.490  15.401  0.1889 -0.1505 -0.1368
 5471W        W15164  13.604   3.114  16.698 -0.0103  0.0667 -0.0670
 5472W        W15165   4.382   9.131   0.010 -0.1088 -0.2841 -0.2298
 5473W        W15166   4.712   9.414  15.880  0.2773  0.0858 -0.0050
 5474W        W15167   0.349  11.711  12.826  0.2428 -0.0422 -0.0541
 5475W        W15168   2.979  14.605  14.820  0.0394  0.0773 -0.2298
 5476W        W15169   3.770  11.502   3.243  0.2030 -0.3345 -0.3474
 5477W        W15170  13.876  15.174   4.327  0.1375  0.0119  0.1131
 5478W        W15171   4.451  13.542  14.029  0.3858 -0.0061  0.2275
 5479W        W15172   6.120  16.495   0.673 -0.0387  0.0853 -0.0903
 5480W        W15173   4.767  17.874   1.474  0.0272  0.1659 -0.2185
 5481W        W15174   8.294  17.013  13.767 -0.0668 -0.1310  0.1290
 5482W        W15175   2.097   0.541   5.494 -0.1192 -0.1180  0.0973
 5483W        W15176   2.024   5.408   5.239 -0.0363 -0.0342 -0.2337
 5484W        W15177   3.202   3.613   5.935  0.2957 -0.1436  0.2077
 5485W        W15178  13.295   0.063   0.788 -0.1479  0.0300  0.1855
 5486W        W15179  16.939   1.864  11.849 -0.0705 -0.1068 -0.0050
 5487W        W15180   6.955   1.144  14.550  0.0188 -0.2743  0.0414
 5488W        W15181  11.963   8.399   5.783  0.0403 -0.1644 -0.0577
 5489W        W15182  15.795  10.061  13.520 -0.0271  0.3697 -0.3178
 5490W        W15183   5.168   0.531   2.745  0.2094 -0.1619 -0.0980
 5491W        W15184   6.558   0.547  14.116 -0.0594  0.0439 -0.1656
 5492W        W15185   5.505   9.356   0.552  0.0979 -0.0108 -0.3715
 5493W        W15186   6.794   1.850   3.580  0.1296 -0.3266 -0.0544
 5494W        W15187   9.382  12.838   3.208 -0.3471  0.1393 -0.0448
 5495W        W15188   0.233  11.668   1.655  0.3702  0.2536 -0.0731
 5496W        W15189   2.816   4.682  12.685 -0.1767  0.1169  0.2309
 5497W        W15190  11.363  15.856  12.518  0.1956 -0.0646 -0.0808
 5498W        W15191   1.202   3.903  10.845  0.1620 -0.3244  0.2174
 5499W        W15192  12.784   6.448   4.500  0.3146 -0.0089  0.3530
 5500W        W15193   6.268   4.393   2.972  0.0403  0.0158 -0.1689
 5501W        W15194  14.497  17.586   0.724 -0.0886  0.2651  0.0017
 5502W        W15195   4.964   2.403   4.907 -0.0803 -0.2476  0.1117
 5503W        W15196   5.022   9.995  13.780 -0.3461 -0.1245  0.2226
 5504W        W15197   4.209   5.725   5.182 -0.0932 -0.0820  0.0162
 5505W        W15198   5.409  12.863  17.035  0.2813  0.3984 -0.1935
 5506W        W15199  11.299  16.113   4.357 -0.0168 -0.0411  0.1783
 5507W        W15200   9.503   6.565  14.663  0.3650  0.1247 -0.1434
 5508W        W15201   3.020  11.850  16.752 -0.0472 -0.0657 -0.0751
 5509W        W15202   7.269   3.232   4.885  0.1556 -0.2195  0.2207
 5510W        W15203   4.334   7.715   2.064  0.0211  0.1686 -0.1584
 5511W        W15204   8.980  14.298  17.036 -0.0765 -0.0872 -0.1329
 5512W        W15205  13.248   8.973   0.702 -0.3252 -0.1301 -0.3107
 5513W        W15206  10.092   3.213  16.956  0.4426 -0.2630 -0.0737
 5514W        W15207   4.465   4.735   1.805  0.2237 -0.0056  0.2063
 5515W        W15208   7.752  13.718  10.791 -0.0525  0.0763 -0.1680
 5516W        W15209   8.303   0.960   0.500 -0.0972  0.2543  0.0235
 5517W        W15210   0.813  16.978  12.940  0.0919  0.2304 -0.0955
 5518W        W15211  16.777   1.246   1.739 -0.3123 -0.0212 -0.0066
 5519W        W15212   5.270  13.888   4.293  0.0550  0.0609 -0.0303
 5520W        W15213  10.233  13.895   4.341 -0.0751  0.0539  0.0921
 5521W        W15214   3.646  13.758   3.594 -0.1850 -0.1104  0.0538
 5522W        W15215   5.074  10.959  16.813 -0.1168  0.2077 -0.2827
 5523W        W15216   2.582  11.088   0.808 -0.1460 -0.2232  0.2078
 5524W        W15217   9.308   3.459  15.427  0.0943 -0.2071  0.1554
 5525W        W15218   2.277  15.312  13.720  0.4189  0.1128  0.0375
 5526W        W15219   2.262   7.266   2.669 -0.3710 -0.0461  0.0942
 5527W        W15220   6.977  12.833   4.362 -0.2434  0.1323  0.1337
 5528W        W15221   8.512   4.166   4.872 -0.1258  0.1679 -0.1713
 5529W        W15222   0.919   2.051   4.370  0.0558  0.1330 -0.2328
 5530W        W15223   5.597  11.547   3.991  0.4392 -0.1159 -0.4546
 5531W        W15224   7.225   6.600   5.889  0.0197  0.0539 -0.1933
 5532W        W15225   8.820   4.138   1.782 -0.0691  0.0174  0.3675
 5533W        W15226   5.332  15.275  14.321  0.1186 -0.1711  0.1413
 5534W        W15227   6.336  11.060  12.650 -0.0568 -0.0448 -0.1741
 5535W        W15228   3.689   4.560  12.940 -0.0389  0.0851 -0.0922
 5536W        W15229   2.644  16.985  14.341 -0.0877  0.1061  0.1346
 5537W        W15230  14.032  14.162   3.580 -0.0400  0.1100  0.1288
 5538W        W15231   9.049  14.495  15.326 -0.2439 -0.1233  0.0318
 5539W        W15232  10.674   5.855  13.671 -0.0885  0.1087  0.0263
 5540W        W15233   2.564  11.931  15.957  0.1019  0.2014 -0.0520
 5541W        W15234  13.205  17.095  10.784  0.0859  0.1485 -0.0042
 5542W        W15235   8.586   4.854   1.375  0.4277 -0.0525 -0.2079
 5543W        W15236  16.967   0.019  13.093 -0.1605  0.4427 -0.3466
 5544W        W15237   6.369  16.298   2.594  0.1434  0.1096  0.0807
 5545W        W15238  17.310   5.468   5.513  0.5279 -0.0085  0.0758
 5546W        W15239   6.706   8.002  14.886 -0.0440  0.2284  0.0707
 5547W        W15240   7.533  17.543  11.676  0.1267 -0.2337 -0.1130
 5548W        W15241   5.581   7.318   1.274  0.0048 -0.5198  0.2976
 5549W        W15242   4.266   0.568   0.509 -0.0828 -0.0698  0.1439
 5550W        W15243   8.379  14.073   4.415 -0.1181  0.1632 -0.0864
 5551W        W15244  17.267   4.831  13.167  0.0716 -0.3303 -0.3176
 5552W        W15245   3.867   2.291  14.543 -0.2137  0.2509  0.4556
 5553W        W15246   9.181   0.852   6.548  0.2508  0.1640 -0.1161
 5554W        W15247   8.283  14.404   1.351 -0.0569  0.2367  0.4406
 5555W        W15248  12.036   1.822  16.539  0.0832 -0.0712 -0.1784
 5556W        W15249  14.634   9.262  17.061  0.0644  0.2636 -0.1790
 5557W        W15250   4.285   4.104   0.418  0.0812  0.0486 -0.2098
 5558W        W15251   8.277  14.682  16.538  0.1193 -0.0536  0.1669
 5559W        W15252   3.971   5.138   5.305 -0.4174 -0.2154 -0.0808
 5560W        W15253  16.473   4.881   5.951  0.2713 -0.4571 -0.0202
 5561W        W15254  13.502   9.091   2.337 -0.2293  0.0966  0.3847
 5562W        W15255  17.248  15.306   1.602  0.1201  0.1122  0.1391
 5563W        W15256  11.669   7.252  17.062 -0.1287 -0.1788 -0.0909
 5564W        W15257   4.224   0.266  13.789  0.2289  0.0376  0.0507
 5565W        W15258   6.623  15.027  15.663 -0.1987 -0.0748  0.0149
 5566W        W15259   7.053   6.905   5.480  0.0054 -0.1124 -0.0495
 5567W        W15260   2.486   8.314   6.525  0.2950  0.1713  0.1719
 5568W        W15261   5.303   1.661  14.906 -0.1443 -0.1971 -0.1510
 5569W        W15262   0.940   3.166   3.590 -0.1108  0.0467 -0.0950
 5570W        W15263   8.358  10.915  14.093 -0.2389 -0.0679 -0.2335
 5571W        W15264   1.575   0.011  12.290 -0.2662  0.1561  0.0414
 5572W        W15265  10.288  16.031  12.881 -0.1965  0.3075  0.0161
 5573W        W15266   5.864   8.310   2.750  0.2766  0.1538 -0.2461
 5574W        W15267   2.896   8.986   2.376  0.0222 -0.0408  0.0930
 5575W        W15268   2.714   9.522   4.092 -0.1988 -0.0669  0.0719
 5576W        W15269  11.961   4.153  14.601 -0.0223  0.3583 -0.0270
 5577W        W15270   5.301   5.703   4.487  0.0758  0.0383 -0.0051
 5578W        W15271   1.393  17.476  14.960 -0.2577  0.0560  0.3537
 5579W        W15272  15.718  11.300   2.964 -0.3734 -0.1359 -0.3689
 5580W        W15273   5.846   9.789   4.728  0.2083  0.2142 -0.0376
 5581W        W15274   0.252  15.293   3.371  0.0562 -0.0070  0.0405
 5582W        W15275   3.922  12.211   6.124 -0.0684  0.1672 -0.0615
 5583W        W15276   1.642   1.041  16.233 -0.0429 -0.1112  0.0249
 5584W        W15277  14.992  10.530   3.941  0.1883 -0.1929  0.0922
 5585W        W15278  11.417  14.691  16.288  0.0871 -0.2431  0.2108
 5586W        W15279   0.876   2.688   1.530  0.4660  0.4143  0.0542
 5587W        W15280   8.982  12.397   2.274 -0.3566 -0.0471 -0.1187
 5588W        W15281  17.349   2.133  10.639 -0.0623 -0.2035  0.0297
 5589W        W15282   3.969   1.249   5.897  0.1438 -0.4514 -0.1089
 5590W        W15283  14.081   1.362   4.671  0.1503  0.1345  0.2163
 5591W        W15284   0.071   5.494  13.550 -0.1446  0.0090  0.0698
 5592W        W15285   4.773   1.641  11.455  0.2018  0.3587 -0.0119
 5593W        W15286   8.115   3.807   1.119  0.0159  0.2599 -0.2307
 5594W        W15287  14.922  17.730   2.622 -0.2858 -0.1389 -0.1262
 5595W        W15288   5.983  12.693   3.282 -0.1714 -0.3960 -0.1550
 5596W        W15289   5.667  10.316  17.046  0.1385 -0.1596  0.2682
 5597W        W15290   8.835   8.465   0.759 -0.0460  0.4276 -0.1353
 5598W        W15291  10.338  17.134   1.121  0.1108 -0.1570  0.2621
 5599W        W15292   9.551   3.539  12.133  0.0775 -0.0933  0.3095
 5600W        W15293   2.790  12.991   2.063 -0.0700  0.0752  0.0355
 5601W        W15294   8.006  13.838   1.923  0.1936  0.1210 -0.2466
 5602W        W15295   4.846  16.933   3.821  0.0608  0.1281  0.1263
 5603W        W15296   5.093   0.940   5.986 -0.1642  0.0830 -0.0578
 5604W        W15297   7.754  11.473   5.879  0.1033  0.1051  0.1265
 5605W        W15298   8.314   4.952   2.827 -0.4657  0.1422  0.0824
 5606W        W15299   6.491   1.048  15.430 -0.3697 -0.0078 -0.4927
 5607W        W15300   8.385   8.637   0.932 -0.0954 -0.1562 -0.1714
 5608W        W15301   6.568  12.047   2.681  0.0639 -0.1965 -0.0603
 5609W        W15302   3.200   6.903  12.313 -0.2004 -0.0223 -0.0451
 5610W        W15303  10.905  16.956   2.498 -0.2675  0.1563 -0.1104
 5611W        W15304   9.810  11.918   2.348 -0.1065  0.0015 -0.0274
 5612W        W15305   0.839  16.677  13.958  0.1951  0.1084 -0.1820
 5613W        W15306   4.495  16.552   3.665 -0.2463 -0.3011  0.1574
 5614W        W15307   2.796   6.899  15.850 -0.1378  0.3113  0.1079
 5615W        W15308   7.357   1.883  16.718  0.1091 -0.1004  0.1172
 5616W        W15309   4.426  12.525   4.861  0.0906  0.1441 -0.1381
 5617W        W15310   2.579  15.482   3.464  0.0974  0.1418 -0.0230
 5618W        W15311  17.851  10.395  15.960  0.0516  0.1434  0.1449
 5619W        W15312  17.482  17.873   2.555 -0.2106 -0.0413  0.2893
 5620W        W15313   4.019  12.810   1.675  0.0557  0.1399 -0.0865
 5621W        W15314   7.686   0.497   3.903 -0.1014  0.0192  0.0679
 5622W        W15315   3.897   7.313   2.659 -0.3166  0.2032 -0.2039
 5623W        W15316   8.319   7.229   1.344 -0.1535  0.2506  0.0901
 5624W        W15317   3.437  10.170   1.817  0.0880  0.0731 -0.1856
 5625W        W15318   3.913  10.708  15.525 -0.2038  0.2057 -0.0397
 5626W        W15319   7.141   1.691  12.789  0.2537 -0.4359 -0.2557
 5627W        W15320   8.039   2.153  14.737  0.0173  0.1945  0.1442
 5628W        W15321  12.978  14.787  11.688 -0.1119 -0.1181 -0.0267
 5629W        W15322   0.897   6.619   2.999 -0.1444 -0.0822 -0.2438
 5630W        W15323  13.780   5.317   1.610 -0.1327 -0.0209  0.3153
 5631W        W15324   2.758  10.603   0.618  0.0687  0.0553 -0.4380
 5632W        W15325   0.761   3.423  15.986  0.0552 -0.4212 -0.3364
 5633W        W15326   7.788  12.150   0.245  0.1354  0.3045  0.3212
 5634W        W15327   8.560   9.325   2.629  0.0817  0.0787  0.0857
 5635W        W15328   2.148   0.950   4.741 -0.2666  0.0947 -0.0458
 5636W        W15329   0.655  13.532   1.231 -0.1501 -0.2665 -0.3224
 5637W        W15330   6.854  15.250  12.167 -0.0366  0.0832  0.0464
 5638W        W15331   6.680  12.213   0.872  0.0953 -0.0518  0.0875
 5639W        W15332  11.222  12.652   0.727 -0.1444 -0.2584 -0.1460
 5640W        W15333  16.755  14.322  14.772  0.2183  0.0716 -0.0393
 5641W        W15334  10.270   7.602  13.947  0.1417  0.0797 -0.1084
 5642W        W15335  11.313  10.302  13.093  0.1055  0.1823  0.0109
 5643W        W15336  17.336   7.643   2.891 -0.3212 -0.1752  0.2728
 5644W        W15337   8.302  15.788  13.669 -0.0257 -0.1624  0.2015
 5645W        W15338   7.056   8.540  15.829  0.3154 -0.0506 -0.2430
 5646W        W15339   0.587  13.515  15.432  0.0851  0.2455 -0.2430
 5647W        W15340   0.485  17.428  11.536  0.0554  0.0280 -0.1622
 5648W        W15341  10.546  12.091   5.528 -0.4512 -0.0507  0.1190
 5649W        W15342  15.912   7.480  13.429 -0.0666  0.2064  0.3257
 5650W        W15343   5.783  15.134  16.806 -0.2795 -0.0774  0.1361
 5651W        W15344   7.427  12.497   5.357  0.3278 -0.1514  0.0867
 5652W        W15345   2.754   0.336   4.912 -0.0531  0.0412  0.0447
 5653W        W15346   8.279   7.360   5.513  0.0906 -0.1989  0.0485
 5654W        W15347   8.393   4.676  16.248  0.0507  0.2186  0.1772
 5655W        W15348   2.593  10.083   3.754  0.0282 -0.0057  0.0520
 5656W        W15349  11.865   8.378   6.659  0.2612 -0.0507 -0.0799
 5657W        W15350  16.162   9.089   3.567 -0.0457 -0.2613  0.1770
 5658W        W15351   8.496   8.806   3.907  0.0188 -0.2411  0.0201
 5659W        W15352   1.598   4.845  10.722  0.1649 -0.1096  0.0987
 5660W        W15353   5.688   3.216   4.823  0.0072  0.3266 -0.0543
 5661W        W15354   7.527  10.592   3.433  0.0251 -0.0452  0.1631
 5662W        W15355   1.586  15.842  13.275 -0.2049 -0.1287  0.0740
 5663W        W15356  13.010  17.434  11.719  0.3540 -0.6356  0.1550
 5664W        W15357   9.682   5.587   5.889 -0.1025  0.0746  0.2150
 5665W        W15358   9.548  17.532  16.113 -0.1406  0.0522  0.0954
 5666W        W15359   3.829  10.151   4.521 -0.0014  0.3471 -0.0864
 5667W        W15360   2.376   8.862   2.279 -0.0768  0.3134  0.0108
 5668W        W15361   1.413   6.206   5.185 -0.1898 -0.1324  0.3149
 5669W        W15362   1.845   9.322   3.755 -0.0520  0.0333 -0.0361
 5670W        W15363   4.930  17.909   0.883  0.1283 -0.1215  0.4003
 5671W        W15364   1.839   8.091  16.111  0.3737 -0.1733  0.0827
 5672W        W15365   8.695  11.842  14.477  0.0641  0.0412 -0.2453
 5673W        W15366  12.369   1.803   4.326 -0.1901 -0.0563 -0.1337
 5674W        W15367   1.189  12.435  13.630 -0.2956  0.0031  0.0300
 5675W        W15368   2.910  16.138  16.788  0.0498 -0.0621 -0.0395
 5676W        W15369   7.656   9.977  11.638 -0.0267  0.4244 -0.0162
 5677W        W15370   3.835   9.637   4.790  0.2960 -0.1723 -0.0094
 5678W        W15371   7.187  15.632  13.842  0.2151  0.0179  0.0017
 5679W        W15372  10.210   4.762   0.858  0.0216  0.0177  0.1924
 5680W        W15373   6.902   7.883   5.015  0.3838 -0.1721 -0.2826
 5681W        W15374   8.510   3.374  14.858 -0.0235 -0.0154  0.0682
 5682W        W15375   9.984  14.736   2.742  0.1432  0.0219 -0.1350
 5683W        W15376   0.357  17.768   1.542 -0.1789 -0.3161  0.1644
 5684W        W15377   5.144   5.509   1.922 -0.1972  0.0956 -0.0440
 5685W        W15378   2.376  15.890  11.574 -0.1746 -0.1710 -0.1443
 5686W        W15379   5.637  12.666   0.330  0.0137  0.2852 -0.3714
 5687W        W15380  11.936  11.074   0.828  0.4061 -0.1704 -0.1672
 5688W        W15381  10.546  13.145  13.776 -0.1142  0.0514  0.1215
 5689W        W15382  12.424  12.197   1.374  0.2655  0.0850  0.0939
 5690W        W15383   0.198   9.857   2.298  0.1343 -0.1208  0.2870
 5691W        W15384  10.922   0.187  14.927 -0.1459  0.1440 -0.0007
 5692W        W15385  12.897  11.544   5.840 -0.2068  0.1057  0.0012
 5693W        W15386  12.468   8.918   2.305 -0.0745  0.1014 -0.3133
 5694W        W15387   6.496  13.730  11.987  0.0450  0.3181 -0.1792
 5695W        W15388   4.740  12.473   2.813  0.0898  0.3238 -0.3497
 5696W        W15389   9.116   0.979   0.884  0.0622  0.1193  0.0050
 5697W        W15390  13.468  12.169   2.736 -0.2278  0.1174 -0.0074
 5698W        W15391   7.453  16.712   3.347  0.1336  0.2257  0.2696
 5699W        W15392   9.977   6.166  16.703  0.0634 -0.0951 -0.1039
 5700W        W15393   5.763   9.536   2.760  0.1293 -0.0589 -0.0120
 5701W        W15394   3.274  10.540   2.191  0.2423 -0.0394 -0.0316
 5702W        W15395  16.924   3.682   0.963 -0.3722  0.0765 -0.4155
 5703W        W15396   1.576  15.662  11.516  0.0487 -0.2298  0.1836
 5704W        W15397   7.407  11.717  15.063 -0.1314 -0.1360 -0.1915
 5705W        W15398   6.039  11.657  15.536 -0.0241 -0.1415 -0.0438
 5706W        W15399  13.420  16.548   2.041  0.1631 -0.2410 -0.1603
 5707W        W15400   7.014   0.219  12.819 -0.4291 -0.3593 -0.0146
 5708W        W15401   8.260   3.870   0.629 -0.1157  0.1892  0.0107
 5709W        W15402   1.225  13.876   4.990 -0.2591 -0.1979 -0.0512
 5710W        W15403   6.120  14.128  15.981 -0.1168 -0.1354 -0.3572
 5711W        W15404   6.385   3.478  12.041  0.1806  0.1471 -0.0681
 5712W        W15405   1.470   3.552  14.684  0.4014 -0.3245 -0.2739
 5713W        W15406   8.215   6.923  14.001  0.1367  0.3847 -0.0014
 5714W        W15407  12.263  14.570   3.444  0.4373  0.2143 -0.0782
 5715W        W15408  11.822   5.229   4.619 -0.0896  0.0802 -0.1680
 5716W        W15409  12.543   1.330   2.336 -0.1448 -0.0546  0.3215
 5717W        W15410  11.464  16.275  16.952  0.0548  0.1814  0.1113
 5718W        W15411  17.710  14.126  16.652 -0.0782 -0.2559  0.2970
 5719W        W15412   4.341   4.166  14.985  0.1124 -0.0536  0.2173
 5720W        W15413   1.613  16.657  16.485 -0.1318 -0.0655 -0.2268
 5721W        W15414   8.919   6.809   4.497 -0.2841 -0.0688  0.0983
 5722W        W15415   4.115  14.729  11.665  0.0397  0.0547  0.3547
 5723W        W15416  12.045   2.417  13.897 -0.0500 -0.3546 -0.0890
 5724W        W15417   4.206  13.693   5.450 -0.1135  0.3378 -0.1236
 5725W        W15418   2.412   0.722   2.154  0.1762  0.0357 -0.0439
 5726W        W15419   0.456   6.307  13.705 -0.0002 -0.0127  0.0759
 5727W        W15420  14.280  10.451   3.171  0.1934  0.0667  0.2461
 5728W        W15421   5.709   4.323   6.441  0.0570  0.2314  0.0978
 5729W        W15422   8.630  10.357   0.067 -0.0954 -0.0330  0.0845
 5730W        W15423   2.848   7.859   5.619 -0.0175  0.2661  0.0614
 5731W        W15424  14.661  17.514   4.320 -0.1443  0.0712  0.0049
 5732W        W15425   6.634   8.186  12.051  0.1463 -0.0849 -0.0157
 5733W        W15426   4.584   3.514  16.483  0.2245 -0.2161 -0.1133
 5734W        W15427   6.150  14.709   5.064 -0.1493 -0.1507  0.0839
 5735W        W15428   2.249   4.523   1.793  0.2547  0.1030  0.0134
 5736W        W15429   2.420  12.390  13.029  0.1854 -0.1984  0.1145
 5737W        W15430   3.450  13.551   5.589  0.1179 -0.1001 -0.0065
 5738W        W15431   0.715   8.537   4.107  0.1051  0.2790  0.1995
 5739W        W15432  17.128  13.855   1.069 -0.0287 -0.0504  0.2543
 5740W        W15433   3.886  15.451   1.270  0.1642 -0.0490  0.2439
 5741W        W15434   2.479  11.611   1.674 -0.1482  0.1678  0.1239
 5742W        W15435   8.506   3.758  15.945  0.0472 -0.1518  0.0000
 5743W        W15436   3.089   7.020   1.900 -0.2568 -0.3600  0.0893
 5744W        W15437   9.726  17.341  17.016  0.0602  0.0891 -0.1851
 5745W        W15438  17.168  15.877  12.837  0.3019 -0.2712 -0.2050
 5746W        W15439   4.260   8.206   1.944 -0.1256  0.1437  0.0382
 5747W        W15440  14.184   4.323   1.294  0.0067 -0.1737  0.0334
 5748W        W15441   4.808  10.057  12.962  0.1405  0.2179  0.0616
 5749W        W15442   7.113  13.843   6.800  0.0893  0.2248 -0.0118
 5750W        W15443  11.350   7.926   0.578 -0.0498  0.2035 -0.1329
 5751W        W15444  10.405   7.715  14.413 -0.1775 -0.0791 -0.1851
 5752W        W15445  13.677  13.378   3.763  0.1127  0.2084  0.0619
 5753W        W15446   7.990  13.644  15.704  0.1247 -0.0210  0.0866
 5754W        W15447   8.280  17.745   1.758 -0.1248 -0.0899  0.0621
 5755W        W15448   4.301  12.217  15.685  0.0695 -0.1750 -0.1465
 5756W        W15449   3.417   9.811  15.217  0.2137 -0.0398  0.3141
 5757W        W15450   9.646   1.282  14.306 -0.4777  0.2143  0.1180
 5758W        W15451   4.425   8.907  15.717 -0.1303  0.0013  0.1277
 5759W        W15452  13.629   7.594  15.103 -0.0187  0.3715 -0.3177
 5760W        W15453  16.517   9.324   3.871  0.1796  0.1950  0.1215
 5761W        W15454   9.005  16.816   1.727  0.3632  0.1497 -0.0592
 5762W        W15455   3.118  15.259   5.874  0.0337 -0.3764 -0.1760
 5763W        W15456   2.323  16.055  13.204  0.1677 -0.0015  0.2202
 5764W        W15457  10.791  17.327  11.498 -0.1674 -0.0466  0.0214
 5765W        W15458   4.407  17.429  12.878 -0.2078  0.0716  0.1795
 5766W        W15459   8.265   3.242  12.595  0.0269  0.1245  0.1810
 5767W        W15460  16.170   6.761   4.602  0.1950 -0.1612  0.2693
 5768W        W15461   7.298  13.268  11.946  0.0432  0.0384  0.1266
 5769W        W15462   5.181  11.280   3.906 -0.0727  0.2144 -0.1280
 5770W        W15463   5.605   7.248   3.399 -0.1228 -0.1466 -0.1580
 5771W        W15464  17.709   6.029  10.648  0.0235  0.4466 -0.0870
 5772W        W15465  11.565  11.386   0.507 -0.2134  0.2575  0.3237
 5773W        W15466   5.046  17.370  12.925 -0.2210  0.2413 -0.5586
 5774W        W15467   0.585  14.920   5.571  0.2728 -0.5083  0.1570
 5775W        W15468  12.260  14.182   5.679  0.1241 -0.1404 -0.0843
 5776W        W15469   2.622  17.854  15.303  0.0355 -0.2231  0.0782
 5777W        W15470   6.675   1.234  12.859  0.2345 -0.1113 -0.3264
 5778W        W15471  17.683  16.018   3.406  0.2737  0.2031  0.0226
 5779W        W15472   3.107   1.621  10.775  0.1446  0.2993 -0.2348
 5780W        W15473   4.884  17.395  14.573  0.1722 -0.0076  0.1582
 5781W        W15474  12.635   1.896  10.563 -0.1140  0.1575  0.1768
 5782W        W15475   2.474  10.151   5.617  0.0227 -0.0517 -0.1130
 5783W        W15476  13.715  13.144   2.284 -0.1824  0.1935  0.0252
 5784W        W15477   7.471  15.986  15.407  0.2497  0.0316  0.2991
 5785W        W15478   6.160  16.071   2.999  0.1013 -0.0438  0.0860
 5786W        W15479   5.304  17.572  17.068  0.0994 -0.0586  0.1502
 5787W        W15480   1.290   4.013   3.228  0.1652  0.2792 -0.3306
 5788W        W15481   9.338   8.482   6.181  0.3289  0.0582  0.2626
 5789W        W15482   0.573  14.064   1.017 -0.2246 -0.0411  0.0917
 5790W        W15483  15.564   3.643   5.395  0.0213  0.0948 -0.3303
 5791W        W15484   7.068  14.850   4.500  0.2445 -0.0456 -0.0115
 5792W        W15485  11.081  12.936   4.391  0.0167  0.0348 -0.0640
 5793W        W15486   9.852  10.971   5.432 -0.2141 -0.0346 -0.2058
 5794W        W15487   9.451   8.880  11.743  0.3700 -0.4496  0.1411
 5795W        W15488   2.443  13.334  14.721 -0.2389  0.3310  0.0290
 5796W        W15489   3.100   4.562   0.529  0.2032 -0.3999 -0.1076
 5797W        W15490  10.931   0.427  16.755  0.2394  0.1699 -0.2839
 5798W        W15491  17.537  13.300  15.676  0.0393 -0.2091 -0.0263
 5799W        W15492   5.133   8.635   0.237 -0.1331  0.0706  0.0786
 5800W        W15493  10.310   2.841   3.973 -0.3072  0.1506  0.0209
 5801W        W15494  16.276   4.408   3.315 -0.0471 -0.0690  0.1325
 5802W        W15495   6.224   0.698   4.390 -0.2547  0.0229  0.2282
 5803W        W15496   1.764  16.631   0.739 -0.2464  0.0240  0.2081
 5804W        W15497   6.618  15.093  11.747  0.1629 -0.2833 -0.1059
 5805W        W15498   5.337  13.320   1.829  0.1415  0.2514  0.1649
 5806W        W15499   8.006   9.626   6.741 -0.0367 -0.1580  0.1685
 5807W        W15500   4.422  13.388   3.397  0.0407 -0.1582 -0.1324
 5808W        W15501  12.812   5.961  16.374  0.1478  0.2412  0.2245
 5809W        W15502  14.641  14.536   5.348 -0.2072  0.0110  0.0636
 5810W        W15503  15.135   0.162  11.491  0.0602 -0.1006 -0.2569
 5811W        W15504   7.231   2.507  15.375 -0.4775 -0.1432 -0.1684
 5812W        W15505   7.757  11.149  13.263  0.0306  0.1310  0.0648
 5813W        W15506  14.391  16.690  14.607 -0.1685  0.0645 -0.0469
 5814W        W15507   2.890   1.780   3.256 -0.1391 -0.1650  0.2342
 5815W        W15508  16.634   0.504   1.444  0.1024  0.2154  0.1495
 5816W        W15509   0.332   1.490   3.023 -0.1230  0.1516 -0.2577
 5817W        W15510  13.509   5.670  11.409  0.0532 -0.3474 -0.0287
 5818W        W15511   3.021   0.162   0.491  0.1253  0.1274  0.1462
 5819W        W15512   5.220  17.723   0.454  0.1428 -0.1966  0.1045
 5820W        W15513   9.917  14.955   5.347 -0.0841  0.1745 -0.0198
 5821W        W15514   7.813   4.546  17.014 -0.5056 -0.0231 -0.0321
 5822W        W15515  10.879   9.596   1.396  0.1910  0.0577 -0.3689
 5823W        W15516  11.561   9.394  16.698  0.1166 -0.3090 -0.2232
 5824W        W15517   0.765   4.130  14.930 -0.3584  0.2145 -0.2988
 5825W        W15518  16.658  12.427  16.848  0.0547  0.1528 -0.1234
 5826W        W15519   5.854   5.347   5.175 -0.1312 -0.1516  0.2436
 5827W        W15520   3.094  12.432   1.369 -0.0680  0.4428 -0.2177
 5828W        W15521   0.947   1.024   3.602 -0.1880  0.0688  0.0021
 5829W        W15522   9.403  14.073  13.840  0.0211 -0.3237  0.2416
 5830W        W15523  15.659   3.008   3.785 -0.3469  0.0669  0.0414
 5831W        W15524   3.859   0.449   2.441 -0.0621  0.0267  0.1555
 5832W        W15525  12.792   4.415   6.329 -0.0930 -0.1772  0.1392
 5833W        W15526   4.990  10.366   1.623  0.1609  0.0414 -0.3580
 5834W        W15527   3.732  11.333  17.022 -0.1669 -0.0660 -0.1215
 5835W        W15528   3.662   5.863   5.799  0.3203 -0.1311 -0.1052
 5836W        W15529   6.509  10.424  15.640 -0.0216 -0.1291 -0.1676
 5837W        W15530   6.815  11.572   6.229  0.0620 -0.2142 -0.1597
 5838W        W15531  15.279  16.220  13.109 -0.0057 -0.0203 -0.0102
 5839W        W15532   4.082   7.090  16.942 -0.1240  0.1004 -0.2048
 5840W        W15533  10.622  17.487   1.271 -0.2732  0.2944 -0.2572
 5841W        W15534   9.628   6.224   4.932 -0.0754  0.0491 -0.3373
 5842W        W15535   3.753   1.067  14.965 -0.1954 -0.0709 -0.0054
 5843W        W15536   7.256  13.809   4.200 -0.0899  0.2736  0.4498
 5844W        W15537  15.277  17.815  11.840  0.1065 -0.1798  0.2311
 5845W        W15538   0.167   2.318  16.785 -0.1568 -0.0090  0.1462
 5846W        W15539   9.049   8.300   5.196  0.0156 -0.0200 -0.1350
 5847W        W15540  17.049  14.830   2.923 -0.1167  0.2061 -0.1674
 5848W        W15541   3.988  17.061   3.383 -0.2656  0.1617  0.2730
 5849W        W15542   5.245   1.554  15.408 -0.2265  0.1125 -0.2361
 5850W        W15543   5.743  13.434   3.513  0.2798 -0.0984  0.1169
 5851W        W15544  11.136   0.283   3.015  0.1090 -0.1368 -0.2319
 5852W        W15545   5.568   0.225  13.967 -0.1480 -0.1842 -0.0020
 5853W        W15546   5.309   6.029   0.275  0.1925 -0.2012 -0.2094
 5854W        W15547   5.576   3.890  12.957 -0.0411  0.1319 -0.0884
 5855W        W15548   4.445   3.246  16.046  0.0332  0.0312 -0.0221
 5856W        W15549  13.375  15.414   1.524  0.0591  0.0901 -0.0578
 5857W        W15550   1.472   2.873  16.434 -0.2304 -0.1520 -0.1527
 5858W        W15551   5.645   7.604  13.871  0.2102  0.2188 -0.2512
 5859W        W15552   4.762   4.190   5.427 -0.3184  0.1621 -0.2352
 5860W        W15553   7.791  13.306  14.921 -0.1054  0.0151 -0.1171
 5861W        W15554  16.838   1.411  15.546 -0.0078 -0.2807 -0.0834
 5862W        W15555   0.734   7.532  16.530  0.0212  0.2091  0.3050
 5863W        W15556   1.405  16.960   1.021  0.3294 -0.1105  0.0167
 5864W        W15557  13.271   0.897   0.309 -0.0278  0.0380 -0.0359
 5865W        W15558   6.257   4.252  15.521 -0.0175 -0.2437 -0.0821
 5866W        W15559   2.929   4.387  15.529  0.3121  0.2370  0.1980
 5867W        W15560   9.374   9.686   1.881  0.3009 -0.1054  0.1752
 5868W        W15561   9.135   5.503  13.063  0.3983  0.0162 -0.0367
 5869W        W15562   2.031   9.132  13.149 -0.0969 -0.0491  0.1032
 5870W        W15563  15.258   1.982  15.244 -0.1135 -0.2036  0.0410
 5871W        W15564   3.804   4.184  15.193  0.2329 -0.1904  0.1778
 5872W        W15565  16.059   8.132   3.445  0.0931 -0.0906  0.4175
 5873W        W15566  11.683   9.863  16.903  0.1749 -0.1468  0.3805
 5874W        W15567   8.615   0.513   3.085 -0.2669 -0.1229 -0.0073
 5875W        W15568  17.693  10.958   0.734 -0.1193  0.0935 -0.1125
 5876W        W15569  14.402  10.050   4.852  0.0609 -0.0043 -0.2098
 5877W        W15570   9.413   0.177  12.687  0.1349 -0.0240  0.1165
 5878W        W15571  17.464   8.267  14.063 -0.0715  0.2185  0.0894
 5879W        W15572   2.715   0.267  14.966 -0.1221 -0.1058  0.4257
 5880W        W15573   5.000  15.311  13.015 -0.0322 -0.0516 -0.2698
 5881W        W15574  11.710   2.111  14.431 -0.0824 -0.2966  0.1036
 5882W        W15575   0.817   5.284   0.462 -0.0198 -0.3488  0.0538
 5883W        W15576  14.105   9.068   0.018  0.1379  0.1097 -0.0414
 5884W        W15577  10.044   4.240   1.576  0.1136  0.1287  0.0655
 5885W        W15578   6.070   2.576   4.273  0.1342 -0.2715 -0.0570
 5886W        W15579  15.173  10.821  16.606  0.2531  0.1205 -0.0376
 5887W        W15580   5.271   5.554   0.564 -0.1239  0.2217  0.2270
 5888W        W15581  13.422   2.621   6.970 -0.1243  0.1456 -0.0616
 5889W        W15582   5.286  13.727   5.000  0.0579  0.2333  0.0189
 5890W        W15583   5.602   9.346   1.936 -0.0383 -0.4949 -0.1186
 5891W        W15584   8.913   7.933   4.823  0.1544  0.0691 -0.4424
 5892W        W15585   7.378   7.544  12.563 -0.0692  0.1944  0.0407
 5893W        W15586   7.630   4.734   5.097 -0.2964  0.1723 -0.3373
 5894W        W15587   8.952   8.672   5.541  0.1232 -0.0985  0.0099
 5895W        W15588  11.009   9.877   2.398 -0.2297 -0.1193  0.2370
 5896W        W15589  10.929   6.961   6.286  0.1597 -0.0467 -0.1801
 5897W        W15590   0.386  17.651  14.047  0.1643 -0.0282 -0.3974
 5898W        W15591  12.837  13.125   2.096  0.0438  0.1570  0.1023
 5899W        W15592  15.382   9.682  14.283  0.3042 -0.0589 -0.0930
 5900W        W15593  15.873   7.024  15.024 -0.4654  0.2205  0.0937
 5901W        W15594  12.431   5.538   2.071  0.1085  0.2188 -0.0074
 5902W        W15595  15.307  13.412   3.760  0.0606  0.0105  0.0949
 5903W        W15596   5.543   3.880   5.329  0.0151 -0.3983 -0.1910
 5904W        W15597  17.966  10.116  14.610 -0.0422  0.0788 -0.0354
 5905W        W15598   2.413  10.559  14.364 -0.1063  0.3365  0.3043
 5906W        W15599   4.141   0.210   4.734 -0.1091 -0.1284 -0.2492
 5907W        W15600  13.962  13.422   5.681 -0.0001  0.0986 -0.1575
 5908W        W15601  16.234  14.523  16.640  0.3828  0.1040  0.1881
 5909W        W15602   7.230  13.926   3.139 -0.1687  0.5332 -0.1942
 5910W        W15603   1.469   8.670   2.613  0.1587  0.0488  0.2659
 5911W        W15604   1.515  11.441  14.927  0.2031  0.0715 -0.2654
 5912W        W15605   0.263   1.150  16.741 -0.1071 -0.1756 -0.0950
 5913W        W15606  17.151   7.481   1.928  0.0429  0.0376 -0.0818
 5914W        W15607   8.720   3.588  13.346 -0.3379  0.2974 -0.0201
 5915W        W15608  15.904   7.856   2.626  0.0708 -0.0425  0.2234
 5916W        W15609   7.206  14.737  15.149 -0.4145 -0.0786  0.0706
 5917W        W15610   6.588  10.843  14.753  0.0235  0.1083  0.0775
 5918W        W15611   5.064   5.167  16.812  0.0790 -0.0023 -0.1198
 5919W        W15612   0.648   6.361   3.402 -0.3088  0.0040  0.0122
 5920W        W15613   3.776   3.608   2.110 -0.2335 -0.1470  0.0802
 5921W        W15614  11.753  17.140  16.844  0.0613  0.0003 -0.2419
 5922W        W15615   4.036   9.678   0.569 -0.3077 -0.1903  0.0250
 5923W        W15616   2.571   9.515  14.662  0.0877  0.0954  0.0886
 5924W        W15617   4.831  17.796   0.028  0.1149 -0.3907  0.0182
 5925W        W15618   5.534   1.867  12.163 -0.0360  0.2810  0.0115
 5926W        W15619   2.643   7.057   0.634 -0.2383  0.0050 -0.1777
 5927W        W15620   4.845   9.037   0.420 -0.0621 -0.2139  0.0542
 5928W        W15621   0.995   8.172   4.732  0.0417 -0.1657  0.3042
 5929W        W15622  15.386  17.551   1.541  0.1089 -0.3638  0.0565
 5930W        W15623   5.555  10.566  13.273 -0.1884  0.2263 -0.1522
 5931W        W15624   6.197   1.861   0.392  0.1138 -0.0197 -0.0457
 5932W        W15625   4.690  12.744   1.990  0.0009  0.1207  0.0796
 5933W        W15626  10.174   9.208  12.943 -0.1659  0.1394 -0.0371
 5934W        W15627   5.563  11.041   2.009 -0.0149 -0.0368 -0.2507
 5935W        W15628   1.915   6.650   0.348  0.2491  0.1421  0.2842
 5936W        W15629   0.888  12.633   4.216  0.0930 -0.1031 -0.1546
 5937W        W15630   2.954  17.379   2.148  0.1212 -0.2005 -0.1279
 5938W        W15631   7.687   4.288   3.494 -0.1655 -0.1257  0.1941
 5939W        W15632   9.722   3.928  11.873 -0.3491 -0.2608 -0.2292
 5940W        W15633  17.812   1.371  15.411 -0.1089  0.4391  0.0559
 5941W        W15634  17.247   0.726  11.182  0.2310  0.1007 -0.1991
 5942W        W15635  11.046  15.827   1.558  0.0818 -0.1629 -0.0076
 5943W        W15636   7.415   3.360  15.646  0.1915 -0.0839  0.0874
 5944W        W15637   3.432   1.329   2.437  0.0596 -0.0970 -0.1283
 5945W        W15638  10.745  17.050  13.438 -0.0740  0.0433 -0.3026
 5946W        W15639   8.734  10.609  14.245 -0.1109  0.3280  0.2720
 5947W        W15640  15.693  14.658   5.438  0.3462 -0.0189  0.2830
 5948W        W15641   9.584   6.583  16.677 -0.0091 -0.2323 -0.1197
 5949W        W15642  17.124   4.457  12.299 -0.3189 -0.0298  0.1645
 5950W        W15643   7.284   3.594  12.348 -0.2491  0.1169 -0.1464
 5951W        W15644   4.520  11.125   2.432  0.0683 -0.1548  0.0952
 5952W        W15645   8.812   9.749  11.241 -0.1396 -0.1327 -0.0253
 5953W        W15646   1.227   9.803   6.381 -0.0493  0.2110  0.3986
 5954W        W15647   6.548   5.768   0.973  0.1653 -0.2215 -0.0922
 5955W        W15648  11.144   2.411   4.145  0.3037 -0.1417 -0.1405
 5956W        W15649   2.133  11.048  12.971  0.3046  0.0783 -0.2112
 5957W        W15650   5.203   8.562   4.899  0.2674 -0.0419  0.1253
 5958W        W15651   9.941  14.590  11.841  0.1014  0.0979  0.1760
 5959W        W15652   5.817   8.156   5.394  0.1268  0.1039 -0.2138
 5960W        W15653  11.567  11.527   2.209  0.0702  0.1057 -0.0479
 5961W        W15654   8.254   5.884   0.399 -0.0657 -0.0843 -0.2603
 5962W        W15655   8.553   1.857   5.081  0.0154  0.0205 -0.0265
 5963W        W15656   4.851  14.082   1.481  0.2073  0.0179 -0.1649
 5964W        W15657  10.457  11.664   4.537 -0.1102 -0.0017 -0.0110
 5965W        W15658   5.629   7.317  12.926  0.0295  0.1872  0.1749
 5966W        W15659   4.750   6.640  14.088 -0.0570  0.0207  0.1285
 5967W        W15660   3.849  10.593   1.029 -0.0732  0.1022  0.1427
 5968W        W15661   8.885   4.157   5.190 -0.3418  0.2356 -0.0157
 5969W        W15662   5.589  14.214  14.432  0.1865  0.1027 -0.1106
 5970W        W15663   6.588  14.750   0.270 -0.0678 -0.0462  0.2605
 5971W        W15664   3.992   0.748   4.862  0.3263  0.0956 -0.0472
 5972W        W15665   3.227   0.941  11.693 -0.0500  0.2588 -0.3065
 5973W        W15666   1.320  13.546  16.431  0.2004  0.0565  0.0102
 5974W        W15667  16.757   1.228  15.097 -0.2605  0.0694  0.0044
 5975W        W15668   1.124   9.224   4.108  0.1435  0.1214 -0.0399
 5976W        W15669   2.665  17.943  15.799 -0.0654  0.0452  0.2360
 5977W        W15670   6.472   6.665  12.267  0.1227  0.1330  0.0895
 5978W        W15671   3.993   1.692   3.165 -0.0155  0.1214 -0.1911
 5979W        W15672   1.988  14.698   0.248  0.0170 -0.1630  0.0106
 5980W        W15673   4.883  17.031  12.109  0.3350  0.4226  0.3027
 5981W        W15674   2.924  14.311   0.372  0.0142 -0.1863 -0.3191
 5982W        W15675   1.198  10.024   5.259  0.1991 -0.2910 -0.2534
 5983W        W15676   9.851   6.051  15.072  0.1967  0.0063  0.0002
 5984W        W15677   6.168   0.039   0.507 -0.2328 -0.0154 -0.0610
 5985W        W15678  16.662   8.040  11.543 -0.1428  0.2408 -0.0707
 5986W        W15679  12.415   8.741   5.888 -0.1445 -0.1400  0.1554
 5987W        W15680   9.077   9.060  14.705 -0.1260  0.1484 -0.0463
 5988W        W15681   7.763   4.264  15.954 -0.1089 -0.1294  0.1018
 5989W        W15682   0.302  14.099  12.015 -0.2161 -0.2529 -0.0332
 5990W        W15683   7.796   2.924   3.738 -0.0204 -0.0820  0.1806
 5991W        W15684   6.409  12.819   3.583 -0.3215 -0.0049  0.0147
 5992W        W15685   5.714   2.217   1.200 -0.1213 -0.1451  0.0239
 5993W        W15686   2.162   1.848  14.677 -0.0815 -0.1219 -0.1036
 5994W        W15687  15.375   2.853  13.733  0.1327 -0.1423 -0.2849
 5995W        W15688   9.144  11.609   5.690  0.0305 -0.2498 -0.0938
 5996W        W15689   2.025   8.834  14.246 -0.1020  0.1344  0.2914
 5997W        W15690   8.554  15.657  12.341  0.3074 -0.2769 -0.1756
 5998W        W15691  14.636   3.483   1.105  0.1097  0.1543  0.0193
 5999W        W15692  15.051  14.577  12.925 -0.2472 -0.1230  0.3876
 6000W        W15693   8.610  11.653   4.349  0.0935 -0.0560  0.1434
 6001W        W15694   7.551   8.053   6.077 -0.0671  0.0938  0.2080
 6002W        W15695   6.843   1.485   1.497  0.0800  0.1989  0.2736
 6003W        W15696   9.633   8.822   0.052  0.1075  0.2444  0.1902
 6004W        W15697   0.959  17.591  14.008  0.0097 -0.1057 -0.1807
 6005W        W15698   2.882   5.204  14.238  0.2578 -0.1354 -0.0218
 6006W        W15699  12.211  11.207   3.625 -0.1508  0.3068  0.1588
 6007W        W15700   6.030  17.166   1.156 -0.1571  0.0937  0.0111
 6008W        W15701   5.826  13.236  13.985  0.2396 -0.0050  0.4066
 6009W        W15702  17.735  16.088  16.346 -0.1401  0.0436  0.0878
 6010W        W15703   7.849   8.960   4.115  0.2334  0.2704 -0.1324
 6011W        W15704   6.613  17.305   3.517  0.0233 -0.2027 -0.2996
 6012W        W15705  15.833   9.148   3.209 -0.2279  0.0271 -0.0038
 6013W        W15706  10.970   0.294   4.081 -0.3453  0.1958  0.0476
 6014W        W15707   8.507   9.526   0.549  0.0980  0.0007 -0.1369
 6015W        W15708   3.921   6.631  16.676  0.4987  0.2101 -0.6559
 6016W        W15709   6.581   8.354  13.022 -0.0531 -0.1470  0.2526
 6017W        W15710   9.758   5.790   3.700  0.2106 -0.0825 -0.0479
 6018W        W15711   6.995   4.439  15.477 -0.5081 -0.0332  0.0033
 6019W        W15712   5.096  11.122   4.388 -0.1973 -0.0902 -0.0120
 6020W        W15713  10.826   7.093  11.356  0.0404 -0.2835  0.1478
 6021W        W15714  15.416   4.908  11.453 -0.0342 -0.1461  0.0485
 6022W        W15715   9.448  10.800   4.002  0.1692 -0.0454 -0.0571
 6023W        W15716   0.145  14.901  13.715  0.1453  0.1713 -0.0985
 6024W        W15717   6.837   3.680   0.772 -0.0886 -0.0618 -0.1267
 6025W        W15718   9.619  14.569  13.699 -0.2345  0.1452  0.0893
 6026W        W15719   1.129   3.328  11.524  0.1914  0.0268 -0.0394
 6027W        W15720   7.580  14.662  11.882  0.0212  0.2686  0.1855
 6028W        W15721  13.545  11.903  16.461 -0.1509 -0.0293  0.1300
 6029W        W15722   1.498  13.867   3.887  0.0365  0.2538  0.0867
 6030W        W15723   4.042   9.195  12.644  0.0294  0.0414  0.3138
 6031W        W15724   0.842  10.559   2.701  0.0346 -0.0312  0.4139
 6032W        W15725   4.062  12.837   0.637  0.2784  0.3108 -0.0172
 6033W        W15726  12.092   3.045  13.297 -0.4944  0.1248 -0.1072
 6034W        W15727  14.177  14.435  16.359 -0.4075 -0.1467  0.2355
 6035W        W15728   9.363   9.351   4.028  0.1444  0.0369 -0.3250
 6036W        W15729   4.775   6.785  13.106  0.0178 -0.2444 -0.1868
 6037W        W15730   5.603  14.398   3.518 -0.0512  0.1573 -0.0468
 6038W        W15731   8.142   6.759   1.508  0.1443 -0.0239 -0.1548
 6039W        W15732  10.532   9.402  15.715  0.2052 -0.1302  0.0024
 6040W        W15733   5.127   7.995   3.291  0.1007  0.0332 -0.1419
 6041W        W15734  13.249  16.875  10.374  0.0172  0.1684  0.0753
 6042W        W15735   6.161  14.902  16.475  0.0148  0.2380  0.1605
 6043W        W15736   2.654   6.632   5.629 -0.0808 -0.1069 -0.3194
 6044W        W15737   4.257  11.575  14.322  0.2766 -0.0059  0.0827
 6045W        W15738  11.691   3.844   1.630 -0.1008 -0.3074  0.0041
 6046W        W15739   9.261   9.479   4.538  0.4063 -0.1261  0.0178
 6047W        W15740   2.861   3.086   5.941  0.1163  0.1824  0.3620
 6048W        W15741   7.860  13.023   3.643  0.2189 -0.0472 -0.1396
 6049W        W15742  15.744  10.874  10.970 -0.1164 -0.1243 -0.0455
 6050W        W15743   2.107  15.309   2.663 -0.3351 -0.0978 -0.1048
 6051W        W15744   5.021  15.599  16.829 -0.2959 -0.0237 -0.1724
 6052W        W15745   1.904  17.014   1.059  0.0382  0.2080 -0.0864
 6053W        W15746   9.352  17.323  16.674 -0.3515 -0.0418  0.0634
 6054W        W15747   9.204  13.652   3.590  0.1586  0.1894 -0.0139
 6055W        W15748   7.571  13.667  14.364  0.1559 -0.1941  0.0170
 6056W        W15749   3.691   8.760   2.319 -0.0766  0.0302 -0.1078
 6057W        W15750   4.368  12.405   5.719  0.0875  0.1426 -0.3214
 6058W        W15751  11.402  14.545  13.026 -0.2399  0.0723  0.1429
 6059W        W15752   6.560  15.112   6.228  0.0641  0.2016  0.3131
 6060W        W15753  17.669  12.844  16.842 -0.0737  0.0401  0.1459
 6061W        W15754   5.872  16.279   1.824  0.2461  0.1232  0.1161
 6062W        W15755   2.778  17.939   3.179  0.4704 -0.0307 -0.1651
 6063W        W15756  13.398   5.677   3.592  0.0564  0.3088 -0.1408
 6064W        W15757  17.449  14.865   3.706  0.0676 -0.1597 -0.0014
 6065W        W15758  14.286   4.535   4.572 -0.1610 -0.2430  0.1549
 6066W        W15759   6.734   8.242  13.982  0.3346  0.1125 -0.0306
 6067W        W15760   7.853  12.545  17.110 -0.0577 -0.0793  0.0580
 6068W        W15761   5.372  14.988   3.593  0.1085 -0.0033 -0.0251
 6069W        W15762  12.112  10.689   2.366 -0.0927  0.1274 -0.2001
 6070W        W15763  17.768   6.124  13.616 -0.0294  0.0293  0.0253
 6071W        W15764   7.851   7.817   5.685  0.0447 -0.1985  0.2034
 6072W        W15765   1.658  12.664  13.885 -0.1130 -0.0424  0.2951
 6073W        W15766   4.852  13.414   2.533  0.0006  0.0382 -0.1516
 6074W        W15767  12.197  14.050   3.384 -0.0201 -0.2006  0.2459
 6075W        W15768  13.695   2.022   4.126  0.0488  0.1429  0.2132
 6076W        W15769   0.740  14.389   0.134  0.2600  0.2711  0.0508
 6077W        W15770   0.556  15.493  16.519 -0.1734  0.3073 -0.1346
 6078W        W15771   7.495   3.509   4.466  0.1881 -0.1178 -0.1161
 6079W        W15772   4.409  16.404   2.483  0.0038 -0.0859  0.2961
 6080W        W15773   4.275  13.041   3.761 -0.2036  0.0816  0.2412
 6081W        W15774   7.712   4.684  13.043 -0.3428  0.1152  0.1708
 6082W        W15775   1.527   5.761  16.318 -0.4170 -0.0142  0.1508
 6083W        W15776  15.917   4.867   4.254  0.2030 -0.0504  0.0572
 6084W        W15777   4.517   0.215   0.187 -0.2387 -0.0296  0.2030
 6085W        W15778   6.685  14.721  16.438 -0.3234  0.1886  0.3467
 6086W        W15779   9.315  11.043   5.634  0.0217  0.0967  0.0136
 6087W        W15780   2.506   6.238  14.716 -0.0774  0.0073  0.2605
 6088W        W15781   3.231   1.363  16.581 -0.0044 -0.0678 -0.3128
 6089W        W15782  11.904   9.139   2.128  0.1193  0.0293 -0.0291
 6090W        W15783   8.139  16.012  16.891 -0.1292 -0.1765 -0.1608
 6091W        W15784   7.916   7.173   6.883 -0.0088 -0.1255 -0.3366
 6092W        W15785  15.433   9.557   4.874 -0.0676 -0.4148  0.1414
 6093W        W15786  17.963   6.342  13.143 -0.1287 -0.0204  0.1722
 6094W        W15787   2.708   8.946   1.831  0.0458 -0.0801  0.1599
 6095W        W15788  15.563   1.121  16.350  0.1189 -0.0489  0.3303
 6096W        W15789  14.218   3.003   2.006 -0.0499 -0.3376  0.0943
 6097W        W15790   8.339  14.283  13.454 -0.1387  0.0467 -0.1040
 6098W        W15791  11.945  10.698  12.701  0.4364  0.1297 -0.0303
 6099W        W15792   2.548   2.508   2.427  0.2141 -0.0996  0.0899
 6100W        W15793  13.896   2.172   0.903 -0.0051  0.0285  0.1851
 6101W        W15794   7.225   2.295   5.294  0.0595 -0.1101 -0.0484
 6102W        W15795  10.257   7.537   3.154 -0.2282  0.2034  0.1311
 6103W        W15796  10.670  13.585  12.292 -0.0576 -0.2046  0.1012
 6104W        W15797   2.823   8.187   0.280  0.1247 -0.0458  0.2522
 6105W        W15798  11.055  17.357  16.062  0.1550  0.1661 -0.0090
 6106W        W15799   6.005  11.106   3.876 -0.1938  0.1700  0.3682
 6107W        W15800  11.205   8.499   2.670  0.0957  0.1113  0.2655
 6108W        W15801   5.719   3.435  15.641  0.0073 -0.1206 -0.2408
 6109W        W15802   4.934  12.757   1.214  0.5176 -0.0885  0.1145
 6110W        W15803   4.613   9.678  13.795 -0.1227 -0.1478  0.2834
 6111W        W15804   5.399   4.497   2.991  0.2795 -0.1641  0.0957
 6112W        W15805   3.792  14.810   3.588 -0.0648 -0.2464 -0.0181
 6113W        W15806  13.967  10.513   4.603 -0.0142 -0.2047 -0.0678
 6114W        W15807  15.318   1.914   4.326  0.3506  0.0733  0.2036
 6115W        W15808   7.121  10.902   4.285 -0.5873  0.0473 -0.3380
 6116W        W15809   5.487   4.333  16.431 -0.2697 -0.0252 -0.0283
 6117W        W15810   6.365  10.447   4.348 -0.1527  0.2072 -0.1859
 6118W        W15811   2.359  13.524   3.100 -0.2335 -0.1157 -0.0743
 6119W        W15812   6.033  16.923  16.450  0.3964  0.0125 -0.1307
 6120W        W15813  14.532   5.689   2.613 -0.0461 -0.2525 -0.0281
 6121W        W15814  15.881   5.268   5.221  0.0376 -0.2762  0.1142
 6122W        W15815  11.595  10.659   2.171 -0.4370  0.0649 -0.1303
 6123W        W15816   4.350   2.788   0.368  0.0539  0.4030 -0.3136
 6124W        W15817   3.211  14.401   4.998 -0.0828 -0.3452  0.2682
 6125W        W15818   6.943  17.765  13.478 -0.2377 -0.1056  0.0786
 6126W        W15819   5.895   0.013   6.029  0.3575  0.1089 -0.3912
 6127W        W15820   1.698  17.801   1.608 -0.1263 -0.2720  0.2422
 6128W        W15821  11.111   7.798   5.857 -0.0539  0.1865  0.0669
 6129W        W15822   1.292   1.212  13.405  0.0049  0.1571  0.0122
 6130W        W15823  16.587   0.651   5.678  0.1802  0.1309 -0.0011
 6131W        W15824  11.555  14.194  13.336  0.0075 -0.1452  0.3585
 6132W        W15825   6.710   2.705   0.744 -0.0142 -0.2766 -0.0619
 6133W        W15826  12.498  13.504   5.716 -0.0115 -0.1868 -0.3143
 6134W        W15827  10.522  12.622   2.656 -0.0371  0.0073 -0.4157
 6135W        W15828   7.826  16.290   0.149 -0.0373 -0.0108  0.1037
 6136W        W15829  13.542   6.555  13.817  0.5922  0.2136  0.0430
 6137W        W15830   8.703  16.323   5.535 -0.2270 -0.1843 -0.1698
 6138W        W15831   1.453  10.252  13.360  0.0607 -0.2882 -0.1478
 6139W        W15832  10.695   2.583  15.099  0.0889 -0.2508 -0.1971
 6140W        W15833   2.424  13.850  14.539  0.1786 -0.1390  0.0194
 6141W        W15834  16.816   9.014   5.750  0.3012  0.0622  0.2999
 6142W        W15835  12.962   1.319  13.544  0.2604  0.0681 -0.0897
 6143W        W15836   7.183  15.920   3.947  0.3254 -0.0947  0.3804
 6144W        W15837  15.498   6.027   3.684 -0.1968  0.0959  0.4250
 6145W        W15838   7.961  10.744  17.008  0.0675 -0.0163 -0.0187
 6146W        W15839  12.894   0.050  15.366 -0.3690  0.1471 -0.0715
 6147W        W15840   2.064   1.994   5.552 -0.0825  0.1170 -0.1433
 6148W        W15841   7.147  15.540   4.539 -0.0712 -0.2518  0.1328
 6149W        W15842  11.199  14.772   1.357 -0.3979  0.0535 -0.2509
 6150W        W15843  13.332   4.817  14.413 -0.1074 -0.3350  0.1551
 6151W        W15844  13.997   5.711  15.493 -0.0868 -0.2914 -0.5567
 6152W        W15845   7.613   7.439  11.887  0.5648 -0.4558 -0.2095
 6153W        W15846   3.738   7.156  15.559  0.0983 -0.1194  0.2476
 6154W        W15847   7.350   1.316  10.559 -0.2474  0.0857  0.0945
 6155W        W15848   1.106   5.358   4.503  0.0956  0.0405  0.0329
 6156W        W15849   7.148   6.467  16.764 -0.3072  0.0277  0.4051
 6157W        W15850  11.409  12.274   4.894  0.1596  0.0501  0.4065
 6158W        W15851   0.246  13.110  13.648  0.1983 -0.2270  0.1142
 6159W        W15852   1.955   3.580  17.034  0.3253 -0.1459 -0.2852
 6160W        W15853  15.030   8.898   4.584  0.1593 -0.3082 -0.3591
 6161W        W15854   2.811  12.773  15.455  0.1054 -0.0233  0.0819
 6162W        W15855   9.075   7.725  14.489 -0.2559  0.3203 -0.0998
 6163W        W15856   3.807  14.006   5.484  0.1696 -0.0555 -0.0365
 6164W        W15857   9.887   2.673  14.387  0.1959  0.2051 -0.2087
 6165W        W15858  13.430   5.395  13.602  0.1814 -0.0876 -0.1558
 6166W        W15859  15.168  17.810  14.022  0.2081  0.1661 -0.2019
 6167W        W15860   4.687  11.182   1.082 -0.1753 -0.0425 -0.3480
 6168W        W15861   5.553   0.666   3.007 -0.0524  0.0508  0.3460
 6169W        W15862  10.146  15.152   4.394 -0.0875  0.1509  0.2943
 6170W        W15863   3.709   8.907   5.301 -0.3426 -0.0332  0.0581
 6171W        W15864   9.302  11.800  13.731  0.1013  0.0697  0.0847
 6172W        W15865  15.695  15.588  11.615  0.0347 -0.1693 -0.3162
 6173W        W15866   3.021   3.777  15.842  0.0999 -0.0031  0.1626
 6174W        W15867  17.691   0.945   2.681  0.1656 -0.0806  0.0616
 6175W        W15868   2.976   9.434   5.936  0.0535  0.3036  0.0094
 6176W        W15869  12.310   9.595   4.517  0.1989 -0.2138  0.0461
 6177W        W15870   8.964   6.988  12.941  0.0652  0.2223  0.2395
 6178W        W15871  10.045   7.546  14.781  0.1289  0.0409  0.2430
 6179W        W15872  17.542   8.965  15.598 -0.0871 -0.1197 -0.1063
 6180W        W15873   6.939  11.047   5.302  0.0094  0.1497 -0.1107
 6181W        W15874   2.146   2.094  12.856 -0.3118 -0.0544 -0.0714
 6182W        W15875  10.769   6.039  13.206  0.2373  0.1717  0.0574
 6183W        W15876  12.324   7.872  15.814 -0.1834  0.0608 -0.2126
 6184W        W15877  11.253   5.942  14.883 -0.0606 -0.0965 -0.0031
 6185W        W15878  16.470  17.602   1.872  0.1135 -0.3309  0.0380
 6186W        W15879   1.247  11.502   2.545  0.1847 -0.1634  0.0006
 6187W        W15880   0.118  17.626   6.268 -0.0521 -0.1282  0.1230
 6188W        W15881  12.897   3.870   4.655  0.1312 -0.0088  0.0975
 6189W        W15882  17.313   7.876   2.242 -0.0616  0.0308  0.2993
 6190W        W15883   5.269  13.768  14.403 -0.0929  0.0437  0.2178
 6191W        W15884   3.702  13.620   6.008  0.1467 -0.1324  0.0674
 6192W        W15885   4.256  17.516   1.279 -0.1449 -0.1771  0.1872
 6193W        W15886   2.177   2.206  12.361 -0.1089 -0.6499  0.2777
 6194W        W15887   3.698   5.618   6.749  0.0837 -0.0002 -0.2125
 6195W        W15888   8.386   8.700  14.136 -0.0870 -0.0112 -0.0705
 6196W        W15889   8.805  13.572  16.406 -0.1779  0.0070  0.1040
 6197W        W15890   4.766   6.660   5.355  0.3728 -0.0681 -0.0692
 6198W        W15891  12.988   7.649  12.004  0.1254  0.2720 -0.2635
 6199W        W15892  13.017  13.775   2.859  0.0895 -0.1948 -0.2225
 6200W        W15893   6.366   7.383   3.322 -0.2843  0.0502 -0.1621
 6201W        W15894   1.064  14.028   3.808 -0.0562  0.1746 -0.1127
 6202W        W15895   4.995   5.272  13.425 -0.1995 -0.0029  0.1722
 6203W        W15896   4.656  10.935  13.595 -0.1674 -0.1300 -0.0338
 6204W        W15897   5.717   2.145  15.747 -0.2036 -0.2077 -0.1348
 6205W        W15898   3.322  13.251   4.650 -0.1524 -0.2033  0.2548
 6206W        W15899   6.956  16.627   2.108  0.1675  0.1862  0.0060
 6207W        W15900  10.932   5.994   2.048  0.1922  0.0416 -0.1245
 6208W        W15901   6.379   8.164   0.757  0.0894  0.1424 -0.3699
 6209W        W15902   6.339   5.849   2.496  0.2460 -0.3954 -0.1402
 6210W        W15903   5.233   4.883  15.672  0.1237  0.0714  0.1844
 6211W        W15904   4.271   5.780  16.912 -0.0727 -0.0411 -0.0950
 6212W        W15905   7.098  10.226   5.035  0.1273  0.0432  0.2828
 6213W        W15906   1.570  13.044  16.233 -0.1513 -0.0920  0.0102
 6214W        W15907   0.162   6.520  16.765 -0.0116 -0.4704  0.0462
 6215W        W15908   6.767   6.635  13.369 -0.0954 -0.1174 -0.3592
 6216W        W15909   6.435   4.653  14.035  0.0736  0.1026 -0.4615
 6217W        W15910  12.690  11.042   6.135  0.0192  0.4023 -0.2204
 6218W        W15911  17.705   0.500   6.086  0.2120 -0.0574  0.0205
 6219W        W15912  16.004  12.392   1.217 -0.1038 -0.0061 -0.1053
 6220W        W15913  11.732   9.043  15.483 -0.0034 -0.0175  0.2621
 6221W        W15914   5.418  16.552   4.683 -0.2418  0.1025  0.1052
 6222W        W15915   3.077   2.428  13.117 -0.0053 -0.1254 -0.1255
 6223W        W15916  10.312  12.392   0.312  0.1166  0.1248 -0.1779
 6224W        W15917  14.397   2.119  12.211  0.0554 -0.2138 -0.0162
 6225W        W15918  10.646   0.460   3.748  0.0062 -0.1166  0.1217
 6226W        W15919   6.568  15.880  15.100  0.0856  0.1415  0.1235
 6227W        W15920   3.106   7.114  11.815  0.2171 -0.1215  0.1363
 6228W        W15921  17.897  10.949  13.398  0.4441 -0.1845 -0.1681
 6229W        W15922  11.369  15.304  15.762  0.0361 -0.2925 -0.1319
 6230W        W15923   7.411   3.388  13.033 -0.2096  0.0183 -0.2001
 6231W        W15924  17.843  16.693  13.950 -0.1008 -0.0863 -0.0798
 6232W        W15925   5.467  15.621  15.980  0.3078 -0.4444  0.0106
 6233W        W15926   3.610   8.894   0.224 -0.0987  0.0768  0.1271
 6234W        W15927   0.702   2.784   4.902 -0.3547 -0.0732 -0.2929
 6235W        W15928   3.125  13.079  12.551 -0.2320 -0.1820 -0.1328
 6236W        W15929  13.034   1.753  15.122  0.3921 -0.2079 -0.2378
 6237W        W15930   4.615   5.613   1.120  0.0949  0.0570 -0.1353
 6238W        W15931   3.926   4.375  13.386  0.1720 -0.2516 -0.5045
 6239W        W15932   8.320   5.903   3.418  0.1783 -0.0201 -0.0219
 6240W        W15933  12.603  11.908  11.805 -0.2614 -0.0769  0.0801
 6241W        W15934   6.584   9.344  13.784 -0.0267 -0.0662  0.1662
 6242W        W15935   0.998  15.239  13.804 -0.0618 -0.1422  0.1334
 6243W        W15936   8.010  10.805   4.495 -0.1567 -0.1647 -0.1556
 6244W        W15937   7.308  15.915  16.589  0.2503 -0.0089 -0.1192
 6245W        W15938   1.468  10.871   1.139 -0.2012 -0.1193 -0.0184
 6246W        W15939   4.558   8.618   5.615  0.1234 -0.3945  0.2080
 6247W        W15940   3.662   6.067   3.465  0.1547  0.0501 -0.0310
 6248W        W15941  10.010  13.089  13.461 -0.0468  0.1214  0.6231
 6249W        W15942   3.900   7.416   2.133 -0.2646  0.0150  0.2511
 6250W        W15943   5.687  11.278  14.848  0.2400  0.2235 -0.0211
 6251W        W15944   0.436  15.958   0.305  0.2071  0.2081 -0.0923
 6252W        W15945   6.947   4.230   0.918  0.1598 -0.0782  0.1122
 6253W        W15946   5.795  13.694  13.701 -0.0103  0.2129  0.0846
 6254W        W15947  10.472   3.949   2.298 -0.0377 -0.1593  0.0177
 6255W        W15948   4.979   5.478  16.404  0.1501 -0.2213 -0.3043
 6256W        W15949   4.195   3.362   5.710  0.1780 -0.0310 -0.2948
 6257W        W15950   9.986   2.350  13.402  0.0430 -0.0779  0.3682
 6258W        W15951   9.121  14.822  12.327  0.2153 -0.1029  0.1058
 6259W        W15952   3.265   5.448   6.569 -0.3438  0.0657 -0.2977
 6260W        W15953   6.711   3.218   3.234 -0.0050  0.5201  0.4239
 6261W        W15954   3.282   9.017   2.697  0.1006 -0.0518 -0.0949
 6262W        W15955   7.788   8.379  16.407  0.1600  0.1076  0.0993
 6263W        W15956  17.972   1.565   3.923  0.3088  0.1019 -0.0085
 6264W        W15957   5.106  12.136  13.196  0.2678  0.2023 -0.0726
 6265W        W15958   4.626   5.366  16.974  0.0040 -0.0642 -0.1390
 6266W        W15959   4.395  14.812  13.996  0.3632  0.0433 -0.0130
 6267W        W15960   8.166   9.836   4.022 -0.0584 -0.0748  0.2105
 6268W        W15961   6.047   9.853   6.476 -0.0672  0.1648  0.2956
 6269W        W15962   0.525   7.092   4.257 -0.2174 -0.3003 -0.0358
 6270W        W15963   2.939  17.105   5.342  0.0026  0.1566  0.1645
 6271W        W15964  17.064   6.264   5.947 -0.2444  0.1261  0.1267
 6272W        W15965  12.080   4.280  15.624  0.1291  0.3543  0.3367
 6273W        W15966   9.884  10.876   3.200 -0.2367 -0.0005  0.2082
 6274W        W15967  12.664  12.430   4.816  0.0015  0.2336  0.0105
 6275W        W15968  12.391  16.655  13.184  0.1429  0.0987 -0.1201
 6276W        W15969   7.631  17.718   5.160 -0.4643 -0.0876  0.1550
 6277W        W15970  11.635   6.220   4.036 -0.0208  0.1338  0.1076
 6278W        W15971   3.351  13.273   3.349  0.0660 -0.0821  0.2975
 6279W        W15972  10.203   2.251   2.756  0.1518  0.0379 -0.1065
 6280W        W15973  10.571  17.112   6.637 -0.1409 -0.2051  0.2307
 6281W        W15974   5.338   1.222   5.606  0.1726 -0.3373 -0.0190
 6282W        W15975   2.928   1.440   5.928 -0.0617 -0.0504 -0.2479
 6283W        W15976   0.207  13.541   0.277  0.0997  0.0799  0.0322
 6284W        W15977  17.683   7.928   4.669 -0.0524 -0.0268 -0.3304
 6285W        W15978   1.325   9.981   1.478  0.1900 -0.0572  0.0442
 6286W        W15979   4.018  16.894  11.753  0.0747 -0.1438 -0.0552
 6287W        W15980   8.194  10.375  15.766 -0.1713 -0.3932 -0.3463
 6288W        W15981   6.010  17.560  15.810  0.1786 -0.0293  0.2517
 6289W        W15982   7.682  15.194   3.830 -0.1117  0.2007  0.0144
 6290W        W15983   4.217  10.187  14.970 -0.3227 -0.3721  0.2607
 6291W        W15984   4.741   3.403   5.865  0.0026  0.0447  0.0121
 6292W        W15985  11.820  14.877   3.252  0.3116  0.0088  0.3457
 6293W        W15986   5.724   3.738   0.223  0.0163  0.0367 -0.3200
 6294W        W15987  17.437  15.871  12.471 -0.3215 -0.0608  0.1235
 6295W        W15988   1.266  13.490   2.030  0.2146 -0.0307  0.0925
 6296W        W15989   3.853   4.812  15.371 -0.0686  0.0077  0.0545
 6297W        W15990   9.209   5.157   2.458 -0.0466  0.2039 -0.0436
 6298W        W15991   1.838  16.583   5.180 -0.4959  0.0793  0.1334
 6299W        W15992   8.410  15.807   6.178  0.2982  0.4753 -0.2255
 6300W        W15993  13.922   0.504   1.543 -0.0341  0.1083  0.3328
 6301W        W15994   6.446   6.947  14.253  0.0599  0.0544  0.0460
 6302W        W15995   6.931  12.675   1.555  0.0102 -0.0203  0.2422
 6303W        W15996   5.979   8.629  16.677  0.1979  0.1711 -0.2945
 6304W        W15997  12.978   4.294   1.369  0.2008 -0.0008  0.0230
 6305W        W15998   8.870   9.202   6.658 -0.0023  0.1256 -0.1260
 6306W        W15999   7.785   8.076  16.000 -0.3357 -0.2966  0.0809
 6307W        W16000   8.872  14.029  16.288  0.0473  0.0827  0.2995
 6308W        W16001   5.634  14.263   1.055 -0.0429 -0.1172  0.1693
 6309W        W16002  12.387   8.597  12.975 -0.2460 -0.2508 -0.0031
 6310W        W16003   1.672  13.908   4.788  0.0697 -0.2717 -0.0111
 6311W        W16004   4.067   0.837  15.461  0.1006 -0.1290  0.1865
 6312W        W16005   2.295  10.609   0.872 -0.1121 -0.0039 -0.1759
 6313W        W16006  12.631  14.039  16.177  0.1479  0.0149 -0.0575
 6314W        W16007   4.099  10.437   6.698  0.3205  0.1931  0.0891
 6315W        W16008  15.658  11.924   5.280 -0.0941  0.1421  0.0851
 6316W        W16009   8.309  10.696   0.265 -0.0875 -0.0178  0.0526
 6317W        W16010   4.142   1.644  16.511 -0.2691  0.0284 -0.1715
 6318W        W16011   8.761  13.370  15.938  0.0864 -0.1536  0.1792
 6319W        W16012  11.441   3.054   2.933 -0.0086  0.3947 -0.0623
 6320W        W16013   7.916   1.199  14.702 -0.0526  0.1162 -0.1918
 6321W        W16014   8.603   6.110  15.643  0.2338  0.3168  0.0325
 6322W        W16015   6.718  17.328   4.004  0.1426 -0.0548 -0.0145
 6323W        W16016   2.643   6.614  15.181 -0.0395  0.2577  0.1583
 6324W        W16017  10.687   7.958   2.937  0.0598 -0.0207  0.0345
 6325W        W16018   4.225  10.695   1.682  0.1727 -0.1243  0.1035
 6326W        W16019  16.901  13.390  14.420  0.2043  0.1260  0.1756
 6327W        W16020   1.239  13.948   5.569  0.0084  0.0790 -0.4773
 6328W        W16021   5.723  10.587   1.759  0.2874  0.2241 -0.0389
 6329W        W16022   9.425  11.534   4.411  0.3514 -0.1211 -0.0294
 6330W        W16023   1.981   2.158   1.008  0.3083 -0.0016  0.1166
 6331W        W16024  14.366  16.046   2.558  0.3059 -0.0642  0.0323
 6332W        W16025  11.404   2.267   5.136 -0.2771  0.0318  0.1097
 6333W        W16026   5.388  16.220   3.727 -0.2901  0.1307 -0.1492
 6334W        W16027   0.786  11.505   2.351 -0.1025 -0.0857  0.2850
 6335W        W16028  14.952  13.159  14.946 -0.0648  0.3008  0.0687
 6336W        W16029  11.934  16.474  13.162 -0.1563  0.1987 -0.0130
 6337W        W16030   4.854  13.280  14.069 -0.1785  0.1291 -0.0727
 6338W        W16031   1.311  17.108   6.239 -0.0247  0.0598  0.3142
 6339W        W16032  12.443  10.840  15.293 -0.2249  0.0215 -0.3972
 6340W        W16033   4.089   0.924  11.660  0.1728  0.0165 -0.1983
 6341W        W16034   3.353  15.129   0.724 -0.0370 -0.0975  0.1249
 6342W        W16035   6.028   3.072   2.251 -0.1157 -0.2221 -0.1433
 6343W        W16036   3.364  14.317  14.637 -0.4389  0.5505  0.2592
 6344W        W16037   2.766  12.430   3.691 -0.2670  0.3185 -0.1873
 6345W        W16038   5.876  15.878   1.490 -0.5689  0.0598 -0.0427
 6346W        W16039   5.747   9.111   1.260 -0.1837 -0.1085  0.1758
 6347W        W16040   4.092   1.911   0.326  0.1511 -0.2002 -0.0871
 6348W        W16041   6.917  10.727   5.739  0.0523 -0.1165  0.0824
 6349W        W16042  14.412   8.712   3.370 -0.2023  0.1121 -0.4132
 6350W        W16043   7.747  12.113   6.353  0.0850 -0.0235 -0.3369
 6351W        W16044  17.100  12.735  11.884 -0.0695 -0.1905  0.1720
 6352W        W16045  17.069  14.769  11.099 -0.0890  0.1608  0.1945
 6353W        W16046  16.712  15.973  16.843 -0.1316 -0.2072 -0.3286
 6354W        W16047   5.144  16.911  15.282 -0.0654 -0.0555 -0.0985
 6355W        W16048  14.109  16.778   4.733  0.1149 -0.0178 -0.0712
 6356W        W16049   6.379   6.196  11.537  0.2988 -0.2120 -0.0283
 6357W        W16050  14.174   2.076   3.894 -0.4546  0.1155 -0.0519
 6358W        W16051  15.184   7.599  12.894 -0.2144 -0.1560 -0.0309
 6359W        W16052   9.227   9.245  12.726  0.1400 -0.0444 -0.0863
 6360W        W16053   6.780   2.878  16.489 -0.0949 -0.3059 -0.1384
 6361W        W16054   2.415   6.551   0.510  0.0628 -0.3394 -0.1233
 6362W        W16055   1.030  12.585   5.543  0.4347 -0.1735 -0.1137
 6363W        W16056   0.577   4.883   0.152 -0.0965 -0.0437  0.0711
 6364W        W16057  16.878   2.393  12.688  0.1398  0.0893 -0.0831
 6365W        W16058   2.661   2.732   0.756  0.0748  0.1654  0.0844
 6366W        W16059  15.648  15.811  10.761  0.0163 -0.0160 -0.1254
 6367W        W16060   5.845   1.374  13.214 -0.2266  0.0572  0.1765
 6368W        W16061   1.847  15.660   5.469  0.2438  0.1615  0.0612
 6369W        W16062  12.086  10.595  13.525 -0.1069  0.1481 -0.2452
 6370W        W16063   1.760  17.255   5.760  0.0183 -0.5298  0.1274
 6371W        W16064   9.494  10.713   6.422  0.1113  0.1224  0.2747
 6372W        W16065   8.312  11.489   1.368 -0.1771  0.3454  0.1466
 6373W        W16066   5.342   0.399   3.903 -0.2092  0.2923 -0.0744
 6374W        W16067   5.743   1.588  16.933 -0.0888  0.3705 -0.0638
 6375W        W16068  13.144   5.863   0.923  0.0623 -0.3800 -0.0453
 6376W        W16069   2.199   5.840   3.964 -0.0504 -0.0816 -0.1381
 6377W        W16070   6.006  10.241   3.008  0.1720  0.0089  0.0990
 6378W        W16071   2.197  16.693   1.294  0.0944  0.3223 -0.0002
 6379W        W16072  12.095  14.086  16.185 -0.1604  0.1862 -0.0604
 6380W        W16073  12.246   4.506   0.489  0.1013 -0.0527  0.0977
 6381W        W16074   4.683   8.118   5.705  0.3256 -0.0762  0.0785
 6382W        W16075  17.815   4.523  16.613  0.0717  0.2251 -0.0240
 6383W        W16076   4.031   2.687   3.970  0.1140  0.0215 -0.2577
 6384W        W16077   6.483  10.484   0.724 -0.2067 -0.0062 -0.1816
 6385W        W16078   9.566  14.625   5.594 -0.1391  0.1560 -0.2179
 6386W        W16079   7.645   9.366  16.722 -0.0456  0.1995 -0.3475
 6387W        W16080   7.521   1.617   4.839  0.1866  0.2618 -0.0110
 6388W        W16081   3.892  13.922   1.367 -0.3079  0.2311  0.2824
 6389W        W16082   5.968  15.264  12.477 -0.1044  0.0515  0.0121
 6390W        W16083  17.821  13.486   5.673  0.1670 -0.1362  0.3018
 6391W        W16084  14.896   5.386   2.716  0.2540  0.1384 -0.0111
 6392W        W16085   4.353  15.651   1.991 -0.2205 -0.2757  0.0466
 6393W        W16086  11.472   4.729  13.059  0.1840  0.0330  0.0824
 6394W        W16087  13.257   5.643  16.287 -0.0397  0.0975 -0.0387
 6395W        W16088   0.641   2.977  16.254  0.0087 -0.1603 -0.0679
 6396W        W16089  12.876   5.308   1.085  0.1452 -0.3855  0.1663
 6397W        W16090   5.575  15.142   6.582 -0.3594  0.1682 -0.4069
 6398W        W16091   6.371   7.590  14.296  0.0167 -0.1896  0.2053
 6399W        W16092   7.873  15.164  13.412 -0.0029  0.0058 -0.0053
 6400W        W16093  10.910  16.078  16.815 -0.0273 -0.4498 -0.0337
 6401W        W16094   6.037   2.455   3.280  0.1011 -0.1830 -0.2671
 6402W        W16095   5.945   3.665  12.074  0.1850 -0.0377 -0.1246
 6403W        W16096  17.242  15.837   4.130 -0.0615 -0.3705 -0.3404
 6404W        W16097   8.248  17.047  14.974  0.2058  0.1128 -0.5848
 6405W        W16098  10.570  10.208   4.640 -0.2344  0.0880  0.1134
 6406W        W16099  12.484   7.954  14.586 -0.0099 -0.2632 -0.5142
 6407W        W16100  14.670   7.347   1.065  0.0726 -0.0575 -0.1779
 6408W        W16101  13.376   7.285   2.956 -0.0877 -0.0435 -0.1135
 6409W        W16102   4.314  13.982   0.109  0.0695 -0.1212  0.1244
 6410W        W16103   7.224  12.083  13.640  0.0287 -0.2647  0.2218
 6411W        W16104  10.228  10.941  15.477  0.0931 -0.3442  0.0960
 6412W        W16105   5.655  11.095   2.547 -0.2120  0.4912 -0.0582
 6413W        W16106   6.753   8.810  14.698 -0.0312 -0.3784 -0.0778
 6414W        W16107   9.352   7.096   6.566 -0.2752 -0.0826  0.0834
 6415W        W16108   4.503  15.313  14.017 -0.2498  0.0823 -0.2214
 6416W        W16109   1.501  14.719   2.276 -0.1932  0.0729 -0.2129
 6417W        W16110   7.859   7.274  15.351  0.0603  0.0998 -0.0518
 6418W        W16111   3.950  15.699   4.781  0.0172 -0.1626  0.0609
 6419W        W16112   5.332  15.254   6.104 -0.0406 -0.0675  0.3140
 6420W        W16113   1.275  17.737   4.581  0.1302 -0.0762  0.1972
 6421W        W16114   3.022   1.339  13.808  0.1742 -0.1352  0.2229
 6422W        W16115  14.757  14.932   1.394 -0.0827 -0.1664  0.0955
 6423W        W16116   6.502   2.660   2.240  0.0951 -0.1467  0.1564
 6424W        W16117   5.875  14.236  12.679  0.1812 -0.2617 -0.0414
 6425W        W16118   6.004  11.205   1.124  0.1512  0.2728  0.2228
 6426W        W16119   7.546  13.858   1.779 -0.0675  0.2228  0.2782
 6427W        W16120   2.718   1.225  10.634 -0.0837 -0.0347 -0.0172
 6428W        W16121   2.899   1.117  14.343  0.2575  0.2623  0.0754
 6429W        W16122   3.163   1.757   5.335  0.1508 -0.0228  0.6137
 6430W        W16123   6.707   2.428  13.594 -0.0981 -0.2413 -0.0528
 6431W        W16124   7.317  13.366   5.520 -0.3061  0.1217  0.1555
 6432W        W16125   2.651  13.944  11.789  0.3256  0.3254 -0.3208
 6433W        W16126   1.521   0.498   3.585  0.1731 -0.0454  0.1220
 6434W        W16127   6.774   0.928   5.259  0.1241  0.0258  0.0158
 6435W        W16128   1.520   2.322  16.116  0.2211  0.1492  0.1515
 6436W        W16129   2.235   9.306   0.857 -0.2012 -0.2123  0.0841
 6437W        W16130   5.987  17.747   1.736 -0.3243 -0.1745 -0.0344
 6438W        W16131   4.795  14.595  14.271  0.0706 -0.0144  0.1535
 6439W        W16132  14.656   4.436  13.529 -0.0841  0.1005  0.0658
 6440W        W16133   4.602  11.442   6.412 -0.3778 -0.0984  0.1886
 6441W        W16134   5.543  16.097   6.187 -0.3915 -0.1538 -0.0861
 6442W        W16135  13.563   3.089  13.941  0.4900  0.2682 -0.1889
 6443W        W16136  10.443  14.316   4.125 -0.0101  0.0343  0.3482
 6444W        W16137   3.837  10.407  14.105 -0.1167 -0.2647 -0.1442
 6445W        W16138   2.453  16.396  16.797  0.2631  0.1463  0.0703
 6446W        W16139   0.025  15.350   5.261 -0.0237  0.0548 -0.2059
 6447W        W16140   2.470  12.003   3.101 -0.1864  0.2989  0.0975
 6448W        W16141   9.805  17.652  13.354  0.1803 -0.0182 -0.0553
 6449W        W16142   1.929  10.379   0.546  0.1695  0.1916  0.1661
 6450W        W16143   4.412  12.430   6.646 -0.1454  0.0191  0.3065
 6451W        W16144   0.135   7.755   5.129  0.0444 -0.3335  0.0807
 6452W        W16145   6.165  15.589   0.542 -0.1954 -0.1653  0.1094
 6453W        W16146   8.332   8.662  16.365 -0.0904  0.0783 -0.2573
 6454W        W16147  10.551   4.686  15.936 -0.1946 -0.0093  0.1628
 6455W        W16148   7.601   8.590  16.001  0.1352  0.1046 -0.0211
 6456W        W16149  10.830   3.071  15.297 -0.0468  0.0761  0.0190
 6457W        W16150  17.426  16.337   3.727 -0.1969  0.2844 -0.3383
 6458W        W16151   5.930   1.130  13.725  0.3156  0.0914  0.0293
 6459W        W16152   2.516  11.261   5.363 -0.1742 -0.1414 -0.0763
 6460W        W16153  11.958   8.532   0.240 -0.3893 -0.0282 -0.0893
 6461W        W16154   2.752  10.552   5.365 -0.2113  0.1253  0.1266
 6462W        W16155   4.998  17.118  13.343  0.0200 -0.0894 -0.0570
 6463W        W16156   8.813  12.913  16.104  0.1056 -0.0203  0.0621
 6464W        W16157   2.336   6.408   6.141 -0.2375  0.0517 -0.0836
 6465W        W16158   7.352   3.568   3.144  0.0939  0.0704 -0.2522
 6466W        W16159  14.096   6.362  12.536 -0.0004  0.0203 -0.2610
 6467W        W16160  11.640  14.257  16.410 -0.1239 -0.1127 -0.0996
 6468W        W16161   3.484  11.975   2.178  0.1306  0.0008 -0.1043
 6469W        W16162   6.786   9.766  12.844  0.0548 -0.1164 -0.1224
 6470W        W16163  12.159   6.162  14.323 -0.0350 -0.1881  0.0966
 6471W        W16164  12.337   0.211   0.895 -0.0999 -0.2435  0.1702
 6472W        W16165   6.322  13.024  17.015  0.2924  0.0343 -0.0686
 6473W        W16166  11.095   8.485   5.434  0.1547 -0.0216 -0.0787
 6474W        W16167   3.144   4.267  14.318  0.1234  0.0368 -0.1462
 6475W        W16168   6.676   0.168   5.152  0.1982  0.3356  0.0780
 6476W        W16169  10.856  15.823  14.117  0.1119 -0.1979  0.0495
 6477W        W16170  11.313   0.241  15.893  0.0573  0.0253 -0.2029
 6478W        W16171   6.748  11.942  13.898  0.1688  0.0868  0.0828
 6479W        W16172  17.462  12.918   4.519  0.0800  0.1685 -0.0633
 6480W        W16173   4.992  16.484   3.562  0.1708  0.2906 -0.1424
 6481W        W16174   2.131   4.743   0.581 -0.1673  0.2972  0.0018
 6482W        W16175  12.019   2.435   2.909 -0.0874  0.1287  0.0258
 6483W        W16176   6.257  13.607   3.013  0.4060 -0.1634 -0.3430
 6484W        W16177   9.329  16.853   2.156 -0.0200  0.1622  0.3161
 6485W        W16178  14.394   8.040   0.319 -0.1260 -0.1214  0.0179
 6486W        W16179   6.480  15.246   0.359 -0.4533  0.1827 -0.1688
 6487W        W16180   9.325  16.770  11.400 -0.1494 -0.2779  0.0723
 6488W        W16181   8.576   9.941  15.149 -0.2904 -0.4854 -0.0224
 6489W        W16182  17.838  17.973  16.553 -0.0134 -0.1285 -0.0678
 6490W        W16183   9.294   4.149  14.140 -0.0653 -0.1026  0.0244
 6491W        W16184  17.766  14.152   3.843 -0.0606 -0.1566  0.0536
 6492W        W16185   0.844   1.822  12.946  0.0733 -0.1243  0.1324
 6493W        W16186   6.381   5.527  13.179  0.0114  0.0750  0.0158
 6494W        W16187   5.370   0.175   0.773 -0.2678  0.3131 -0.1093
 6495W        W16188   4.688   0.538   2.710 -0.0220 -0.0517 -0.1608
 6496W        W16189   3.664  14.798  13.631  0.0277 -0.0457 -0.2871
 6497W        W16190  14.773   7.180   4.449 -0.1664  0.0406  0.0776
 6498W        W16191  10.032   2.582  16.462  0.2643 -0.1333  0.2112
 6499W        W16192   4.914  10.815  12.483  0.1332 -0.1154 -0.1120
 6500W        W16193   4.160   1.312  15.603 -0.1191  0.2811 -0.1193
 6501W        W16194   0.459  17.539   5.601 -0.0601 -0.1342 -0.0104
 6502W        W16195   6.222   0.723  13.785  0.1106 -0.1842  0.1793
 6503W        W16196   0.118  16.034  14.092 -0.1521  0.0799 -0.2110
 6504W        W16197   9.898  16.173  15.053 -0.0905  0.1589  0.0510
 6505W        W16198  17.679  12.528   0.393  0.0850 -0.1700 -0.1010
 6506W        W16199   3.067  16.973  12.348 -0.3847 -0.4720  0.0553
 6507W        W16200   6.911  15.110   5.550  0.0731  0.0329 -0.3401
 6508W        W16201   3.785  16.965   4.759  0.2669  0.1449 -0.0895
 6509W        W16202   3.989  12.625  12.472  0.0927  0.0036 -0.0574
 6510W        W16203   5.589   1.190   3.722 -0.0760 -0.0179 -0.0441
 6511W        W16204   3.904   1.572  15.235  0.4905  0.0448 -0.1701
 6512W        W16205  15.758   7.824   2.120 -0.0079  0.1965 -0.2147
 6513W        W16206   8.084   2.265  11.750 -0.4333  0.2537 -0.0415
 6514W        W16207   7.316  11.308   2.264  0.0193 -0.0600 -0.0099
 6515W        W16208   8.411  11.134  13.649  0.0203  0.1884 -0.3532
 6516W        W16209  11.831  11.303   3.247  0.0385 -0.2724 -0.0802
 6517W        W16210   9.124   7.104   6.008  0.0073  0.3541  0.1049
 6518W        W16211   3.391  13.780  15.809 -0.1493  0.0683  0.1396
 6519W        W16212   5.556  13.089   5.259 -0.2505 -0.2559 -0.3364
 6520W        W16213   2.223   6.388  16.992  0.0082 -0.0362 -0.0669
 6521W        W16214   4.365   9.277  13.601 -0.0782  0.2741 -0.1995
 6522W        W16215  14.151  10.101  12.147  0.1917 -0.1292  0.1650
 6523W        W16216  17.743  14.143  15.180  0.0111 -0.0495 -0.2134
 6524W        W16217   1.058  10.187  12.364  0.3577  0.1109  0.1001
 6525W        W16218   2.169  13.601   0.332  0.3352  0.0167 -0.0687
 6526W        W16219   5.627   3.579   0.735 -0.1654  0.0323  0.1289
 6527W        W16220   4.056  14.036  13.985  0.1403  0.1772 -0.0730
 6528W        W16221   8.678  14.526   1.694 -0.0449 -0.2991  0.3615
 6529W        W16222  12.211  15.780  16.284 -0.1612 -0.0921  0.0028
 6530W        W16223   5.032   9.588  12.251 -0.0477 -0.2064 -0.4717
 6531W        W16224   4.982  16.464   0.812 -0.1113  0.0766 -0.1527
 6532W        W16225   0.998   4.814  13.402 -0.1592 -0.0852  0.1072
 6533W        W16226   9.749   4.235  15.021 -0.2863  0.2413  0.0518
 6534W        W16227   8.012  12.816   0.826 -0.0912 -0.1331 -0.0826
 6535W        W16228  12.133  15.928  15.777 -0.0061  0.0772  0.2485
 6536W        W16229   5.283   2.994   0.615 -0.3938  0.1915  0.3430
 6537W        W16230   7.235  15.290  14.739 -0.2327  0.0729  0.1565
 6538W        W16231  15.408  12.500  13.008 -0.0605 -0.2591  0.1336
 6539W        W16232   0.686   1.831   3.924 -0.1374 -0.0528 -0.1379
 6540W        W16233   0.332  14.952  16.338  0.0723  0.0959 -0.1382
 6541W        W16234   5.692  16.630   3.722  0.0675  0.0861  0.0216
 6542W        W16235   4.615  17.709   2.565 -0.0296 -0.2348 -0.1378
 6543W        W16236   0.804   8.887   0.317  0.0421  0.1749  0.2327
 6544W        W16237   2.883  11.721   1.414 -0.0866  0.1487 -0.0365
 6545W        W16238  16.202   5.898   4.905 -0.0262 -0.0885  0.6186
 6546W        W16239   6.740  10.834   0.943 -0.1753 -0.0438  0.1604
 6547W        W16240   1.493  11.692  10.502  0.2508 -0.3654  0.1327
 6548W        W16241   9.349  14.239  15.660 -0.1054 -0.0306 -0.2102
 6549W        W16242   5.341   1.031   2.767  0.0228 -0.0948 -0.1754
 6550W        W16243   2.381   3.475  14.341  0.0648 -0.2642 -0.1199
 6551W        W16244   6.413  12.273   3.390 -0.0947  0.4447 -0.3033
 6552W        W16245   3.673   3.293   0.742  0.2042 -0.3045  0.1974
 6553W        W16246   6.661   1.343   3.024 -0.0495  0.1416 -0.1793
 6554W        W16247   9.107  15.937   0.706 -0.0798  0.0021  0.1088
 6555W        W16248   5.015  14.119   5.001  0.3661 -0.0639  0.0143
 6556W        W16249   0.315   9.048  11.889  0.0532  0.0716 -0.2739
 6557W        W16250   5.071   8.091   6.068  0.0283 -0.2661 -0.1778
 6558W        W16251   9.657  11.315  16.117 -0.2620 -0.0104 -0.2891
 6559W        W16252  12.788  13.833   0.493 -0.0315 -0.4565  0.2314
 6560W        W16253  15.739   8.594   4.135  0.0903 -0.0424  0.3209
 6561W        W16254   6.750   3.237   0.537  0.3548 -0.1321  0.0396
 6562W        W16255   4.393   8.117   2.623  0.3484  0.0292  0.1524
 6563W        W16256   7.832   6.197   4.035 -0.0990 -0.1547  0.1628
 6564W        W16257   3.660   6.614  17.116  0.0437  0.0750  0.2443
 6565W        W16258   6.030  15.329  11.485  0.2801  0.3454 -0.1114
 6566W        W16259  11.942   3.908  12.707  0.3869  0.2111 -0.2586
 6567W        W16260   1.112  14.919  14.237  0.3174 -0.0228 -0.0467
 6568W        W16261   9.758  11.033  17.024 -0.1767  0.2081 -0.0556
 6569W        W16262   3.665   3.915   4.356 -0.1276  0.2152 -0.1870
 6570W        W16263  10.059   2.926   3.376 -0.2516 -0.1193 -0.2534
 6571W        W16264  17.233   8.296  12.915  0.1151 -0.0934 -0.1710
 6572W        W16265   7.611   0.918  12.802  0.1550 -0.0180 -0.0367
 6573W        W16266   0.732   1.419  13.867  0.1729  0.3411  0.0827
 6574W        W16267  10.734  10.301   0.627 -0.0894 -0.2281  0.0959
 6575W        W16268   1.647  13.076  14.893 -0.1470  0.1964 -0.0336
 6576W        W16269  17.346  13.271   5.761  0.2236 -0.4454  0.0756
 6577W        W16270   5.832   6.322  13.963  0.2170  0.2016  0.1721
 6578W        W16271  14.558   1.699   3.167  0.1057 -0.1138 -0.0419
 6579W        W16272   1.108  12.913   5.011 -0.1188  0.0285 -0.1320
 6580W        W16273   4.445   9.960   3.532  0.0715  0.1379  0.1582
 6581W        W16274   7.787   3.600  15.484 -0.2885  0.0116  0.0472
 6582W        W16275  12.252  12.448  11.022  0.1503 -0.2092  0.3682
 6583W        W16276  14.795  11.133   2.909  0.3377 -0.4409 -0.0620
 6584W        W16277   6.514  12.868   4.061 -0.0731 -0.1028 -0.0874
 6585W        W16278   7.734  13.724  15.229  0.0722  0.1197  0.0487
 6586W        W16279   3.086   2.401   5.061 -0.1525 -0.1339 -0.0836
 6587W        W16280   9.786   5.865   3.203  0.0255  0.2295  0.1034
 6588W        W16281   3.058  10.153   5.583 -0.2931 -0.5249 -0.0698
 6589W        W16282  11.907  17.378   3.005 -0.0340  0.1599  0.2407
 6590W        W16283  10.832   0.086   2.244 -0.0717 -0.1487 -0.0152
 6591W        W16284  14.001  17.935   1.436 -0.0751  0.0550  0.1036
 6592W        W16285  13.493  14.689   4.184  0.2405  0.0561 -0.0579
 6593W        W16286   1.010  11.637  14.696  0.3822  0.0923 -0.4759
 6594W        W16287   6.319   6.561  15.576  0.3581  0.1833  0.1254
 6595W        W16288   5.072  12.457   4.216  0.0418  0.0715 -0.0327
 6596W        W16289   5.443   5.942  16.230  0.0540  0.4995 -0.1270
 6597W        W16290   7.044   4.888  16.390 -0.0804 -0.1636 -0.2314
 6598W        W16291  10.365  11.451   2.409 -0.3853  0.2523 -0.1506
 6599W        W16292  13.846   1.718   3.757 -0.0801 -0.0963  0.0784
 6600W        W16293   0.397   2.431   1.368  0.2452 -0.1943 -0.3053
 6601W        W16294   6.685  14.654   4.792 -0.1077 -0.2872  0.0026
 6602W        W16295  10.600   8.890  12.390  0.1683  0.0178 -0.2927
 6603W        W16296  16.688  12.853   3.934  0.2658  0.0176  0.2489
 6604W        W16297   6.467   9.439  15.746  0.1046  0.2214  0.0069
 6605W        W16298  11.010   4.660   0.660 -0.3389 -0.0946  0.1099
 6606W        W16299   1.341   3.870   1.297  0.1005 -0.1324 -0.1795
 6607W        W16300   6.802   6.722   2.114  0.1493 -0.1357 -0.1768
 6608W        W16301  11.273  10.973   3.259  0.0975  0.0865 -0.0015
 6609W        W16302   6.200   9.758  12.199 -0.2521 -0.0212 -0.0564
 6610W        W16303   2.894   9.773   1.140  0.1485 -0.0362 -0.0737
 6611W        W16304   7.768  10.881   2.985  0.3399  0.2969 -0.1125
 6612W        W16305   6.117   4.546   6.594 -0.2410  0.0766 -0.0541
 6613W        W16306   1.714   8.072   2.299 -0.1384  0.0050  0.0689
 6614W        W16307   3.635   1.075  16.144  0.3597 -0.1300  0.1997
 6615W        W16308  17.100  11.126  16.629  0.2220  0.0725 -0.2871
 6616W        W16309   0.082  17.964   2.541 -0.1031  0.2224 -0.1052
 6617W        W16310   6.404  14.229  12.287 -0.1325  0.1287 -0.0637
 6618W        W16311  16.703   1.984   4.564  0.1376 -0.0805  0.3526
 6619W        W16312   3.300  14.891  12.709  0.1807  0.0290  0.0961
 6620W        W16313   6.348  10.473  12.329 -0.0603  0.0818  0.5033
 6621W        W16314   5.829  10.870   0.050  0.0266  0.3403 -0.0677
 6622W        W16315   1.353  17.413   4.019  0.1213 -0.0867  0.0663
 6623W        W16316   4.856  11.479   4.684  0.2998  0.1558  0.2692
 6624W        W16317   9.858   9.657   6.763 -0.3549  0.0661  0.0901
 6625W        W16318   3.233   8.577   0.078  0.0178  0.0413 -0.0706
 6626W        W16319  13.359   6.103   5.145 -0.0457 -0.0760 -0.0328
 6627W        W16320   6.602   6.863  15.911 -0.0472 -0.0611  0.1978
 6628W        W16321   3.519   2.794  12.907 -0.3211  0.1019  0.2733
 6629W        W16322  15.264  16.802  13.818  0.1022  0.2812  0.1625
 6630W        W16323   7.283  14.524   4.848 -0.3390  0.4274 -0.0950
 6631W        W16324  16.313  10.454   2.421  0.0876  0.1220  0.0530
 6632W        W16325  16.822  14.942  17.067 -0.3407  0.1395  0.3180
 6633W        W16326   1.679   3.994   3.641 -0.3526 -0.0914  0.1323
 6634W        W16327   9.388   8.688  15.248 -0.0523 -0.3010 -0.2068
 6635W        W16328   4.710   9.481   1.844 -0.1879  0.0809  0.1132
 6636W        W16329   5.946  16.530   6.387  0.1304 -0.0113  0.3373
 6637W        W16330   0.733  12.453   2.549 -0.2063  0.0707  0.0980
 6638W        W16331   1.420   0.386   4.855  0.0290 -0.0848  0.0038
 6639W        W16332   1.392  14.094   1.408 -0.1932  0.0024  0.0482
 6640W        W16333  10.403  15.591   3.698  0.2559 -0.4495 -0.2034
 6641W        W16334  10.537   0.945   3.691 -0.2048  0.2408 -0.4950
 6642W        W16335   3.325   9.818  14.755  0.1331 -0.0578  0.2069
 6643W        W16336  12.095  17.003  12.711  0.0305  0.0970 -0.2654
 6644W        W16337   4.827   0.968   5.067 -0.1672 -0.1778  0.1397
 6645W        W16338   8.707  13.081   5.032  0.1779  0.0178  0.1273
 6646W        W16339   0.784   3.607   3.838  0.0412  0.3265  0.0234
 6647W        W16340   8.553  13.441   1.121  0.0308 -0.1781 -0.2205
 6648W        W16341   1.370  11.513   4.126 -0.1485  0.1532  0.0325
 6649W        W16342   2.128  10.935  11.905 -0.0240 -0.0777 -0.2004
 6650W        W16343   8.557   5.870   4.441  0.1819  0.1837 -0.2761
 6651W        W16344   6.446  16.058  11.818 -0.0220 -0.1090  0.1434
 6652W        W16345   6.020   7.374  16.339  0.0931 -0.0648 -0.4346
 6653W        W16346   7.382   8.892  16.404 -0.0286  0.2056 -0.1125
 6654W        W16347   2.273  12.490  15.612 -0.2169  0.0973  0.0936
 6655W        W16348   7.526  11.626  13.031  0.1127  0.1709 -0.0149
 6656W        W16349   5.015   3.712   4.138  0.2622  0.2266  0.0839
 6657W        W16350   8.510   9.978  14.499 -0.1032  0.1780  0.2424
 6658W        W16351   2.876   2.261   2.732 -0.2916  0.2028 -0.4342
 6659W        W16352   9.216  10.941  16.090  0.1337  0.1030  0.1091
 6660W        W16353   7.793   8.123  12.941 -0.3110  0.0035 -0.2357
 6661W        W16354  17.225  14.243   0.786  0.0486 -0.1860  0.0119
 6662W        W16355   7.081   9.818   3.493 -0.1782  0.0097 -0.2923
 6663W        W16356   2.434   1.278  12.242  0.1644 -0.0255 -0.0442
 6664W        W16357  11.973   1.311   2.866 -0.1591  0.4081 -0.3057
 6665W        W16358   9.060  11.159   3.846  0.0206 -0.0388  0.0566
 6666W        W16359  14.890   7.742  13.344 -0.1089 -0.1641 -0.1937
 6667W        W16360  10.115   1.693   3.388  0.2108  0.4822 -0.1004
 6668W        W16361  17.677   1.016  14.944  0.0332  0.4216  0.2300
 6669W        W16362   4.819  12.663  12.174 -0.1216  0.1759  0.3466
 6670W        W16363   5.201   1.622   4.407  0.0669  0.2102 -0.1724
 6671W        W16364   4.204   0.095   0.628 -0.3536  0.1243  0.1766
 6672W        W16365   8.031   2.578   0.550 -0.2516 -0.3025 -0.1299
 6673W        W16366  16.856   5.799   5.753 -0.0615 -0.1897 -0.1371
 6674W        W16367   8.450  12.549  15.107 -0.2078  0.0938  0.3102
 6675W        W16368  16.815  10.718  12.982 -0.1045  0.1338  0.2375
 6676W        W16369   7.039   9.193  14.043  0.1954  0.1262  0.0453
 6677W        W16370  11.496   6.685  13.156  0.1490 -0.0197 -0.1434
 6678W        W16371   1.560  11.327  11.844 -0.1893 -0.0053 -0.1165
 6679W        W16372   0.016   3.149   0.244  0.2336 -0.1639 -0.1323
 6680W        W16373   3.418  15.609  16.178  0.0083 -0.0572 -0.0276
 6681W        W16374  11.859   8.165   0.662 -0.1464  0.1723  0.2658
 6682W        W16375   2.185  17.642   4.745  0.0980 -0.0564  0.0264
 6683W        W16376  11.033  16.161  13.424  0.0331  0.0606  0.1127
 6684W        W16377   9.445   6.496   0.632 -0.0487  0.1679  0.3708
 6685W        W16378   2.133   6.421  14.454 -0.2333  0.1228  0.0375
 6686W        W16379   0.576  14.481  16.284  0.0560  0.2373  0.0820
 6687W        W16380   5.517   7.422   2.121  0.1586 -0.1880 -0.2157
 6688W        W16381   1.051   0.857   1.139 -0.4252 -0.2296  0.1836
 6689W        W16382   0.432   6.452  16.375  0.0025  0.2067 -0.0829
 6690W        W16383   6.598   7.088  13.365 -0.0401 -0.0261  0.1579
 6691W        W16384   8.025  17.946  16.477 -0.1233  0.1085 -0.2762
 6692W        W16385   2.326  12.135   5.487 -0.2306 -0.1220 -0.0592
 6693W        W16386   5.159   0.540  14.056  0.0564 -0.1489 -0.2578
 6694W        W16387   3.982  10.319   1.426  0.0296  0.0554 -0.2207
 6695W        W16388   4.710   0.361  14.019  0.1930 -0.2229  0.0340
 6696W        W16389   8.249   9.848  15.589 -0.2608  0.0051  0.0580
 6697W        W16390   5.225   9.640   0.249 -0.1161 -0.0976 -0.4117
 6698W        W16391  16.935   3.968  15.622  0.0749 -0.0095  0.0119
 6699W        W16392   7.674  17.770  15.145  0.1797 -0.1325  0.1828
 6700W        W16393   7.388  14.244   0.918  0.0412  0.0742 -0.3238
 6701W        W16394   7.095   7.017  15.080  0.0393  0.1331 -0.0188
 6702W        W16395   7.211  15.621  12.186  0.0652  0.0198  0.1661
 6703W        W16396   6.674   8.762   6.237 -0.3047  0.0575  0.2192
 6704W        W16397   8.889  15.157   2.618 -0.2173 -0.0654  0.1369
 6705W        W16398   3.885  12.613   4.521  0.2273 -0.1039  0.1012
 6706W        W16399   0.975   7.663   3.930 -0.2243 -0.0435  0.0083
 6707W        W16400   1.724   7.696   1.428 -0.0982 -0.3098  0.1126
 6708W        W16401   3.864  17.865   2.654  0.0505 -0.3231  0.1061
 6709W        W16402   4.573  17.412  13.376 -0.1099 -0.1554 -0.0965
 6710W        W16403  12.444   8.572  12.140  0.1368  0.1069 -0.0372
 6711W        W16404   7.027   0.979   1.403  0.2010 -0.0026  0.2539
 6712W        W16405   5.689   6.703   5.107 -0.2233 -0.0819 -0.0896
 6713W        W16406   3.205  14.322  12.801 -0.0434 -0.3890 -0.1249
 6714W        W16407  10.497   4.767  11.363 -0.1685 -0.2495 -0.0839
 6715W        W16408   6.836  14.223   2.444 -0.1339 -0.1460 -0.0652
 6716W        W16409   1.855   2.394   5.505  0.0249 -0.0180 -0.0248
 6717W        W16410   2.376  10.991  15.640  0.1258 -0.1375  0.0743
 6718W        W16411   2.974  14.587  11.969  0.1559 -0.0953  0.2653
 6719W        W16412   5.524  11.647  12.417 -0.1354  0.0028 -0.1282
 6720W        W16413   3.891  17.734  16.338 -0.0863 -0.0618  0.0490
 6721W        W16414   9.872  16.399   3.586 -0.0047  0.3011  0.0284
 6722W        W16415  17.961   7.660  11.617  0.1160  0.1793 -0.0266
 6723W        W16416   1.445  12.082   1.720  0.0249 -0.2234 -0.0945
 6724W        W16417  17.979   2.323   2.588 -0.0702 -0.1633  0.0731
 6725W        W16418   9.127  15.209  13.713  0.2106 -0.0275 -0.0549
 6726W        W16419   9.654   7.602  15.600  0.0499  0.0394 -0.1887
 6727W        W16420  14.861  12.798  10.822  0.0090 -0.2374  0.3896
 6728W        W16421  16.896  13.086   5.859  0.1215 -0.0858  0.2688
 6729W        W16422   5.266   0.305  13.042  0.2166 -0.3161  0.1830
 6730W        W16423   8.298   2.929   4.576  0.3346 -0.0960  0.1627
 6731W        W16424   7.317   4.498   0.595  0.0566 -0.0084  0.0322
 6732W        W16425  12.500   6.257   3.874 -0.0663  0.0584 -0.0053
 6733W        W16426  16.541   5.957  15.785  0.2930 -0.0347  0.1145
 6734W        W16427   6.396  11.795   6.075  0.1088  0.2646 -0.0583
 6735W        W16428   4.506  17.850   1.985  0.0597  0.0475 -0.0416
 6736W        W16429   2.245  16.981  12.426 -0.0058 -0.2513  0.3500
 6737W        W16430  16.986   4.199   0.772  0.1907 -0.1680  0.1837
 6738W        W16431  10.415   2.256   2.289  0.1176  0.0925  0.0444
 6739W        W16432   3.878   7.259   3.516 -0.0922 -0.2699 -0.3446
 6740W        W16433   6.339  11.146   0.718 -0.0752 -0.1867  0.0779
 6741W        W16434   4.727  15.296  13.561  0.0187 -0.0220  0.0710
 6742W        W16435   9.080   5.657   6.787  0.1059  0.0302  0.0798
 6743W        W16436  13.191   6.643  13.494  0.1295  0.0648 -0.1744
 6744W        W16437   7.893  13.446  14.059  0.3978  0.2583  0.0519
 6745W        W16438  10.862   1.679   5.156  0.0580 -0.1529  0.0678
 6746W        W16439   0.214   0.851  12.172 -0.2268  0.2813 -0.5189
 6747W        W16440   1.676  13.730   4.320 -0.1718 -0.0124 -0.1321
 6748W        W16441   8.921   7.335   1.063 -0.0569  0.0177 -0.4227
 6749W        W16442  17.539   3.543  15.057 -0.1213  0.0472  0.0583
 6750W        W16443   6.525  11.406   3.233  0.0423  0.2818 -0.2527
 6751W        W16444   8.319  11.066   2.648 -0.0240 -0.0553 -0.0209
 6752W        W16445   9.220   0.524  11.688 -0.3672  0.0876  0.0672
 6753W        W16446  16.823  11.609  15.039  0.1566 -0.1891  0.0956
 6754W        W16447   7.388  16.453  12.234 -0.1537  0.0990 -0.0647
 6755W        W16448   7.071   5.039  17.017  0.0436 -0.2445  0.1971
 6756W        W16449   9.300   0.789   6.088  0.1470  0.0827  0.0848
 6757W        W16450   3.721   2.510   5.307 -0.1116 -0.1971 -0.2950
 6758W        W16451   2.573   1.886   0.487  0.0744  0.1360  0.0760
 6759W        W16452  11.490   9.347   6.578 -0.1193  0.0651  0.1800
 6760W        W16453  14.307  12.583  15.294 -0.1049  0.0776  0.0891
 6761W        W16454  10.310  13.710   5.251 -0.0528 -0.1684 -0.0896
 6762W        W16455   4.189   5.096   6.272  0.1417  0.1450  0.0600
 6763W        W16456   6.157  15.782  15.533 -0.0505 -0.0500 -0.1269
 6764W        W16457   0.702  17.876   3.340 -0.0813  0.3359 -0.0920
 6765W        W16458   9.111  17.448  12.220  0.0574 -0.0748  0.0155
 6766W        W16459  10.827   3.781  14.439  0.1600 -0.0755  0.0111
 6767W        W16460  10.401   0.058   3.873 -0.0476  0.0406 -0.1171
 6768W        W16461   4.339  10.600  16.017  0.2890 -0.0540  0.0566
 6769W        W16462   2.758   1.291   1.319 -0.0096  0.0172 -0.1491
 6770W        W16463   8.081   4.537  12.289 -0.3336 -0.1472 -0.0563
 6771W        W16464   0.525   8.539   2.542  0.0820 -0.5441 -0.1745
 6772W        W16465   5.780  12.804   4.649  0.0375  0.1605  0.0704
 6773W        W16466  12.075  15.028   5.609 -0.0236 -0.0404  0.1710
 6774W        W16467   4.699  10.694  11.849 -0.2477 -0.0049 -0.0220
 6775W        W16468   6.736   9.634   0.136 -0.0234  0.0692 -0.0056
 6776W        W16469  17.782   8.385   5.608  0.2245  0.0190  0.0513
 6777W        W16470   4.048   1.919   1.527  0.0706  0.0620 -0.0371
 6778W        W16471  11.108  15.156   5.081  0.3260  0.1355 -0.0018
 6779W        W16472   6.710   2.992   2.762 -0.1533 -0.0029 -0.0121
 6780W        W16473   1.596   0.875   2.335 -0.4183  0.1899 -0.1427
 6781W        W16474   4.304  16.182   2.001  0.2053  0.0767 -0.1352
 6782W        W16475  13.099   8.197   0.860  0.0257  0.0044 -0.0025
 6783W        W16476   4.289   9.708   3.110  0.1389 -0.2756 -0.3367
 6784W        W16477  14.060  10.398   1.450  0.1449  0.0838 -0.1038
 6785W        W16478   0.897   3.675  17.079 -0.0209 -0.1520 -0.4367
 6786W        W16479   2.838   2.144   4.306 -0.1923 -0.2519  0.0533
 6787W        W16480  12.518  16.232  11.422  0.3099  0.0464 -0.1600
 6788W        W16481  16.071  11.044   2.131 -0.1734 -0.0739 -0.2387
 6789W        W16482  15.679   4.329   0.405  0.0713 -0.0283  0.0443
 6790W        W16483   1.506   6.868   2.100  0.1236  0.0266  0.1406
 6791W        W16484   0.077  12.393   2.889 -0.2227  0.0680 -0.1294
 6792W        W16485  13.500  16.418  11.375  0.2798  0.1746 -0.1430
 6793W        W16486   7.926  16.228  10.408 -0.1380  0.0517 -0.1720
 6794W        W16487  16.366   9.261   5.548 -0.3024  0.1764  0.3177
 6795W        W16488   7.284  14.416   1.726 -0.0473  0.1267 -0.1891
 6796W        W16489   1.755   6.756   4.578 -0.1496  0.1271  0.1716
 6797W        W16490   4.720  15.279  11.040 -0.1618 -0.1603  0.0046
 6798W        W16491  10.143   2.356   4.916  0.0532 -0.0252 -0.1524
 6799W        W16492   0.992   3.544   1.029 -0.2220 -0.2585  0.3352
 6800W        W16493  14.917   6.256  14.371  0.1107 -0.2566  0.2164
 6801W        W16494   1.998  14.570  16.891  0.0911  0.0570 -0.0118
 6802W        W16495   8.328   6.837   5.311 -0.1254 -0.1012 -0.0916
 6803W        W16496   7.886   9.209  13.641 -0.0190 -0.0530  0.0389
 6804W        W16497  10.816  15.031   2.586  0.0709 -0.1493 -0.1311
 6805W        W16498   9.594   6.165  16.363 -0.1636 -0.0774  0.1912
 6806W        W16499  17.530   5.148   3.208 -0.0446 -0.2152  0.0725
 6807W        W16500   4.531  16.203  13.332  0.3685  0.0023 -0.2039
 6808W        W16501   6.829   9.712   2.085 -0.2061  0.3028 -0.0548
 6809W        W16502   1.789   3.612  13.265  0.1634  0.0682  0.0273
 6810W        W16503  12.398   7.029   2.352 -0.0142  0.2388  0.1705
 6811W        W16504   3.921  15.186   5.309  0.3561  0.0777 -0.1385
 6812W        W16505  16.267   4.800  12.727 -0.0340  0.0466  0.2926
 6813W        W16506   6.768  10.164   4.254  0.1341  0.1840  0.1416
 6814W        W16507   1.112   2.549  16.579 -0.0243 -0.2376  0.0689
 6815W        W16508   0.413   7.368   1.456 -0.0099  0.0822  0.0148
 6816W        W16509   6.172  11.022   2.526 -0.1407 -0.3746  0.2503
 6817W        W16510   4.697  15.739  14.910 -0.1233 -0.3167  0.1153
 6818W        W16511  15.168  10.011  11.661  0.0226 -0.2880  0.0238
 6819W        W16512  10.748  12.634   4.673 -0.1604 -0.2060 -0.3309
 6820W        W16513  13.753  10.509  16.631 -0.0034 -0.0537 -0.0187
 6821W        W16514   3.273   2.890   3.555  0.2123 -0.0681 -0.0298
 6822W        W16515  16.443   7.457  16.746 -0.0362  0.0991  0.2372
 6823W        W16516   7.785  17.109   1.108 -0.0192 -0.0307 -0.4259
 6824W        W16517   6.627   9.178  12.669 -0.2882  0.3291 -0.3025
 6825W        W16518   4.400  15.280  15.951 -0.3177  0.2986  0.1647
 6826W        W16519   8.292  15.254  13.675  0.0080  0.1385 -0.2255
 6827W        W16520   7.449  10.242   1.072 -0.1895 -0.0049 -0.2053
 6828W        W16521  14.716   2.600   3.645  0.1487 -0.2559 -0.2038
 6829W        W16522  11.265   1.165  10.846 -0.1843 -0.0325  0.1638
 6830W        W16523   8.326   1.057   3.762  0.1431 -0.1463  0.1447
 6831W        W16524  16.831  16.115  15.807  0.6578  0.5067 -0.0961
 6832W        W16525   3.860   0.156   5.686 -0.1871 -0.0356 -0.1878
 6833W        W16526   5.873  16.290  15.379  0.2427  0.3760 -0.0268
 6834W        W16527   8.788   8.389   2.874  0.0317  0.1009  0.3752
 6835W        W16528  10.499   6.282  16.905  0.0083 -0.0418  0.1693
 6836W        W16529   5.639   8.737   4.730  0.1990  0.0715 -0.1085
 6837W        W16530   1.227   2.801  14.563  0.0444  0.1097  0.0480
 6838W        W16531   3.639   8.997   3.140 -0.0804  0.0167 -0.1237
 6839W        W16532   3.323   2.290   2.264 -0.1092 -0.0818  0.2667
 6840W        W16533   6.100  14.938   1.467  0.0109 -0.1203  0.1902
 6841W        W16534  10.909  12.671  15.532  0.0011 -0.0440 -0.3259
 6842W        W16535   3.326   2.687  17.007 -0.3233 -0.1933  0.2718
 6843W        W16536   3.856   1.571   2.685  0.0385 -0.1192 -0.2850
 6844W        W16537   8.109  10.939  15.953 -0.0386  0.1149 -0.1685
 6845W        W16538   2.271   8.078  14.254 -0.1695 -0.0674 -0.2854
 6846W        W16539   9.988   0.207   3.442 -0.0435 -0.0761  0.1983
 6847W        W16540  10.407   9.035   4.671 -0.1209 -0.1071 -0.2383
 6848W        W16541   9.219   0.203   2.304  0.0113 -0.2293  0.1567
 6849W        W16542   5.860  16.115   4.906 -0.2674 -0.2112 -0.0447
 6850W        W16543   4.660   1.585  13.453  0.0597  0.0804  0.1839
 6851W        W16544   3.812  10.694   4.582  0.0198 -0.1907  0.1112
 6852W        W16545   4.169   8.525  16.461  0.1596 -0.0483 -0.5847
 6853W        W16546   8.730   1.495   4.809  0.3031  0.4431 -0.0616
 6854W        W16547   3.981   9.414   1.620 -0.4108 -0.0496  0.0979
 6855W        W16548   5.128  11.221   5.455 -0.0707  0.2309 -0.3519
 6856W        W16549   4.691   4.081  13.299 -0.0455  0.0385 -0.1065
 6857W        W16550   9.978  11.172   1.739 -0.0439 -0.0548 -0.0570
 6858W        W16551   5.180   0.892  14.511 -0.0834 -0.1580  0.1444
 6859W        W16552  12.843   8.420  11.115  0.2069  0.3905 -0.2163
 6860W        W16553  15.152   5.540   0.956 -0.5071 -0.1251  0.0730
 6861W        W16554  13.717   7.039   5.637 -0.3267  0.3122  0.2357
 6862W        W16555   7.656   7.109   0.495  0.1274  0.0334 -0.2653
 6863W        W16556   8.375  13.925   1.161  0.0110  0.3942 -0.0906
 6864W        W16557   6.827  14.853   1.573  0.1030  0.1377 -0.1311
 6865W        W16558   7.801  12.963  14.559 -0.4046  0.0468  0.0383
 6866W        W16559   1.779   3.865   1.167 -0.1101 -0.1391  0.0268
 6867W        W16560   2.284  14.463   1.602  0.1344 -0.2037  0.0551
 6868W        W16561   3.236  12.188   3.753 -0.2923  0.0474 -0.1567
 6869W        W16562   9.996   4.051  16.656 -0.4583  0.2919  0.2604
 6870W        W16563   8.058   5.992  14.276 -0.1839  0.1369 -0.2150
 6871W        W16564  11.926   5.759  14.210  0.0446 -0.0689  0.0298
 6872W        W16565   2.090  14.373  12.163 -0.0054 -0.2353  0.0129
 6873W        W16566   4.060   2.925  15.829  0.3047 -0.3349  0.0933
 6874W        W16567   1.583  14.426  16.143  0.3042  0.2394 -0.2384
 6875W        W16568  10.983  14.151   6.269  0.1484  0.3033  0.1728
 6876W        W16569   9.456   3.113  11.869  0.0394  0.0138 -0.1260
 6877W        W16570   5.545   7.501   3.862 -0.1990 -0.1287 -0.0355
 6878W        W16571   7.292   8.367   0.084 -0.3139 -0.0659 -0.4321
 6879W        W16572  15.250   2.772   2.449  0.1506 -0.0110  0.3013
 6880W        W16573   1.372   4.473  12.600 -0.1258  0.0176  0.1912
 6881W        W16574   8.479  10.840  15.544 -0.0493  0.1592 -0.1234
 6882W        W16575   9.638   0.470   3.769  0.1291 -0.0262  0.2043
 6883W        W16576  14.138  15.697   4.748 -0.2094 -0.2854  0.2690
 6884W        W16577   5.728   3.153  14.196  0.3781 -0.2208 -0.2037
 6885W        W16578   2.966   2.998   4.839  0.0917  0.1452  0.1525
 6886W        W16579  16.345  14.606   3.893  0.2680 -0.1333 -0.1640
 6887W        W16580  10.108   3.510  12.265 -0.2920 -0.2066 -0.2145
 6888W        W16581   7.366   9.090   1.479 -0.2478  0.0347 -0.0727
 6889W        W16582   9.241   9.712   5.015  0.1922  0.0451 -0.1901
 6890W        W16583   6.046   9.244   1.690 -0.3041 -0.3835  0.1144
 6891W        W16584   8.628   1.548   4.315 -0.1330 -0.2758 -0.0929
 6892W        W16585  11.311  11.470   3.375  0.0167  0.0739  0.0948
 6893W        W16586   6.816   8.495   3.773 -0.3584 -0.2281  0.0201
 6894W        W16587   4.167   9.363   2.430  0.3256 -0.0617 -0.1249
 6895W        W16588   1.746  11.276   1.050  0.2200 -0.3911 -0.2052
 6896W        W16589   8.687  14.324   0.974 -0.1493  0.3737 -0.2686
 6897W        W16590   0.292  11.329  13.284 -0.1419 -0.2329 -0.0108
 6898W        W16591   3.219  15.902   4.101  0.2279 -0.0354  0.1195
 6899W        W16592   3.693   3.334  15.086  0.0888 -0.0109 -0.0007
 6900W        W16593   6.956   1.537   0.165  0.0323 -0.3189  0.0196
 6901W        W16594   1.120  14.813  17.068  0.2264 -0.0156 -0.1432
 6902W        W16595  11.636   5.799   3.781  0.0152  0.1721  0.1532
 6903W        W16596   7.761   9.487   5.097 -0.3169  0.5496 -0.1196
 6904W        W16597  10.896   8.690   4.384  0.4697  0.1055  0.0179
 6905W        W16598   4.019  11.780  16.997  0.1173 -0.1797  0.0001
 6906W        W16599  17.177   3.562  15.557  0.0650 -0.3210 -0.1386
 6907W        W16600   6.189  10.333   6.072  0.0314 -0.1992 -0.1732
 6908W        W16601   0.717  14.443   2.487 -0.1929  0.0140  0.1006
 6909W        W16602   8.654  11.885   0.308 -0.3274  0.3028  0.0643
 6910W        W16603   5.499   1.674  15.849 -0.0163 -0.0129 -0.0919
 6911W        W16604  14.478   7.170   4.031 -0.2932  0.0324  0.1201
 6912W        W16605   8.059   2.601  11.362 -0.0319 -0.1732 -0.0299
 6913W        W16606   0.380  13.760   1.995  0.0689 -0.3919 -0.1918
 6914W        W16607   2.628   7.736  12.018  0.1956  0.1668 -0.0460
 6915W        W16608   9.579   4.252   6.129  0.0794  0.1504 -0.0821
 6916W        W16609   3.419  10.512   4.324  0.0295 -0.2023  0.3703
 6917W        W16610   4.340  11.496  15.795 -0.3506  0.1067  0.1069
 6918W        W16611  13.257   8.284  14.916  0.1524 -0.1607 -0.5620
 6919W        W16612   6.756   2.123   3.085  0.0301  0.3233  0.0503
 6920W        W16613   7.855  12.110  11.910  0.0495 -0.1363  0.0644
 6921W        W16614   9.087  14.131   3.779 -0.0128  0.2073 -0.3004
 6922W        W16615   5.284   1.104   4.328  0.1522  0.1199 -0.0612
 6923W        W16616   7.165   7.559   1.793 -0.0006 -0.1147 -0.0155
 6924W        W16617   4.658  16.800   2.328 -0.3757  0.1444 -0.1126
 6925W        W16618  15.734  14.575  16.686 -0.0126 -0.3747  0.0271
 6926W        W16619   8.556   8.474  15.109 -0.1409  0.1555 -0.0888
 6927W        W16620   9.568   6.245   6.131  0.0460 -0.1723 -0.0019
 6928W        W16621   2.561   5.141  15.655  0.2016  0.4194 -0.0134
 6929W        W16622   1.576  14.520   0.589 -0.1492  0.1752 -0.2365
 6930W        W16623   3.119  17.111  12.924  0.1749  0.0602  0.1384
 6931W        W16624   5.144   9.250   5.512 -0.0065  0.1315  0.0172
 6932W        W16625   7.962  16.938   0.685 -0.2949  0.0475  0.0068
 6933W        W16626   4.939   1.265   4.687 -0.1514 -0.0762  0.0038
 6934W        W16627  15.211   8.303  14.605  0.0086 -0.1159  0.0481
 6935W        W16628  12.008   4.475  12.595 -0.0207  0.0726  0.2969
 6936W        W16629  13.742   9.404  10.666  0.0954 -0.0846 -0.2407
 6937W        W16630  17.598  17.392  16.776 -0.1315 -0.3681 -0.0286
 6938W        W16631   4.647   0.805   1.942  0.0325  0.0246  0.0290
 6939W        W16632   6.140   3.626  14.406 -0.0964  0.0855  0.2075
 6940W        W16633   7.259   3.129   0.506  0.0610 -0.0386  0.0388
 6941W        W16634  14.776   6.589   5.199  0.2084 -0.0307  0.2868
 6942W        W16635   7.522  16.577   2.807  0.0474  0.2507  0.0183
 6943W        W16636   9.171  16.670   5.529  0.1341 -0.3944 -0.1279
 6944W        W16637   0.750  11.680   4.017  0.1657 -0.1659  0.2879
 6945W        W16638   3.091  13.169   4.201  0.0497 -0.0822  0.1090
 6946W        W16639   5.677   1.750   0.539 -0.2497  0.1420  0.2020
 6947W        W16640  15.624   5.100   3.409  0.0065 -0.2758 -0.1978
 6948W        W16641  11.370  16.639   0.141 -0.0435  0.0282  0.1338
 6949W        W16642  15.938  13.648  16.764  0.2437  0.4599  0.1840
 6950W        W16643   1.858   0.916  10.724  0.1305 -0.0188 -0.2149
 6951W        W16644   9.235  16.983   3.234 -0.2442  0.3944  0.0586
 6952W        W16645  13.809  16.755  13.333 -0.0314  0.0424 -0.1529
 6953W        W16646   3.347  15.232   2.129  0.2413 -0.2086 -0.0842
 6954W        W16647  17.535  10.633  13.442 -0.1173  0.3367 -0.2390
 6955W        W16648  10.915   8.772  16.213  0.0854 -0.1851  0.0661
 6956W        W16649   3.042   5.534   4.112 -0.1885 -0.0017 -0.2296
 6957W        W16650  16.069  17.094   1.073 -0.1974  0.2629  0.1711
 6958W        W16651   9.295   8.602   0.580 -0.0179 -0.1865 -0.0564
 6959W        W16652   4.322   4.897  16.840  0.1286 -0.0107 -0.2645
 6960W        W16653   3.450   5.216  12.191 -0.2409  0.0141  0.0306
 6961W        W16654   4.465  11.847  12.453  0.0396  0.2538 -0.1330
 6962W        W16655   3.272  17.190   4.078 -0.2998 -0.1786  0.2718
 6963W        W16656  17.091  13.082   4.950 -0.0670 -0.1145 -0.1761
 6964W        W16657   6.298   3.239   6.691  0.1127 -0.1161 -0.1587
 6965W        W16658   1.549   8.892  16.332 -0.2141  0.1885 -0.1074
 6966W        W16659   9.193  17.400  15.057 -0.0471  0.1633 -0.1783
 6967W        W16660   2.171  10.367  11.841  0.1300  0.1358  0.2431
 6968W        W16661   4.764  15.545  12.570 -0.0942 -0.3337  0.1080
 6969W        W16662  10.375   3.041   2.123 -0.1903 -0.0893  0.2965
 6970W        W16663   5.385   1.424   0.299 -0.1649  0.2103 -0.0106
 6971W        W16664   8.610   7.072   0.471 -0.0592 -0.2128 -0.0169
 6972W        W16665   4.744   0.390   0.833  0.3240  0.0887 -0.0658
 6973W        W16666  16.935  16.381  16.632 -0.3261  0.1004 -0.1241
 6974W        W16667  14.489  17.520   2.641 -0.1671 -0.0464 -0.1515
 6975W        W16668   0.732  12.844  14.941  0.0956 -0.1052  0.0694
 6976W        W16669   9.160   1.603   1.794 -0.1305 -0.0450 -0.0559
 6977W        W16670   4.736  16.523   2.917  0.1135  0.0735  0.1122
 6978W        W16671   6.441  13.936   2.593 -0.0714 -0.0779 -0.0056
 6979W        W16672   7.464  12.876   6.458 -0.0518  0.3513  0.0107
 6980W        W16673  15.987   1.986  12.626  0.4136 -0.1051  0.2657
 6981W        W16674   7.463  17.359   5.968 -0.2069 -0.1457  0.2860
 6982W        W16675   9.193   3.805  13.730 -0.0649 -0.1786 -0.1500
 6983W        W16676   3.893  13.736  15.163 -0.0630 -0.0594  0.1416
 6984W        W16677  10.293   1.077  14.861  0.0887 -0.0280  0.0721
 6985W        W16678   1.460  14.534  16.743 -0.0191 -0.1626 -0.1679
 6986W        W16679  16.204   7.432   2.202 -0.1759 -0.0239 -0.1922
 6987W        W16680   5.761  14.150   4.288 -0.0052  0.1245  0.0429
 6988W        W16681  16.334  11.048   4.078 -0.0781  0.1729  0.0883
 6989W        W16682   5.216  13.337  13.225 -0.2367  0.0039 -0.0077
 6990W        W16683  16.117  10.832  12.741 -0.1731  0.0863 -0.2907
 6991W        W16684   1.853  11.817  13.525 -0.2282  0.1036  0.0065
 6992W        W16685   6.478  10.129   2.997 -0.2334  0.0733 -0.1325
 6993W        W16686   5.499   0.506   1.114 -0.3838  0.3751  0.2120
 6994W        W16687   7.474   0.419   6.021  0.6487  0.0102  0.0131
 6995W        W16688   8.544  16.598   0.846  0.1613  0.2183 -0.0900
 6996W        W16689   3.377  17.420  15.412 -0.0039 -0.1353  0.1902
 6997W        W16690   0.579   3.075  13.401  0.0540  0.2475  0.1677
 6998W        W16691   5.859  14.381   0.587  0.0901 -0.1573 -0.1718
 6999W        W16692  11.302   2.451   5.597 -0.0160 -0.0975 -0.0342
 7000W        W16693  16.211   4.811  14.384  0.2014 -0.0187 -0.1711
 7001W        W16694   2.736   5.023   3.551 -0.3110  0.0236 -0.2630
 7002W        W16695  14.473   3.262   4.249 -0.2792 -0.1181 -0.1370
 7003W        W16696  14.066  12.475  14.881  0.0507 -0.2969  0.3755
 7004W        W16697  14.672   3.917  11.451  0.1835 -0.1344 -0.3338
 7005W        W16698   4.156   1.132  16.097 -0.1858  0.0113  0.2700
 7006W        W16699   1.399   6.292   6.423 -0.1273 -0.1413  0.0344
 7007W        W16700  17.555  13.665   4.098 -0.0439 -0.0664 -0.1438
 7008W        W16701   4.557  15.207  14.950  0.0205 -0.2420 -0.2408
 7009W        W16702   8.067   6.548  13.749  0.1598  0.2014  0.0744
 7010W        W16703   5.634   5.731  12.180 -0.0573 -0.2257 -0.1965
 7011W        W16704  15.471  16.745  11.252  0.0120  0.0050 -0.2472
 7012W        W16705   8.176  10.279   1.722 -0.2498 -0.0972 -0.1312
 7013W        W16706   3.484   6.350  15.820  0.0776 -0.1207  0.2936
 7014W        W16707  13.691   6.704  13.390  0.1661 -0.3463  0.0944
 7015W        W16708   3.061  13.216   5.756 -0.1963  0.1266 -0.0532
 7016W        W16709   0.967   5.959   5.178 -0.4386  0.1655  0.0975
 7017W        W16710  15.525  13.467   4.296 -0.0478 -0.2788  0.0553
 7018W        W16711   9.345   6.263   2.098 -0.3698 -0.2118  0.2855
 7019W        W16712   0.067   3.295  13.413  0.1173  0.0705 -0.1196
 7020W        W16713   0.724   1.423   3.375  0.1063  0.0051  0.0399
 7021W        W16714  10.761  12.795   3.536  0.0417  0.2744  0.1218
 7022W        W16715   6.099   2.462  12.430 -0.2816  0.1989  0.3232
 7023W        W16716   3.199   9.858   3.199 -0.0909  0.0397  0.0881
 7024W        W16717   1.279  13.652   0.416  0.1865 -0.1395 -0.1283
 7025W        W16718  10.781   3.682   0.441 -0.0406 -0.1117  0.2043
 7026W        W16719   6.873   7.662  12.513 -0.0530  0.2619 -0.1869
 7027W        W16720   1.392   0.584  13.891 -0.1451 -0.0569 -0.0952
 7028W        W16721  16.771   0.098  12.191 -0.2466  0.3242  0.1281
 7029W        W16722  14.368  12.179   2.107 -0.1384 -0.2557  0.1055
 7030W        W16723   9.173   4.294  15.860 -0.1787  0.1001 -0.0443
 7031W        W16724  12.501  12.925  11.830 -0.1805 -0.3869 -0.5323
 7032W        W16725  13.495  10.445   0.693 -0.0900 -0.2466  0.0834
 7033W        W16726   2.926   9.779  15.079  0.0687  0.2097 -0.0128
 7034W        W16727   1.940   7.386  13.738  0.4533 -0.1259  0.1120
 7035W        W16728   5.492   7.859  16.808 -0.1409 -0.0686 -0.0789
 7036W        W16729   4.765  15.095   4.859 -0.1578  0.0585  0.3049
 7037W        W16730   5.138  12.789   5.457  0.1905 -0.1378  0.1781
 7038W        W16731   7.069  16.742  12.941  0.1924 -0.1622 -0.0920
 7039W        W16732   4.919  16.590  11.828  0.1036  0.1050  0.0895
 7040W        W16733   3.838  13.038   2.938  0.0507 -0.1811 -0.0439
 7041W        W16734   8.222  14.796  12.079  0.2501  0.1208 -0.1158
 7042W        W16735   4.608   4.097  14.525 -0.0342  0.1742 -0.0055
 7043W        W16736   5.897   8.912  16.277 -0.1612 -0.0801 -0.3482
 7044W        W16737   4.743   6.892   1.766 -0.1906  0.2928  0.0575
 7045W        W16738   7.800  14.285   1.739  0.1219  0.0426  0.3364
 7046W        W16739   6.585  11.585  16.664  0.1805  0.5863 -0.2844
 7047W        W16740  11.397  16.541  14.401 -0.0767 -0.0800 -0.3463
 7048W        W16741   6.559  14.190  11.788 -0.2453 -0.0911 -0.2194
 7049W        W16742   9.741  13.160   2.765 -0.0883  0.2397  0.0844
 7050W        W16743  12.323   0.982   1.988 -0.4269 -0.1264  0.0465
 7051W        W16744   5.561   7.575   0.699 -0.0491 -0.1332 -0.0153
 7052W        W16745   7.446   3.170   0.044  0.0774  0.2123 -0.0280
 7053W        W16746   2.316   7.398  11.623 -0.1925 -0.0257 -0.1065
 7054W        W16747   7.214  17.774  12.969 -0.0617 -0.1317 -0.2588
 7055W        W16748   0.803  16.755   2.832  0.1167 -0.5069  0.0038
 7056W        W16749  17.475  10.173   1.375  0.1107 -0.3335 -0.0744
 7057W        W16750   6.170  17.891  16.655 -0.1339  0.1469  0.2438
 7058W        W16751   7.306   6.321   0.998 -0.0761 -0.2413 -0.0677
 7059W        W16752  16.932   2.125  16.134 -0.1237 -0.0454 -0.1051
 7060W        W16753  17.788   5.614   3.299 -0.2548 -0.2250  0.3568
 7061W        W16754   4.318  11.472  16.407 -0.1234 -0.1980 -0.0335
 7062W        W16755   4.056  13.415  13.258  0.1937 -0.0701  0.0367
 7063W        W16756   3.134  11.333   4.858 -0.3202 -0.1930 -0.3714
 7064W        W16757   9.666   9.854  13.767 -0.1107  0.1227  0.0897
 7065W        W16758   5.315  10.790   0.242 -0.1766 -0.2902  0.2624
 7066W        W16759   5.493   7.025  16.485  0.0603  0.2186 -0.2620
 7067W        W16760   1.529   9.378   2.511  0.0876 -0.0179 -0.1191
 7068W        W16761  15.084   4.888   5.939  0.1831 -0.0969  0.0384
 7069W        W16762  10.948  12.081  14.080  0.0139 -0.0728 -0.0619
 7070W        W16763   9.088   3.813  16.053 -0.1667 -0.1758  0.3440
 7071W        W16764   9.065  12.887  13.766  0.0862 -0.0593 -0.3450
 7072W        W16765   5.503  16.240  16.369  0.1339 -0.0772  0.2290
 7073W        W16766   9.832  13.810   5.211 -0.1037  0.2944 -0.1286
 7074W        W16767  15.970   3.176  14.233  0.1742 -0.3559 -0.1954
 7075W        W16768   9.634   4.691  15.319 -0.0439 -0.2769 -0.1120
 7076W        W16769   5.663   0.494   2.522 -0.0216 -0.0633 -0.0845
 7077W        W16770   5.681   4.045  16.897  0.1195  0.2814  0.0445
 7078W        W16771  17.802   5.497   5.717 -0.1323  0.2096  0.3328
 7079W        W16772   9.851  10.650   4.303 -0.0705 -0.0358 -0.3658
 7080W        W16773   7.546  15.257   3.364  0.1514 -0.1435 -0.0735
 7081W        W16774   5.629   8.430   1.790  0.1457 -0.0613  0.3539
 7082W        W16775  11.424  15.457   4.501 -0.0252  0.0868  0.0834
 7083W        W16776   9.163  12.900   4.569 -0.0541  0.1511 -0.0588
 7084W        W16777  11.197   1.275   2.537 -0.1430 -0.0582  0.1048
 7085W        W16778   9.582  14.007   3.760 -0.1709 -0.1852 -0.2426
 7086W        W16779   4.550   7.161  16.008 -0.0741 -0.0775 -0.2710
 7087W        W16780  10.701   5.881   1.499  0.4414 -0.2483 -0.2635
 7088W        W16781  16.213   7.391  15.226 -0.5111  0.3089  0.2435
 7089W        W16782   3.222   3.660   4.698 -0.0410  0.1710 -0.3078
 7090W        W16783   4.319  14.849   5.554  0.1455  0.1698 -0.0787
 7091W        W16784  10.652   2.810  14.584 -0.1297  0.1145  0.0617
 7092W        W16785   5.270   3.562  15.863  0.1045  0.0837 -0.2069
 7093W        W16786   9.431  13.293  10.818 -0.0135 -0.1069 -0.2386
 7094W        W16787   2.022  17.889   1.135 -0.4859 -0.1983 -0.1090
 7095W        W16788   4.655   6.957   0.968 -0.0812 -0.1498  0.2779
 7096W        W16789   5.608   5.616  12.995  0.2929  0.4569  0.0776
 7097W        W16790   0.669  13.158  13.339  0.1228  0.3042 -0.0731
 7098W        W16791  10.996  16.771  15.726  0.0574  0.3441 -0.1435
 7099W        W16792  15.967   3.671  12.566  0.1527 -0.1008  0.3711
 7100W        W16793  17.192   8.768   5.978 -0.1442  0.2866  0.1717
 7101W        W16794   4.497   0.322  16.823  0.3093  0.1475  0.1172
 7102W        W16795   7.605   5.242   3.578 -0.0041  0.1154 -0.1197
 7103W        W16796  12.106  15.766  12.179  0.0825 -0.1690  0.0475
 7104W        W16797  10.382   0.932   5.747  0.0909  0.1470  0.2209
 7105W        W16798  10.983   3.918  12.484 -0.4640  0.0309  0.0670
 7106W        W16799   0.800  11.712   2.828  0.1255  0.1629 -0.0826
 7107W        W16800  13.003  13.048  16.659  0.2393 -0.1159 -0.0064
 7108W        W16801  11.014   9.994   4.568  0.1426  0.0250 -0.1278
 7109W        W16802  11.214   7.137  15.375  0.0947 -0.0300 -0.0437
 7110W        W16803   7.583  13.571   0.270  0.0547 -0.4214 -0.2540
 7111W        W16804   4.417  13.186  14.535 -0.2722 -0.1834 -0.0257
 7112W        W16805   9.707  16.920   5.510 -0.3414 -0.0322  0.1682
 7113W        W16806   0.683   1.925   5.660  0.1824  0.1444  0.3030
 7114W        W16807  10.158   2.079  15.600 -0.0876 -0.1559 -0.3787
 7115W        W16808   4.153   8.000  13.530  0.0416 -0.1028  0.1453
 7116W        W16809   5.616  17.116  14.093  0.2123 -0.0641  0.0205
 7117W        W16810   2.285  17.672  10.546 -0.2776 -0.1756  0.3198
 7118W        W16811   8.724   3.451  13.862  0.1285 -0.0998  0.1580
 7119W        W16812   6.552  16.325   3.766  0.3309 -0.0695 -0.3203
 7120W        W16813   7.294   5.159   0.739  0.1290  0.3273 -0.0332
 7121W        W16814   5.628   2.255   5.934 -0.2890  0.2356  0.0467
 7122W        W16815  10.155   2.771  11.599 -0.1175  0.2395 -0.1161
 7123W        W16816  12.174   1.562   0.551  0.1868  0.1620  0.2501
 7124W        W16817   2.094  13.461   5.858  0.0521  0.1379  0.1438
 7125W        W16818  14.416  10.353  11.411  0.3629 -0.0474 -0.3336
 7126W        W16819   4.264  14.151   5.724  0.1931 -0.2651  0.0678
 7127W        W16820   6.961   6.659  16.227  0.0766 -0.0063 -0.1013
 7128W        W16821   6.558   5.088  16.976  0.1043 -0.2070 -0.1911
 7129W        W16822  16.432  15.683   1.867 -0.0894 -0.1939 -0.1160
 7130W        W16823   7.032  16.645   5.649 -0.1019 -0.1411 -0.2086
 7131W        W16824   2.780   5.967  11.883 -0.2290 -0.1449 -0.0009
 7132W        W16825   6.108  11.295  13.136  0.0205 -0.2708  0.2146
 7133W        W16826   2.056   5.707  13.455 -0.0174  0.0443  0.2077
 7134W        W16827  10.238   8.639   6.415  0.0588  0.0081  0.2544
 7135W        W16828   2.585   8.246  12.815 -0.1330 -0.0336  0.0466
 7136W        W16829  15.098   5.937   0.437 -0.3807 -0.4637 -0.3899
 7137W        W16830  16.812  14.882  12.103 -0.0410  0.0510  0.1223
 7138W        W16831  10.317   8.999  11.957  0.2471  0.0026  0.0724
 7139W        W16832  16.434   4.000  13.369 -0.0835 -0.1136 -0.1553
 7140W        W16833  15.946   1.626  14.477 -0.1917  0.0679  0.0594
 7141W        W16834   4.020   6.782   3.601  0.0641  0.0926  0.2715
 7142W        W16835   1.291   1.512   0.462  0.0245  0.5017 -0.3856
 7143W        W16836  10.478  11.255   3.775  0.3056 -0.0046  0.1291
 7144W        W16837   4.977  16.051  13.175  0.0434  0.1343 -0.4027
 7145W        W16838   3.574   4.266   4.760 -0.1097 -0.0639  0.2091
 7146W        W16839   1.777  14.980   1.979 -0.0289  0.0807  0.2521
 7147W        W16840   2.487   4.883  16.178  0.1636 -0.0746 -0.2808
 7148W        W16841   2.254   8.000  15.174  0.2734 -0.0590 -0.1721
 7149W        W16842   3.682  16.784   2.022  0.1799 -0.1892 -0.3366
 7150W        W16843   5.454  14.582  11.992  0.0690  0.1133  0.1020
 7151W        W16844   4.760   9.034   1.791  0.1091  0.1000  0.0035
 7152W        W16845  10.624   9.575   2.123  0.3896  0.2805 -0.2366
 7153W        W16846  10.460  17.121   2.240  0.1806 -0.3060  0.0787
 7154W        W16847   2.966   0.063  11.688  0.0450  0.0024  0.1349
 7155W        W16848  13.325  10.509  14.726  0.1285  0.1125 -0.0225
 7156W        W16849  12.941  13.379   6.553 -0.0977 -0.0677  0.0326
 7157W        W16850  12.421   2.487  14.252 -0.0185 -0.3453  0.1842
 7158W        W16851   3.204   5.656   5.717  0.4869  0.2401 -0.0163
 7159W        W16852   3.739   5.294   5.763  0.2414  0.2027  0.2086
 7160W        W16853  11.317   6.571   0.318 -0.0405  0.0763 -0.2762
 7161W        W16854   7.773  11.162   2.581 -0.1919  0.1384 -0.2505
 7162W        W16855   5.386  13.090   0.510 -0.2950  0.1355  0.1453
 7163W        W16856   2.655   1.681  15.357 -0.1097 -0.0959  0.2054
 7164W        W16857  14.503  16.390  15.481  0.3702  0.1450  0.2047
 7165W        W16858   2.445  16.026  12.673  0.0817 -0.0385  0.2332
 7166W        W16859   7.253   5.701  14.849 -0.0980 -0.1435 -0.2528
 7167W        W16860   6.368   7.727   1.041 -0.1608  0.0956 -0.0235
 7168W        W16861  12.287   5.592   2.557 -0.5757  0.2720  0.1148
 7169W        W16862  11.354  17.574   5.630  0.3263  0.1359 -0.2155
 7170W        W16863  10.498   1.068  11.608  0.3689  0.2795 -0.1174
 7171W        W16864   2.953   5.065  11.794  0.3403 -0.1111 -0.0375
 7172W        W16865   7.465   7.929   3.494 -0.2458  0.0502 -0.2130
 7173W        W16866  16.633  17.120  12.500  0.0691 -0.2915  0.0809
 7174W        W16867   4.195   6.971   0.701 -0.0148  0.0005 -0.1069
 7175W        W16868  17.825  11.525  13.482 -0.2984  0.0701 -0.1007
 7176W        W16869   1.495  13.403  10.850  0.2626  0.1598  0.0890
 7177W        W16870   6.165   2.405   1.390 -0.0861 -0.0170 -0.0180
 7178W        W16871   8.376   5.994   2.930 -0.0766 -0.1571 -0.0107
 7179W        W16872   9.989   9.580   2.052 -0.0984  0.2415 -0.0063
 7180W        W16873  17.201   9.930   0.079  0.0935 -0.0048 -0.1109
 7181W        W16874   2.305  13.319   4.575  0.2484 -0.0625  0.0642
 7182W        W16875   6.511  15.163   5.207 -0.1381 -0.2386 -0.0689
 7183W        W16876   2.183  17.012   6.749 -0.0859  0.3975  0.1373
 7184W        W16877   2.657   4.797   1.316  0.3293  0.2424  0.0008
 7185W        W16878  11.385  15.200  12.499  0.1820  0.1772 -0.0563
 7186W        W16879   7.984  15.173   2.555  0.1386  0.2006 -0.0103
 7187W        W16880   0.405  12.863   1.531  0.0459 -0.1434  0.0078
 7188W        W16881  12.700   0.868  13.882 -0.3023 -0.1999 -0.0625
 7189W        W16882  12.106  10.339   3.337  0.0729 -0.0186 -0.1248
 7190W        W16883  15.137   4.768  15.526  0.0275  0.1728 -0.1842
 7191W        W16884   9.395  10.752   0.728  0.1244 -0.0314 -0.2467
 7192W        W16885   9.543  10.388  13.528 -0.1062 -0.0001 -0.0987
 7193W        W16886   8.926  17.718   6.640  0.1117  0.2581 -0.0638
 7194W        W16887   7.100   1.016  15.470 -0.3656 -0.0624 -0.2816
 7195W        W16888   1.154   7.506  16.155 -0.4747 -0.0023 -0.0347
 7196W        W16889   9.360  11.017  15.183 -0.0107  0.0436  0.1354
 7197W        W16890   6.185   5.932   4.549 -0.0069 -0.4367  0.1340
 7198W        W16891   3.974  13.847  11.405 -0.1172  0.0389 -0.2229
 7199W        W16892   6.210   3.527   4.805  0.0088 -0.1064 -0.0493
 7200W        W16893   6.596   7.758  13.835  0.0181 -0.0119  0.0108
 7201W        W16894   0.430   4.963   3.533  0.0328  0.2491 -0.1882
 7202W        W16895   5.343   5.868  15.594 -0.1386  0.0685 -0.3779
 7203W        W16896  10.227  17.346   0.694 -0.0993 -0.0175 -0.2518
 7204W        W16897   5.570   4.691  14.294 -0.1354 -0.2166 -0.0976
 7205W        W16898   4.800   3.665   5.229  0.2041 -0.0134  0.1713
 7206W        W16899   6.270   9.529  12.654  0.0277  0.1738 -0.1219
 7207W        W16900   2.316  11.812   1.240 -0.2995  0.0199  0.0458
 7208W        W16901  13.368   5.419  15.175 -0.1410 -0.3328 -0.2063
 7209W        W16902   7.473   8.839   3.804  0.1641 -0.3259 -0.2600
 7210W        W16903  12.865   4.843   3.531  0.0067 -0.2428 -0.0371
 7211W        W16904   2.456  16.773   2.322 -0.1347  0.1763  0.2486
 7212W        W16905   5.562   4.781  16.727  0.1717 -0.0286  0.0543
 7213W        W16906  16.530  10.990   2.634  0.2338 -0.0826  0.0197
 7214W        W16907   0.899  11.826  12.666  0.1199 -0.3189  0.1386
 7215W        W16908   3.873   0.659  12.593 -0.1591 -0.0827  0.0192
 7216W        W16909  17.082  10.245   0.426  0.0180 -0.1837 -0.0624
 7217W        W16910   6.495  12.304   4.860 -0.1068 -0.5207  0.0117
 7218W        W16911  16.958  10.822  16.212  0.1434 -0.1848  0.1442
 7219W        W16912  10.985  17.795  15.742 -0.0874  0.1740 -0.1472
 7220W        W16913   8.941   7.259  12.534  0.0971  0.0932 -0.2843
 7221W        W16914   1.948   2.269   4.463 -0.1453  0.1292  0.0232
 7222W        W16915  11.504   6.569   2.978 -0.1755 -0.0191 -0.3216
 7223W        W16916   2.081   0.679  12.830 -0.2341 -0.0403  0.0468
 7224W        W16917  14.566   0.484  14.357 -0.1763 -0.1742  0.0626
 7225W        W16918  17.452  13.539  13.412  0.0557  0.1259  0.1784
 7226W        W16919   2.275   8.166   2.191  0.0983 -0.1551  0.0973
 7227W        W16920   9.537  15.743   2.919 -0.0393 -0.1803 -0.0817
 7228W        W16921  15.692   5.345   2.360  0.0999  0.1132 -0.1320
 7229W        W16922   0.843  13.450  15.008 -0.1211  0.1680  0.0124
 7230W        W16923  11.749  17.656   2.534 -0.0944  0.1508  0.0511
 7231W        W16924  17.624   9.117  13.792 -0.1734 -0.1832 -0.2469
 7232W        W16925   7.111  12.803  15.460 -0.2918  0.1686 -0.1281
 7233W        W16926  13.600  10.946   5.367  0.1540 -0.0221  0.1195
 7234W        W16927  17.211   5.639  13.244 -0.3082  0.0525  0.2738
 7235W        W16928   5.907  10.219   7.033  0.1150 -0.0031 -0.0594
 7236W        W16929   0.737   8.684  15.665  0.2519  0.3356  0.1671
 7237W        W16930   3.325   8.271   4.130  0.4257  0.0053  0.1904
 7238W        W16931  17.497   2.094   2.885 -0.0580 -0.0067 -0.1028
 7239W        W16932  13.896   9.293  12.430 -0.0887 -0.1695  0.1109
 7240W        W16933   2.637   4.178  15.148  0.1490  0.0625  0.0385
 7241W        W16934   9.963  14.313   3.516 -0.3847  0.2166  0.0120
 7242W        W16935  14.370  12.125  13.086  0.1807  0.0129  0.3934
 7243W        W16936   2.195   5.508  16.286  0.0983 -0.2207  0.1621
 7244W        W16937   1.881   2.623   1.590 -0.0272  0.1138 -0.2249
 7245W        W16938  16.040  17.140  15.500  0.0497  0.0932  0.0064
 7246W        W16939  11.644   8.616   0.600  0.0280 -0.0193  0.3104
 7247W        W16940   6.301  15.027   1.880 -0.3236  0.2401  0.2242
 7248W        W16941   1.500  10.846  16.813  0.0045  0.0529 -0.1762
 7249W        W16942   7.217  12.812  14.478  0.0984  0.0713 -0.4267
 7250W        W16943   8.049   4.844   0.792  0.2477  0.2349 -0.1242
 7251W        W16944   4.202   1.080   0.526 -0.0024 -0.0060  0.3421
 7252W        W16945   4.357   6.113  14.652  0.4089 -0.0804  0.1604
 7253W        W16946   9.370   1.109   4.294 -0.0192  0.0156  0.1588
 7254W        W16947  12.698  17.955  13.454 -0.0593 -0.1760  0.0425
 7255W        W16948   4.508   1.312   4.899 -0.1832 -0.0367  0.1171
 7256W        W16949   4.189   9.696  12.313  0.1334  0.0858 -0.0226
 7257W        W16950  17.105  15.648   0.672  0.0243 -0.4993  0.0956
 7258W        W16951  15.307   3.664  16.368  0.1229 -0.2717  0.1987
 7259W        W16952  11.895  13.269  16.482  0.0539  0.1313  0.1755
 7260W        W16953   7.535  16.093  14.034  0.0863  0.4567  0.0679
 7261W        W16954  17.896   1.405  12.342 -0.0436 -0.0593  0.2199
 7262W        W16955   5.386  16.307   5.117  0.2031  0.1397  0.0419
 7263W        W16956  15.998   7.250   4.822 -0.1008 -0.4636 -0.0448
 7264W        W16957   9.641  10.956  11.895 -0.1280  0.2263 -0.1131
 7265W        W16958   6.831   2.033  13.327 -0.1274 -0.1310  0.1223
 7266W        W16959   1.850  11.798   1.034  0.4682  0.0660 -0.2633
 7267W        W16960  10.954   2.488   1.602 -0.0975  0.1534 -0.0427
 7268W        W16961  13.699   7.129   3.747 -0.1215  0.2295 -0.3199
 7269W        W16962   2.247  14.428   6.347  0.2956 -0.1313 -0.0573
 7270W        W16963   7.472   2.966   1.318 -0.5032  0.2463  0.2028
 7271W        W16964   5.599  10.140   2.548  0.0609 -0.1397 -0.1799
 7272W        W16965   9.268   3.988   2.458  0.0675  0.1914 -0.0073
 7273W        W16966   1.680   2.019  14.634  0.0299 -0.4728  0.0106
 7274W        W16967   7.025  15.121  14.312  0.0414  0.2984 -0.0104
 7275W        W16968   2.074   6.356   4.804 -0.0936  0.3462  0.0716
 7276W        W16969   3.143   1.812   0.419 -0.0399 -0.0593  0.1686
 7277W        W16970   7.546   3.315  11.626  0.0218  0.2656 -0.0045
 7278W        W16971   4.642  17.447  12.023 -0.4287  0.0301 -0.2459
 7279W        W16972   2.254   7.894  13.666 -0.0922 -0.0213 -0.0452
 7280W        W16973   1.113  16.439   4.119  0.2513  0.2975  0.0453
 7281W        W16974  11.051  11.058  12.713  0.0419 -0.1111 -0.0670
 7282W        W16975   0.364   9.096  12.952 -0.2150 -0.1658 -0.0143
 7283W        W16976   9.519   6.951  11.763  0.1403  0.2447 -0.0607
 7284W        W16977   4.686   9.188   5.518 -0.1091  0.1088  0.2019
 7285W        W16978  10.641   4.340   2.082  0.1780  0.1321  0.4225
 7286W        W16979   9.896   0.713   4.302  0.1001 -0.1480  0.0422
 7287W        W16980  10.390  13.048  12.487 -0.1190 -0.0393  0.0108
 7288W        W16981   2.688   3.241   1.540  0.1237  0.1916  0.2056
 7289W        W16982   3.439  10.917   1.170  0.3330 -0.2451  0.0121
 7290W        W16983  12.620   3.322  15.996  0.1946  0.1160 -0.1660
 7291W        W16984  10.006   5.863   4.595 -0.1873  0.2471 -0.0602
 7292W        W16985   1.833  10.555   1.134  0.3379  0.0399 -0.1020
 7293W        W16986  17.359  11.676   0.433 -0.3123  0.0615 -0.0995
 7294W        W16987  17.447  12.814  11.481 -0.2291  0.0159 -0.0063
 7295W        W16988   9.844   6.032   1.976 -0.3249 -0.0535 -0.0905
 7296W        W16989   8.216  16.659  11.814 -0.1167  0.3732 -0.0472
 7297W        W16990   9.423   5.707  15.107  0.0094  0.1183 -0.1149
 7298W        W16991  15.398  17.569  16.010 -0.1458 -0.5269 -0.3163
 7299W        W16992  15.143  11.418  15.704  0.1323  0.2140 -0.1215
 7300W        W16993   2.842   5.335  16.037 -0.0211 -0.0658  0.1359
 7301W        W16994  14.441   2.175   3.067 -0.2009 -0.1076  0.2262
 7302W        W16995   6.840   9.092  12.224  0.0991 -0.0628  0.2786
 7303W        W16996   0.076   7.544   3.329  0.2662 -0.1461 -0.0649
 7304W        W16997   1.346  17.076  12.558  0.5104 -0.1011 -0.2815
 7305W        W16998   6.020   6.045   1.575 -0.0130  0.1284 -0.0113
 7306W        W16999   9.078   8.822   5.022 -0.0513 -0.1042 -0.4441
 7307W        W17000   8.546   6.884   3.085 -0.4404 -0.1834  0.1428
 7308W        W17001  11.029   4.726   3.586 -0.0287  0.1092  0.3609
 7309W        W17002   5.044  16.873   2.670 -0.3707 -0.0143 -0.1199
 7310W        W17003   5.429  13.342   4.283  0.3790  0.0208 -0.0588
 7311W        W17004   0.906   9.810  15.134  0.2188  0.1040  0.0180
 7312W        W17005  12.519  12.467   5.906 -0.0260  0.0442 -0.1556
 7313W        W17006   5.074   3.829  13.120 -0.0391  0.0041  0.0194
 7314W        W17007  12.755  12.959  13.530 -0.1374 -0.2911 -0.0231
 7315W        W17008   5.831   4.306   3.216  0.1218  0.2174  0.1611
 7316W        W17009   5.420   9.646  16.438 -0.3085 -0.0933  0.1543
 7317W        W17010   7.528  13.084  14.105 -0.0476 -0.1895  0.0548
 7318W        W17011  17.561  16.538   1.920  0.1133  0.0150  0.1865
 7319W        W17012   8.613   5.559   0.049 -0.3214 -0.2499  0.0980
 7320W        W17013   1.949   2.530  15.288  0.3365 -0.1971 -0.2036
 7321W        W17014  16.936  10.436   4.258  0.0658 -0.0334 -0.3426
 7322W        W17015   5.591  10.201   6.646  0.1691 -0.1197  0.0260
 7323W        W17016   1.460  12.184  15.223 -0.2712  0.0454 -0.3943
 7324W        W17017  11.069  13.318   5.278  0.1160  0.2644 -0.0643
 7325W        W17018   4.657  12.001   5.583  0.2322  0.0457 -0.0768
 7326W        W17019  11.693   3.417   0.015  0.0902  0.0108  0.1413
 7327W        W17020   5.911  17.843  13.107  0.0192 -0.1636 -0.1649
 7328W        W17021   9.687   4.108  14.522 -0.1461 -0.1288 -0.0576
 7329W        W17022   4.798  14.566  13.718  0.1094  0.4585 -0.1624
 7330W        W17023   8.146  13.428  14.532 -0.2157  0.1223 -0.0902
 7331W        W17024   5.330  13.811   0.183 -0.0382  0.1370 -0.2353
 7332W        W17025   8.355   2.586   1.367  0.3165 -0.0138  0.3365
 7333W        W17026  10.872  11.054   1.842 -0.0914 -0.0261 -0.2400
 7334W        W17027  11.197   5.015   1.931 -0.1368 -0.2736 -0.0343
 7335W        W17028  13.853  13.606  11.995 -0.0436 -0.2233  0.0764
 7336W        W17029  14.208  11.736   2.430 -0.0976  0.2717  0.0196
 7337W        W17030   7.038  13.497   6.426 -0.1189 -0.1178  0.2640
 7338W        W17031   7.837  13.684  16.423 -0.2330  0.1944  0.0694
 7339W        W17032  10.837  15.626   1.116  0.1883  0.2266 -0.0923
 7340W        W17033   1.680   0.533  16.254  0.1279 -0.2370  0.1317
 7341W        W17034   4.031  15.274   4.484 -0.1574  0.1394 -0.0331
 7342W        W17035   8.841  17.224  16.728 -0.1964  0.3515 -0.2132
 7343W        W17036   9.460  16.289  11.323 -0.0765 -0.1163  0.3135
 7344W        W17037   5.441  12.354  14.498 -0.1036  0.0824  0.3576
 7345W        W17038   2.375   9.988  14.485 -0.0463  0.0491  0.0112
 7346W        W17039   6.067  10.488  13.686 -0.0470 -0.1483 -0.2939
 7347W        W17040  17.456   7.319   1.577  0.2063 -0.1429  0.4381
 7348W        W17041   0.776   3.688  12.757 -0.0711 -0.0721 -0.1306
 7349W        W17042  17.435  11.030  16.308 -0.0819  0.0300 -0.4620
 7350W        W17043   1.247   8.569   4.901  0.3628 -0.2585 -0.0305
 7351W        W17044   3.882   3.831  15.726  0.1063 -0.2805  0.0834
 7352W        W17045   5.751  16.719  16.097 -0.4160  0.0156  0.3693
 7353W        W17046   4.339   4.494  11.294 -0.0324  0.2675  0.0402
 7354W        W17047   1.468  10.317  14.813  0.0497  0.0091  0.2429
 7355W        W17048   4.956   3.051  12.625  0.4829  0.1402 -0.3607
 7356W        W17049  11.313   4.004  13.543  0.1309 -0.0106 -0.3461
 7357W        W17050   5.583  13.761  13.121 -0.1423 -0.1810  0.0956
 7358W        W17051   6.400   1.562   1.322 -0.0203  0.2485  0.1862
 7359W        W17052   5.578  16.748  15.141 -0.1167  0.0373  0.2609
 7360W        W17053   6.576  15.997  12.436  0.0783 -0.2044 -0.2911
 7361W        W17054   6.243  17.433  13.368  0.2254 -0.2160 -0.2253
 7362W        W17055  13.160  17.342   2.028  0.0967 -0.2274 -0.0338
 7363W        W17056   1.573  12.033   0.633  0.1655  0.0967 -0.1572
 7364W        W17057   8.641  11.672   2.898 -0.1421  0.0936  0.0372
 7365W        W17058   1.339  13.075   3.533 -0.1307 -0.0931 -0.3159
 7366W        W17059   7.175  12.827   3.070 -0.0532  0.4444 -0.1514
 7367W        W17060  16.251   3.218   2.833 -0.2801  0.1448 -0.0212
 7368W        W17061   6.622  12.027  14.402  0.4431 -0.1191  0.1271
 7369W        W17062   1.603   1.701   2.979 -0.2415  0.0409  0.0934
 7370W        W17063   3.700  16.501  13.664 -0.1343 -0.0919 -0.1646
 7371W        W17064   9.702  12.694   3.743 -0.0915 -0.1440  0.1470
 7372W        W17065   5.668   5.157  17.005  0.3408 -0.0643 -0.3423
 7373W        W17066   7.227  15.014   3.693  0.1476  0.2370  0.2314
 7374W        W17067   7.820   9.995   3.179  0.0453 -0.0437 -0.1503
 7375W        W17068   5.396   8.836   2.666  0.0294 -0.1293 -0.0747
 7376W        W17069   4.555   3.832   5.740 -0.2809 -0.0847  0.0932
 7377W        W17070   5.152   7.550   6.036  0.1380  0.1733  0.1271
 7378W        W17071   0.277  12.801   2.063  0.0194  0.0321  0.2389
 7379W        W17072   1.999   7.382   4.904  0.0134 -0.1411  0.0929
 7380W        W17073   3.714   5.275   6.342 -0.1448  0.0683 -0.0313
 7381W        W17074   4.854  11.022  12.924  0.0057  0.1053  0.2722
 7382W        W17075   3.456   5.370  13.504 -0.1479  0.1083  0.1038
 7383W        W17076   3.468  13.228   1.580 -0.0933  0.2319 -0.2408
 7384W        W17077   0.400   3.699   0.867  0.0430 -0.0189  0.1427
 7385W        W17078   3.423  11.511   5.242 -0.1330 -0.1630 -0.1816
 7386W        W17079   5.316   9.756   4.044 -0.0098  0.0988  0.0937
 7387W        W17080   9.808   5.703  16.697 -0.1710 -0.0254 -0.1228
 7388W        W17081   4.322  10.697   2.378 -0.0977  0.1202 -0.1514
 7389W        W17082   1.582   8.961  12.933 -0.1880 -0.3222 -0.0360
 7390W        W17083   4.921   4.366   4.714  0.2636 -0.0962  0.5329
 7391W        W17084   9.889  16.165   2.590 -0.0875 -0.1250 -0.2421
 7392W        W17085   2.752  16.415  10.381 -0.1971  0.2927 -0.0239
 7393W        W17086  10.537   5.378   3.389 -0.0678 -0.1227 -0.1621
 7394W        W17087   8.407   0.875   1.865 -0.2740  0.1128  0.0921
 7395W        W17088   3.864  16.987   0.903  0.3620 -0.2735  0.1583
 7396W        W17089   2.202   1.548  16.635 -0.1225 -0.2036 -0.1308
 7397W        W17090   1.898   0.741  14.544 -0.1736 -0.2105 -0.0366
 7398W        W17091   1.844   7.267  16.658 -0.0123  0.1181  0.0281
 7399W        W17092   9.559   4.269   2.822 -0.2834  0.0352 -0.1274
 7400W        W17093  10.582  10.170   3.096 -0.0571  0.2006 -0.1062
 7401W        W17094  10.273  16.626   2.285 -0.2523 -0.2065 -0.2248
 7402W        W17095   9.048   9.274   7.104  0.1332  0.3086 -0.3679
 7403W        W17096  17.483  11.450   5.870  0.0546  0.1485  0.1377
 7404W        W17097   5.872   4.683   2.926 -0.1088 -0.3741 -0.1271
 7405W        W17098   9.021   4.458  11.472  0.3498  0.2198 -0.3433
 7406W        W17099   0.284   1.012  13.109  0.0842  0.2521 -0.0278
 7407W        W17100  16.040  13.848  10.083 -0.0762  0.0822 -0.0185
 7408W        W17101   2.695   1.781  13.790 -0.2551  0.2771  0.3113
 7409W        W17102  11.909  13.682  12.710  0.3021 -0.1175  0.1348
 7410W        W17103   3.107   7.436   0.208  0.1254  0.1537 -0.0778
 7411W        W17104  12.885   2.431   3.156  0.0416  0.0082 -0.1826
 7412W        W17105   7.679   7.867  16.433  0.2213 -0.0788  0.3311
 7413W        W17106   8.754  11.915  13.966  0.0544  0.1042 -0.1523
 7414W        W17107   1.484  11.040   2.262  0.0151 -0.0570  0.0334
 7415W        W17108   8.570   2.281   5.524 -0.0311  0.0025  0.0726
 7416W        W17109   4.860  12.340   0.941 -0.0455  0.1425  0.1201
 7417W        W17110   3.954  10.893  13.411  0.0093  0.1533 -0.1578
 7418W        W17111  17.101   7.685  16.082 -0.2204  0.0304 -0.1249
 7419W        W17112   1.774  12.939   1.347  0.2464  0.1497  0.0897
 7420W        W17113   2.445   6.067  12.684 -0.0914 -0.4194  0.3116
 7421W        W17114  10.942   3.575  15.126 -0.1289  0.0283 -0.2828
 7422W        W17115   5.201   7.592   2.483  0.2084  0.3412 -0.1856
 7423W        W17116  15.078   6.767   0.432  0.2918  0.0800 -0.4349
 7424W        W17117   5.320   9.487  13.692 -0.0745 -0.1363 -0.0020
 7425W        W17118   3.778  11.483   0.844  0.2031 -0.2929 -0.2227
 7426W        W17119   0.841   6.845  14.318 -0.1496 -0.1672 -0.1079
 7427W        W17120   2.120   8.280  14.813  0.1089 -0.3801  0.1327
 7428W        W17121   5.159   3.451   0.536  0.1211  0.1773 -0.0096
 7429W        W17122   1.635   6.084  13.021 -0.0988 -0.3087  0.1961
 7430W        W17123   7.454   1.292  13.327  0.4410 -0.2092 -0.2570
 7431W        W17124   8.118   7.765   1.366 -0.2363  0.0179  0.1535
 7432W        W17125   8.036   6.448   5.541  0.0205 -0.0648  0.0760
 7433W        W17126   4.091   0.056   3.703  0.0346  0.0710  0.0155
 7434W        W17127  15.841   2.509  10.469  0.2433  0.0496  0.2871
 7435W        W17128   6.613  17.622   2.424 -0.1253 -0.0077 -0.1303
 7436W        W17129  14.329  11.025  11.269 -0.0796  0.1453 -0.0378
 7437W        W17130   0.626   3.674   5.874 -0.0852 -0.1329  0.1616
 7438W        W17131  15.979  17.359  14.859  0.2359  0.0893  0.0107
 7439W        W17132   3.618   0.648  15.371 -0.1907 -0.0236  0.2980
 7440W        W17133   2.633  12.183  15.408  0.1668  0.1274 -0.0977
 7441W        W17134   0.140  15.683  16.747  0.1014  0.2444 -0.1400
 7442W        W17135   3.085  10.289   2.960 -0.0924  0.2197 -0.0585
 7443W        W17136   8.709  10.935   5.689  0.3179  0.2781  0.0750
 7444W        W17137   1.627  11.338   5.613  0.4407  0.1632 -0.0620
 7445W        W17138   0.589   5.204   2.926 -0.0611  0.0591 -0.0675
 7446W        W17139   2.045   5.805  15.218 -0.2377 -0.1824  0.3757
 7447W        W17140   6.496   7.920   3.999 -0.1711  0.0441 -0.2359
 7448W        W17141  17.722   0.004   4.785  0.0334 -0.3136 -0.1824
 7449W        W17142  12.867   4.240   4.920 -0.3895 -0.1172 -0.2892
 7450W        W17143   3.606   9.094   1.432  0.0792 -0.0310  0.3641
 7451W        W17144  12.626  16.940  14.169  0.0563  0.1031 -0.1930
 7452W        W17145   4.067   3.294   3.408 -0.0939 -0.0866 -0.0860
 7453W        W17146   7.255   6.251  16.175  0.0032 -0.0331  0.1185
 7454W        W17147   6.944   5.390   4.580 -0.2493 -0.1317  0.3327
 7455W        W17148   9.660  17.681   0.290 -0.3834 -0.2667  0.1713
 7456W        W17149   3.782   3.593  13.120 -0.1411 -0.1516 -0.0479
 7457W        W17150   4.625  10.331  13.896  0.1665 -0.0544 -0.1185
 7458W        W17151   0.245  16.302  16.708  0.2136  0.2342 -0.2109
 7459W        W17152   1.817   1.091   5.641  0.0391  0.2351 -0.0502
 7460W        W17153   4.751   9.232  13.235 -0.1686  0.4202  0.1447
 7461W        W17154   9.712  17.781   2.451  0.1393  0.0701  0.3327
 7462W        W17155  11.320  15.704  16.103  0.2551  0.3285 -0.1006
 7463W        W17156   4.974   4.998   4.146 -0.1467  0.1128 -0.0070
 7464W        W17157  15.320   4.289   5.978 -0.0231  0.0254 -0.0352
 7465W        W17158   3.044  17.617   2.625 -0.1000 -0.1012 -0.0979
 7466W        W17159   1.458   3.325  12.867  0.0395  0.1898  0.0478
 7467W        W17160   1.751  16.152  14.187  0.1735  0.0256 -0.2297
 7468W        W17161   6.415   5.880  12.749 -0.2331 -0.1342  0.0764
 7469W        W17162   9.128   5.172   3.054  0.1846 -0.0386  0.1017
 7470W        W17163  11.608  10.042   2.969 -0.2078  0.0092  0.0932
 7471W        W17164   8.951  12.512  15.274 -0.1915  0.0980  0.2961
 7472W        W17165   1.967   4.514   4.476 -0.1263 -0.0986  0.1772
 7473W        W17166  14.248   4.243   4.109  0.1853 -0.1293  0.1087
 7474W        W17167   7.201  11.377   4.407  0.2556 -0.3176 -0.0347
 7475W        W17168  14.062   7.451   0.854 -0.0827  0.2773 -0.0229
 7476W        W17169  12.193  14.749   1.205  0.1684 -0.3079  0.4136
 7477W        W17170  15.160  12.991   1.458  0.2192  0.0518 -0.1949
 7478W        W17171   2.668  13.150  15.154  0.0184 -0.4914  0.1212
 7479W        W17172   4.092   0.885  10.534 -0.0135  0.1305  0.2290
 7480W        W17173   7.033   4.407  14.856  0.1940  0.0390  0.1620
 7481W        W17174   4.155   4.180  13.784 -0.0296 -0.0910  0.0544
 7482W        W17175   8.055  10.476   5.064 -0.1601  0.0833 -0.1959
 7483W        W17176   7.791   9.174  11.927 -0.1417  0.1523 -0.2766
 7484W        W17177   6.997   0.901   3.900  0.0454 -0.4399  0.3479
 7485W        W17178   8.504  16.659  16.892  0.0857  0.1433 -0.0706
 7486W        W17179   8.540  11.885   3.847  0.2922 -0.2071  0.0816
 7487W        W17180   2.388  14.262   4.720  0.2434 -0.0639  0.0437
 7488W        W17181   6.167   1.568  13.705  0.3331  0.0747 -0.0322
 7489W        W17182   5.842  10.296   4.672  0.0600 -0.2466 -0.0362
 7490W        W17183   2.626  16.816  12.118 -0.1253  0.0343 -0.3470
 7491W        W17184   2.858   0.762   1.795  0.0373  0.2223  0.3944
 7492W        W17185   0.984  14.341   1.040 -0.2037 -0.0945 -0.0207
 7493W        W17186  12.406  13.393   0.729 -0.0642  0.0078  0.3457
 7494W        W17187   4.938   5.188   1.035  0.0969 -0.2266  0.3177
 7495W        W17188  12.983  10.747   3.173  0.0628  0.0759 -0.0466
 7496W        W17189   6.800  15.966   4.523  0.1323 -0.2983 -0.0919
 7497W        W17190   8.924  13.371   3.869 -0.0191  0.0850  0.5130
 7498W        W17191   5.064   0.364  14.554 -0.2811  0.3304  0.0013
 7499W        W17192  10.897  15.156   4.626  0.0511 -0.0196  0.0984
 7500W        W17193  17.409   3.474   0.959  0.0033 -0.1192 -0.2047
 7501W        W17194   6.953   2.962   1.576  0.4815  0.2607  0.1217
 7502W        W17195   8.083   0.736  16.139 -0.1022  0.1302  0.0134
 7503W        W17196   6.196   7.907   5.105  0.0780  0.0934 -0.0290
 7504W        W17197  11.801   1.757   0.283 -0.0528 -0.2278  0.0012
 7505W        W17198   4.445  14.924   5.991  0.0478 -0.3303  0.0462
 7506W        W17199   6.733  11.956   3.167  0.0517  0.1117  0.0944
 7507W        W17200   4.678   7.033  12.600 -0.0424 -0.1205 -0.1420
 7508W        W17201   7.519  16.988  15.489  0.0824 -0.2280  0.0338
 7509W        W17202  17.129   6.569   4.152 -0.0683 -0.1143 -0.1641
 7510W        W17203   2.829  14.050  14.730  0.2720 -0.2703 -0.0494
 7511W        W17204   4.674   2.025  16.005 -0.0302  0.0159  0.1103
 7512W        W17205  16.153   2.314  13.747 -0.0673 -0.0881 -0.1777
 7513W        W17206   6.913  13.117   1.662 -0.0638  0.0285  0.0101
 7514W        W17207   6.813  17.268  15.469 -0.1943 -0.1652  0.1870
 7515W        W17208   4.302   6.506   6.648 -0.1123  0.3371  0.0459
 7516W        W17209   1.250  17.941  15.941 -0.1285  0.2828  0.2922
 7517W        W17210  12.328  17.918  15.451  0.0858  0.0396 -0.2502
 7518W        W17211   5.607  10.695   6.849  0.1180 -0.1510 -0.1040
 7519W        W17212  12.359  11.351   1.565  0.0774  0.1585 -0.1376
 7520W        W17213   5.460   7.622   3.067 -0.0968 -0.0523  0.0651
 7521W        W17214   7.841  11.497  15.822 -0.1686  0.1225  0.0525
 7522W        W17215   8.426  14.027   4.977 -0.0264 -0.1446 -0.1667
 7523W        W17216   1.038  16.481  11.231 -0.1589 -0.2189 -0.0352
 7524W        W17217   6.821   6.895   5.912 -0.0103  0.1343 -0.0013
 7525W        W17218   4.300   1.498   3.663 -0.3196  0.1955 -0.2034
 7526W        W17219   3.220  12.543   2.804  0.3434 -0.4118  0.0727
 7527W        W17220   1.407   2.169   2.086  0.0169 -0.2652  0.3091
 7528W        W17221   4.878  15.689  14.075  0.0947 -0.1242 -0.1101
 7529W        W17222   7.617  16.116   4.001 -0.0750  0.0757  0.0967
 7530W        W17223   6.024  17.329   4.586  0.0145  0.0747 -0.0129
 7531W        W17224  16.278   7.058  13.729 -0.2331 -0.0337 -0.0562
 7532W        W17225   6.654  11.187  16.965  0.1586  0.2054  0.0687
 7533W        W17226   0.968   7.841   3.441  0.2015  0.0357  0.2226
 7534W        W17227   8.483  17.533  16.436  0.1782  0.2183  0.1337
 7535W        W17228   5.657   1.472   2.348  0.1222  0.1410  0.1473
 7536W        W17229   7.266   8.525   3.364  0.1090 -0.0698  0.2093
 7537W        W17230  14.891   1.756   1.649  0.2080  0.2930 -0.2674
 7538W        W17231   4.600   0.352   1.315 -0.1892 -0.2376 -0.2418
 7539W        W17232   7.359  15.270   0.741 -0.0866  0.3252 -0.0498
 7540W        W17233   3.152   4.214  12.258  0.0469  0.0609 -0.0545
 7541W        W17234   3.028  13.967   6.396 -0.1180 -0.0091  0.0418
 7542W        W17235  10.455   0.724  10.587 -0.0985  0.2290  0.2703
 7543W        W17236  16.626  17.636   0.423 -0.0953  0.1494  0.2062
 7544W        W17237  12.514   6.449   2.961  0.0681  0.0559 -0.1775
 7545W        W17238  14.776  13.985  15.090 -0.3017  0.1240 -0.1656
 7546W        W17239   1.641   9.049  11.456 -0.0476  0.2133  0.0312
 7547W        W17240   7.691  11.362   4.227 -0.0211  0.0724  0.3851
 7548W        W17241   2.696   0.535  15.994 -0.0366 -0.2191  0.1402
 7549W        W17242   2.858   9.893   5.916  0.1909  0.1046 -0.0521
 7550W        W17243   3.764  13.300  15.917  0.2603 -0.1534  0.0681
 7551W        W17244   7.160   1.300   2.876  0.1074 -0.0817  0.1530
 7552W        W17245   5.167  12.225   5.601 -0.1796  0.0766 -0.1820
 7553W        W17246   6.049  12.467  12.488 -0.1417 -0.2965  0.0447
 7554W        W17247  15.432   7.405   1.380  0.0928 -0.3533  0.1245
 7555W        W17248   3.832   8.323  15.364 -0.2435  0.1345 -0.2006
 7556W        W17249   7.875   7.726  13.259 -0.1041  0.1187  0.1405
 7557W        W17250   7.501  15.333  16.553  0.0750  0.0003  0.0726
 7558W        W17251   9.264   5.373   4.682  0.0284  0.0439 -0.1120
 7559W        W17252   9.516  12.726   2.757  0.2712 -0.2910  0.0310
 7560W        W17253  13.626   0.823  14.563 -0.1528 -0.1595  0.0737
 7561W        W17254   1.107   9.841  10.610 -0.1639 -0.2031 -0.0889
 7562W        W17255  12.193  13.713   2.082 -0.1538 -0.0538  0.0671
 7563W        W17256   3.706   4.738   5.529 -0.1120 -0.0338  0.0530
 7564W        W17257  14.533  10.334   4.425 -0.2473  0.0314 -0.2820
 7565W        W17258   7.007   1.575  13.298  0.0792  0.2653 -0.1884
 7566W        W17259   7.944  17.348   4.869  0.0396 -0.2849  0.0882
 7567W        W17260   4.892   1.732   4.911  0.1023 -0.1037 -0.0173
 7568W        W17261   2.866   5.791   1.225  0.1107  0.1042 -0.4247
 7569W        W17262   7.231  17.358  13.732 -0.1953  0.3749 -0.0563
 7570W        W17263  17.106  15.920   3.554 -0.0075  0.1518 -0.1732
 7571W        W17264   2.855   2.880   2.560 -0.1453 -0.1717 -0.0549
 7572W        W17265  10.556   3.322   4.022  0.0997 -0.0899 -0.0374
 7573W        W17266  14.375  16.438  15.992  0.0309 -0.3934  0.2796
 7574W        W17267   0.815   4.754   5.029  0.1893 -0.1542 -0.2104
 7575W        W17268   0.223   4.886   2.572  0.1509  0.1966 -0.0012
 7576W        W17269  16.512   5.972   0.794  0.1102 -0.0782 -0.0296
 7577W        W17270   8.385  13.117  16.933  0.2327 -0.1164 -0.0257
 7578W        W17271  10.856  16.399   1.249 -0.1356  0.1159  0.0649
 7579W        W17272  10.332  15.155   2.837 -0.1101 -0.1528 -0.4947
 7580W        W17273   3.337  11.643   0.076 -0.0092  0.2818  0.0706
 7581W        W17274   6.244   1.029  13.163  0.0746  0.2333 -0.0784
 7582W        W17275   8.948   4.281   5.704 -0.0727  0.1565 -0.2314
 7583W        W17276  10.699   7.991  16.699 -0.0509  0.1283 -0.0030
 7584W        W17277   5.730  11.153   4.277  0.2757  0.1567  0.1028
 7585W        W17278  10.737  11.147   5.644  0.1035 -0.0565  0.0310
 7586W        W17279  14.495  15.888   5.094  0.0871  0.1407  0.1870
 7587W        W17280  13.553  12.690   2.017  0.2898 -0.0482 -0.0005
 7588W        W17281   6.333   9.466   3.526 -0.0328 -0.1336  0.0647
 7589W        W17282   4.091   8.129  12.050  0.0423 -0.0721  0.2506
 7590W        W17283  17.769   7.699  12.556 -0.1816  0.0972  0.0551
 7591W        W17284   4.470   3.542   4.111  0.4233  0.0620  0.0036
 7592W        W17285   7.296   8.859   1.024  0.2743  0.0216  0.2131
 7593W        W17286   2.085  15.761   2.326 -0.1773 -0.2078  0.2227
 7594W        W17287  14.647  16.826  15.807 -0.3111 -0.1292 -0.2845
 7595W        W17288   8.331   7.889   5.595  0.0308  0.0212  0.3434
 7596W        W17289   1.514   2.040   3.370 -0.1139  0.0597  0.1201
 7597W        W17290  13.082   3.188   3.986  0.2514  0.2605 -0.2473
 7598W        W17291  11.576   6.484   2.495  0.1683 -0.0268 -0.1280
 7599W        W17292  14.566   5.438  16.056  0.0482 -0.2927 -0.0649
 7600W        W17293   3.970   2.403  13.446  0.1874 -0.2403 -0.0129
 7601W        W17294  17.759   7.501   5.840 -0.0032  0.1269 -0.3468
 7602W        W17295   1.729  10.046   6.627  0.0150 -0.0486 -0.2194
 7603W        W17296  15.837   8.981   1.187  0.0839  0.0312  0.1350
 7604W        W17297  16.928  15.817   2.226 -0.0727 -0.1794 -0.0327
 7605W        W17298   2.692   5.608   5.785  0.0980  0.1173  0.0436
 7606W        W17299  13.828   0.547  16.306 -0.3253  0.2142 -0.3274
 7607W        W17300   2.593   0.737  12.758 -0.3384  0.0674 -0.1849
 7608W        W17301   7.934   6.629   2.001 -0.0645 -0.2279 -0.0768
 7609W        W17302   6.288   6.558   4.069 -0.1635  0.1698  0.2082
 7610W        W17303   8.765   9.890   3.270 -0.1971 -0.0386  0.1284
 7611W        W17304   6.039   1.156   1.344  0.3800 -0.3092 -0.0839
 7612W        W17305   8.201   8.206   1.165 -0.2921  0.3368 -0.0487
 7613W        W17306   3.887   5.000  14.829  0.0344 -0.0441  0.2059
 7614W        W17307  15.918  16.465   0.848 -0.0388  0.0154 -0.0933
 7615W        W17308   4.235  12.893   2.638 -0.0150 -0.0751  0.0974
 7616W        W17309  12.269   0.420  15.446 -0.2466  0.1309  0.0358
 7617W        W17310   4.408  13.582   3.885 -0.2596  0.0290  0.4818
 7618W        W17311  15.367  12.327  14.727  0.2387 -0.1883 -0.1343
 7619W        W17312   6.569   1.087  13.572 -0.1177 -0.1357  0.4727
 7620W        W17313   2.606  13.474   5.709  0.2177  0.0619 -0.1065
 7621W        W17314   2.205  17.865   2.873  0.4676  0.1344  0.2271
 7622W        W17315   3.959  13.191   6.221  0.0367  0.6012  0.2133
 7623W        W17316   7.748  17.037   2.006 -0.1507  0.0893  0.0327
 7624W        W17317   5.004   1.405  14.619 -0.0011  0.0140  0.2068
 7625W        W17318   7.486   1.467  11.923 -0.2486  0.2281 -0.0321
 7626W        W17319   6.648   3.849   4.779 -0.0840  0.1164  0.2118
 7627W        W17320  12.774   5.312  14.276  0.1100 -0.2212  0.1916
 7628W        W17321   0.256  17.832  15.209 -0.0164  0.1982  0.0830
 7629W        W17322  11.189   5.683   1.448  0.1878  0.3120 -0.3921
 7630W        W17323  16.727  17.744   2.630 -0.2495 -0.1873 -0.4880
 7631W        W17324  12.481   6.535  14.694  0.0182 -0.1145 -0.0969
 7632W        W17325   7.801   5.038   5.531 -0.0483 -0.0333  0.0231
 7633W        W17326  10.239  11.202   4.952 -0.0234  0.0381  0.0425
 7634W        W17327   5.288   9.083   1.639 -0.2136 -0.0252  0.1219
 7635W        W17328   0.424  14.191   5.982 -0.0556  0.1007  0.1521
 7636W        W17329   5.716   2.237   0.631  0.0284  0.1098  0.2029
 7637W        W17330  15.873  10.198   4.887 -0.1453  0.0011 -0.0342
 7638W        W17331   2.436   5.099   5.003  0.1859  0.0384 -0.1700
 7639W        W17332   7.054  14.104   0.053  0.2780 -0.0687  0.0781
 7640W        W17333   1.783   6.663  14.906 -0.0995 -0.0972 -0.1660
 7641W        W17334   1.538   5.069   4.359  0.0268  0.0679 -0.1429
 7642W        W17335   4.442   8.751   1.221 -0.3641  0.1206  0.3001
 7643W        W17336   8.508  14.299   3.541 -0.1258 -0.2671  0.2844
 7644W        W17337  16.745   7.971   5.090 -0.3327 -0.2154 -0.0001
 7645W        W17338  15.506  15.169  11.865 -0.1949 -0.0773  0.2653
 7646W        W17339  12.823  11.350  10.073  0.0464  0.1744 -0.0870
 7647W        W17340   6.225   9.660  16.173  0.2276  0.0679 -0.0481
 7648W        W17341  17.877   0.820  16.705  0.0737  0.1474  0.1232
 7649W        W17342   2.714   2.313   1.737  0.0352 -0.1716 -0.0825
 7650W        W17343   6.173  17.341  12.902  0.0241 -0.0040 -0.0673
 7651W        W17344   2.943  15.288  15.502  0.0912 -0.1018  0.0835
 7652W        W17345   6.787   9.235   2.254 -0.4404  0.0882  0.4057
 7653W        W17346   8.761   9.952  16.829  0.2877 -0.2467 -0.1281
 7654W        W17347   8.642   0.643  16.539 -0.0202  0.2665  0.1864
 7655W        W17348   4.277   0.986  12.580  0.0143 -0.0533 -0.2729
 7656W        W17349  15.400   9.823  12.558  0.0137 -0.1767 -0.0510
 7657W        W17350   6.672  11.478  13.626  0.0174  0.2220 -0.0612
 7658W        W17351   4.519   9.228   2.848 -0.1451 -0.0055 -0.1767
 7659W        W17352   6.396  15.036  14.127 -0.1081 -0.0547 -0.3921
 7660W        W17353  10.865   3.557   4.366  0.0354 -0.1513 -0.0542
 7661W        W17354  17.806   1.130   1.872 -0.1556 -0.0078  0.1222
 7662W        W17355   5.983  17.506   5.893 -0.0504 -0.1617  0.1749
 7663W        W17356   2.985   3.664  16.846 -0.2688  0.1252  0.0008
 7664W        W17357  16.394  14.524   1.852 -0.1681  0.2070 -0.3275
 7665W        W17358   9.170  12.463  14.801 -0.1124 -0.0142  0.3564
 7666W        W17359  15.566   7.486  15.216 -0.0098 -0.0028 -0.1290
 7667W        W17360  11.097  15.975   0.947  0.0379 -0.5331  0.1724
 7668W        W17361   3.916  17.241   0.164 -0.1078  0.0120 -0.0113
 7669W        W17362   1.756  14.245   1.041 -0.2681 -0.2193  0.0078
 7670W        W17363   1.191  10.494  16.165 -0.0842 -0.1487  0.1972
 7671W        W17364   1.244  15.703  14.243 -0.2896 -0.0929 -0.2465
 7672W        W17365  13.266  15.464   5.211  0.2453  0.1891 -0.0105
 7673W        W17366  10.844  12.543   5.677  0.0938 -0.1420  0.1488
 7674W        W17367  17.837   6.041   3.829 -0.1517 -0.0166 -0.0577
 7675W        W17368   7.193   2.311  13.646 -0.0476 -0.2366 -0.0122
 7676W        W17369   5.327  10.898   1.576 -0.0100  0.1067 -0.0699
 7677W        W17370  11.941   7.047  14.580  0.3000 -0.2341 -0.2914
 7678W        W17371   4.162   5.871   2.315  0.2043 -0.3545 -0.0111
 7679W        W17372   5.679   6.159  17.097  0.1051  0.2604  0.1098
 7680W        W17373  13.029   5.038   2.565 -0.3677 -0.3235 -0.3083
 7681W        W17374   6.771  15.779  16.600  0.1011 -0.1885 -0.1694
 7682W        W17375   2.218   9.510   4.222 -0.3036 -0.1496  0.0667
 7683W        W17376   1.166  11.670  16.559  0.3403 -0.0924  0.0365
 7684W        W17377   0.978  14.432  15.259  0.2476  0.0412 -0.1104
 7685W        W17378  14.320  12.659   3.938  0.3690 -0.0168  0.1190
 7686W        W17379   8.237  12.750   3.795  0.1964 -0.0314  0.0976
 7687W        W17380   0.661   4.446  16.722 -0.0563  0.0207 -0.2912
 7688W        W17381   5.666  12.028   2.238 -0.0938  0.0236 -0.3212
 7689W        W17382   4.183   5.432  16.085  0.3362 -0.1191 -0.0654
 7690W        W17383   0.431  14.429  15.239 -0.0665 -0.0578 -0.0555
 7691W        W17384  15.871   7.091   0.530  0.1923  0.0582 -0.1945
 7692W        W17385  11.561  14.477  14.494  0.3223  0.1400  0.1722
 7693W        W17386   2.496  15.553   4.640  0.0902 -0.0234 -0.1912
 7694W        W17387   6.206   0.592  16.133  0.0115 -0.1206 -0.0240
 7695W        W17388   4.916   0.961  12.177  0.0208 -0.2757 -0.1039
 7696W        W17389   2.820   3.468  14.011 -0.0588 -0.1115 -0.1527
 7697W        W17390   8.261   0.112  12.906 -0.2839  0.0066  0.2186
 7698W        W17391   7.000   5.197   5.938  0.2595  0.1941 -0.0151
 7699W        W17392   9.073  14.574   5.717  0.1967  0.2234  0.0724
 7700W        W17393  10.524  12.168  13.210 -0.0441  0.0769 -0.1473
 7701W        W17394   6.629   4.818  12.127  0.0908 -0.1075  0.0367
 7702W        W17395   0.612  16.564  14.667 -0.2042  0.4313  0.1289
 7703W        W17396   9.122  14.005  12.906  0.2328  0.2431  0.3523
 7704W        W17397  15.365   3.097  16.109 -0.1103 -0.0363  0.2098
 7705W        W17398  14.811  16.213   4.969 -0.2758  0.0063 -0.2505
 7706W        W17399   0.806   2.114  16.130 -0.1476  0.0709  0.1093
 7707W        W17400   6.025  17.374  16.771  0.5203 -0.2600 -0.0504
 7708W        W17401  16.227   2.437   0.548 -0.3174  0.1087  0.0579
 7709W        W17402   2.605  15.028   0.771 -0.0571  0.1877 -0.0358
 7710W        W17403   6.882  17.648  13.948 -0.1110 -0.1147 -0.2168
 7711W        W17404   9.767   0.914  15.780 -0.0400  0.3724  0.3500
 7712W        W17405  14.397   6.792  15.844  0.1463  0.1241 -0.0826
 7713W        W17406  16.452   5.393   1.788  0.1720 -0.2074 -0.0558
 7714W        W17407   1.667  13.669   5.224  0.0551 -0.1214 -0.2927
 7715W        W17408  12.503  16.947   4.311  0.2638  0.0682  0.1835
 7716W        W17409   3.368   8.657   5.646 -0.1331  0.2251 -0.0556
 7717W        W17410  12.361   1.403  11.224  0.0441  0.0284  0.3864
 7718W        W17411   9.504  16.043   6.045  0.0089 -0.0857  0.0325
 7719W        W17412   1.439   1.654   2.051  0.2947  0.1601 -0.1050
 7720W        W17413  12.358   4.038   3.371 -0.0501  0.3089  0.0006
 7721W        W17414  11.027  16.376   3.801  0.0462 -0.0738 -0.0707
 7722W        W17415  10.025  16.672  14.125  0.1405 -0.0472  0.2129
 7723W        W17416   2.621  15.448  16.397  0.0015 -0.1754 -0.1841
 7724W        W17417   5.443  15.290  12.729  0.1497 -0.1583 -0.0667
 7725W        W17418   3.825   4.933  15.846  0.1108  0.3337  0.0511
 7726W        W17419  15.956   0.432  11.038 -0.2322  0.2080  0.4379
 7727W        W17420   6.151   1.232   3.158  0.3134 -0.1181  0.2230
 7728W        W17421  11.467   5.102  13.444  0.3363 -0.0335  0.2686
 7729W        W17422   0.192  13.912  14.490  0.0158 -0.3261  0.0537
 7730W        W17423  12.604   7.547   1.071  0.3612 -0.0664 -0.2694
 7731W        W17424   5.766   6.600  16.877  0.3938 -0.1079  0.0562
 7732W        W17425   7.191  14.717  15.683 -0.0933 -0.3411 -0.1735
 7733W        W17426   2.828  15.371  11.370 -0.1245 -0.3684 -0.0002
 7734W        W17427   4.093   0.444   3.446 -0.2096 -0.2013 -0.1490
 7735W        W17428   1.312  15.322   0.075 -0.1124  0.0403 -0.2623
 7736W        W17429   1.918  11.662  14.429  0.1082 -0.0142  0.0444
 7737W        W17430   3.940   8.902   2.708 -0.1892  0.1734  0.3322
 7738W        W17431   6.999  11.944  17.083  0.2247 -0.1121  0.2479
 7739W        W17432   0.441   0.416   5.679 -0.0737  0.1834 -0.2776
 7740W        W17433   5.169   7.752   0.419  0.0159 -0.2562  0.1937
 7741W        W17434   2.659   5.033   2.645 -0.0779  0.2227 -0.3475
 7742W        W17435  11.138   4.940   0.233  0.0324 -0.0016 -0.0113
 7743W        W17436   6.220   3.285  13.660 -0.1056 -0.0030  0.3271
 7744W        W17437   5.629   8.709  14.566 -0.1691 -0.1737 -0.0254
 7745W        W17438   8.382  14.745   3.414  0.1954 -0.0560  0.2458
 7746W        W17439   8.436  11.255  13.133  0.0236 -0.1949 -0.2918
 7747W        W17440  14.152  11.853   0.548 -0.0822 -0.1264 -0.1796
 7748W        W17441   2.209  17.393   0.289 -0.0823 -0.0635 -0.3047
 7749W        W17442  15.566  11.235   2.139 -0.3047  0.0538 -0.1200
 7750W        W17443  17.002   1.141  16.544  0.2720 -0.0418  0.0943
 7751W        W17444   2.655  17.567   4.170 -0.2152 -0.3527  0.2140
 7752W        W17445   9.736  13.721  12.466 -0.0287  0.2367  0.0316
 7753W        W17446  11.397  15.134   6.241 -0.0228  0.2740 -0.1531
 7754W        W17447   8.371   0.442   6.056  0.0610 -0.2068  0.4072
 7755W        W17448   2.195  12.234  12.583 -0.0226  0.3687  0.1497
 7756W        W17449   1.352   9.592  12.035 -0.0864 -0.0353 -0.0282
 7757W        W17450   3.871  15.110  13.274 -0.0561 -0.0815  0.1917
 7758W        W17451  10.491  12.320  15.473 -0.1751  0.2220 -0.1549
 7759W        W17452  16.586   1.036  15.870  0.1171  0.4256 -0.0501
 7760W        W17453   1.746   2.627  14.430  0.1206 -0.0740  0.0836
 7761W        W17454   2.824  17.480   0.218 -0.0713 -0.2378 -0.2409
 7762W        W17455  11.415  10.655  16.633 -0.1161 -0.0118 -0.0711
 7763W        W17456   6.356  14.593   2.238 -0.0736 -0.1193 -0.2249
 7764W        W17457   7.127  17.144   0.408 -0.2923 -0.0818 -0.0856
 7765W        W17458  11.347  16.414   0.650  0.1814  0.1453  0.3499
 7766W        W17459   5.090   6.331  12.381 -0.2431  0.3496 -0.0389
 7767W        W17460   4.152   6.567  15.419 -0.2799  0.1519 -0.0718
 7768W        W17461   8.708   7.449  14.170 -0.0114 -0.1329 -0.1010
 7769W        W17462   7.145  15.781  10.852 -0.0323  0.1531  0.1825
 7770W        W17463   4.331   7.280  11.663 -0.1774 -0.0664  0.2390
 7771W        W17464  11.034   6.751  14.610  0.2646  0.0483  0.1507
 7772W        W17465   0.785  12.828   0.385  0.3486  0.2898  0.1287
 7773W        W17466   3.425  14.361   5.543 -0.2072 -0.1288  0.1688
 7774W        W17467   2.518   8.257  12.212 -0.1407 -0.1672 -0.0970
 7775W        W17468   4.740  12.349  11.686 -0.0745  0.2178  0.0971
 7776W        W17469   5.831   5.992   3.318 -0.2812 -0.3729  0.1768
 7777W        W17470   3.071  16.233   2.619  0.1055  0.0972 -0.0230
 7778W        W17471   8.061   8.479  15.806  0.2182 -0.1986 -0.3130
 7779W        W17472  15.345   9.079  16.091  0.2565  0.1220 -0.0155
 7780W        W17473  12.829  14.600   4.914  0.1835  0.1489  0.0729
 7781W        W17474  10.168   2.979   6.647 -0.0279 -0.1406  0.0098
 7782W        W17475   8.454   4.011  13.082  0.2341  0.1620  0.0798
 7783W        W17476   3.273   1.382  13.228  0.1899  0.1504 -0.2922
 7784W        W17477   9.984  17.547  11.993  0.2179  0.0172  0.2467
 7785W        W17478   6.740   4.982   5.434  0.0817  0.1732 -0.1190
 7786W        W17479   0.546  11.192   4.576 -0.1025 -0.0548  0.1349
 7787W        W17480   0.988  16.052  13.991 -0.0339  0.2239  0.0781
 7788W        W17481  11.803   1.090  13.439  0.2610 -0.0990  0.0317
 7789W        W17482   6.308   7.396   5.378  0.1677  0.0051  0.1251
 7790W        W17483  17.730   3.150  16.783  0.2317 -0.1290 -0.2124
 7791W        W17484   8.450  13.390  11.953  0.2595 -0.5259 -0.0466
 7792W        W17485  14.705  15.337   4.657  0.0470  0.3577  0.4015
 7793W        W17486   9.386  13.354  11.741 -0.1196 -0.2104  0.0176
 7794W        W17487   4.512  17.089   4.130 -0.3761  0.0392 -0.0462
 7795W        W17488   6.356  14.074   6.321 -0.1307 -0.0902  0.0690
 7796W        W17489   7.588   1.237   2.035 -0.2878  0.1306  0.1323
 7797W        W17490  17.905   3.323  12.831 -0.5201  0.0656  0.1488
 7798W        W17491   7.365  11.243   5.594 -0.0647 -0.0738  0.4995
 7799W        W17492   5.122   8.296   2.056  0.0678 -0.1750 -0.3729
 7800W        W17493   4.669   8.815  12.380 -0.1303  0.0186 -0.1620
 7801W        W17494   9.762   9.243  12.574 -0.1108 -0.2042 -0.0684
 7802W        W17495   3.213  11.089  14.492  0.0739  0.1434  0.0501
 7803W        W17496   2.921   2.297   0.662  0.2671 -0.2250  0.0945
 7804W        W17497  14.313   9.529  11.628  0.3822  0.2061 -0.2627
 7805W        W17498  10.669   5.733   2.525 -0.0161  0.1679  0.3574
 7806W        W17499   7.763   1.005   0.590 -0.0289  0.0059 -0.1199
 7807W        W17500  13.160   0.293  11.524  0.2272 -0.0129  0.2585
 7808W        W17501   1.090  14.482  11.472 -0.0599  0.3340  0.2271
 7809W        W17502   4.118  17.190  12.528  0.0400 -0.0408  0.0465
 7810W        W17503  17.653  11.250  12.564 -0.1115  0.0595 -0.1056
 7811W        W17504   3.135   1.264   4.526  0.0126  0.3494 -0.2874
 7812W        W17505  12.296   4.559   1.278 -0.0362  0.1036 -0.1003
 7813W        W17506   4.645  13.500   1.598 -0.0285  0.1927 -0.3989
 7814W        W17507   5.666  11.962   1.674 -0.1259  0.0552 -0.2087
 7815W        W17508   4.223   6.997  13.366 -0.0907  0.2015  0.1272
 7816W        W17509   0.728  10.726   5.433 -0.1308  0.1272  0.0611
 7817W        W17510   8.156   9.378   0.208 -0.1242  0.0633  0.1340
 7818W        W17511  13.672   5.616  14.683 -0.0700  0.1933  0.0397
 7819W        W17512  11.410   5.543   5.158  0.0118  0.1303  0.1839
 7820W        W17513   7.519   8.616   1.423  0.1724 -0.1109  0.0484
 7821W        W17514   1.383  14.123  11.373 -0.2093  0.1734 -0.2099
 7822W        W17515   3.758   1.052  12.302 -0.1126  0.2468  0.0539
 7823W        W17516  16.278   6.034  16.672 -0.2453 -0.2501  0.2410
 7824W        W17517   6.296   9.983   4.453 -0.1260 -0.3156  0.1976
 7825W        W17518   0.893   2.652  17.086 -0.0495  0.1823  0.3389
 7826W        W17519   5.745   0.331  12.834  0.2200  0.1165  0.2708
 7827W        W17520   2.432  14.177  11.272 -0.0293  0.0695  0.1367
 7828W        W17521  12.807  12.450   0.334  0.2588  0.0182  0.1750
 7829W        W17522  10.010   4.563   4.360 -0.0899 -0.1163 -0.2874
 7830W        W17523   2.565   4.506   3.554 -0.5073 -0.3236 -0.1055
 7831W        W17524   9.608   0.837   5.692 -0.3683 -0.1671 -0.1653
 7832W        W17525   5.325   7.718   4.632  0.0468 -0.1851  0.1483
 7833W        W17526   5.547  12.610   4.100 -0.1141  0.1732 -0.0391
 7834W        W17527  13.544   4.120   2.550  0.1849 -0.2829 -0.2397
 7835W        W17528   9.794   0.897   4.729 -0.0419 -0.0516 -0.1012
 7836W        W17529  15.650   7.317   0.921  0.1253  0.1050 -0.1704
 7837W        W17530  10.250  17.118  15.621 -0.1406  0.0377 -0.1032
 7838W        W17531   4.546  11.649  16.914 -0.4627  0.1348 -0.0232
 7839W        W17532  15.487   5.890  14.235 -0.0235 -0.1264 -0.1280
 7840W        W17533  11.818  13.791   5.845  0.0071  0.2938 -0.2081
 7841W        W17534   6.996   1.587   4.841 -0.3545 -0.0627  0.1166
 7842W        W17535   8.307   7.577  11.471 -0.1251  0.1506 -0.2299
 7843W        W17536   4.732  16.875   3.318 -0.1941  0.1269  0.1851
 7844W        W17537   5.320  15.667  13.282 -0.2532  0.1184  0.0341
 7845W        W17538  10.359  10.465   6.691 -0.0905 -0.2141  0.2707
 7846W        W17539  11.384  15.115  14.280 -0.0915 -0.1028 -0.0004
 7847W        W17540   3.414   1.239   5.508 -0.1531 -0.3261 -0.2359
 7848W        W17541   8.459  10.832   3.106  0.3785  0.0978 -0.0475
 7849W        W17542   5.048   5.897  15.168  0.0782 -0.1714  0.1908
 7850W        W17543   7.909   6.823   7.176 -0.0618  0.0852  0.0525
 7851W        W17544   6.905   4.573   3.932 -0.1548 -0.2774 -0.2919
 7852W        W17545   8.617  17.737   1.345  0.0592 -0.2134 -0.0089
 7853W        W17546   1.467  13.471  11.351 -0.1824 -0.2750  0.0950
 7854W        W17547   3.025   7.562  16.807 -0.0732  0.1809 -0.2515
 7855W        W17548   4.384   9.343   0.545 -0.0494 -0.1300  0.0085
 7856W        W17549   7.038   8.505  13.070 -0.0572 -0.2950 -0.1792
 7857W        W17550   7.470   4.166  17.025  0.0530 -0.0880 -0.2049
 7858W        W17551   4.319  14.411   1.751 -0.0991  0.1437  0.0503
 7859W        W17552   6.185  15.928  16.659 -0.0309  0.0892 -0.2960
 7860W        W17553   4.811   6.954  14.809  0.1953  0.0476  0.1540
 7861W        W17554   3.804  13.357   4.688 -0.0194 -0.4107 -0.1296
 7862W        W17555  14.806  16.628  13.621  0.0955  0.1667  0.0635
 7863W        W17556   2.882   1.659  16.188 -0.0714  0.1949 -0.1885
 7864W        W17557   7.772  10.215  12.057 -0.3152  0.0209  0.1442
 7865W        W17558   9.144  14.013  11.756 -0.3432 -0.2256  0.1491
 7866W        W17559   9.284   0.391  13.599  0.0769 -0.2409  0.0661
 7867W        W17560   6.719  11.644   4.113 -0.1282  0.3064 -0.1184
 7868W        W17561   6.856  13.540   5.618  0.0816  0.0851  0.0019
 7869W        W17562   8.914   0.821   2.243 -0.2043  0.0683 -0.0574
 7870W        W17563   5.333   3.581   2.773  0.1104 -0.0390  0.0727
 7871W        W17564   0.758  11.227   5.584  0.4527  0.1977 -0.1513
 7872W        W17565  11.166  14.058   2.979 -0.0380 -0.0832 -0.0543
 7873W        W17566   1.588   8.227   1.509 -0.2012 -0.0707  0.1823
 7874W        W17567  14.093   0.594   0.810  0.0391 -0.1168 -0.1644
 7875W        W17568   4.569   7.394   0.677 -0.1210  0.1067 -0.2225
 7876W        W17569  17.659   2.646  16.647  0.0078 -0.1010  0.1108
 7877W        W17570   6.302  13.856  16.525  0.5007 -0.2757  0.0219
 7878W        W17571   3.350  12.124  15.934 -0.0555 -0.1339  0.4003
 7879W        W17572  12.103  14.540   5.398 -0.1936 -0.0451  0.2382
 7880W        W17573   2.912   3.193   5.302  0.2594 -0.0350  0.1338
 7881W        W17574   7.714  14.039   3.133 -0.0525  0.1512  0.0123
 7882W        W17575  10.498   5.599   5.120  0.3038 -0.1739  0.0387
 7883W        W17576   4.211   5.848  16.426 -0.2198 -0.0564  0.0228
 7884W        W17577   7.483  15.769   0.615 -0.2703  0.1152 -0.2384
 7885W        W17578   1.358   9.483   2.010 -0.0276 -0.2563 -0.2336
 7886W        W17579   1.089  15.230   2.582  0.2396 -0.1992  0.3763
 7887W        W17580   2.219   2.614   4.777  0.3077  0.0630  0.0594
 7888W        W17581   7.292   5.607   3.746 -0.0169 -0.3841  0.1194
 7889W        W17582   2.221   5.136   0.921  0.0501  0.0042 -0.3390
 7890W        W17583  15.505   2.748  10.097 -0.3792 -0.0644 -0.1009
 7891W        W17584  17.905  15.140  12.767  0.0103  0.2713  0.1302
 7892W        W17585   5.153   6.845  12.367  0.0554  0.1811 -0.0260
 7893W        W17586  10.201   3.398   1.707  0.2280  0.1852 -0.1194
 7894W        W17587   4.747   5.011  14.335 -0.0658 -0.0148  0.0935
 7895W        W17588   6.745  15.704  12.062  0.3593  0.0767  0.1314
 7896W        W17589   0.550  10.495  15.879 -0.1889  0.1280 -0.1127
 7897W        W17590   1.356  15.853   0.945 -0.4525  0.0216  0.0131
 7898W        W17591  13.450  12.855   3.815  0.2200  0.0474 -0.0486
 7899W        W17592  16.236  16.456  13.148  0.2602 -0.2250  0.3165
 7900W        W17593   3.500   7.700   0.418  0.1159 -0.0066 -0.0381
 7901W        W17594  10.226  13.845  12.319  0.0202 -0.0047 -0.1045
 7902W        W17595  16.260   1.955  11.722  0.1867 -0.1564 -0.3714
 7903W        W17596   1.302   2.946  13.138 -0.1606 -0.0294  0.1162
 7904W        W17597  17.973   3.010   2.706  0.3795 -0.0095  0.0233
 7905W        W17598   7.578   7.247   6.540 -0.1062  0.1890  0.2536
 7906W        W17599   3.838   5.941  12.751  0.0872 -0.1291 -0.0917
 7907W        W17600   0.019   0.199   5.722 -0.0821  0.0871 -0.1009
 7908W        W17601   0.863  14.046   5.247 -0.0811 -0.0512  0.0152
 7909W        W17602   4.579  17.724   5.843  0.0658  0.0076  0.0717
 7910W        W17603   3.312   4.108   0.855 -0.1489 -0.1681 -0.0193
 7911W        W17604   5.781   5.567   0.817  0.2917 -0.0027  0.1810
 7912W        W17605  17.172   1.236   4.425 -0.0296 -0.2781  0.0866
 7913W        W17606   9.565  17.724  12.470 -0.0169 -0.0380 -0.0080
 7914W        W17607   1.518  13.266  14.474  0.1735 -0.0565  0.1745
 7915W        W17608   7.013  16.553   1.611  0.3298  0.0477 -0.2472
 7916W        W17609  14.114   2.440   5.394 -0.2046  0.3424  0.2592
 7917W        W17610   4.576   0.655  16.329 -0.0763 -0.2027 -0.1488
 7918W        W17611   7.500  17.688  16.957 -0.0875 -0.3580  0.2360
 7919W        W17612  12.264   4.567  12.158 -0.1143 -0.0057 -0.1197
 7920W        W17613   2.229  16.233  13.857  0.1890  0.0266 -0.2522
 7921W        W17614   4.531  12.830   1.520  0.0282 -0.0347 -0.0549
 7922W        W17615   8.027   7.293  14.708  0.6154 -0.0154 -0.0118
 7923W        W17616  10.212  12.113   4.596  0.1614  0.1442 -0.0599
 7924W        W17617   0.394   5.432   3.357 -0.3882 -0.0359 -0.1343
 7925W        W17618   7.276  17.433   3.987  0.2612 -0.1560 -0.1811
 7926W        W17619  11.470  11.490  11.883  0.0835  0.0353  0.1986
 7927W        W17620   9.793  10.822  16.398 -0.1048 -0.0941  0.0040
 7928W        W17621   4.705   7.384   1.745 -0.0259  0.2187 -0.1569
 7929W        W17622   3.452  16.197   5.987 -0.1236  0.0638 -0.3564
 7930W        W17623  14.059   4.973  13.031 -0.0336 -0.0614 -0.2714
 7931W        W17624   1.625  16.136   5.485 -0.1568  0.2100  0.1064
 7932W        W17625  17.814   6.204  16.520  0.1821 -0.0176 -0.3160
 7933W        W17626  17.104  16.297   2.667 -0.0175 -0.1386  0.1240
 7934W        W17627  11.827  12.607   4.882  0.1848 -0.2565  0.2283
 7935W        W17628   8.133   7.198  16.356 -0.2650  0.1025  0.3071
 7936W        W17629   8.301   2.732   3.580  0.0005 -0.0773 -0.3124
 7937W        W17630  11.794  12.898  15.131 -0.1317  0.2688  0.1875
 7938W        W17631  15.098  14.666   4.142 -0.3419 -0.0253  0.2731
 7939W        W17632   4.666   7.399   1.198  0.0898  0.1415 -0.1463
 7940W        W17633  10.933  16.055  12.046 -0.0828  0.2527  0.3399
 7941W        W17634  16.618   1.975   9.615  0.1633 -0.1606 -0.1713
 7942W        W17635   2.011   9.558   2.129  0.2710 -0.0186  0.0212
 7943W        W17636  10.466  11.339  15.732  0.1068 -0.1730 -0.0297
 7944W        W17637   9.439  16.022   1.078  0.2588  0.1098  0.1743
 7945W        W17638   7.685   3.352   3.978  0.1576  0.0211  0.4494
 7946W        W17639   3.906  15.306  15.664  0.1912 -0.1042  0.0250
 7947W        W17640   2.707   1.745   3.963  0.0377  0.2095  0.0547
 7948W        W17641   8.538  15.239   5.447  0.2322 -0.1095 -0.0844
 7949W        W17642  14.755  17.902   3.071  0.0649 -0.3352  0.2105
 7950W        W17643  14.164  12.886   1.585 -0.2157 -0.2172  0.1585
 7951W        W17644   5.314   1.853   0.075 -0.1924  0.1683  0.0058
 7952W        W17645   4.175   1.510   1.229 -0.0336 -0.0085  0.2109
 7953W        W17646  11.354  17.087   4.470  0.0652  0.1409  0.0145
 7954W        W17647   2.917  17.581   5.194 -0.0605  0.3262 -0.1201
 7955W        W17648   0.548   5.300  15.582 -0.0575 -0.3340 -0.1194
 7956W        W17649   3.893   5.856   1.583  0.4949 -0.3190 -0.1115
 7957W        W17650  15.256   5.815   5.891  0.1713 -0.0050  0.0675
 7958W        W17651  13.526  14.540   5.101 -0.3745  0.1866  0.3509
 7959W        W17652   5.718   9.815   3.170 -0.0419  0.0433  0.0148
 7960W        W17653  16.958  16.509  16.134 -0.1428 -0.0278 -0.1225
 7961W        W17654  16.253   6.118  13.767 -0.1358  0.6234  0.3166
 7962W        W17655   5.112   8.741  14.647 -0.1925 -0.3368 -0.4012
 7963W        W17656   1.347   1.607  12.652 -0.3124 -0.2159 -0.1589
 7964W        W17657   9.749  15.461  14.755 -0.0080 -0.3142 -0.0762
 7965W        W17658   6.830  15.188  13.780  0.1754  0.0878 -0.0250
 7966W        W17659   9.476   4.421   0.376 -0.1475 -0.2886 -0.1782
 7967W        W17660   6.265   1.193  14.060  0.1979  0.1173  0.0533
 7968W        W17661   5.785  11.789   3.105 -0.1462 -0.0720 -0.1470
 7969W        W17662   2.880   8.502  16.389 -0.0665 -0.1667 -0.3175
 7970W        W17663  10.266  13.997   3.154  0.0107  0.3670  0.0026
 7971W        W17664   1.073   0.713  10.296  0.0381  0.0073  0.1107
 7972W        W17665   3.788   3.536   5.349 -0.1435 -0.2661  0.2772
 7973W        W17666   3.826   8.039   0.617 -0.1289  0.5319 -0.3312
 7974W        W17667   5.478  15.062  12.236 -0.0380  0.1131 -0.1385
 7975W        W17668   0.958   1.479  15.562 -0.1241  0.1222  0.0279
 7976W        W17669  17.029   1.842  15.294  0.1786 -0.0130 -0.2517
 7977W        W17670   1.247   5.052  16.364  0.0560  0.1349  0.0697
 7978W        W17671   7.054  16.280  12.676  0.0062  0.0622  0.1347
 7979W        W17672   0.965   4.505   4.062 -0.0541 -0.2409  0.1005
 7980W        W17673   7.422  16.550   4.308  0.0661  0.0274 -0.2218
 7981W        W17674   1.240  16.930   4.121  0.1746 -0.1446 -0.0772
 7982W        W17675   4.246  17.209  13.741 -0.0953  0.0603 -0.1389
 7983W        W17676   0.439  16.819  12.158  0.2341 -0.1874  0.1673
 7984W        W17677   1.884  11.211  15.272  0.1555  0.3508  0.1557
 7985W        W17678   7.104   3.993  15.666  0.2384  0.0688 -0.3817
 7986W        W17679   2.324   9.161   5.489  0.1396  0.0208  0.1430
 7987W        W17680   9.694   3.364   2.401 -0.2577 -0.1910 -0.1523
 7988W        W17681   1.762   6.046  14.474  0.4620  0.0214  0.0081
 7989W        W17682   4.183  13.338  16.863 -0.3714 -0.0260  0.1963
 7990W        W17683   6.031   8.204   3.603  0.1583  0.0898 -0.0014
 7991W        W17684   3.486  16.198   1.565  0.3025  0.0155  0.2400
 7992W        W17685   6.182  15.042  14.606 -0.1796  0.0062 -0.0295
 7993W        W17686  12.461  16.033   0.631 -0.0242 -0.1680 -0.1365
 7994W        W17687  11.686  15.894   4.590 -0.1295  0.0374  0.1647
 7995W        W17688   6.805   0.278  14.773  0.1117 -0.2661 -0.2289
 7996W        W17689   1.291   5.632   4.927  0.2264  0.2770 -0.1596
 7997W        W17690  14.860  16.566   2.668 -0.0787  0.0824  0.0956
 7998W        W17691  10.036  12.666   1.936 -0.6539 -0.0717 -0.0752
 7999W        W17692   1.375  16.369   0.874 -0.2135  0.3562  0.2067
 8000W        W17693   4.265   1.807   4.140 -0.1084 -0.0024 -0.0234
 8001W        W17694   4.279  11.893  14.802 -0.1262  0.2999  0.3954
 8002W        W17695   8.444  13.236  12.682 -0.2706  0.0510 -0.1457
 8003W        W17696  15.853  12.753   3.796  0.4078 -0.0966  0.0376
 8004W        W17697  14.063   6.595   5.682 -0.0573  0.0716  0.0138
 8005W        W17698   4.761   8.736  11.852  0.1296 -0.2339 -0.1561
 8006W        W17699  16.748  12.858  14.144  0.2772 -0.0689 -0.0370
 8007W        W17700  15.607  11.065  16.439  0.0835  0.0934  0.2279
 8008W        W17701   6.368  17.745  12.304  0.3377 -0.1108 -0.4803
 8009W        W17702   6.765  14.581  11.479 -0.1092  0.0508  0.0411
 8010W        W17703   9.905  13.374   4.925 -0.0361 -0.2564  0.1375
 8011W        W17704  16.347   4.665  16.385  0.4536  0.3029  0.1598
 8012W        W17705   5.980   4.793   1.662 -0.3222 -0.2868  0.2483
 8013W        W17706  13.607  10.739   3.119 -0.0811 -0.3091 -0.1259
 8014W        W17707   4.559  17.768   0.516  0.0059  0.1021  0.2448
 8015W        W17708   5.994   4.921   4.406 -0.0296 -0.0742  0.1770
 8016W        W17709  15.373  14.110   0.542  0.2296 -0.0619  0.0943
 8017W        W17710   7.765  15.544  12.777  0.3300 -0.0851 -0.0921
 8018W        W17711   0.029  17.379   0.189  0.3016 -0.3781 -0.0651
 8019W        W17712   6.685   4.815   4.894 -0.0333 -0.0457 -0.0423
 8020W        W17713   3.180   5.391  17.017 -0.3946 -0.0508  0.0602
 8021W        W17714   1.037   0.963  13.811 -0.2756  0.0163 -0.2789
 8022W        W17715   9.739  16.009   5.577 -0.4275 -0.0074 -0.0258
 8023W        W17716  10.154   9.369   4.428  0.2265  0.2037 -0.1915
 8024W        W17717   4.279   5.804  13.241 -0.0660  0.2504  0.0316
 8025W        W17718  14.478   2.104   1.628  0.0316 -0.2171  0.1203
 8026W        W17719   2.316  10.610   6.507 -0.0833 -0.2310 -0.4110
 8027W        W17720  10.626   8.911   0.920 -0.0351  0.2481  0.0114
 8028W        W17721   3.775  17.805  10.810 -0.0582 -0.0437 -0.2320
 8029W        W17722  11.614   4.035   3.395  0.3684  0.1669  0.0221
 8030W        W17723   7.924   8.069   5.228 -0.0687 -0.4746 -0.0460
 8031W        W17724   0.602  14.553   0.698 -0.0501 -0.4170  0.1333
 8032W        W17725   6.277   2.214  15.329 -0.1684 -0.3848 -0.0627
 8033W        W17726   1.339   5.346  15.066  0.0491 -0.0631 -0.1091
 8034W        W17727  10.604   0.668   4.803  0.2977 -0.1461 -0.1489
 8035W        W17728  14.874   9.691  10.856 -0.2080 -0.2115  0.2915
 8036W        W17729   8.810   8.007   5.597  0.2409  0.1326  0.1929
 8037W        W17730   2.093  12.013   4.881 -0.2494 -0.0664  0.0273
 8038W        W17731   8.058   4.119   0.256  0.1114  0.0876  0.2433
 8039W        W17732   0.330  16.293   5.230  0.1212  0.1482 -0.1182
 8040W        W17733   4.129  14.900  14.704 -0.3138 -0.0330 -0.0601
 8041W        W17734   1.998  15.764  13.941  0.3677  0.1033  0.2173
 8042W        W17735   3.219  14.988  12.194  0.1538  0.1259  0.1074
 8043W        W17736   3.476  11.482   2.088 -0.0693  0.0663 -0.5192
 8044W        W17737  14.621   3.054  15.692 -0.0837  0.0593 -0.0679
 8045W        W17738  10.685  10.800  14.687  0.0690 -0.2395  0.0768
 8046W        W17739   6.290  10.969   4.262  0.1352 -0.0004 -0.0893
 8047W        W17740   4.035   8.449   2.473 -0.2926 -0.1969  0.0734
 8048W        W17741   4.273   2.482  15.735  0.0847  0.1436 -0.0182
 8049W        W17742   3.508   9.838   3.731 -0.0010 -0.3631 -0.1774
 8050W        W17743   5.040   4.701  16.591  0.0073 -0.1687 -0.2182
 8051W        W17744   5.015   8.821  13.491 -0.1136  0.0255  0.3251
 8052W        W17745   0.289  11.353   6.263  0.4163 -0.1760  0.1450
 8053W        W17746  12.189   5.195  11.584  0.1664 -0.2725 -0.0357
 8054W        W17747  17.224   4.690   3.161 -0.0506 -0.2514 -0.3749
 8055W        W17748   3.279   4.964  12.617  0.1148 -0.0184  0.2076
 8056W        W17749   8.871  17.649   2.842 -0.2278  0.3401 -0.2914
 8057W        W17750  14.406  15.963  15.243  0.0028 -0.1762  0.2118
 8058W        W17751   2.617  13.367   5.160  0.3046  0.2314 -0.2454
 8059W        W17752  12.732   2.783   3.462 -0.3385  0.1138  0.1775
 8060W        W17753   2.851   6.208   0.905  0.0269  0.2276 -0.0362
 8061W        W17754  11.169  10.630   3.567  0.0360 -0.0475 -0.0677
 8062W        W17755   3.115  10.303   3.505  0.0118 -0.0162  0.1582
 8063W        W17756   7.982   9.584  15.098 -0.0656  0.0739  0.2043
 8064W        W17757   5.531  17.554   4.671 -0.0117  0.0986  0.0630
 8065W        W17758   2.517   8.305  11.714 -0.3323  0.0388  0.1136
 8066W        W17759   2.528  11.472  14.800  0.0258  0.2317  0.1956
 8067W        W17760   3.736   1.375  12.781  0.0441  0.2436 -0.2633
 8068W        W17761  12.589  10.145   5.331 -0.0719 -0.0911 -0.0380
 8069W        W17762   9.995   6.073  14.631 -0.0456  0.1199  0.3930
 8070W        W17763  12.433  15.210   1.082  0.1145  0.2504  0.1993
 8071W        W17764   7.251  11.831   4.111 -0.1662  0.0115 -0.0007
 8072W        W17765  14.339  10.938  15.508  0.1455 -0.1974 -0.0946
 8073W        W17766  12.337  10.155  14.459 -0.1771 -0.2248  0.0432
 8074W        W17767   3.259   8.315   3.549  0.3069 -0.0024 -0.2112
 8075W        W17768  10.973   2.701   4.608 -0.1049 -0.0992  0.0887
 8076W        W17769   9.816  17.226   0.448  0.3529  0.2534 -0.0168
 8077W        W17770   2.357  10.394  13.804  0.0794 -0.2571 -0.1882
 8078W        W17771   7.885  16.978  14.083  0.1217  0.0769 -0.1005
 8079W        W17772   4.053   2.140   4.515  0.0283 -0.2539 -0.0644
 8080W        W17773   4.677   5.503  16.035  0.0270 -0.3041 -0.0851
 8081W        W17774   6.216  13.679   3.516  0.0435 -0.4608  0.0810
 8082W        W17775  15.873  12.980   1.920  0.0716  0.1139  0.0466
 8083W        W17776  10.193   9.854   3.122 -0.0252 -0.0198  0.0973
 8084W        W17777  13.213   7.237  14.409 -0.0384 -0.1182  0.1583
 8085W        W17778   0.191   0.322  15.496  0.1662 -0.1305  0.1708
 8086W        W17779   7.568   7.417  13.396 -0.0094 -0.0446  0.0851
 8087W        W17780  12.121  17.617   0.768 -0.3608 -0.0325 -0.0739
 8088W        W17781   3.882  13.487   3.259  0.0498  0.0803  0.1239
 8089W        W17782   5.063   7.086  14.035 -0.2000 -0.0451  0.0300
 8090W        W17783  12.647   6.246   0.860  0.2452  0.1344 -0.1997
 8091W        W17784   7.082   1.107   0.440  0.1852 -0.2539 -0.1218
 8092W        W17785  16.732  15.471  11.725  0.1566  0.1497  0.1517
 8093W        W17786   4.292   6.763  16.149 -0.0232  0.1185 -0.0564
 8094W        W17787   2.454  11.223  15.190 -0.1118 -0.1101 -0.0007
 8095W        W17788   8.256  11.664  13.987  0.2190 -0.1485 -0.1870
 8096W        W17789   6.279   3.077   0.685 -0.0944 -0.1626  0.2152
 8097W        W17790  13.262  13.430   4.187  0.3459 -0.1303  0.3161
 8098W        W17791  16.738  14.144  15.242  0.1122 -0.0086 -0.0542
 8099W        W17792   4.457   9.626   0.073  0.0071 -0.3042  0.1302
 8100W        W17793   4.355  14.158   2.177 -0.0215  0.1148  0.0598
 8101W        W17794   4.581  10.048  15.328 -0.1672  0.2635 -0.0196
 8102W        W17795   7.347   7.163  14.474 -0.1102 -0.3295 -0.0877
 8103W        W17796   3.463   1.885  16.880 -0.2090  0.1633  0.1332
 8104W        W17797   4.716  16.499   1.953 -0.1081  0.0824 -0.0708
 8105W        W17798   4.444   8.412  12.219 -0.0612 -0.0745  0.3306
 8106W        W17799  10.524  11.851   3.747 -0.2101 -0.0745  0.3106
 8107W        W17800   7.092  11.782  15.885  0.1653  0.2632 -0.2632
 8108W        W17801   4.108  13.001   1.188 -0.1301  0.0571  0.0867
 8109W        W17802  11.282   3.021  13.786 -0.1051 -0.0925 -0.1988
 8110W        W17803  14.767   7.299  12.915 -0.0802 -0.1800 -0.0586
 8111W        W17804   1.706   3.461   3.950  0.0113 -0.1149  0.1497
 8112W        W17805   4.929  16.205  16.977  0.0059  0.0765 -0.0870
 8113W        W17806   1.678   3.507   0.381  0.1411  0.1594 -0.0660
 8114W        W17807   2.441  16.709  14.007  0.2083 -0.0097 -0.1419
 8115W        W17808   3.896  13.191   2.242 -0.1836  0.1335 -0.1425
 8116W        W17809   5.070   0.036  14.063 -0.2503  0.0038 -0.1446
 8117W        W17810   5.505   7.754  15.757 -0.0527  0.0210  0.1509
 8118W        W17811  10.110   6.610   4.067 -0.0599  0.2347 -0.1007
 8119W        W17812   6.087  15.084   5.433 -0.1279  0.0377  0.1636
 8120W        W17813   7.983   6.272   2.971  0.1098 -0.0842 -0.1491
 8121W        W17814  11.746   6.456   1.670  0.0657 -0.0960 -0.3714
 8122W        W17815  11.452  14.913  15.267 -0.0744  0.1408  0.0907
 8123W        W17816   6.773  10.631  14.293  0.1970  0.0287 -0.1292
 8124W        W17817   1.834  10.572   4.886  0.0038 -0.1524  0.2264
 8125W        W17818   1.192  11.734  15.216  0.0756  0.0961 -0.0594
 8126W        W17819   2.473   1.223   5.653 -0.1333 -0.0929 -0.2355
 8127W        W17820   3.298  13.986   5.833 -0.1266  0.1183 -0.2747
 8128W        W17821   2.747  14.436   3.642  0.0998  0.2285 -0.2115
 8129W        W17822   4.287  14.390  14.289 -0.1641  0.1052  0.2598
 8130W        W17823  17.305   0.667  10.680  0.0585 -0.2319  0.0694
 8131W        W17824  15.248  11.722  14.025 -0.1092  0.1601  0.0583
 8132W        W17825   9.187   3.814   2.932  0.2905 -0.2637  0.3623
 8133W        W17826   8.171   2.998   4.095 -0.1553  0.0728 -0.0749
 8134W        W17827   5.066  14.145   3.596 -0.0607 -0.1417 -0.1272
 8135W        W17828   0.864  13.028   3.755 -0.2252  0.2042 -0.1645
 8136W        W17829  10.337   3.221   0.622 -0.0675 -0.3608 -0.0810
 8137W        W17830   2.654   0.658  17.060  0.2300 -0.1204  0.0456
 8138W        W17831   2.452  12.681  12.109  0.2868 -0.2799 -0.1248
 8139W        W17832   4.983   6.367   2.964 -0.3931  0.0237 -0.1209
 8140W        W17833   3.739   3.686  12.311 -0.0472  0.0341  0.1791
 8141W        W17834  17.618   0.068  14.344  0.1509  0.1146 -0.2605
 8142W        W17835  11.651   1.032   2.527 -0.2429 -0.4095  0.1370
 8143W        W17836   5.751   4.051   0.729 -0.0427 -0.0710  0.1999
 8144W        W17837   4.852  12.016  16.900 -0.2781  0.2301  0.1245
 8145W        W17838   9.351   5.422  14.693  0.2201  0.1433 -0.1498
 8146W        W17839  10.438  10.301  16.803  0.0909  0.1637 -0.0608
 8147W        W17840   7.842  15.870   4.468  0.1212  0.2084  0.0334
 8148W        W17841   2.090   9.043   5.040 -0.1486  0.2228 -0.3802
 8149W        W17842   8.105   6.840   0.441  0.0732 -0.1311 -0.1546
 8150W        W17843   0.154   2.024   3.813  0.1146 -0.1129  0.1379
 8151W        W17844   6.198  13.755   6.685 -0.0855  0.0112 -0.4960
 8152W        W17845   2.755   0.226   1.949  0.1156  0.3399 -0.1543
 8153W        W17846  12.679   5.058  11.360 -0.1720  0.0600  0.1321
 8154W        W17847   2.226  11.514  12.703  0.2003 -0.2762  0.1820
 8155W        W17848   8.962   3.539   0.719 -0.2269 -0.0254  0.2663
 8156W        W17849   8.520  17.889   0.412 -0.0615  0.2039  0.1926
 8157W        W17850   5.800  10.931  13.452 -0.1536 -0.1687  0.0737
 8158W        W17851   8.175  17.664   3.853 -0.0478  0.1346 -0.0181
 8159W        W17852   9.002  15.709   4.322 -0.1613 -0.2803 -0.0813
 8160W        W17853  10.852   9.538  16.541 -0.2961  0.0798  0.2232
 8161W        W17854  10.736  10.606   1.486  0.0018 -0.0639  0.2430
 8162W        W17855  15.036  10.761  14.229  0.0825  0.2673 -0.0681
 8163W        W17856  14.850  11.218   5.992 -0.3505 -0.0413 -0.1100
 8164W        W17857   2.611   8.970  15.413  0.0737  0.2007 -0.0949
 8165W        W17858   4.999   8.129   4.748 -0.2429  0.0626  0.0233
 8166W        W17859   3.916   1.765  16.997 -0.1648 -0.0707 -0.5238
 8167W        W17860  16.352  10.571  15.775  0.2378  0.3309  0.3162
 8168W        W17861   4.989   4.552  15.940  0.0498 -0.2237  0.0040
 8169W        W17862   5.899   2.335  12.975  0.2649 -0.1488  0.3296
 8170W        W17863   4.861  16.126   4.504 -0.1589 -0.0878  0.0495
 8171W        W17864   3.895   6.673  15.841  0.2218  0.0401 -0.0839
 8172W        W17865   7.818  17.736  15.863 -0.2558  0.2195  0.2714
 8173W        W17866   3.666  14.003   3.072  0.1259 -0.0196 -0.2800
 8174W        W17867  15.118  17.876  14.695 -0.1931 -0.0948 -0.3069
 8175W        W17868  15.877  14.074  16.560 -0.0658  0.2231 -0.0181
 8176W        W17869   6.154   7.096  15.608 -0.0576 -0.0744 -0.2329
 8177W        W17870   8.259   2.935   1.722 -0.0291  0.0688 -0.1726
 8178W        W17871   4.043   1.121   0.049  0.1463  0.1180 -0.2494
 8179W        W17872   4.933   4.966   2.945 -0.1657  0.0752  0.0526
 8180W        W17873   6.085  12.035  15.867  0.2057 -0.0230  0.1131
 8181W        W17874   0.250  10.746  14.000 -0.1608  0.0357  0.0041
 8182W        W17875   6.048   6.444   2.003  0.1616 -0.1016  0.1185
 8183W        W17876  13.681   3.453   6.407  0.1097 -0.0950 -0.0375
 8184W        W17877   4.832   5.835   3.054 -0.2894 -0.0858  0.1716
 8185W        W17878   1.836  11.180  16.956 -0.1472 -0.3980  0.0993
 8186W        W17879   3.306  12.149  12.977 -0.2991 -0.0666  0.2062
 8187W        W17880  14.462  13.744   5.053 -0.0369 -0.5011 -0.2387
 8188W        W17881   2.881  12.512   1.866  0.2131  0.2112  0.1436
 8189W        W17882  15.441  15.928  11.239 -0.3333  0.0547 -0.1499
 8190W        W17883   4.045  16.806  14.513 -0.3220  0.0888  0.3415
 8191W        W17884   6.028   2.968   0.142 -0.0792  0.2812 -0.5661
 8192W        W17885   8.454   4.406  14.650 -0.0561  0.0621 -0.1513
 8193W        W17886   1.332  14.887  16.334  0.2285  0.1528 -0.1546
 8194W        W17887   2.464  11.088  14.331 -0.2370  0.0170  0.1545
 8195W        W17888   1.166  13.848  15.956 -0.0195  0.0788  0.0317
 8196W        W17889  10.860  17.562  12.026 -0.2381 -0.0063 -0.0034
 8197W        W17890   0.633   8.759  13.973  0.0679  0.0295 -0.1301
 8198W        W17891   9.355  11.313  13.651  0.0322 -0.0155 -0.0175
 8199W        W17892   1.739  17.417   2.509 -0.1133 -0.0074 -0.0866
 8200W        W17893   4.702  12.379  13.290  0.0396 -0.2560  0.1011
 8201W        W17894   6.221  16.987   5.655  0.0345 -0.1541 -0.2489
 8202W        W17895   5.768   2.856  15.000  0.1719 -0.0542  0.4490
 8203W        W17896   8.485   3.151   5.558  0.2364 -0.1227  0.0312
 8204W        W17897  13.375   3.173  15.798 -0.0846  0.0895 -0.0809
 8205W        W17898   8.835   6.495   2.205 -0.0838  0.1305  0.0308
 8206W        W17899  11.293  10.151   3.347 -0.2751 -0.0417 -0.2080
 8207W        W17900   9.869   9.133   6.746  0.0921  0.1651  0.3530
 8208W        W17901   6.722  12.379  14.742 -0.0290  0.4258 -0.1571
 8209W        W17902   7.117   2.335  16.674 -0.3166  0.1247 -0.3941
 8210W        W17903   7.846   8.341   6.420 -0.0517  0.0898  0.6071
 8211W        W17904   3.897  10.572   2.041 -0.1234 -0.0538  0.0660
 8212W        W17905   4.853   6.882  15.785 -0.1952  0.5260 -0.1167
 8213W        W17906   8.112   3.506   3.817  0.0881 -0.2059  0.0592
 8214W        W17907  17.145  12.716   5.565 -0.3358  0.1315  0.1641
 8215W        W17908  11.480   5.863  15.320  0.0167  0.3040 -0.4052
 8216W        W17909   6.094  15.354   2.585  0.3011 -0.1966  0.1359
 8217W        W17910  14.846   3.026  14.763 -0.0181 -0.0084  0.2647
 8218W        W17911  13.362  17.696   3.454  0.0224  0.0179 -0.2262
 8219W        W17912   3.597  12.724   6.271  0.0280  0.0951  0.2283
 8220W        W17913  12.717   2.123  15.258  0.2575  0.1497 -0.1089
 8221W        W17914   2.809  10.869   4.905 -0.1883 -0.2583  0.0771
 8222W        W17915   1.091  11.530  12.153  0.2114 -0.0846 -0.1364
 8223W        W17916   6.812  15.478  15.863  0.0839 -0.2041 -0.3458
 8224W        W17917   4.462  13.018  15.383 -0.0117 -0.1399  0.0023
 8225W        W17918   3.374   2.178   3.543 -0.0666 -0.1654  0.1849
 8226W        W17919   4.003  17.470   0.842  0.0284 -0.0318  0.2097
 8227W        W17920   5.545  12.361  13.387 -0.0303  0.3703  0.0477
 8228W        W17921   2.615   6.773   1.493 -0.1637 -0.1463 -0.2551
 8229W        W17922   8.632  17.976  16.564 -0.0771  0.0146  0.0616
 8230W        W17923  12.070  11.381  14.804 -0.3594  0.1995  0.0063
 8231W        W17924  12.648   9.867   6.137  0.1532 -0.0692 -0.0071
 8232W        W17925   7.570  14.205   4.007 -0.0847  0.2596  0.1398
 8233W        W17926   1.403  10.352  15.767  0.1001 -0.0937  0.1189
 8234W        W17927  10.549   2.987   3.542 -0.1508  0.0822 -0.3602
 8235W        W17928   9.402   7.107   4.359 -0.2106 -0.1370  0.1739
 8236W        W17929  17.364  16.103  16.758  0.1119 -0.1435 -0.0807
 8237W        W17930  17.476  16.904   3.977  0.1340  0.1979  0.3067
 8238W        W17931   5.116  14.592   3.419 -0.0085 -0.3419  0.2133
 8239W        W17932   2.353   2.581  15.993 -0.0269 -0.0367 -0.1476
 8240W        W17933   5.863  14.790   1.024 -0.0300 -0.1696  0.0424
 8241W        W17934  10.829   9.008   5.238 -0.1932  0.2073  0.0940
 8242W        W17935  11.667   1.640  14.308  0.2434 -0.3499  0.1657
 8243W        W17936   9.745   0.552   5.076 -0.0144  0.0238  0.0139
 8244W        W17937   9.025  15.429  11.600  0.0782  0.3114 -0.0123
 8245W        W17938  17.206   9.289  17.001 -0.0192  0.1492  0.0512
 8246W        W17939   5.016   3.985   2.898  0.1364 -0.0198  0.2456
 8247W        W17940   8.925  16.019   5.187  0.0734 -0.0581  0.0101
 8248W        W17941  10.452   0.824  13.399 -0.1200 -0.1286  0.1659
 8249W        W17942   8.120  16.066   3.941 -0.2078 -0.0514  0.0312
 8250W        W17943   1.189   9.231  14.515 -0.3079 -0.2478 -0.3225
 8251W        W17944   0.896   8.485   6.408 -0.0450  0.2006 -0.3340
 8252W        W17945   0.628  11.017  12.181 -0.0113 -0.0540  0.2282
 8253W        W17946   4.544  15.215   2.264 -0.1300 -0.1114  0.1372
 8254W        W17947  11.319   6.375   2.003 -0.0148 -0.0453 -0.4337
 8255W        W17948   6.471  16.784  16.392 -0.0615 -0.1115  0.2390
 8256W        W17949   6.016   7.841   3.887  0.3294  0.1175  0.3184
 8257W        W17950   7.083  16.051  14.346 -0.0092 -0.4438  0.3551
 8258W        W17951   8.052   2.350  10.903 -0.0329 -0.3885  0.0959
 8259W        W17952  12.484   0.043  11.198  0.1109 -0.0996  0.0797
 8260W        W17953   4.379   7.386   4.347 -0.1408 -0.0210 -0.2056
 8261W        W17954   4.803   4.185  12.814  0.0006  0.0312  0.1653
 8262W        W17955   1.145   4.872   0.471 -0.1483 -0.2501  0.0070
 8263W        W17956   6.354   4.763   5.695 -0.1226  0.0841  0.1776
 8264W        W17957   4.567   4.244   3.116 -0.1531  0.1864  0.0462
 8265W        W17958  15.770  17.494  10.996  0.1197  0.0397  0.1007
 8266W        W17959   8.537   1.842  15.266  0.0457  0.0075 -0.0090
 8267W        W17960  16.501   5.240   3.005 -0.2542  0.0178 -0.0004
 8268W        W17961  10.693   9.299   2.628 -0.2605 -0.1924 -0.1187
 8269W        W17962   7.002   0.529   3.254 -0.3428 -0.0746 -0.0325
 8270W        W17963  10.931  11.803  14.947  0.0105  0.1884  0.2290
 8271W        W17964  17.972  17.056   3.317 -0.1283 -0.0355  0.1925
 8272W        W17965  17.301  13.614  16.573  0.0616 -0.1607  0.1048
 8273W        W17966   6.604   6.926   4.721  0.0020  0.2318  0.0508
 8274W        W17967   9.022  13.754   0.201 -0.1171  0.2055  0.0561
 8275W        W17968   9.363  13.873   3.186  0.1475  0.1243  0.4340
 8276W        W17969  17.241  15.479   5.713 -0.2797  0.0415 -0.0585
 8277W        W17970   5.335   4.042   4.377  0.2734  0.0715  0.0846
 8278W        W17971  11.263   4.981   3.980 -0.3017 -0.0558 -0.1515
 8279W        W17972   5.849   9.735   6.975 -0.3648  0.2860 -0.1176
 8280W        W17973   6.090   5.190  14.803 -0.1024  0.3562  0.0888
 8281W        W17974   0.232  17.634  12.536  0.1376  0.0447  0.0136
 8282W        W17975   8.870   1.864  15.812  0.0768 -0.0478 -0.3557
 8283W        W17976   9.089  10.915  13.420  0.1087 -0.1049  0.2630
 8284W        W17977   0.065   9.981  12.402 -0.0177 -0.1375  0.1887
 8285W        W17978   6.107  16.370  12.746  0.2030  0.1712 -0.2377
 8286W        W17979   3.351  17.594   1.877 -0.0609 -0.1827 -0.0993
 8287W        W17980   6.011  16.659   3.324 -0.3263 -0.2180 -0.0361
 8288W        W17981   3.441  10.397   1.364  0.0663 -0.1332 -0.0727
 8289W        W17982  14.697   1.023  13.331 -0.2053  0.0152 -0.0496
 8290W        W17983   8.606   3.735   5.082 -0.3625 -0.2610  0.3171
 8291W        W17984   1.523   8.034   4.252  0.0249 -0.2927  0.0987
 8292W        W17985   6.388  10.049   0.430  0.2266 -0.2546  0.0727
 8293W        W17986   5.127   7.917  14.764  0.2460 -0.0349 -0.1290
 8294W        W17987   1.736   8.028   1.042  0.2346  0.1685 -0.2876
 8295W        W17988   2.226  10.296   0.047  0.0056  0.3109  0.0206
 8296W        W17989   8.104  16.172   1.484  0.0627 -0.1950  0.1497
 8297W        W17990  11.703  12.986  14.651  0.0252  0.1768  0.0682
 8298W        W17991   4.897   1.553   0.176  0.0203 -0.0650  0.0971
 8299W        W17992   0.943   7.967  15.057 -0.3049  0.3802  0.1805
 8300W        W17993   6.852   3.771  12.179  0.1076 -0.1508  0.0669
 8301W        W17994  11.963   0.095  15.181  0.4311 -0.3088 -0.1259
 8302W        W17995   3.072  11.976   1.035 -0.2899 -0.1198  0.0084
 8303W        W17996   9.816   7.706   3.357 -0.1117  0.0403 -0.1096
 8304W        W17997  10.003   2.858   0.571  0.1243 -0.0136 -0.0709
 8305W        W17998   6.922   5.291  13.301 -0.1078 -0.2982 -0.4574
 8306W        W17999   9.124   1.892   5.104  0.1872 -0.0944  0.0404
 8307W        W18000  14.195   5.813  16.592  0.3621  0.4279  0.2135
 8308W        W18001   6.922  11.075  15.111  0.0830 -0.1454 -0.0664
 8309W        W18002   2.743   1.496   0.266 -0.2357  0.0992 -0.2214
 8310W        W18003   3.754   9.815  14.369 -0.0605 -0.0583  0.1136
 8311W        W18004   0.290  16.992  11.730 -0.0846 -0.2203 -0.1565
 8312W        W18005   3.036  17.760   6.111 -0.1428 -0.0072  0.3882
 8313W        W18006   2.855   7.063   1.098 -0.2348 -0.2042 -0.2214
 8314W        W18007  14.200   1.174   0.999 -0.2951 -0.4804 -0.0965
 8315W        W18008  10.041   1.308  12.583 -0.1845 -0.1193  0.0776
 8316W        W18009   5.194  17.643   4.252  0.1260 -0.0970 -0.0045
 8317W        W18010  15.651   3.590  11.758  0.1003  0.1123 -0.1339
 8318W        W18011   8.454   2.039  13.246 -0.1042 -0.0311 -0.1272
 8319W        W18012  17.361   6.338  14.619  0.0921 -0.0335  0.2271
 8320W        W18013   7.746   8.385   3.521 -0.0053  0.0212 -0.1892
 8321W        W18014   2.008   3.292  11.909 -0.2035 -0.1137  0.1301
 8322W        W18015   3.410   0.212  13.248  0.0110  0.2931 -0.2120
 8323W        W18016  17.334   4.436  11.210  0.1371 -0.4367 -0.1475
 8324W        W18017  12.173   9.341  13.013  0.3687  0.2079  0.0364
 8325W        W18018   0.521   0.978  11.742 -0.1583 -0.1927  0.3250
 8326W        W18019   7.462   9.607   1.558  0.0406 -0.2870  0.0034
 8327W        W18020   5.072   8.853  14.034  0.0786 -0.1672 -0.0014
 8328W        W18021   3.946   6.481  11.981 -0.0889  0.0064 -0.0102
 8329W        W18022   4.717  17.327   4.628 -0.3367 -0.0955 -0.1520
 8330W        W18023  15.838   2.526   0.259  0.0566  0.1637  0.2045
 8331W        W18024   4.625  17.456   0.908 -0.0672 -0.2017 -0.4048
 8332W        W18025  15.931   5.850  17.004 -0.3565  0.1293  0.1863
 8333W        W18026   9.708   2.193  16.338  0.1576 -0.2969  0.2557
 8334W        W18027  12.420   7.883   6.340 -0.3196 -0.1303 -0.0733
 8335W        W18028  12.918   9.361  13.582 -0.2876  0.0412  0.2303
 8336W        W18029  11.092  10.772  15.869  0.0421 -0.0599 -0.1533
 8337W        W18030   9.712   5.398   1.263 -0.3263 -0.1878 -0.0904
 8338W        W18031  15.361   8.739  14.296 -0.1005  0.1620  0.2668
 8339W        W18032  17.756   2.298  13.647 -0.0695 -0.1476 -0.3036
 8340W        W18033  11.935   9.530  12.289 -0.2128  0.0557  0.0851
 8341W        W18034   1.361   9.970   3.767  0.2030  0.1296 -0.2947
 8342W        W18035  15.520   5.335  10.639  0.5572 -0.4139 -0.1425
 8343W        W18036   6.428  15.972   6.036  0.3528 -0.1858  0.0098
 8344W        W18037   6.971  15.673  12.595 -0.0030 -0.2727  0.1369
 8345W        W18038   6.166  11.465   6.336 -0.2135  0.1337  0.0557
 8346W        W18039   9.131   7.373   5.213  0.3580 -0.2343 -0.2067
 8347W        W18040   0.486   3.160  11.227  0.2522 -0.3902  0.3725
 8348W        W18041   4.840   5.248   4.915 -0.1202 -0.1583  0.0753
 8349W        W18042  12.629  17.821   4.626 -0.1070 -0.0046 -0.2284
 8350W        W18043   4.234   3.385   0.987 -0.0728 -0.0737 -0.1421
 8351W        W18044   4.533   5.567   2.047  0.2891 -0.0232  0.0549
 8352W        W18045  11.039  10.232   3.796 -0.2309 -0.0292  0.0990
 8353W        W18046  16.760  16.143   4.365 -0.0323  0.0198  0.0958
 8354W        W18047   1.697  17.601   2.963  0.2579  0.1598 -0.0063
 8355W        W18048   1.216  17.487  11.836 -0.3600  0.4803 -0.2195
 8356W        W18049   8.482   4.293  15.234 -0.0990 -0.0045  0.2257
 8357W        W18050  10.617   3.463  15.513 -0.0185  0.1903 -0.0203
 8358W        W18051   2.212   4.936   3.652  0.2317 -0.1300 -0.0001
 8359W        W18052   0.785  13.703   4.008 -0.0845  0.0012 -0.1209
 8360W        W18053  10.671  16.349  12.956  0.0619  0.3565  0.1801
 8361W        W18054   8.649   0.908   2.741  0.1094 -0.0896 -0.0239
 8362W        W18055  15.102   2.030   5.444  0.0743  0.2362  0.2152
 8363W        W18056   0.198  11.896   5.337  0.1025 -0.1794  0.0822
 8364W        W18057   7.324  13.270  15.228  0.0315  0.0071 -0.1002
 8365W        W18058   8.862   1.972   4.682  0.2122  0.2359 -0.2536
 8366W        W18059   9.505   5.333   1.734 -0.1136 -0.2892  0.0997
 8367W        W18060   2.433   5.457   2.361 -0.3704  0.0448 -0.1683
 8368W        W18061   4.987  14.650  16.113  0.0903  0.2102 -0.3065
 8369W        W18062  10.642  15.059   3.532  0.0480  0.1051 -0.0699
 8370W        W18063   2.034  14.670  11.531 -0.0332 -0.2996 -0.1101
 8371W        W18064   6.156  11.414  11.386 -0.1751  0.0911  0.0671
 8372W        W18065   1.220   4.092   5.005  0.1702  0.1555 -0.1776
 8373W        W18066   7.368   5.837  12.550  0.0055 -0.0676  0.3464
 8374W        W18067   4.950  14.128   3.067 -0.1363  0.1265 -0.1744
 8375W        W18068   0.945  15.331   3.147  0.0984  0.1898 -0.3045
 8376W        W18069  13.834   3.867   4.223  0.0041  0.3164 -0.2286
 8377W        W18070   4.957   7.088   5.128 -0.0603 -0.0266  0.1805
 8378W        W18071   0.883  15.574   0.804 -0.0901  0.0602  0.1599
 8379W        W18072   3.760  17.745   1.619 -0.0157 -0.1972  0.1067
 8380W        W18073   5.091   5.461  14.709  0.0348 -0.0221  0.1655
 8381W        W18074   5.011   9.748  13.327 -0.1994  0.2736 -0.1326
 8382W        W18075   5.343   6.724  15.543 -0.0529 -0.2204  0.0485
 8383W        W18076   6.968   6.576  12.461 -0.2513  0.0196 -0.1418
 8384W        W18077  12.717   5.766  12.111  0.3052  0.2213 -0.3948
 8385W        W18078   7.223   7.204  11.031  0.2900 -0.1895  0.2023
 8386W        W18079  10.967  15.823   3.202  0.0585 -0.1053 -0.0004
 8387W        W18080   9.438  16.427  16.585 -0.0776  0.1200 -0.2224
 8388W        W18081   1.602  15.438   5.854 -0.0577  0.2601 -0.0845
 8389W        W18082   7.378  11.784   2.382  0.0188  0.0644 -0.1525
 8390W        W18083   0.500   6.395  14.265  0.0516  0.2453 -0.0538
 8391W        W18084   0.514  13.677  15.951 -0.3563  0.1074 -0.0966
 8392W        W18085   6.281   2.696  15.241 -0.0131 -0.1845 -0.0484
 8393W        W18086  13.374   1.814  13.105  0.1481  0.1951 -0.2392
 8394W        W18087  10.263  12.969   1.056  0.1380  0.3669 -0.1068
 8395W        W18088  10.340   5.219  12.333  0.3096  0.2211 -0.1701
 8396W        W18089  12.068   4.577   5.486 -0.1214  0.1438 -0.0158
 8397W        W18090   2.959   2.593   2.093 -0.0918 -0.0209  0.0722
 8398W        W18091   2.428  15.316  13.206 -0.1467 -0.0529  0.0683
 8399W        W18092   2.188  16.989   0.635  0.0263  0.4064  0.2441
 8400W        W18093   5.593   5.315   6.045 -0.2872  0.1287 -0.0294
 8401W        W18094  16.522   1.681  14.721  0.1312 -0.1268  0.1714
 8402W        W18095   3.772   5.569   0.703 -0.0150  0.1860  0.2470
 8403W        W18096  10.301   4.502  13.019 -0.2158 -0.3269  0.0410
 8404W        W18097   6.195   0.393   2.543 -0.0689  0.0586  0.3597
 8405W        W18098   8.051  15.473   4.082 -0.0251 -0.0987 -0.1221
 8406W        W18099   2.243  11.676  13.158  0.0727 -0.1745 -0.3777
 8407W        W18100  16.397  14.949  13.660  0.0860 -0.1435 -0.2149
 8408W        W18101   1.944  11.895  15.929 -0.1412  0.2361  0.2829
 8409W        W18102  10.022  10.292  15.017 -0.2644  0.1416  0.0496
 8410W        W18103   7.928  16.867   2.476  0.0172 -0.1882  0.1291
 8411W        W18104   4.178   6.015   5.711  0.0611 -0.2258 -0.0156
 8412W        W18105   8.066  12.426  15.444 -0.1805 -0.0717  0.1693
 8413W        W18106   7.442   8.083   5.579 -0.3640  0.1945  0.3411
 8414W        W18107  17.249   7.546   6.044  0.1647  0.1776  0.0587
 8415W        W18108   8.519   9.638   6.211 -0.1832 -0.0860  0.0897
 8416W        W18109   9.093   6.278  16.424 -0.1213 -0.1640  0.0308
 8417W        W18110   8.129  15.118   2.008  0.0151  0.1827  0.0933
 8418W        W18111   4.867  13.818   0.416 -0.4113 -0.2775 -0.2639
 8419W        W18112   5.314   4.757  13.256 -0.2151  0.1264 -0.0058
 8420W        W18113  13.219  13.309   5.195 -0.0076  0.0177  0.0536
 8421W        W18114   5.196  15.053  15.473  0.0916 -0.3600  0.0667
 8422W        W18115  17.391  12.256   6.567 -0.0796 -0.0690 -0.2260
 8423W        W18116   6.379  13.809  17.012 -0.3201  0.1021  0.1104
 8424W        W18117   9.912  12.134  12.369  0.1039 -0.4565 -0.1283
 8425W        W18118   6.236  10.431  14.440 -0.2000  0.2556  0.4562
 8426W        W18119   3.622  10.202  16.725  0.0391 -0.0444 -0.1172
 8427W        W18120   2.118   2.162  11.848 -0.0569 -0.2134 -0.2114
 8428W        W18121   1.964  14.028  14.480 -0.1227 -0.2608 -0.0200
 8429W        W18122   9.004   9.433  16.066 -0.3446  0.0578  0.1664
 8430W        W18123   3.697   1.299   4.451  0.2503 -0.1534 -0.1711
 8431W        W18124   0.660  15.376  11.646 -0.0341 -0.0032 -0.3212
 8432W        W18125   3.649   3.399  13.663 -0.0737 -0.0689  0.1386
 8433W        W18126   1.196   0.254   4.069  0.0349  0.0674 -0.0852
 8434W        W18127  16.192   6.806  12.721 -0.1228  0.2665  0.2312
 8435W        W18128   5.049   0.792  16.181 -0.2124 -0.1810  0.0089
 8436W        W18129   9.624   0.385  16.818 -0.1444 -0.1518 -0.0261
 8437W        W18130   3.814   4.250   0.568 -0.0403  0.2178 -0.1781
 8438W        W18131   5.085   5.473   6.730 -0.0102 -0.3403  0.1424
 8439W        W18132  16.682  12.716  15.558  0.0522 -0.3197  0.0251
 8440W        W18133  13.462  13.336  13.851 -0.2038  0.0756  0.1798
 8441W        W18134   4.341   4.802  14.598 -0.2225 -0.0593 -0.1333
 8442W        W18135  12.619   6.362  14.232  0.1579 -0.2024  0.0767
 8443W        W18136  10.061  11.180  12.470  0.1915 -0.1913 -0.2245
 8444W        W18137   0.407  17.589   2.529 -0.0078  0.2885  0.0647
 8445W        W18138   0.204  10.207  15.597  0.0998 -0.1872  0.1523
 8446W        W18139   8.943   5.810  12.603  0.0602 -0.2990  0.0111
 8447W        W18140  13.554   8.958   1.297  0.0161  0.0154 -0.0734
 8448W        W18141   9.574  11.010   3.541  0.2197  0.1044 -0.0399
 8449W        W18142   4.674   4.248   1.935 -0.4204 -0.2283  0.1609
 8450W        W18143  10.067   4.586   2.905  0.0115 -0.3194  0.1083
 8451W        W18144   0.028  10.858  10.618  0.0629  0.1529 -0.2866
 8452W        W18145   6.587   4.960  15.490 -0.0942 -0.4523 -0.0277
 8453W        W18146   0.723   8.103   3.757 -0.2571 -0.3197 -0.0052
 8454W        W18147   1.557  11.739  16.224 -0.1110 -0.2374  0.1291
 8455W        W18148   2.328   2.389  11.436 -0.0488  0.1500  0.6527
 8456W        W18149   4.581  13.125  16.562  0.1855  0.0663 -0.1460
 8457W        W18150  16.247   3.961  11.135 -0.0502  0.0421 -0.1992
 8458W        W18151  15.255   2.486  15.115 -0.0582 -0.0925 -0.1235
 8459W        W18152  15.347   4.921  14.122  0.0236 -0.0657  0.1783
 8460W        W18153  14.396   9.582  15.303 -0.1374  0.3639 -0.1703
 8461W        W18154   9.521  14.645  13.215 -0.1002  0.2158 -0.0814
 8462W        W18155   8.408   5.177   0.553 -0.2702 -0.0318 -0.0184
 8463W        W18156   7.931  10.175   2.695 -0.1713  0.1510 -0.2361
 8464W        W18157   7.176  17.914  14.898 -0.1755  0.0824 -0.3392
 8465W        W18158  13.369   4.021  11.249  0.0697 -0.1534  0.0946
 8466W        W18159   9.695  11.321  15.441 -0.1054 -0.1541 -0.0804
 8467W        W18160   6.110   2.439  13.856 -0.0572  0.3750  0.1008
 8468W        W18161   4.347   2.831   1.848 -0.3748 -0.2412 -0.1469
 8469W        W18162   4.572   8.577   1.711  0.0014  0.0362  0.1660
 8470W        W18163  17.171  14.283   1.339  0.0872  0.1807  0.0666
 8471W        W18164  11.128   4.057   4.908 -0.3033 -0.1214 -0.1784
 8472W        W18165   3.875   6.327   5.347  0.1714  0.2466 -0.1876
 8473W        W18166   0.183   1.984   2.955 -0.1103  0.0518  0.1688
 8474W        W18167   5.234  13.267   2.960 -0.0686  0.0913  0.0770
 8475W        W18168   0.502   7.551  13.437 -0.0276  0.2350 -0.3100
 8476W        W18169   9.657   3.986   0.178  0.0105  0.0477 -0.0446
 8477W        W18170   8.467   0.899   6.257  0.5228 -0.3342 -0.1019
 8478W        W18171   8.846  15.850  15.289 -0.3329 -0.0754  0.2628
 8479W        W18172   4.760   4.460  15.550 -0.0133 -0.0135 -0.0239
 8480W        W18173  17.464  15.416  13.504  0.0458  0.1779  0.0427
 8481W        W18174   3.562  12.717   3.175  0.3407  0.1498  0.1914
 8482W        W18175  10.799   8.441  13.141 -0.0872 -0.0247  0.2176
 8483W        W18176   6.690  16.016   2.893 -0.1139  0.0327 -0.2297
 8484W        W18177   7.497  11.829  17.107  0.2694  0.3888 -0.2099
 8485W        W18178   6.354  14.561   0.671 -0.0798 -0.1763 -0.2884
 8486W        W18179   6.327   8.556  13.820  0.0881  0.0481 -0.1838
 8487W        W18180   2.638   7.625   3.315 -0.2849 -0.0193  0.1740
 8488W        W18181   2.680  12.194   1.202  0.1561  0.0486  0.2958
 8489W        W18182  10.247   6.206   1.728 -0.0380  0.0003  0.0248
 8490W        W18183   9.862   8.566   5.849 -0.0901  0.1302  0.1432
 8491W        W18184  15.557  16.682  14.589 -0.1549  0.4050  0.0791
 8492W        W18185   9.572  14.195   5.346  0.1094  0.0659 -0.0275
 8493W        W18186  11.293  10.902   0.445  0.1966 -0.0574  0.1986
 8494W        W18187  14.399  14.379  15.360 -0.2226  0.0404  0.3148
 8495W        W18188  14.981  16.503   0.342  0.1931  0.3388 -0.2935
 8496W        W18189   7.275   1.494   4.401  0.0698 -0.2019  0.2472
 8497W        W18190   4.232  13.251   5.169  0.4080 -0.1689  0.1355
 8498W        W18191   5.927   0.223  14.444 -0.0638 -0.2900  0.0561
 8499W        W18192   4.555  10.086   4.051 -0.4030  0.0049  0.0037
 8500W        W18193   8.087   2.094  12.736  0.0942  0.1887 -0.0951
 8501W        W18194   3.149  11.424   4.389 -0.1005 -0.2132 -0.1574
 8502W        W18195  13.879   2.295  15.093 -0.1868  0.3328  0.0317
 8503W        W18196   0.993   4.513   5.489 -0.1268 -0.0978 -0.3006
 8504W        W18197   5.731   4.462   4.564  0.2528  0.2349  0.2821
 8505W        W18198   9.049   6.285  14.818  0.0488 -0.2833  0.0489
 8506W        W18199  11.929   0.465  16.564 -0.1227  0.2409  0.0971
 8507W        W18200  11.246  13.762  13.405 -0.3402  0.0001 -0.2222
 8508W        W18201   7.252   6.239   6.276  0.0954 -0.3227  0.0146
 8509W        W18202   1.506   2.731  13.571 -0.0397  0.1538 -0.0542
 8510W        W18203   7.473  12.942   4.065 -0.0340  0.1135 -0.0621
 8511W        W18204   7.989   5.781  12.429  0.6080 -0.1600  0.0737
 8512W        W18205  14.599  14.194  11.156 -0.0721  0.1127  0.0368
 8513W        W18206   4.694   5.464  14.452 -0.1711  0.1752 -0.1024
 8514W        W18207  10.841   9.224  14.910 -0.2394  0.1394 -0.2006
 8515W        W18208   1.739   7.405   0.802  0.0631 -0.0029 -0.1645
 8516W        W18209   0.055   4.497  12.084 -0.1704 -0.2160 -0.1543
 8517W        W18210   0.015   9.645   3.948  0.4592  0.1760 -0.1042
 8518W        W18211   3.822  10.430  13.437 -0.1413 -0.2591  0.0266
 8519W        W18212  10.736  13.728  13.485 -0.2411 -0.1848  0.0976
 8520W        W18213   5.868   6.903  16.176 -0.3232  0.1483  0.0080
 8521W        W18214  12.138  11.002   2.767  0.2060 -0.0023 -0.2579
 8522W        W18215   4.099  14.534   4.767 -0.1806 -0.0369 -0.4102
 8523W        W18216   4.578   3.039   6.244 -0.1777 -0.0671 -0.0587
 8524W        W18217   7.059   4.532  12.335  0.0572  0.1790  0.3709
 8525W        W18218   6.121   7.707  13.788 -0.2458 -0.0624  0.1012
 8526W        W18219   7.120   9.312  15.191 -0.0770 -0.2721  0.1074
 8527W        W18220   5.929   0.455   3.427  0.1482  0.0020  0.3016
 8528W        W18221   3.652  13.472   6.506 -0.0149 -0.2448 -0.3116
 8529W        W18222   9.127   9.362  14.226  0.0377  0.0550 -0.0353
 8530W        W18223   5.102   0.966   1.881 -0.3355  0.0552  0.2539
 8531W        W18224   5.403  12.231   3.189 -0.1460  0.1043 -0.1284
 8532W        W18225  11.891  16.516  14.504  0.0922 -0.3189 -0.1929
 8533W        W18226   1.849   0.805   2.723  0.0485 -0.0095  0.0517
 8534W        W18227   1.705   9.717  16.693  0.1469 -0.2833 -0.0450
 8535W        W18228  14.103   1.695   4.225 -0.1440  0.1804  0.1143
 8536W        W18229   1.537   5.742  13.358  0.1276  0.0827  0.1169
 8537W        W18230   3.408   2.041   2.668 -0.0767  0.1471 -0.1124
 8538W        W18231   0.054   3.688   4.920  0.0427  0.0532 -0.0467
 8539W        W18232  13.834   2.528   3.860 -0.3755  0.1008 -0.1065
 8540W        W18233  10.597  12.103   6.150  0.2001  0.2440 -0.1812
 8541W        W18234  16.681  11.139  15.308 -0.0221  0.0670 -0.1433
 8542W        W18235   4.023   5.710   3.452 -0.2385 -0.0767 -0.4571
 8543W        W18236  17.091   2.761  14.747  0.1467 -0.0684 -0.3296
 8544W        W18237   1.509  10.757   4.551  0.2051 -0.1478  0.0491
 8545W        W18238   1.959  17.298  17.022 -0.2052 -0.3530  0.1141
 8546W        W18239   3.044   7.347  14.970  0.1750  0.0972 -0.1883
 8547W        W18240  17.870  13.022  12.822 -0.0995 -0.0759 -0.4086
 8548W        W18241  13.285   4.536   4.944  0.1027  0.0826  0.1530
 8549W        W18242   7.351  10.136  12.836  0.2808 -0.0837  0.0785
 8550W        W18243   0.262   2.114  11.468 -0.0242 -0.1639 -0.0461
 8551W        W18244   6.915  13.821  15.598  0.0715 -0.0112 -0.1437
 8552W        W18245   8.730   5.880   1.506 -0.0902 -0.1986 -0.0890
 8553W        W18246   5.781  17.181   5.537  0.2157  0.1442 -0.0201
 8554W        W18247   4.628  15.451   5.947 -0.0667  0.0528  0.4573
 8555W        W18248   5.409  15.626  14.784  0.0865 -0.0234  0.1490
 8556W        W18249   8.978  12.442   4.443  0.1359 -0.5319 -0.0294
 8557W        W18250  10.163   3.437  15.315 -0.0788 -0.2142  0.0878
 8558W        W18251   0.041   7.873  16.316 -0.3089  0.0614  0.0708
 8559W        W18252  15.622   4.504   2.589  0.0309  0.2203 -0.0691
 8560W        W18253   9.488   4.118   3.301 -0.1080  0.0108 -0.0869
 8561W        W18254   2.025  11.462   1.413 -0.1019  0.1001 -0.1644
 8562W        W18255   4.236  17.885   5.363  0.2027  0.0521  0.2370
 8563W        W18256   2.799   1.075  12.477 -0.0029  0.1296 -0.1755
 8564W        W18257  14.685   5.018   0.802  0.2122 -0.0635 -0.4074
 8565W        W18258  16.238   1.637   5.768  0.0216  0.1040  0.1241
 8566W        W18259   7.857   5.932   5.652 -0.0950  0.0410 -0.2061
 8567W        W18260   1.663  13.448   1.166 -0.4445  0.2641  0.0491
 8568W        W18261  17.285   4.783  15.126  0.2348 -0.0590 -0.2639
 8569W        W18262   4.559   4.596  16.277 -0.1826 -0.0059  0.1123
 8570W        W18263  12.468  16.155   0.070 -0.0694 -0.5290  0.0361
 8571W        W18264  11.294  10.039   1.577 -0.2738  0.1494 -0.2180
 8572W        W18265   0.385   1.620   4.303 -0.0753  0.0309  0.0601
 8573W        W18266   6.367  13.197   1.698  0.0825  0.1049 -0.3907
 8574W        W18267   2.381   0.998  16.819 -0.1718  0.1671  0.1133
 8575W        W18268   8.004  13.793  14.794 -0.1109  0.1166  0.2558
 8576W        W18269   3.719   2.473   4.394 -0.0775  0.0073 -0.3152
 8577W        W18270   5.127  17.038  14.317  0.0216 -0.0072 -0.0923
 8578W        W18271   4.656  12.489   3.537 -0.2807 -0.0564 -0.0696
 8579W        W18272   9.813  16.048   6.474  0.1829  0.0136  0.3125
 8580W        W18273   7.114  16.758  11.818 -0.1263  0.0195  0.1360
 8581W        W18274   2.427  15.351  14.279 -0.1285 -0.0967 -0.0232
 8582W        W18275  10.318   7.144   4.190  0.0157 -0.0535 -0.0123
 8583W        W18276   5.827  15.778  13.973  0.2978  0.0154 -0.1671
 8584W        W18277   5.277  14.676   5.878 -0.1084  0.1361  0.0567
 8585W        W18278   7.673   9.289   2.372 -0.1360 -0.2619 -0.0893
 8586W        W18279   2.367   1.472   4.745  0.0594  0.2148 -0.1191
 8587W        W18280   2.261  17.013  12.951  0.0720  0.2659  0.2520
 8588W        W18281   1.318   5.395   1.155 -0.2492 -0.0165 -0.1787
 8589W        W18282  14.713  14.275  14.701  0.1928  0.3679 -0.0476
 8590W        W18283   2.596   5.464   6.248 -0.1633  0.2225 -0.4048
 8591W        W18284   6.530   6.827  12.993  0.1122 -0.0924 -0.0167
 8592W        W18285  13.145   5.124   5.231 -0.1855 -0.2325  0.0674
 8593W        W18286   9.142   7.596  15.363  0.1390  0.2799  0.2426
 8594W        W18287   4.852  10.549  13.456 -0.2343  0.1278  0.1285
 8595W        W18288   4.007   3.065  16.448 -0.3225  0.1070  0.0271
 8596W        W18289   1.026  15.648  16.646 -0.0585  0.2169  0.0708
 8597W        W18290   1.722   2.272  13.484  0.1524 -0.0212  0.0912
 8598W        W18291   8.008   0.282   4.226 -0.0910  0.0442  0.2373
 8599W        W18292   5.646   5.075  11.209  0.0865  0.0946  0.2807
 8600W        W18293   4.036  12.308  16.811  0.1591 -0.3448  0.1604
 8601W        W18294  11.271  16.439   2.254 -0.0618  0.0526 -0.1780
 8602W        W18295  17.745   0.617  11.229 -0.1073 -0.5072 -0.2082
 8603W        W18296   6.514   8.667  12.234 -0.0757  0.0942 -0.0628
 8604W        W18297  11.214   3.453  14.366 -0.0117 -0.1687 -0.1519
 8605W        W18298  17.000  15.376  15.575 -0.1590 -0.0055  0.1494
 8606W        W18299  17.632   7.581   1.960  0.0111 -0.2362 -0.2212
 8607W        W18300  15.954   2.982  10.331  0.1854  0.2756 -0.0826
 8608W        W18301   9.440  17.045  13.063 -0.1489 -0.3346 -0.1880
 8609W        W18302  11.031   2.027   1.434  0.1755 -0.0001  0.0603
 8610W        W18303  15.934   8.368   2.358  0.1950 -0.0018 -0.0872
 8611W        W18304   9.138   4.710   3.283 -0.2921 -0.0291  0.1714
 8612W        W18305  17.318  15.452   3.667 -0.0363 -0.0445 -0.2639
 8613W        W18306   1.992   8.540  17.041  0.1530  0.0488  0.2178
 8614W        W18307  12.910   9.146   1.863  0.1070 -0.3150  0.1967
 8615W        W18308  17.192  17.083   1.105 -0.1009  0.0327  0.0267
 8616W        W18309  13.737   5.270  15.640 -0.2322 -0.1279  0.2561
 8617W        W18310   7.012   4.429  16.346 -0.2947 -0.0024  0.1595
 8618W        W18311  11.161  12.403   1.964  0.1577  0.3508 -0.1326
 8619W        W18312   5.332   7.440  11.758 -0.0643 -0.1247  0.3142
 8620W        W18313   7.431   7.782  15.769  0.2078  0.1907 -0.0808
 8621W        W18314  16.804   4.516   6.595 -0.0548 -0.1289  0.1497
 8622W        W18315   6.959  13.939  13.424 -0.0054  0.3861  0.2643
 8623W        W18316   8.766  16.944   4.833 -0.1966  0.0493  0.1405
 8624W        W18317   2.122   3.914   1.653  0.0108 -0.0679 -0.1902
 8625W        W18318   2.429   1.362   2.605 -0.1327  0.1125  0.0433
 8626W        W18319   6.895   2.520   2.616  0.1273  0.2523  0.1054
 8627W        W18320  15.616  16.901   3.682  0.0311 -0.1107 -0.2740
 8628W        W18321   2.743   6.143   5.924  0.0512  0.1144 -0.1569
 8629W        W18322   7.303   2.682  16.344 -0.1017  0.0836 -0.1225
 8630W        W18323  10.186  12.594   3.882  0.2048  0.1185  0.2019
 8631W        W18324   8.472  12.410   3.529  0.0274 -0.0085  0.0239
 8632W        W18325  11.183   2.181   1.961  0.0569  0.3903 -0.0281
 8633W        W18326  15.812   9.682   3.537  0.0915 -0.1594 -0.0323
 8634W        W18327   6.582   4.996  14.970 -0.1064  0.1412  0.0972
 8635W        W18328   9.321   3.631   1.500  0.1232  0.0337 -0.3264
 8636W        W18329  15.934   4.195  15.486 -0.0345  0.2407 -0.0054
 8637W        W18330  10.521   1.207  12.573  0.2325  0.0344 -0.0015
 8638W        W18331   1.115   8.543   3.322  0.0494 -0.1715 -0.2871
 8639W        W18332   2.221   0.489   1.204 -0.0879 -0.1705  0.1269
 8640W        W18333   6.305   1.314  16.680  0.0381  0.2352 -0.1422
 8641W        W18334   3.390   4.479   5.257  0.1084 -0.3046  0.0571
 8642W        W18335   3.096   6.084   6.593  0.2134  0.2641 -0.2222
 8643W        W18336   6.248  17.475  14.795  0.1734 -0.2264 -0.0332
 8644W        W18337   4.501  13.514   0.158  0.0069 -0.1537 -0.1397
 8645W        W18338  11.054  10.047  14.742  0.0209  0.2693 -0.3992
 8646W        W18339  16.903  11.646   0.622 -0.0346  0.0977  0.0381
 8647W        W18340   0.201   4.907   1.558  0.2019  0.0586  0.1070
 8648W        W18341   6.023   7.766  16.633 -0.2520  0.2984  0.2318
 8649W        W18342  17.680  17.936   6.030  0.5037 -0.1211  0.2059
 8650W        W18343   2.874   7.740   2.890 -0.0293 -0.0200 -0.1712
 8651W        W18344   6.429  10.207  10.943  0.2652 -0.0346 -0.1383
 8652W        W18345  17.233  14.221   2.343  0.2142  0.1683 -0.3304
 8653W        W18346   5.098  15.164   0.092 -0.0431 -0.0709  0.5815
 8654W        W18347  13.030   8.987  16.776  0.0696 -0.1596 -0.0724
 8655W        W18348  12.982   0.934  13.159 -0.2032 -0.1269  0.1043
 8656W        W18349  15.597   6.007  11.727 -0.1014 -0.1043  0.1168
 8657W        W18350   4.436  14.297   6.954 -0.0197  0.0988 -0.2202
 8658W        W18351  16.395   8.179  12.605  0.1641 -0.0627 -0.0536
 8659W        W18352   8.478   3.437   4.183  0.1168  0.2095 -0.0482
 8660W        W18353   5.027  16.769   5.674 -0.1815 -0.0838 -0.2136
 8661W        W18354  12.586   1.834  12.069 -0.2694 -0.2300 -0.0527
 8662W        W18355   5.509   0.714   5.752  0.1489  0.0040 -0.1193
 8663W        W18356   8.421  10.560   3.634  0.0236  0.1889 -0.0165
 8664W        W18357   4.286  17.374   1.757  0.2986 -0.1281  0.0851
 8665W        W18358   8.188  11.268   6.301 -0.0207  0.1153 -0.0266
 8666W        W18359   5.327   8.506  13.731  0.1687 -0.0850  0.2198
 8667W        W18360   5.342   9.723  14.617  0.0163 -0.0629  0.1329
 8668W        W18361   2.835   9.036   6.384  0.1171 -0.0354  0.1568
 8669W        W18362   7.301   8.972  12.888 -0.0458  0.0909  0.0101
 8670W        W18363  16.506  13.046  14.530  0.0966 -0.1759 -0.0110
 8671W        W18364   1.305   3.621   3.636  0.0554 -0.1155 -0.1708
 8672W        W18365   0.630   2.381   5.824 -0.2541 -0.3201 -0.0323
 8673W        W18366  14.544  16.907   2.883  0.1617  0.1448  0.0686
 8674W        W18367  13.028  11.692   0.824  0.2005  0.0816 -0.0049
 8675W        W18368  10.067   5.294   6.044 -0.2844 -0.1971  0.1729
 8676W        W18369   5.098   8.037   0.012  0.3069  0.1143 -0.2053
 8677W        W18370   0.586  16.961   1.123  0.1702 -0.1432 -0.0435
 8678W        W18371   4.005  16.427  16.787  0.1472  0.0581 -0.2834
 8679W        W18372   1.677   0.950  14.938  0.0937 -0.1088  0.1982
 8680W        W18373   5.137   2.160   5.303 -0.1713 -0.0644 -0.3076
 8681W        W18374   7.958  17.884  13.555 -0.0634  0.0485  0.1752
 8682W        W18375   7.073  10.432   4.550  0.1521 -0.0833  0.1725
 8683W        W18376   9.880  12.408   4.300 -0.1386  0.4410  0.0598
 8684W        W18377   1.746   9.046   2.844  0.2300  0.1356 -0.0545
 8685W        W18378   2.339  15.815  12.228 -0.0091  0.2683 -0.2553
 8686W        W18379   1.689  15.192  15.056  0.3865  0.2197  0.2224
 8687W        W18380   0.029  12.618  17.062 -0.3811 -0.2059 -0.1301
 8688W        W18381  16.555   1.591  14.187 -0.0878 -0.2160 -0.1675
 8689W        W18382   9.119   0.754   2.757 -0.1332 -0.0921  0.2722
 8690W        W18383   9.987   4.330  15.474  0.0673  0.1957  0.2119
 8691W        W18384   6.196   4.054  15.021  0.0388  0.1082  0.4352
 8692W        W18385   4.290   2.253  14.976 -0.1026 -0.0141  0.0908
 8693W        W18386   5.057  14.419   4.399 -0.0559  0.0208  0.1493
 8694W        W18387   1.374   6.337   2.357 -0.1571 -0.2103 -0.1306
 8695W        W18388   7.372  13.647  12.378  0.1045  0.1484  0.3639
 8696W        W18389   6.109   5.469   6.017 -0.0521  0.1343  0.1454
 8697W        W18390   1.550   5.599   3.512 -0.0603 -0.1254 -0.0805
 8698W        W18391   6.052   9.822  13.058  0.1116  0.1540  0.1672
 8699W        W18392   4.185  11.103  11.939 -0.1467 -0.1744  0.1422
 8700W        W18393  11.215   0.272   1.838 -0.0823 -0.1145  0.1409
 8701W        W18394   4.988   1.394   3.138  0.3603 -0.0130  0.0865
 8702W        W18395   8.581   7.630   1.556  0.1650  0.1584 -0.1792
 8703W        W18396   1.153   8.736   5.472  0.1841 -0.3302  0.2393
 8704W        W18397   0.598   3.710   1.437  0.0051 -0.0084 -0.1125
 8705W        W18398  15.423   4.963  16.013  0.0412 -0.1920  0.1446
 8706W        W18399   3.469  13.579   2.920 -0.2057  0.1200 -0.1261
 8707W        W18400  15.828  14.309  13.080  0.0460  0.3762  0.2035
 8708W        W18401  12.278  17.133   5.764 -0.0850 -0.1542 -0.2635
 8709W        W18402   8.279   0.606   3.839 -0.1465  0.3346 -0.0845
 8710W        W18403   5.062  10.287   3.988  0.0895 -0.2351  0.0421
 8711W        W18404   2.645  10.113  15.829 -0.1776 -0.1399  0.0561
 8712W        W18405   9.490   3.624   3.344  0.1429 -0.0287 -0.1038
 8713W        W18406   2.434   6.152  15.282  0.0618  0.2408  0.0173
 8714W        W18407  15.476   1.966  14.162  0.2695 -0.0513  0.3144
 8715W        W18408  16.422  10.636  11.649 -0.3270  0.0507  0.1126
 8716W        W18409   7.275   9.869  15.196 -0.1982  0.3599  0.2260
 8717W        W18410  13.227  15.971  11.439 -0.2188 -0.1555  0.0157
 8718W        W18411  14.000   7.219  15.292  0.3241  0.1441  0.2373
 8719W        W18412   2.387  17.218   3.339  0.0315 -0.0073 -0.0998
 8720W        W18413   7.608   8.556   2.404 -0.0307  0.0220 -0.0355
 8721W        W18414  13.075   5.629   3.993  0.0859 -0.2541 -0.0585
 8722W        W18415   7.223  14.593  12.318 -0.0603 -0.0351  0.0666
 8723W        W18416   4.142  12.419   1.362  0.3313  0.2619 -0.2485
 8724W        W18417   5.057   0.416   4.816 -0.2185 -0.0291 -0.0140
 8725W        W18418   3.739   3.078   5.516 -0.2791  0.0106 -0.2386
 8726W        W18419   6.546  17.453  12.616 -0.1731  0.2751  0.2840
 8727W        W18420  13.312  16.992   0.761 -0.2187 -0.0449 -0.2501
 8728W        W18421   6.718   5.278   2.958  0.3131  0.0267 -0.1033
 8729W        W18422  17.871  13.044   0.302  0.2724  0.0978  0.0031
 8730W        W18423   6.353  16.120   4.348 -0.1907  0.2200  0.1885
 8731W        W18424   6.859  10.252  12.735  0.0385 -0.1445 -0.0456
 8732W        W18425   7.074   0.934  15.962  0.1572 -0.1129  0.1894
 8733W        W18426   2.353  15.016  16.107 -0.1801 -0.0480 -0.1159
 8734W        W18427   3.345  13.085  14.558  0.1998  0.1920 -0.1180
 8735W        W18428   1.269  14.323  11.949  0.2505 -0.2161  0.0712
 8736W        W18429   2.930   5.585   1.708 -0.1185  0.3263 -0.2002
 8737W        W18430  16.347   3.338  16.047 -0.0988 -0.3796 -0.5053
 8738W        W18431   5.179   4.145   6.387  0.0068  0.2697 -0.1594
 8739W        W18432   9.661  13.122   5.723  0.1187 -0.1523  0.0499
 8740W        W18433   1.152   5.280  14.239  0.0584  0.3256  0.2859
 8741W        W18434   9.822  13.117  17.012 -0.0911 -0.2470 -0.1476
 8742W        W18435   5.831   9.727   4.240 -0.0850  0.2821  0.3507
 8743W        W18436   9.959   1.323  11.570  0.1861  0.0179  0.0443
 8744W        W18437   7.216   5.780  13.660 -0.0631  0.0701 -0.0780
 8745W        W18438  10.046  15.886   6.084  0.3056  0.0121 -0.3413
 8746W        W18439   2.076   9.512  13.438  0.1865 -0.0027  0.2079
 8747W        W18440   7.753   5.472   4.485 -0.0793  0.0001 -0.2078
 8748W        W18441   0.156  16.557   4.551  0.3031  0.4619 -0.0495
 8749W        W18442  17.920  15.314  16.510 -0.2482  0.2095  0.0728
 8750W        W18443   7.929   7.977   3.203 -0.1994 -0.4593 -0.0352
 8751W        W18444   7.278   6.968   3.094  0.0592 -0.2545  0.0373
 8752W        W18445  10.983   6.752  13.305  0.4399 -0.3003 -0.0376
 8753W        W18446   2.575   0.240   5.400  0.0824 -0.0759  0.1307
 8754W        W18447   2.046  15.484   3.579 -0.3243  0.0342  0.1670
 8755W        W18448   9.642  14.288  14.321  0.0625 -0.1672  0.1501
 8756W        W18449  16.065   3.977  12.199  0.0855 -0.1384  0.3113
 8757W        W18450   0.625  16.746  16.925  0.1748 -0.1639 -0.1839
 8758W        W18451   8.539  10.067   3.746 -0.1463 -0.1789 -0.1527
 8759W        W18452   3.169   6.438  12.522 -0.0263  0.1143 -0.0879
 8760W        W18453   7.589  16.249  16.792  0.3518  0.0779 -0.4960
 8761W        W18454   7.391  10.050  16.386 -0.0342 -0.0469 -0.0005
 8762W        W18455   0.467   5.820  13.729 -0.1797  0.0340  0.0081
 8763W        W18456   0.082  12.992  12.186 -0.0910 -0.2266 -0.2285
 8764W        W18457  16.740   6.752   1.988 -0.0052 -0.1084  0.2137
 8765W        W18458  11.784  17.266   5.845 -0.3322 -0.1223 -0.1893
 8766W        W18459  10.327   9.288   3.818  0.5129 -0.0815 -0.1348
 8767W        W18460   4.986  16.365  11.433  0.0807  0.1436 -0.0454
 8768W        W18461   9.610  11.947  14.796 -0.0764  0.1758 -0.2032
 8769W        W18462   6.607   1.524  14.484 -0.0681 -0.2998 -0.0140
 8770W        W18463  10.789   2.690   0.623  0.0209 -0.1571  0.4351
 8771W        W18464   6.568  13.299   3.732 -0.2613  0.1592 -0.0976
 8772W        W18465   8.686   4.845  13.607  0.0864 -0.0298  0.2759
 8773W        W18466  14.540  13.130  12.312 -0.2841 -0.0452 -0.2429
 8774W        W18467   6.203  15.854   3.978 -0.2380 -0.0061 -0.0183
 8775W        W18468   5.160   6.562   1.687 -0.1277  0.0006 -0.2908
 8776W        W18469   1.051  14.948   6.283 -0.0032 -0.2378 -0.0691
 8777W        W18470   0.175  12.142  13.801  0.0482  0.0993  0.2183
 8778W        W18471   6.762   0.213  13.718 -0.2779  0.1959  0.0795
 8779W        W18472   9.906  13.646  15.098 -0.0681  0.1666  0.4370
 8780W        W18473  10.892   7.535  14.570 -0.1051 -0.2939  0.2493
 8781W        W18474  10.311  14.528  13.643 -0.3004  0.4471  0.2324
 8782W        W18475  12.048   8.912  12.156 -0.1800  0.1607 -0.1869
 8783W        W18476   8.027   7.206  11.662  0.2532 -0.0318  0.0446
 8784W        W18477  10.432  12.780  13.309  0.3136  0.0048  0.1367
 8785W        W18478   7.156  16.163  15.734 -0.3643  0.1803  0.1275
 8786W        W18479  15.716  12.883  10.441  0.2851  0.2958  0.2477
 8787W        W18480   4.184  15.574   5.745  0.0042  0.2823  0.0146
 8788W        W18481   7.099   4.687   3.456 -0.0373  0.2574 -0.3583
 8789W        W18482   4.836   8.106  15.190  0.2086  0.0292  0.1383
 8790W        W18483  13.336  14.589  12.857  0.3326 -0.2230  0.0354
 8791W        W18484  11.498  11.471   5.732 -0.3678 -0.0137  0.1796
 8792W        W18485   5.509   2.067   3.108 -0.2338  0.0380 -0.0265
 8793W        W18486   5.672   5.409   4.457 -0.1703 -0.1816 -0.0523
 8794W        W18487   1.693  17.018   4.370 -0.1095 -0.3758  0.1843
 8795W        W18488  17.201   0.876  11.882 -0.1095  0.0329 -0.0264
 8796W        W18489   6.552   9.802   1.586 -0.1750  0.1030  0.0659
 8797W        W18490   5.533   5.563   3.296  0.2174  0.0506 -0.0280
 8798W        W18491   4.717   3.417  15.701 -0.0347  0.0356  0.1095
 8799W        W18492   7.945   6.383  13.298 -0.0250 -0.0579  0.0272
 8800W        W18493   4.406   2.911   5.754 -0.3053 -0.3135 -0.1350
 8801W        W18494   5.461   8.253   5.753 -0.0986  0.0386  0.0178
 8802W        W18495   8.600  15.382   1.222  0.2834 -0.1257 -0.1016
 8803W        W18496   8.210   0.697   4.803 -0.0575 -0.2277  0.0808
 8804W        W18497   8.487  13.961   3.099 -0.2781 -0.2564  0.2495
 8805W        W18498  14.825  14.500  15.125 -0.1285  0.2582 -0.0247
 8806W        W18499   8.816   9.724   4.142 -0.1562 -0.0965 -0.0420
 8807W        W18500  14.874   6.185   5.853 -0.1198  0.1316 -0.2195
 8808W        W18501  15.193  10.738   2.139 -0.4411 -0.0694  0.1269
 8809W        W18502   8.263  14.129  16.564 -0.3988  0.2075  0.2267
 8810W        W18503   5.630   0.391   6.180  0.1535 -0.2896  0.2148
 8811W        W18504   9.758   0.169   6.767 -0.0645  0.0622 -0.1867
 8812W        W18505   7.516  17.791   5.626  0.0250  0.0608 -0.2628
 8813W        W18506   5.692  12.781  14.331 -0.1932  0.0321 -0.0569
 8814W        W18507   1.376  15.328   1.013  0.1218  0.2013  0.1666
 8815W        W18508   5.705   7.708  11.946  0.2413  0.0488 -0.2394
 8816W        W18509   1.711   2.754   5.026  0.0852 -0.0188 -0.0257
 8817W        W18510  13.320   6.060   2.220 -0.3197  0.2219 -0.1417
 8818W        W18511  16.394  13.953   5.668  0.2757  0.3337 -0.1847
 8819W        W18512   5.236   5.148   4.562  0.0690 -0.2057  0.0017
 8820W        W18513   7.933   2.052   2.163 -0.2729 -0.1871  0.1333
 8821W        W18514   5.235  15.144   1.668 -0.2276 -0.2259 -0.1346
 8822W        W18515  10.074  17.047   2.544 -0.1362 -0.0414 -0.3249
 8823W        W18516   0.769   3.748  12.287 -0.0423 -0.0466 -0.0767
 8824W        W18517   8.972   6.879   0.787 -0.0689  0.1101 -0.0017
 8825W        W18518   9.074   2.647  13.117 -0.3682  0.1446  0.1234
 8826W        W18519  11.153   9.502   2.719 -0.2723  0.0966  0.0738
 8827W        W18520   6.383  16.664   0.170 -0.2586 -0.0463 -0.1650
 8828W        W18521   2.502   1.820  12.020  0.1726  0.3912  0.0037
 8829W        W18522  11.705  17.872  14.793  0.0922 -0.1934  0.0658
 8830W        W18523  17.941   2.079   5.020  0.0942  0.0351  0.0538
 8831W        W18524   2.001  14.407  14.163  0.1468  0.2001  0.1502
 8832W        W18525   5.980   1.727  16.391  0.0749  0.0842  0.1662
 8833W        W18526  13.641   2.036   1.727  0.2275  0.0679  0.2016
 8834W        W18527   8.293  11.896  16.635 -0.2348  0.2185  0.4537
 8835W        W18528  15.691   4.105  11.809  0.1302  0.1453 -0.0345
 8836W        W18529   5.173  17.044   4.653  0.1692  0.0408 -0.3210
 8837W        W18530   9.488   0.157  15.655 -0.0897  0.3818  0.1554
 8838W        W18531  17.928  10.606   3.506 -0.0777  0.1273 -0.4540
 8839W        W18532   8.827   6.655  16.578  0.1092 -0.3541  0.2442
 8840W        W18533   6.563  17.950   0.235 -0.2309  0.1323  0.0690
 8841W        W18534   2.905   5.625  16.645  0.1641 -0.1752  0.1874
 8842W        W18535   2.079   6.072   1.296  0.2782  0.1838  0.0713
 8843W        W18536   7.419   1.764   3.599  0.2874  0.1575  0.2623
 8844W        W18537  10.274   9.786   4.041  0.0179  0.0724 -0.0827
 8845W        W18538  17.316   5.220   6.614  0.0215 -0.2357 -0.0830
 8846W        W18539  13.730   9.395   1.441  0.4373 -0.0664  0.0226
 8847W        W18540  12.137   3.644   5.573  0.0626 -0.1736 -0.0570
 8848W        W18541  16.319  17.687   4.547 -0.1922 -0.0267  0.0552
 8849W        W18542  17.354  11.875   5.671  0.1121  0.1780 -0.2501
 8850W        W18543   5.165  13.905  12.139  0.0379 -0.0815  0.2801
 8851W        W18544   2.994  11.939  16.255 -0.1377  0.4354 -0.0112
 8852W        W18545   2.945  14.855   0.449  0.0526 -0.0823  0.3433
 8853W        W18546   7.063   6.855   2.557  0.4108  0.1065  0.0832
 8854W        W18547   4.840  10.714   0.106  0.0369 -0.0467  0.0192
 8855W        W18548   6.921   0.593  16.712 -0.1547  0.4008  0.1306
 8856W        W18549   7.843  15.640   3.653  0.2456 -0.2490 -0.1460
 8857W        W18550  15.506   5.710   1.634 -0.2248 -0.3488 -0.1432
 8858W        W18551   8.286  11.150   5.817 -0.1534 -0.0406 -0.0089
 8859W        W18552  12.321  14.749  14.365 -0.3465  0.1382  0.0664
 8860W        W18553   5.057   3.642   1.013 -0.1876 -0.0222 -0.0835
 8861W        W18554   3.068   6.617  16.223  0.0516  0.4016  0.0076
 8862W        W18555  15.991   4.229   5.476 -0.1006  0.1038 -0.3157
 8863W        W18556   7.606   0.234   0.736 -0.0067  0.1382 -0.0371
 8864W        W18557   8.873  13.085  16.551  0.0294  0.0908  0.1024
 8865W        W18558   7.209   7.315  15.456 -0.0175 -0.0108  0.4480
 8866W        W18559   9.063   4.333   4.780 -0.2019  0.1506  0.1425
 8867W        W18560   7.840   7.084   5.275  0.2211  0.0262  0.1188
 8868W        W18561  12.179  15.477   0.561  0.0635 -0.1570  0.2227
 8869W        W18562   8.897   0.867  15.157 -0.1218 -0.1756 -0.0840
 8870W        W18563   7.432  16.317  11.725  0.2031  0.1828 -0.3053
 8871W        W18564   5.676   8.765   6.151 -0.0842  0.2432 -0.0145
 8872W        W18565  16.067   1.618   5.295  0.0097  0.0524 -0.0786
 8873W        W18566   3.921   7.009   3.114  0.1101 -0.1757  0.0914
 8874W        W18567   7.349   7.686  13.046  0.1614 -0.0648  0.1422
 8875W        W18568  15.030   4.117  11.195 -0.1111  0.0051  0.0381
 8876W        W18569   6.640  11.962   4.528 -0.1552 -0.3683 -0.0477
 8877W        W18570   0.338   1.677  13.518  0.0093 -0.2324  0.1814
 8878W        W18571   8.620  12.606  10.947  0.0744  0.0651 -0.0371
 8879W        W18572  15.508  12.729   0.392  0.1037  0.1200 -0.0611
 8880W        W18573   5.367  12.335  13.916  0.0401  0.1140  0.3064
 8881W        W18574   2.785  11.870  13.993  0.1714  0.1854  0.4548
 8882W        W18575  13.896  15.559   3.314  0.3397 -0.0963 -0.1656
 8883W        W18576  15.363   8.957   5.369 -0.1393  0.2922 -0.0762
 8884W        W18577   9.290   3.656   2.073 -0.1175  0.2913  0.3047
 8885W        W18578   4.781  16.473   4.956  0.2337  0.1368  0.2401
 8886W        W18579   7.225  12.866  11.189 -0.0358 -0.1039  0.0768
 8887W        W18580   6.575   9.961  15.818 -0.1124 -0.2148 -0.2337
 8888W        W18581   0.616   9.583   2.668 -0.1781 -0.2499 -0.0889
 8889W        W18582   8.691  11.010   2.079 -0.1115  0.2153 -0.0293
 8890W        W18583  11.567  15.689   2.125 -0.0788 -0.3834  0.2005
 8891W        W18584   8.819   2.213  15.054 -0.4051 -0.2196 -0.1648
 8892W        W18585  11.331   8.436  16.350 -0.1185  0.0487  0.0940
 8893W        W18586  12.621  15.502   0.745  0.1770  0.0446 -0.2447
 8894W        W18587  14.018  11.096  15.193 -0.1488 -0.0200  0.2486
 8895W        W18588   8.646   7.171  13.275 -0.1850 -0.2582 -0.0168
 8896W        W18589  14.498   7.408  16.708  0.0259  0.1866 -0.0283
 8897W        W18590   2.897  11.891  12.058 -0.4141 -0.0333 -0.2560
 8898W        W18591   4.041   8.747  16.023  0.1682  0.2111  0.1229
 8899W        W18592   3.459  17.039  15.857  0.0299  0.0986 -0.1980
 8900W        W18593   3.504   4.001  13.108 -0.2272  0.1774  0.3082
 8901W        W18594   1.137  14.354  14.258 -0.0224  0.1660 -0.0978
 8902W        W18595   2.180   3.552   1.288 -0.0104  0.0185 -0.1486
 8903W        W18596  16.619  15.232   3.925 -0.2336  0.0598  0.2852
 8904W        W18597   8.401  16.173   1.981  0.0554  0.0845  0.1713
 8905W        W18598  13.560   3.675   0.148  0.0003 -0.0369 -0.2252
 8906W        W18599  16.220   8.096   0.276  0.3366 -0.3666 -0.1637
 8907W        W18600   2.899   0.172  12.163 -0.0928  0.0031  0.1922
 8908W        W18601   7.963  15.320   1.519  0.2197 -0.0855  0.2135
 8909W        W18602  11.528  10.734  14.887  0.0227 -0.1694  0.3664
 8910W        W18603   8.246  14.089  13.008 -0.2720 -0.0822  0.0465
 8911W        W18604   7.349   0.592   4.758 -0.0717  0.1246  0.2087
 8912W        W18605  10.901   0.871   4.098  0.2826 -0.2159  0.0607
 8913W        W18606   0.355   9.929   5.962 -0.0469 -0.0166  0.4549
 8914W        W18607   5.608   5.296   1.687 -0.1170 -0.2457  0.1402
 8915W        W18608   1.641  13.087  12.129  0.0652 -0.2465 -0.2719
 8916W        W18609   3.396   3.075   0.380  0.0363  0.0088 -0.1342
 8917W        W18610   9.767  11.988   0.387 -0.0316 -0.1063  0.1994
 8918W        W18611   3.789   3.331   1.211 -0.2286 -0.1990 -0.3583
 8919W        W18612  15.269   4.822   3.165  0.1816  0.1053 -0.0032
 8920W        W18613   8.688   3.423  12.360  0.1637 -0.0871 -0.0359
 8921W        W18614   1.371   3.403   1.893 -0.1263  0.0737  0.1358
 8922W        W18615   8.763  10.880  12.444 -0.2493 -0.2071  0.0821
 8923W        W18616  17.307  17.091   1.928  0.2057 -0.0685 -0.0268
 8924W        W18617  12.452   3.840   5.032  0.0356 -0.0583 -0.0178
 8925W        W18618   0.826   9.107  14.910  0.0476  0.0144 -0.1385
 8926W        W18619   8.248  10.024  12.177  0.0228  0.3075 -0.2726
 8927W        W18620   8.235   3.848  14.520  0.1093  0.1012 -0.0275
 8928W        W18621   4.311  16.833  12.194 -0.0475  0.1913  0.0758
 8929W        W18622   8.057   0.510   5.431  0.0296  0.0543  0.3069
 8930W        W18623  13.788   3.467   5.612  0.0147 -0.1072  0.0924
 8931W        W18624   5.477   8.485  16.840  0.0438  0.1427  0.0372
 8932W        W18625   3.738  14.957  12.237  0.0848  0.1784  0.0219
 8933W        W18626   2.343  17.397   3.765  0.3947 -0.0707 -0.0309
 8934W        W18627   3.453  17.788  12.860  0.1827  0.1827 -0.0778
 8935W        W18628  16.577   8.516   0.051 -0.0961 -0.1157 -0.1466
 8936W        W18629   7.000  13.028  13.829  0.2162  0.2899 -0.5050
 8937W        W18630   7.161  11.050  15.604  0.2950 -0.1114  0.0736
 8938W        W18631  10.342   9.046  14.021  0.1488 -0.1159  0.2814
 8939W        W18632   4.854   0.326  14.994  0.1625 -0.2258 -0.1308
 8940W        W18633  16.251  13.005   3.730  0.2134  0.1235  0.1375
 8941W        W18634   1.248  11.755  11.751 -0.1414 -0.3516  0.2117
 8942W        W18635   8.906   9.631  12.569  0.2411  0.0968 -0.3158
 8943W        W18636   2.626   1.442   3.506  0.0291  0.0625 -0.1041
 8944W        W18637   7.059  10.009   6.410  0.3055  0.1436 -0.0531
 8945W        W18638   7.776  15.576   0.931 -0.0057  0.0812  0.0729
 8946W        W18639   7.040  13.335  14.212  0.1279  0.2829 -0.0476
 8947W        W18640   3.575   2.798  16.508  0.0404 -0.1664 -0.0893
 8948W        W18641  17.486   1.061  16.438  0.3407 -0.0682  0.0182
 8949W        W18642   3.209   1.422  17.080 -0.1001 -0.0739  0.0736
 8950W        W18643   4.355  15.154   4.057  0.0393 -0.0392  0.2914
 8951W        W18644   6.897   3.517  13.727  0.0673 -0.0602  0.0387
 8952W        W18645   8.821   1.234   0.553 -0.0294  0.3789  0.2035
 8953W        W18646  13.551  14.229  13.158  0.2337 -0.0281 -0.2324
 8954W        W18647   8.735   5.351  13.464  0.1714 -0.2698 -0.0597
 8955W        W18648   3.771   3.358   0.185 -0.2145  0.1335  0.1456
 8956W        W18649  10.184  12.701  17.041  0.0156 -0.0984  0.0397
 8957W        W18650   9.247   6.988   5.538  0.0495 -0.0753 -0.2834
 8958W        W18651   4.253   6.771  11.304  0.0908  0.1439 -0.0097
 8959W        W18652   6.961  17.483   4.463 -0.3317 -0.1558 -0.0766
 8960W        W18653   6.990   5.503   1.121 -0.2767 -0.0849  0.3920
 8961W        W18654   5.000   0.576   3.467  0.2475 -0.2689 -0.2015
 8962W        W18655   5.639  10.223  13.622 -0.2729 -0.2748  0.0628
 8963W        W18656   4.129   2.784  11.998 -0.0160 -0.1980 -0.2021
 8964W        W18657   7.467   2.487  12.055  0.1932  0.3484  0.0014
 8965W        W18658  10.647   7.940  13.102  0.4883 -0.0695  0.3355
 8966W        W18659   6.448  13.751   0.801 -0.2846 -0.2790 -0.4609
 8967W        W18660  17.224  10.607   4.724  0.1054 -0.1083 -0.1119
 8968W        W18661  16.363   0.238  11.517 -0.3847  0.1005 -0.3606
 8969W        W18662   4.765  13.185  14.942  0.1649 -0.0561  0.2449
 8970W        W18663   0.641   1.322   3.899 -0.1318  0.0466 -0.2085
 8971W        W18664   6.409  11.341   3.692  0.2272 -0.0207  0.2076
 8972W        W18665   9.184   7.377   2.083 -0.3241  0.1690 -0.2241
 8973W        W18666   4.760   3.478  14.033 -0.3353 -0.1984  0.0575
 8974W        W18667   9.728  16.520  13.635 -0.0620 -0.0471  0.1509
 8975W        W18668   2.522   8.045   6.015  0.1827  0.0251 -0.0706
 8976W        W18669   4.831  15.504   1.890  0.0528 -0.0498 -0.0656
 8977W        W18670   7.776   1.989   6.463 -0.3704 -0.2916  0.1469
 8978W        W18671  16.207  12.779  15.707 -0.0104 -0.1560  0.1735
 8979W        W18672  14.757   7.932  11.986 -0.0787  0.2680 -0.0587
 8980W        W18673   7.302  12.452   6.308 -0.0712  0.0749  0.2199
 8981W        W18674  10.629   4.101  14.786  0.2966 -0.2784  0.2530
 8982W        W18675   5.270   4.956   1.954 -0.1209 -0.0884  0.0213
 8983W        W18676   5.921  11.518   5.199  0.2236 -0.0610  0.1441
 8984W        W18677  13.457  12.343  14.015  0.1424 -0.2807  0.0505
 8985W        W18678   5.496  14.028  13.934  0.0333  0.1381  0.0878
 8986W        W18679  17.209  14.330   2.841  0.1069  0.1207 -0.3445
 8987W        W18680  11.143  15.686   0.024  0.1421  0.2020 -0.0577
 8988W        W18681   9.031  13.783   6.120 -0.4240 -0.0472  0.0066
 8989W        W18682   9.744  11.080   2.502  0.1083  0.0879 -0.2008
 8990W        W18683  10.128   2.491  14.839 -0.0634 -0.4546  0.0284
 8991W        W18684   5.384  17.743   1.811  0.2751  0.3419 -0.2994
 8992W        W18685  12.347   5.316  12.125 -0.0146 -0.3697  0.0489
 8993W        W18686   9.388  15.513   0.801  0.1903  0.0859  0.0527
 8994W        W18687  14.903   5.095   5.041  0.1952 -0.2895  0.4355
 8995W        W18688   8.351   4.812   3.638 -0.2916  0.1602 -0.3133
 8996W        W18689   2.636   6.466  12.430  0.1432 -0.2317  0.0406
 8997W        W18690   5.658  10.682  13.961  0.2742  0.0408 -0.1325
 8998W        W18691   1.587   3.214   4.391 -0.0993 -0.0462 -0.1355
 8999W        W18692   9.532   8.648  13.522  0.0079  0.1039 -0.1451
 9000W        W18693  16.666  15.892   1.404  0.0571 -0.0769  0.0153
 9001W        W18694  12.992   9.754  13.878 -0.2464  0.1876 -0.0446
 9002W        W18695   1.513   6.834  12.302  0.2821  0.1019 -0.1348
 9003W        W18696   8.506   4.206  11.400 -0.4284  0.2352  0.3240
 9004W        W18697  10.102   9.745  10.978  0.0650  0.0088  0.2403
 9005W        W18698   3.869  17.562   3.613 -0.1995  0.1689  0.0995
 9006W        W18699   5.087  17.181  13.845  0.0420 -0.0092  0.2783
 9007W        W18700  15.618  12.162   2.158  0.2930 -0.2128  0.2578
 9008W        W18701   5.453   0.823  16.562 -0.1036 -0.0379 -0.2737
 9009W        W18702  16.689   9.665   2.834 -0.0079  0.3849  0.0060
 9010W        W18703  10.280  11.591   3.421  0.0236  0.4419  0.0889
 9011W        W18704   7.869  13.917   4.261  0.4812  0.0012  0.2415
 9012W        W18705  12.312  14.858  14.867  0.0029  0.1622 -0.2058
 9013W        W18706  13.639   4.085   3.444 -0.2155  0.0045 -0.3477
 9014W        W18707   5.876  10.097  14.647  0.3855 -0.0955 -0.0289
 9015W        W18708   2.321   3.555   2.037 -0.2184  0.1090  0.0495
 9016W        W18709   2.851   1.135  11.978 -0.1076  0.5372 -0.3718
 9017W        W18710  11.376   8.402  14.666 -0.0305  0.0490 -0.3941
 9018W        W18711   2.647   3.014  13.528  0.2510 -0.2414 -0.0449
 9019W        W18712  15.225  15.701  14.695 -0.2068 -0.0319  0.1925
 9020W        W18713   2.680  13.476  13.740  0.3544 -0.2622 -0.2018
 9021W        W18714   2.634  13.899   2.461  0.1700 -0.0996 -0.2230
 9022W        W18715   8.255  15.010   1.159  0.2709 -0.0797  0.1015
 9023W        W18716  13.727   4.098   1.196 -0.1560 -0.0638  0.1518
 9024W        W18717   3.635   6.636  15.378 -0.1103 -0.1643  0.0050
 9025W        W18718  11.353   8.884  13.242 -0.0243 -0.1266 -0.0062
 9026W        W18719   1.718   0.761   4.134 -0.1595  0.1216 -0.0715
 9027W        W18720  13.573  17.375  14.777 -0.0853  0.0053  0.2973
 9028W        W18721   3.400  10.808  13.543 -0.1647 -0.2324  0.2340
 9029W        W18722   1.793   3.096   3.128 -0.1133 -0.1103  0.1619
 9030W        W18723   2.027  14.083   2.467  0.2114 -0.0865  0.0383
 9031W        W18724   1.633   0.544  13.028 -0.5461 -0.0363 -0.0303
 9032W        W18725   2.909   4.501   6.071  0.0998 -0.0355  0.1888
 9033W        W18726   8.202   5.011  14.221 -0.0627  0.2957 -0.0397
 9034W        W18727   1.660  12.327  11.544  0.4299  0.0985 -0.2815
 9035W        W18728   2.765  11.647  11.526  0.1371  0.1971 -0.0391
 9036W        W18729  12.476  17.349  16.060  0.0779 -0.1017 -0.0646
 9037W        W18730   3.021  12.555  12.229  0.0331 -0.0387  0.1386
 9038W        W18731  17.806   4.137   5.143  0.0321 -0.1336 -0.0341
 9039W        W18732   2.430   8.826   6.581 -0.1202  0.2639 -0.0174
 9040W        W18733   3.154  12.992   1.202  0.0504 -0.2634  0.0753
 9041W        W18734   3.143  14.768  16.692 -0.1402 -0.1359 -0.2827
 9042W        W18735   0.261   7.863   1.327 -0.1230  0.1197  0.1362
 9043W        W18736  10.086   5.470   5.596 -0.0988  0.2015  0.1625
 9044W        W18737   2.550  11.027   3.328  0.0705 -0.0610  0.1702
 9045W        W18738   2.699  14.996   1.735 -0.0506  0.0988  0.0194
 9046W        W18739  16.664  17.325   4.809  0.1066 -0.0208 -0.0830
 9047W        W18740   4.122  17.586  13.288 -0.0039 -0.0074 -0.0362
 9048W        W18741   1.907   7.666  16.296  0.2370 -0.2170  0.0918
 9049W        W18742  13.334   0.928  15.308  0.0662 -0.3198 -0.1457
 9050W        W18743  16.138   9.822  14.720 -0.3569 -0.3414  0.2209
 9051W        W18744   3.000   4.937  15.793 -0.1279 -0.0790 -0.1211
 9052W        W18745   3.423   8.472   0.862  0.0404 -0.1048  0.2366
 9053W        W18746  17.916   9.532  12.232  0.1012  0.1890 -0.3948
 9054W        W18747  10.442  14.482  14.099  0.1928 -0.1853 -0.1675
 9055W        W18748   7.940   6.902   2.454 -0.1573 -0.0461  0.0181
 9056W        W18749   2.315  11.347   4.284 -0.0281  0.6058  0.1719
 9057W        W18750   6.629   8.139  15.503 -0.2415  0.0367 -0.0854
 9058W        W18751  11.307  16.218   1.380 -0.3679  0.0804 -0.1985
 9059W        W18752   8.327  11.966  15.172  0.0690 -0.0269 -0.2851
 9060W        W18753   5.242   2.746   2.040  0.0033 -0.2170  0.0145
 9061W        W18754   8.752  11.723   6.699  0.0683  0.1356 -0.0648
 9062W        W18755  11.080  17.753  13.962  0.0027 -0.0113 -0.2024
 9063W        W18756   6.255   0.009   4.202 -0.0470  0.0744  0.0781
 9064W        W18757  13.829  14.238  13.650  0.0490 -0.1649 -0.1046
 9065W        W18758  16.153  12.656   4.689  0.1678  0.1961  0.0232
 9066W        W18759   3.245  11.039   4.105  0.0608  0.1219  0.1309
 9067W        W18760  10.405  16.088  16.827 -0.2765 -0.1923  0.0297
 9068W        W18761   3.406   2.489  14.440  0.1757  0.2309 -0.1261
 9069W        W18762   8.663   6.994  14.163  0.0089 -0.0522  0.1267
 9070W        W18763   2.864  14.800   5.839  0.0357 -0.2680  0.0406
 9071W        W18764   3.744  12.261   1.751  0.0118  0.0159  0.2592
 9072W        W18765  11.441   6.824   4.306 -0.4389  0.0928 -0.0017
 9073W        W18766   9.093  16.283  15.471  0.2730  0.0227 -0.0258
 9074W        W18767   8.661   9.802   7.358 -0.0208  0.1031  0.0965
 9075W        W18768   6.785   0.981  14.051 -0.2554 -0.0566  0.1096
 9076W        W18769   8.983  15.944  14.682 -0.1462 -0.0842 -0.3443
 9077W        W18770  16.456   2.138  16.140 -0.3258  0.1715  0.1316
 9078W        W18771   2.295   6.964   1.805 -0.0270 -0.3613  0.0529
 9079W        W18772   5.057  15.300  15.036 -0.1450 -0.1727 -0.3284
 9080W        W18773   5.185  13.608   0.806 -0.0449  0.0960 -0.3603
 9081W        W18774  10.211  13.260  15.580  0.0425 -0.0892 -0.0799
 9082W        W18775   1.679   8.640   4.613  0.0320  0.3377 -0.0695
 9083W        W18776   3.402   7.720   0.939 -0.0617 -0.2411  0.3249
 9084W        W18777  11.163  12.315   5.330 -0.0419 -0.2841 -0.1227
 9085W        W18778   4.872   5.959  16.215 -0.1470 -0.2735 -0.1207
 9086W        W18779   4.746  13.138   3.793 -0.0482 -0.1310  0.0725
 9087W        W18780   3.470   3.585  16.056 -0.1896 -0.3450 -0.0612
 9088W        W18781  13.729  16.032   2.498  0.1319 -0.1615 -0.0302
 9089W        W18782  15.037   4.583  13.840 -0.3277  0.0888 -0.0149
 9090W        W18783  14.575   1.107   3.216 -0.2259  0.1380  0.2441
 9091W        W18784   1.685  14.174   5.262 -0.2189  0.2865  0.2941
 9092W        W18785  17.554   7.674  11.995 -0.3359 -0.1490 -0.2191
 9093W        W18786  16.616   7.459   3.076  0.0716 -0.2058  0.1331
 9094W        W18787  16.428  10.087   2.070 -0.1845  0.3039 -0.4331
 9095W        W18788   2.889  15.324  13.024  0.0057  0.1702 -0.1854
 9096W        W18789   3.327   5.286   1.810  0.3724  0.0118 -0.1355
 9097W        W18790  11.796  12.056  13.316 -0.0405 -0.1281 -0.1052
 9098W        W18791   4.616   3.647  13.597  0.3065  0.2420 -0.1846
 9099W        W18792  14.132  14.825   6.149  0.1108  0.2206  0.0993
 9100W        W18793   5.956  13.794   5.083  0.0726  0.2600  0.3348
 9101W        W18794   5.474  14.799   3.122  0.1426  0.1204 -0.0450
 9102W        W18795   2.432  15.517   0.825  0.3145  0.1977  0.1573
 9103W        W18796  17.120  10.391  13.268 -0.1963 -0.1208 -0.1669
 9104W        W18797   3.845  11.270  14.308  0.2797 -0.2483  0.1514
 9105W        W18798  10.252  13.177   2.582  0.0063 -0.0561  0.0743
 9106W        W18799   7.269   6.979  12.450 -0.0828  0.1294  0.1898
 9107W        W18800   4.220   2.837   0.838 -0.2752 -0.1073  0.2529
 9108W        W18801  14.058  13.771  16.038  0.1830 -0.1594  0.0074
 9109W        W18802   0.334   7.190   5.152  0.1137 -0.2139  0.2570
 9110W        W18803  14.992   2.938   3.332  0.0903 -0.1850  0.1354
 9111W        W18804   3.458  10.892  12.630 -0.1087  0.0001 -0.1063
 9112W        W18805   4.909   2.129   0.386  0.0264  0.0047 -0.0298
 9113W        W18806   6.850   1.180   5.726 -0.2392  0.4635 -0.3126
 9114W        W18807  12.569   5.538  16.203  0.1904 -0.2219 -0.0969
 9115W        W18808   6.445  11.884   6.554  0.4100 -0.0778 -0.0040
 9116W        W18809   3.590   1.507   0.236  0.1027  0.0781 -0.1990
 9117W        W18810   4.111   0.913  11.024  0.0053  0.0268  0.2322
 9118W        W18811   7.798   1.263   5.819 -0.0971  0.0865  0.1478
 9119W        W18812   6.973   3.277   4.150 -0.4001  0.0693 -0.2491
 9120W        W18813   8.390   6.692   2.255 -0.1426  0.3048  0.3008
 9121W        W18814   6.489  10.336   1.347  0.2420 -0.0671 -0.1961
 9122W        W18815   4.274   8.596   5.214  0.2888 -0.1374 -0.2123
 9123W        W18816  11.860  15.942   6.058  0.0921  0.2140  0.3793
 9124W        W18817  14.466  14.857   4.112 -0.0630 -0.2279 -0.1690
 9125W        W18818   6.377   7.848  16.228  0.0784  0.0484 -0.0221
 9126W        W18819  10.313   0.536  11.793  0.1673  0.2683 -0.0348
 9127W        W18820   6.520  16.630   1.600 -0.0842 -0.3754 -0.0959
 9128W        W18821   7.704  10.848   0.770  0.0339  0.3595  0.0848
 9129W        W18822   4.824   1.617  10.952  0.0264 -0.2148 -0.0264
 9130W        W18823   4.780   9.984   1.943 -0.0971  0.1270  0.2221
 9131W        W18824   7.799  15.721  16.726  0.3259  0.0952 -0.1377
 9132W        W18825  10.442  16.103  16.303  0.0643 -0.0925  0.5098
 9133W        W18826  15.088   0.419   0.680  0.1221 -0.0984  0.1465
 9134W        W18827  10.301  15.945   5.611  0.0992 -0.1947 -0.1220
 9135W        W18828   6.985  16.040   0.848 -0.0641  0.0764  0.0824
 9136W        W18829  15.331   4.189  17.083 -0.0317  0.1709 -0.0441
 9137W        W18830  11.506   2.901   2.457 -0.0346 -0.2399 -0.1123
 9138W        W18831   6.786  12.854  12.845  0.4211 -0.0519 -0.2747
 9139W        W18832   7.009   7.508   3.197  0.1395 -0.0207  0.0826
 9140W        W18833   6.007  13.957   0.844 -0.0599  0.0404  0.0730
 9141W        W18834   3.350   2.823  12.399  0.1597  0.0471  0.1861
 9142W        W18835   2.742  11.396   6.003  0.1136 -0.1986  0.1623
 9143W        W18836   4.521  16.460   0.371 -0.2849 -0.3023  0.0273
 9144W        W18837   6.364  15.188   3.280 -0.2995  0.2380 -0.1159
 9145W        W18838   8.223   5.207  14.857  0.1616 -0.4032  0.1045
 9146W        W18839   8.911  12.519   0.928 -0.1186 -0.1822 -0.3257
 9147W        W18840   8.972   4.394  12.263 -0.0191 -0.0643 -0.0871
 9148W        W18841  13.244   4.005  16.533 -0.4145  0.0519  0.1549
 9149W        W18842  12.286   7.006   5.088 -0.0136  0.0972  0.1196
 9150W        W18843   9.769   8.235  16.000  0.2145 -0.1299 -0.1619
 9151W        W18844   8.643  11.017   3.507  0.2458  0.2277 -0.2536
 9152W        W18845   8.019   2.625  13.801 -0.1863  0.2637 -0.1108
 9153W        W18846   7.569   9.353  15.635  0.0460  0.0044 -0.0614
 9154W        W18847   5.585  11.013   5.716  0.1505 -0.1183  0.0958
 9155W        W18848  10.761   6.621   0.341  0.1321 -0.1756 -0.2887
 9156W        W18849   9.512   8.058   3.394  0.0202  0.0273  0.0168
 9157W        W18850   5.231  10.171  13.329  0.0285 -0.1448 -0.0409
 9158W        W18851   7.065  14.461   1.281 -0.3029 -0.2009  0.3126
 9159W        W18852   5.779  17.585  12.656 -0.3768  0.4354  0.4165
 9160W        W18853   7.004   9.246   4.212 -0.0590 -0.1142  0.4742
 9161W        W18854   6.994   5.924   1.395 -0.1741  0.3519 -0.0935
 9162W        W18855  10.640   3.568   3.156 -0.0439  0.3762  0.0843
 9163W        W18856   8.703   8.543  12.340 -0.1534  0.1478  0.4322
 9164W        W18857   6.034  14.877  13.799 -0.3341 -0.0117  0.1618
 9165W        W18858   3.915   4.993   0.582  0.0236 -0.1182  0.1745
 9166W        W18859   0.695   1.405   4.822  0.1900  0.1898 -0.3215
 9167W        W18860   6.662   2.069   4.853 -0.2037  0.3502 -0.0327
 9168W        W18861   4.255   8.039  16.886  0.0984 -0.1632 -0.4145
 9169W        W18862   6.799   3.279   5.504 -0.0931  0.0716  0.5190
 9170W        W18863   7.687  10.092  11.110  0.0497 -0.4130 -0.0987
 9171W        W18864   2.767  10.785   1.898  0.2932  0.1444 -0.0065
 9172W        W18865  16.644   2.233  13.584  0.0848  0.1194  0.1553
 9173W        W18866  10.695   4.751   6.871  0.0365  0.1559  0.0505
 9174W        W18867   2.614   4.918   0.718  0.0944  0.3131  0.4237
 9175W        W18868  13.142  16.504   0.665 -0.0569 -0.2612 -0.2591
 9176W        W18869  12.021   7.649  12.126  0.3051  0.1729  0.1807
 9177W        W18870  16.835   6.272   1.884 -0.1488  0.2003 -0.2882
 9178W        W18871   4.022   9.325   2.961  0.0528  0.1341 -0.0646
 9179W        W18872  11.641  10.558  12.249  0.1029 -0.0932 -0.0747
 9180W        W18873   4.673  16.998  16.652  0.1625  0.1497 -0.2757
 9181W        W18874   8.457  13.638  15.666 -0.0190  0.0451 -0.0950
 9182W        W18875   4.414  17.188   3.654 -0.2194  0.0580 -0.0294
 9183W        W18876   2.467   5.801   1.495 -0.3402  0.1534  0.3746
 9184W        W18877   6.484   0.930   1.242 -0.0267 -0.0240  0.2598
 9185W        W18878   0.523   6.965  12.542 -0.2599 -0.3318 -0.0173
 9186W        W18879   1.132   3.966   5.695  0.3676 -0.0442  0.1779
 9187W        W18880   1.065  11.008   2.537  0.0958 -0.0490  0.1729
 9188W        W18881   7.097  14.699  14.608 -0.0179  0.0138  0.0620
 9189W        W18882   4.882  17.721   6.274  0.0587 -0.2478 -0.1080
 9190W        W18883   1.048  17.839   1.330  0.0581  0.0287 -0.0868
 9191W        W18884   2.533  11.464   3.053 -0.1406 -0.5261  0.1932
 9192W        W18885   7.168  14.501  16.354 -0.2848 -0.3694  0.0745
 9193W        W18886   9.661   5.387   2.357  0.3152 -0.3372 -0.0198
 9194W        W18887   3.753  15.582  15.247  0.0123  0.1028 -0.0755
 9195W        W18888   7.008   8.013  12.935  0.4564 -0.1705 -0.1477
 9196W        W18889   6.621  17.069   4.428 -0.1011 -0.1902  0.1106
 9197W        W18890   3.287  12.456   2.187 -0.2341 -0.0748  0.0688
 9198W        W18891   2.301   5.717  13.018  0.0323  0.1385 -0.0295
 9199W        W18892   5.440   6.354   3.161 -0.1848 -0.1557 -0.1961
 9200W        W18893   5.851   4.536  16.989  0.2879 -0.0346  0.0475
 9201W        W18894   8.205  14.285  12.515  0.2162 -0.0578 -0.0887
 9202W        W18895   0.675  10.408  16.848  0.2096  0.0070 -0.1090
 9203W        W18896  17.424   1.603   5.227  0.0419 -0.2931 -0.0560
 9204W        W18897   1.487  16.308  11.317 -0.2080  0.1419  0.0911
 9205W        W18898  10.381   5.368   1.707 -0.1565  0.2265  0.0099
 9206W        W18899  10.169  14.053  14.952 -0.0333 -0.0531  0.0709
 9207W        W18900  15.029   7.561   6.178  0.1577  0.1029 -0.1020
 9208W        W18901   4.743   2.429  12.694 -0.0342  0.0107 -0.0080
 9209W        W18902   7.644   6.920   0.949 -0.1198 -0.0500  0.0816
 9210W        W18903   2.136   2.658  11.920 -0.1177 -0.2637  0.2930
 9211W        W18904   1.234  11.129  13.106  0.0317  0.0345 -0.3351
 9212W        W18905   2.105   7.482   0.025 -0.0115 -0.0200  0.0982
 9213W        W18906   7.064   4.128   4.741 -0.0775  0.1163  0.2054
 9214W        W18907   3.454   1.279   3.963 -0.1287  0.2609 -0.0659
 9215W        W18908  17.538  11.099   2.248 -0.1778  0.0363  0.1116
 9216W        W18909   7.483  16.668   4.813 -0.0522 -0.0845 -0.3683
 9217W        W18910   6.649  16.186  12.991  0.1714 -0.2372 -0.0185
 9218W        W18911  11.234   2.092   2.893  0.4747  0.1306  0.2085
 9219W        W18912   3.682  16.854   0.435 -0.1466  0.1655  0.1542
 9220W        W18913   8.307   4.202  14.205 -0.1209  0.0002 -0.0906
 9221W        W18914  16.134   3.849  16.864  0.1323 -0.1776  0.1457
 9222W        W18915   2.963  16.686  14.066  0.1376  0.1690 -0.0893
 9223W        W18916   5.181   0.321  15.374  0.0967  0.3817 -0.1449
 9224W        W18917  13.999   6.177  11.544  0.0067 -0.0872 -0.3098
 9225W        W18918   4.088  12.925   4.833  0.2583  0.0833  0.0064
 9226W        W18919   0.735  14.942   1.543 -0.1379 -0.0461 -0.0669
 9227W        W18920   3.403  11.712   0.612 -0.2907  0.0348 -0.1811
 9228W        W18921   9.777   7.631   4.907 -0.1899  0.0664  0.2998
 9229W        W18922   1.207  17.813   3.198 -0.3303  0.0672 -0.1795
 9230W        W18923  11.468  13.594  13.938  0.0024  0.0505 -0.0146
 9231W        W18924   6.077   1.667   4.330 -0.0915 -0.0125  0.1120
 9232W        W18925   6.494  12.760  13.647  0.0573 -0.2255 -0.1464
 9233W        W18926   2.584  16.740   0.957  0.1509 -0.2202  0.2803
 9234W        W18927   4.094   0.316  14.630 -0.1113 -0.0813 -0.1126
 9235W        W18928   2.146  13.803   4.603  0.0170  0.2337  0.0171
 9236W        W18929   6.159   8.579   2.395  0.1600 -0.2350 -0.0314
 9237W        W18930   7.821   0.158  17.022  0.0364  0.2429 -0.1643
 9238W        W18931   4.162  10.090  13.184 -0.0596  0.4646 -0.0510
 9239W        W18932  10.137   0.872   0.377 -0.0475  0.1304 -0.1717
 9240W        W18933   6.145   4.722   1.218 -0.0189  0.2114 -0.0278
 9241W        W18934   4.828  16.045  12.379  0.0034  0.0494  0.1772
 9242W        W18935  11.436   4.323   2.485  0.2022  0.1215 -0.2074
 9243W        W18936  12.478   3.245  12.986 -0.1865 -0.1288  0.0037
 9244W        W18937   6.893  12.973  15.893 -0.1657 -0.0003  0.2540
 9245W        W18938   6.992  10.912  16.054  0.2427  0.1251 -0.0733
 9246W        W18939   7.274  15.554   3.623  0.0982  0.1966 -0.3972
 9247W        W18940  17.567  14.216   5.550 -0.2502  0.3845 -0.0109
 9248W        W18941  13.524  13.812   2.749 -0.0154  0.0687 -0.0344
 9249W        W18942  11.756  10.331   0.735 -0.0351 -0.1280  0.3105
 9250W        W18943   3.468  15.719   1.391  0.3651  0.0641  0.2630
 9251W        W18944   9.421  16.439   4.456  0.3351 -0.0823  0.3013
 9252W        W18945   3.822   3.413   4.057  0.0650 -0.0201 -0.1677
 9253W        W18946   0.517   0.327  11.729 -0.1057 -0.0035 -0.1004
 9254W        W18947   6.426  11.661  14.598  0.3859  0.0518  0.2030
 9255W        W18948   4.112   6.144   4.325  0.0799  0.2357  0.1650
 9256W        W18949  12.369   4.826  14.514  0.2029 -0.1766  0.0725
 9257W        W18950  13.614   4.857  12.813 -0.0051 -0.0144  0.2028
 9258W        W18951   0.929   8.728   1.863 -0.0262  0.0166 -0.4068
 9259W        W18952   7.658  11.478   4.739 -0.1186  0.0028 -0.0572
 9260W        W18953   0.170  12.277  11.586 -0.5182  0.0118  0.0727
 9261W        W18954   9.408   6.195   1.176  0.3213  0.1334 -0.0743
 9262W        W18955   5.589   3.405   1.521 -0.1719 -0.1077  0.1330
 9263W        W18956   3.982   2.178   5.010 -0.1959 -0.3047  0.2309
 9264W        W18957  11.269   3.429  13.548 -0.0382 -0.0206 -0.1031
 9265W        W18958  14.171  12.553  16.706  0.0850  0.3059 -0.4695
 9266W        W18959   6.885  12.439   5.841 -0.1442 -0.1947 -0.1014
 9267W        W18960  11.623   1.381  10.485 -0.2236  0.0236  0.0352
 9268W        W18961  12.588   0.532  13.428  0.2731 -0.0240  0.1844
 9269W        W18962   5.237   7.373  17.031  0.0113  0.0109  0.1607
 9270W        W18963   2.672   8.071   2.470 -0.3249 -0.1440 -0.0674
 9271W        W18964   8.215  16.224  15.018  0.4989 -0.3346 -0.0418
 9272W        W18965  11.085  14.540  15.386 -0.0653 -0.1598 -0.0486
 9273W        W18966   5.684   0.954  14.679  0.0872 -0.3251 -0.0078
 9274W        W18967   8.268  15.778  14.607 -0.0690 -0.0744  0.1174
 9275W        W18968   8.824  16.795  11.547  0.1797 -0.1481 -0.1913
 9276W        W18969   8.241   9.360   5.279 -0.1913 -0.1915  0.0853
 9277W        W18970  12.026  14.449  14.631  0.2317 -0.0650  0.0475
 9278W        W18971   0.717   3.630  11.581  0.0395  0.0169 -0.3329
 9279W        W18972   7.920   6.235   0.200 -0.0485 -0.0932  0.2913
 9280W        W18973  13.398  16.154   5.257  0.0839 -0.2216  0.0747
 9281W        W18974   2.885   8.309   5.327  0.3327 -0.1572  0.2368
 9282W        W18975   1.635  12.275  16.034 -0.2255 -0.1492  0.0272
 9283W        W18976   3.425   4.922   2.955 -0.1138  0.2520 -0.0586
 9284W        W18977   2.843   8.815  16.845  0.1080  0.0297 -0.0231
 9285W        W18978   5.283   6.270   0.782  0.0438 -0.2700  0.0888
 9286W        W18979  11.189  13.128  14.617 -0.1212 -0.2671 -0.0985
 9287W        W18980   6.104   0.511  15.662  0.1083  0.2149 -0.1467
 9288W        W18981   5.708  10.182   6.177  0.1995 -0.2769 -0.0641
 9289W        W18982   8.720  11.878   5.753  0.1061  0.2176 -0.2474
 9290W        W18983  14.506  11.513  10.528 -0.0734  0.2697  0.0750
 9291W        W18984  15.368   9.185   4.387  0.0404  0.0760 -0.0975
 9292W        W18985   2.239   9.052   2.764  0.0497  0.1304 -0.4079
 9293W        W18986   7.963   7.998   1.826  0.0393 -0.1367 -0.1842
 9294W        W18987  13.046   2.792  13.433  0.1733  0.1840  0.1213
 9295W        W18988   2.368   3.726  16.288 -0.0492 -0.0326  0.2644
 9296W        W18989   8.264   0.135   1.369 -0.2149 -0.1305  0.4409
 9297W        W18990   3.831  11.660   3.793 -0.0504 -0.0395 -0.1692
 9298W        W18991   4.702   4.861   1.388  0.1699  0.0245  0.0246
 9299W        W18992   1.328  14.874  12.314 -0.0202  0.1825 -0.1991
 9300W        W18993   4.193  14.132  15.451  0.1577 -0.0994 -0.0416
 9301W        W18994   8.079  11.517  13.474 -0.0457 -0.0991  0.0726
 9302W        W18995  14.878  11.902  10.948 -0.1620  0.2507 -0.1518
 9303W        W18996   9.909  15.957   0.658  0.0739 -0.0085 -0.0288
 9304W        W18997   4.997   3.184   5.422 -0.0936  0.0059  0.4878
 9305W        W18998  12.085   9.505  15.002 -0.0474  0.4822 -0.1310
 9306W        W18999  10.817  11.498   3.525  0.0074  0.1861  0.0394
 9307W        W19000  11.563  16.707   2.526  0.0922 -0.0976 -0.1846
 9308W        W19001   5.832  16.849   4.183  0.0647  0.0795 -0.0156
 9309W        W19002  10.439  13.787   5.755  0.2049 -0.1019  0.2683
 9310W        W19003   8.793   0.544  15.539  0.0411  0.0827  0.1248
 9311W        W19004   7.073  12.325  14.375  0.3675  0.0485 -0.1352
 9312W        W19005  17.901  14.337   0.842  0.1431  0.2174 -0.1267
 9313W        W19006   4.295   6.207  12.825 -0.0048 -0.1280 -0.0332
 9314W        W19007   9.071   3.892  15.571  0.1542  0.0724 -0.4924
 9315W        W19008   9.389  12.671   2.153  0.1608 -0.4581  0.1249
 9316W        W19009   7.457   0.573  15.323  0.2797  0.0769 -0.2014
 9317W        W19010   5.619  17.467  14.573  0.0559  0.0803 -0.1396
 9318W        W19011   9.331  14.641  15.992  0.3469  0.2289  0.2432
 9319W        W19012   4.163   8.858  12.291  0.2814 -0.2145 -0.2598
 9320W        W19013   7.550   2.712  13.886 -0.0253  0.4216  0.0368
 9321W        W19014   7.397   8.785   5.598 -0.0252 -0.0662  0.2917
 9322W        W19015  16.102  16.845   3.519 -0.1386 -0.1190  0.0546
 9323W        W19016   0.107  16.833  11.269 -0.2504 -0.0642  0.0713
 9324W        W19017   8.872  15.463   2.223  0.0433  0.5216  0.0668
 9325W        W19018   8.442   5.917   5.569 -0.0025 -0.0063 -0.0115
 9326W        W19019  17.741  15.143   4.593 -0.0657  0.2991  0.1558
 9327W        W19020   6.265   4.135  14.529  0.3156 -0.2340 -0.1849
 9328W        W19021   8.404   4.897  12.484 -0.0877 -0.2148 -0.0449
 9329W        W19022   0.280   2.818  13.758  0.0020  0.1279  0.1196
 9330W        W19023   6.775   0.623  15.320 -0.0438  0.1666  0.0949
 9331W        W19024  16.174   4.706   2.428  0.5175  0.1550  0.4347
 9332W        W19025   1.746   2.310   0.596  0.0249  0.0138 -0.0018
 9333W        W19026   1.258  16.692   3.686 -0.3566  0.0019 -0.3262
 9334W        W19027  10.702   8.254  13.629  0.0227 -0.0810 -0.2041
 9335W        W19028  17.357  13.155  13.047  0.1158  0.1202  0.0459
 9336W        W19029   4.411  14.707   2.971  0.0917  0.0764  0.2476
 9337W        W19030  16.521  13.798  11.754  0.1260 -0.0579 -0.2580
 9338W        W19031   8.231  12.781   2.060  0.2297  0.3237  0.2628
 9339W        W19032   4.949   1.741  10.393  0.4993 -0.2381  0.0254
 9340W        W19033  15.158  11.637   3.992 -0.0223  0.0774 -0.0087
 9341W        W19034   6.474   4.071   4.266  0.1600 -0.0780  0.1506
 9342W        W19035  10.068   2.525  15.901 -0.1201 -0.2273 -0.1267
 9343W        W19036  13.828   2.304   6.267 -0.2466  0.2583  0.0009
 9344W        W19037  16.619   7.129  16.364  0.2650  0.5669  0.2013
 9345W        W19038   2.219   2.579   1.104  0.0608 -0.0481 -0.4347
 9346W        W19039   0.805  17.870  13.061 -0.2224 -0.3982 -0.0714
 9347W        W19040   0.885   1.580  16.163  0.0434 -0.2609 -0.3075
 9348W        W19041   9.589  12.072   5.839  0.0294 -0.1891 -0.0240
 9349W        W19042   4.964  11.759   6.142 -0.1203  0.1608  0.0469
 9350W        W19043   8.767   1.609  14.396  0.0268  0.0480 -0.0784
 9351W        W19044   8.086  15.081   5.657  0.0449 -0.0434  0.2370
 9352W        W19045  10.783  11.108   0.710  0.1626 -0.0467 -0.0123
 9353W        W19046  17.072  17.708   1.495 -0.1030  0.1007  0.1131
 9354W        W19047   3.944   6.390  16.237  0.0843 -0.0311 -0.2504
 9355W        W19048   4.512  15.403   4.513 -0.0683 -0.1330  0.1443
 9356W        W19049   3.108  11.831   5.739  0.0365  0.0589 -0.0841
 9357W        W19050   2.837  15.720  14.235 -0.2466 -0.2875 -0.1362
 9358W        W19051   4.957  13.184   1.447  0.3571 -0.0356  0.2700
 9359W        W19052  13.177   5.564   2.401  0.0876  0.0603  0.0303
 9360W        W19053   3.572  15.161  15.141  0.2241 -0.0139  0.0394
 9361W        W19054  13.979  17.859  15.520  0.0171  0.0980  0.0516
 9362W        W19055  16.927   1.708   2.652 -0.1652  0.2212 -0.2823
 9363W        W19056  10.618  17.138   1.677  0.1280  0.0668 -0.0909
 9364W        W19057   5.751   3.860   3.485 -0.0612 -0.2033  0.2949
 9365W        W19058   3.102   7.233   2.448  0.2549 -0.3186  0.3284
 9366W        W19059   9.764   5.304   0.757  0.2562 -0.0510  0.2024
 9367W        W19060   5.317  11.534   5.108 -0.0393 -0.1243  0.0091
 9368W        W19061  15.301  15.637   2.853  0.0162 -0.3936  0.0550
 9369W        W19062   6.903   0.641   2.181  0.1256 -0.0351 -0.2182
 9370W        W19063  17.205   2.201   0.211  0.2838  0.1243  0.2122
 9371W        W19064   3.251  13.069   0.231 -0.1035 -0.0280 -0.0079
 9372W        W19065  15.961  16.197  10.929 -0.0269  0.2343 -0.5880
 9373W        W19066  12.160  17.927   5.437 -0.3758 -0.4410  0.2304
 9374W        W19067   9.423   4.239  15.393 -0.0202  0.2151 -0.0381
 9375W        W19068   1.127  10.254  12.863 -0.0509  0.0073  0.3388
 9376W        W19069   8.011  15.785  12.428 -0.2773 -0.0262 -0.0476
 9377W        W19070   5.795   2.833   2.685 -0.2913  0.0753 -0.0677
 9378W        W19071  12.633   8.468  15.518 -0.0636 -0.0978 -0.0502
 9379W        W19072  16.653  14.103   1.052 -0.1488  0.0008 -0.0721
 9380W        W19073  17.114  11.630  11.755 -0.1354  0.3126 -0.2789
 9381W        W19074   1.208   1.116  14.740 -0.0997 -0.1580  0.1368
 9382W        W19075  10.202   2.797  13.036  0.2322 -0.1852 -0.0356
 9383W        W19076   5.428  16.474  11.901  0.0377  0.3553  0.2542
 9384W        W19077   4.697  14.304  16.903  0.0361 -0.2099  0.0249
 9385W        W19078   7.884  12.403   1.799 -0.0264 -0.0746  0.1772
 9386W        W19079   3.939  11.917   5.041 -0.0713 -0.0789 -0.0097
 9387W        W19080   3.178  17.731  15.816  0.1734 -0.2037  0.0590
 9388W        W19081   3.862   6.625  13.244 -0.1782 -0.1065 -0.2118
 9389W        W19082   5.610   3.414  13.804  0.0812  0.0611  0.1668
 9390W        W19083   1.716  15.584  14.355 -0.0734  0.5059 -0.2148
 9391W        W19084   2.411  12.892   2.448 -0.2145 -0.3389  0.0962
 9392W        W19085   5.687  15.668  12.560 -0.0655 -0.1854 -0.0648
 9393W        W19086   2.338   0.707  15.654 -0.2329  0.0883  0.3012
 9394W        W19087  13.231   6.424   4.265 -0.1782 -0.0464 -0.0833
 9395W        W19088   2.958   7.714  14.642  0.2287 -0.2591  0.1582
 9396W        W19089  10.863   8.597   1.233  0.1896 -0.0645  0.4654
 9397W        W19090   2.787  14.375   1.730  0.0439 -0.0966 -0.2374
 9398W        W19091   2.046   4.160   2.657 -0.1408  0.2255 -0.2201
 9399W        W19092   7.882   2.536   2.391 -0.0094  0.2201 -0.0212
 9400W        W19093   6.888  14.304   4.311  0.2372 -0.1275  0.1981
 9401W        W19094  10.985   1.167  12.833  0.0735 -0.0606 -0.0521
 9402W        W19095  14.021   3.053  13.407  0.0037  0.1226  0.0173
 9403W        W19096  15.574  15.706  15.977  0.2241  0.0130  0.1521
 9404W        W19097   5.486   5.085   0.555 -0.0368  0.0879 -0.1648
 9405W        W19098  10.522   0.246   0.988 -0.1609 -0.1080  0.3810
 9406W        W19099  13.193  11.890  12.371  0.1163 -0.0186  0.0915
 9407W        W19100  17.220   7.234  14.701  0.1037 -0.2188  0.0482
 9408W        W19101   9.221   5.235  16.005 -0.2167  0.0013  0.0244
 9409W        W19102  12.816   1.530  12.455 -0.1427 -0.0966  0.0677
 9410W        W19103  11.144   4.555   6.977 -0.0491  0.0049 -0.4466
 9411W        W19104  15.918   4.166  12.696 -0.1545  0.1603  0.3242
 9412W        W19105   4.990   0.073   3.662  0.1396 -0.1665 -0.1726
 9413W        W19106   9.143   4.808   0.242 -0.0922  0.0414 -0.0305
 9414W        W19107   7.823   5.209  13.134 -0.0349 -0.0248  0.0339
 9415W        W19108   4.677  11.203  16.739  0.2385  0.1217  0.0889
 9416W        W19109  14.339  13.069   4.204  0.0823 -0.0552  0.3279
 9417W        W19110  17.349  12.091  16.390 -0.1211  0.1295 -0.0653
 9418W        W19111   5.339  12.066  12.191  0.0833 -0.1738  0.0600
 9419W        W19112  10.513  15.693  13.817  0.0985  0.3788  0.2163
 9420W        W19113   6.862  17.929   6.010  0.4015 -0.1299  0.0031
 9421W        W19114  11.932  10.652  16.623 -0.1153 -0.0288 -0.4217
 9422W        W19115  16.774  14.307   0.481  0.0294  0.2801 -0.1983
 9423W        W19116   8.468  14.683   5.456  0.1360  0.1054  0.0388
 9424W        W19117   7.140  17.784   1.598 -0.2766 -0.0393 -0.3430
 9425W        W19118   7.890  15.759  14.195  0.4185  0.0377 -0.0926
 9426W        W19119   9.056   2.172   5.579 -0.2380  0.0972  0.0401
 9427W        W19120   1.580   3.296  12.379 -0.2174 -0.0134  0.0846
 9428W        W19121  10.296   3.393  15.885 -0.0304  0.0994 -0.0514
 9429W        W19122   0.350  13.075   0.552 -0.4716  0.1509  0.2788
 9430W        W19123  10.890   5.680   1.039  0.1243  0.1738 -0.0660
 9431W        W19124   3.322  15.778   4.598 -0.3349 -0.1491 -0.0313
 9432W        W19125   6.672   2.477  12.437 -0.4177  0.1270  0.0146
 9433W        W19126   0.184   7.322  12.635 -0.2219 -0.1756 -0.3099
 9434W        W19127   7.739  14.761   5.540 -0.1016 -0.2651  0.1310
 9435W        W19128   5.013  11.173  16.349 -0.0267 -0.0564  0.1435
 9436W        W19129   2.543   2.618   6.059  0.3031 -0.1035  0.2686
 9437W        W19130   1.626   5.837  14.874  0.1688 -0.0080 -0.2359
 9438W        W19131   7.077  14.447  11.843  0.2442 -0.1657 -0.3206
 9439W        W19132   2.123  13.268   4.087  0.0727  0.1989  0.0493
 9440W        W19133   8.347   0.933   3.237 -0.2225 -0.0741 -0.0764
 9441W        W19134   6.905  12.877   5.217 -0.2625  0.3302  0.1506
 9442W        W19135   1.760   1.468  14.874 -0.0023 -0.4750 -0.0107
 9443W        W19136   3.434   7.037  15.052  0.1167  0.0452 -0.1459
 9444W        W19137   3.997   5.880  15.416 -0.2963 -0.1242  0.0856
 9445W        W19138   3.734  13.764   0.672 -0.2054  0.0609  0.1876
 9446W        W19139  12.120  17.169   5.251 -0.0676 -0.1866 -0.0622
 9447W        W19140   9.961  14.864  14.896  0.0425  0.0271  0.1661
 9448W        W19141   8.110   4.606  13.664 -0.1616 -0.2430 -0.2993
 9449W        W19142   5.563  12.665   3.060  0.2373  0.0109  0.2316
 9450W        W19143   7.789  17.339   5.489 -0.0315  0.0596  0.0215
 9451W        W19144   6.442   3.656   3.601  0.2108 -0.1038 -0.1697
 9452W        W19145   4.810  16.768  16.191  0.3246  0.6173  0.1472
 9453W        W19146   8.261   6.420  15.249 -0.0191  0.2014  0.3029
 9454W        W19147   8.721  17.314  13.692 -0.2296  0.2237  0.0923
 9455W        W19148  16.751   6.129  13.780 -0.0910 -0.0455  0.1801
 9456W        W19149  15.430   7.743   5.852  0.0515  0.2451 -0.0554
 9457W        W19150   6.279   7.860   2.475 -0.0942 -0.0517  0.1218
 9458W        W19151  10.770  16.784   4.041  0.1576 -0.2074 -0.0855
 9459W        W19152  17.199   8.402   0.317  0.1267 -0.1638  0.0946
 9460W        W19153   2.781  12.880   2.733  0.2279 -0.1153  0.0511
 9461W        W19154   7.059   8.358   0.970 -0.2603 -0.3457  0.2728
 9462W        W19155  11.579   6.797  14.849  0.0543 -0.4792 -0.0458
 9463W        W19156   1.671   4.662   5.998  0.3161 -0.0179  0.4357
 9464W        W19157   2.666  16.674  15.232 -0.0033 -0.2445 -0.2613
 9465W        W19158   6.366   2.154  16.204  0.1802 -0.1264 -0.2050
 9466W        W19159   6.690   0.310   5.671 -0.3104  0.0709 -0.0129
 9467W        W19160   3.538  12.110   0.833  0.0810 -0.0135 -0.0195
 9468W        W19161   9.199  14.726   3.181  0.1314 -0.1203  0.1263
 9469W        W19162   7.490   9.507  11.709  0.1743  0.0394  0.0953
 9470W        W19163   1.703  13.918  14.983 -0.1647 -0.0318 -0.0114
 9471W        W19164   6.854   3.458   2.327  0.2023 -0.0209  0.3036
 9472W        W19165   1.558  11.248  16.487  0.1262  0.1071  0.0372
 9473W        W19166   7.486  10.879  16.341 -0.2132 -0.1542 -0.3253
 9474W        W19167   4.443  17.624  14.556  0.2070 -0.3748  0.0618
 9475W        W19168  10.745  12.937   7.195 -0.3488 -0.1209 -0.0314
 9476W        W19169   5.064  10.931  15.540  0.0272 -0.0499  0.1110
 9477W        W19170   3.231   7.833  14.193  0.0780 -0.0504  0.0990
 9478W        W19171   9.928  10.712   6.685  0.0255  0.1829  0.0433
 9479W        W19172   6.815   7.894   0.974 -0.0049 -0.0923 -0.3536
 9480W        W19173  10.925  13.679   4.927  0.5397  0.1870 -0.0939
 9481W        W19174   7.810   1.884   4.533  0.0767  0.3215  0.2465
 9482W        W19175   7.851  11.374  14.719  0.1043 -0.0782  0.1557
 9483W        W19176  11.822  16.165  15.415 -0.0651 -0.2802 -0.0752
 9484W        W19177   2.452   1.144   1.984  0.0702  0.2960 -0.2586
 9485W        W19178   8.967   4.414  15.434 -0.0916 -0.1518  0.0571
 9486W        W19179   2.728   0.640  12.195  0.0248  0.0244 -0.2134
 9487W        W19180   1.645  15.806  12.146  0.1649  0.0679 -0.1920
 9488W        W19181   9.104  10.208   6.782  0.2023 -0.0540  0.0067
 9489W        W19182   5.187   0.058  13.488 -0.0087  0.1086 -0.1130
 9490W        W19183  17.374   4.538   0.884  0.1658 -0.2851  0.0470
 9491W        W19184   9.072   3.644  14.240 -0.1753 -0.3985  0.1148
 9492W        W19185   9.427  15.941  16.367 -0.0130 -0.1476 -0.2053
 9493W        W19186   5.045   8.132   7.103 -0.0502 -0.1122  0.3226
 9494W        W19187   5.740   2.740  13.223 -0.0148 -0.1666 -0.0874
 9495W        W19188  17.138  12.272  13.060  0.1883 -0.0276 -0.0775
 9496W        W19189   1.028  13.533  13.599  0.0356  0.2744 -0.1688
 9497W        W19190   5.060  10.082  12.451  0.1187  0.1087 -0.2323
 9498W        W19191  11.748   9.761  11.788  0.0513 -0.0777 -0.2253
 9499W        W19192   7.432  13.362  13.112 -0.1753 -0.2166 -0.4930
 9500W        W19193   1.691  16.861  15.595 -0.0997  0.0620 -0.1500
 9501W        W19194   3.624   0.263  12.185  0.4323  0.1546 -0.4665
 9502W        W19195   7.333   7.201   4.040 -0.1142  0.0229  0.3877
 9503W        W19196  10.871   1.041   0.808  0.0337 -0.1217  0.1107
 9504W        W19197   1.327   8.873  14.925  0.2556 -0.0026  0.1082
 9505W        W19198   1.738   8.258  13.467  0.1389  0.0443  0.4979
 9506W        W19199  15.929   7.338   1.799  0.0782 -0.0284 -0.1813
 9507W        W19200   6.296   8.688   3.022 -0.0016 -0.1380 -0.0603
 9508W        W19201   8.105  17.432   2.481 -0.0266 -0.0233 -0.0861
 9509W        W19202   9.565   6.656   4.166 -0.0272 -0.1573 -0.0568
 9510W        W19203   3.580  17.974   3.880  0.3469 -0.1024  0.2326
 9511W        W19204  15.795  12.539  12.018 -0.1516 -0.0571 -0.2027
 9512W        W19205   6.284  14.599  15.993  0.2165  0.0737  0.1749
 9513W        W19206   6.868  13.572  12.284 -0.1162 -0.3897  0.0442
 9514W        W19207  14.912   5.885   3.450 -0.0712  0.1368 -0.4220
 9515W        W19208   1.815  17.670  14.745 -0.1631  0.0705  0.0331
 9516W        W19209   8.728   5.598   5.952  0.1380 -0.1825 -0.0229
 9517W        W19210  12.022   9.750   3.125 -0.0373 -0.0254 -0.2550
 9518W        W19211  16.367  12.408  15.252  0.3539  0.1836 -0.2135
 9519W        W19212  17.074   0.096  16.426 -0.2047 -0.3405 -0.3167
 9520W        W19213  10.824  11.520   4.858 -0.1557  0.0556  0.2453
 9521W        W19214   8.826   2.851   4.664 -0.3329 -0.1227  0.1804
 9522W        W19215   9.498   4.033  16.801  0.1023  0.0098 -0.0844
 9523W        W19216  16.968   3.746  16.706 -0.0812 -0.0650  0.2193
 9524W        W19217   8.880  14.508  11.954 -0.1056  0.2531  0.2240
 9525W        W19218   8.032   6.854  14.990 -0.3492  0.2366  0.1643
 9526W        W19219   9.491  16.217   0.611  0.0321 -0.1590  0.1338
 9527W        W19220   4.000  14.785  16.695  0.2144 -0.0209 -0.0303
 9528W        W19221   5.087  12.236   3.570  0.0081 -0.0841  0.3783
 9529W        W19222  10.327  16.261  15.436 -0.1507 -0.0674  0.0848
 9530W        W19223  17.711  14.284   2.594 -0.3195  0.0442 -0.0621
 9531W        W19224  14.630   0.424  10.325 -0.0669 -0.2346  0.2187
 9532W        W19225   0.659   6.327   1.584  0.0389 -0.0877  0.1317
 9533W        W19226   8.755   8.925   0.662  0.0423 -0.0219 -0.1676
 9534W        W19227   3.708   2.767   0.943 -0.0755  0.3777 -0.0523
 9535W        W19228  11.875  17.168   4.327 -0.0164 -0.0700  0.1509
 9536W        W19229   5.287   1.465  10.654  0.0391 -0.3590 -0.1723
 9537W        W19230  10.621   4.893   0.484 -0.1475  0.1539 -0.0058
 9538W        W19231   5.103   0.045   5.217 -0.2107 -0.2227  0.1648
 9539W        W19232   8.075   3.231  15.101  0.0738  0.0447  0.2790
 9540W        W19233  16.489  10.089   3.074  0.1724 -0.1396  0.1246
 9541W        W19234   7.226  15.849  11.756  0.1822 -0.0335  0.0154
 9542W        W19235   7.192  16.931   5.188  0.1058  0.1290 -0.1560
 9543W        W19236   1.515   9.557   4.682  0.0930  0.0204  0.0449
 9544W        W19237  12.140   7.430   1.224  0.0451  0.0046 -0.0336
 9545W        W19238  17.972  10.227   3.087 -0.0434  0.1362 -0.1227
 9546W        W19239  16.655   0.183   5.799 -0.0345 -0.1516 -0.1076
 9547W        W19240   9.021  17.172  13.335  0.3209 -0.1703 -0.1052
 9548W        W19241   6.478   3.412  15.334  0.1723  0.3468 -0.3019
 9549W        W19242   8.962   1.864   2.562 -0.1194 -0.3038 -0.0729
 9550W        W19243  14.578   1.929   2.636 -0.1009  0.0575  0.0208
 9551W        W19244   8.582  16.542   6.244 -0.2827 -0.2854  0.2237
 9552W        W19245  15.034   3.704  12.979  0.2784 -0.0238 -0.0074
 9553W        W19246  10.372   2.614   1.839  0.1402 -0.2893  0.3992
 9554W        W19247  14.796   3.884  12.017 -0.2902 -0.1936  0.0623
 9555W        W19248   5.443   1.080  16.006 -0.1271 -0.2061  0.1393
 9556W        W19249  11.731  10.088  16.459  0.4106  0.2826 -0.1092
 9557W        W19250  11.382  13.944  16.142 -0.0836  0.0366 -0.2239
 9558W        W19251   1.426   7.535  14.034 -0.2418 -0.1377  0.0194
 9559W        W19252  12.369  12.881  10.829  0.0516  0.0799 -0.1066
 9560W        W19253   4.968   2.835   3.132 -0.0423 -0.3138 -0.1494
 9561W        W19254   8.589   7.622   0.377 -0.0376  0.1467 -0.1109
 9562W        W19255   2.974  13.677  11.393 -0.0001  0.1784 -0.1346
 9563W        W19256  15.528   1.633  10.569 -0.3342 -0.1961  0.2127
 9564W        W19257  17.920  15.757  13.706 -0.2183 -0.1152 -0.0553
 9565W        W19258   1.540   4.252   2.826 -0.0121 -0.1132  0.0647
 9566W        W19259   7.983  16.494  16.714  0.2309 -0.0584 -0.3375
 9567W        W19260   9.555   5.806   0.036  0.2262  0.0498  0.0735
 9568W        W19261   4.583   5.111  16.477 -0.0176 -0.0490  0.1370
 9569W        W19262  17.420   4.950  14.232  0.0913  0.4226  0.1243
 9570W        W19263   1.605  13.723   1.700  0.1829  0.0150 -0.1289
 9571W        W19264   0.108  11.018   3.837  0.1229 -0.1353 -0.2064
 9572W        W19265   7.229  10.780  14.145 -0.1298 -0.0879 -0.2771
 9573W        W19266   2.170   9.902   2.438  0.0988 -0.1006 -0.3110
 9574W        W19267   8.600   3.356  11.676  0.1215 -0.1506  0.0874
 9575W        W19268  11.106   1.962   5.652 -0.2652 -0.0947  0.1117
 9576W        W19269   9.105   1.923   3.549  0.0323  0.2395  0.2514
 9577W        W19270   8.848   5.448   2.312  0.0305  0.0896  0.2126
 9578W        W19271  13.002  11.039   4.572 -0.0295  0.0680 -0.1093
 9579W        W19272   2.732   1.540  12.648 -0.1332 -0.0772 -0.0991
 9580W        W19273   7.837  17.812   2.723 -0.2906 -0.0547  0.1880
 9581W        W19274   2.450   3.621  16.977  0.0528 -0.0393  0.0026
 9582W        W19275  13.830  12.792  14.550 -0.0362  0.2458 -0.0058
 9583W        W19276   5.868  11.624   5.987 -0.0323 -0.1151 -0.2078
 9584W        W19277   4.317  10.716  13.989  0.1973 -0.0052  0.3206
 9585W        W19278  15.084   8.225  11.182  0.2726  0.3911  0.2906
 9586W        W19279  12.434   1.810   2.146  0.0739 -0.2892 -0.1118
 9587W        W19280   4.917   8.489   3.477 -0.1733  0.0798  0.1021
 9588W        W19281  15.761   6.548   5.544  0.2401 -0.0335  0.3344
 9589W        W19282  16.657   7.418   1.044 -0.2460 -0.1218  0.1269
 9590W        W19283   9.164   4.616  13.130  0.0106  0.1692  0.0174
 9591W        W19284   6.777   5.892  14.983 -0.0979 -0.1113 -0.0885
 9592W        W19285   7.842  15.065  12.913 -0.1057 -0.0168  0.0729
 9593W        W19286  16.078   0.065  16.902 -0.0249 -0.1145 -0.0230
 9594W        W19287   7.768   5.470  16.678 -0.1985  0.1787 -0.2830
 9595W        W19288  16.525  14.715   2.703 -0.1638  0.0949  0.1920
 9596W        W19289   3.621   2.993   2.833  0.0226  0.2803 -0.0220
 9597W        W19290   5.463   0.325   3.409 -0.0496 -0.2773  0.1721
 9598W        W19291   7.176   9.257  16.878 -0.3336 -0.1602 -0.3268
 9599W        W19292   7.813   4.918  15.084  0.0812 -0.0541  0.2228
 9600W        W19293   5.892   8.323   0.671 -0.3528  0.0885 -0.5468
 9601W        W19294  13.686   5.055   0.516 -0.0097 -0.0999  0.0225
 9602W        W19295   8.894   5.095  15.623 -0.2404 -0.1646  0.2763
 9603W        W19296  12.707  17.657  15.100  0.0509  0.0183  0.0900
 9604W        W19297   9.349  14.036  14.898  0.0434 -0.2385 -0.0924
 9605W        W19298   4.218   4.132  16.948  0.0858 -0.3918  0.1014
 9606W        W19299   3.628   4.977   4.075  0.0022  0.3035 -0.3108
 9607W        W19300   5.564   4.603   2.486  0.0798 -0.0572 -0.1043
 9608W        W19301   9.636  15.774  15.912  0.2371  0.0339  0.0138
 9609W        W19302   6.240   0.039   3.389  0.0841 -0.2983 -0.2415
 9610W        W19303  13.346   8.851   2.693 -0.2326  0.1512  0.1066
 9611W        W19304   8.702   0.478  14.853 -0.5235  0.0590  0.1977
 9612W        W19305   9.222  17.950  10.937  0.2636 -0.1241 -0.3574
 9613W        W19306   6.445  12.233  11.144 -0.1987 -0.1670 -0.1556
 9614W        W19307  12.609   3.038   0.054  0.1937 -0.1195  0.3172
 9615W        W19308  12.446  13.950  15.333  0.2394 -0.0934 -0.2953
 9616W        W19309   8.727   3.915  12.237 -0.0546 -0.0736 -0.4889
 9617W        W19310   6.242  14.343  11.440 -0.1921  0.1402  0.1776
 9618W        W19311   4.948   1.144   0.979 -0.2074 -0.0600  0.0781
 9619W        W19312   4.449  17.333   2.256  0.1029 -0.1358 -0.0524
 9620W        W19313   9.191  11.659  11.547 -0.0427 -0.1350 -0.1771
 9621W        W19314  11.516   3.756  15.812 -0.0070  0.0229  0.2380
 9622W        W19315   3.276   2.202   5.535  0.1345  0.0551 -0.0590
 9623W        W19316   2.512   9.147  15.888 -0.0262 -0.0445  0.0528
 9624W        W19317   1.935  10.570  14.547 -0.3338 -0.0210 -0.1639
 9625W        W19318  11.138  16.573  13.723  0.1682 -0.3141 -0.1533
 9626W        W19319  10.519   2.037  12.726 -0.0825  0.0167  0.0755
 9627W        W19320  11.089   8.557  12.330  0.2787  0.0812 -0.0892
 9628W        W19321   2.339   1.344   4.256 -0.1531  0.4557 -0.2899
 9629W        W19322  14.617   9.068  14.075  0.1834 -0.0935 -0.2087
 9630W        W19323   5.680   8.129  13.980 -0.3581  0.1757 -0.0101
 9631W        W19324   3.703   3.769  14.020 -0.0148  0.1508  0.0271
 9632W        W19325  11.898   5.259   3.193  0.2601 -0.0324 -0.1975
 9633W        W19326   2.763  10.687  16.987 -0.0622 -0.0834  0.3436
 9634W        W19327   8.559   4.898  14.609  0.0149 -0.1884 -0.0832
 9635W        W19328  16.267  14.455   2.313  0.1360 -0.0087 -0.0147
 9636W        W19329   3.232   0.821   3.256 -0.1915  0.2099 -0.3548
 9637W        W19330  14.991   8.490   1.484 -0.0046 -0.1683  0.1035
 9638W        W19331  15.635   0.331   3.647  0.0903 -0.1137 -0.0739
 9639W        W19332   6.408  13.808  12.529 -0.0399 -0.1133  0.0406
 9640W        W19333   8.063   8.612   2.691  0.0094  0.1350  0.0278
 9641W        W19334   9.389  15.402   4.431  0.0295 -0.1549  0.0041
 9642W        W19335  16.993  12.758  16.162  0.1999 -0.1274 -0.1362
 9643W        W19336   3.748   6.528   3.244  0.3767 -0.0437  0.0808
 9644W        W19337   8.946   3.362   3.890 -0.5346 -0.0627 -0.0146
 9645W        W19338   3.735  10.749   1.561  0.3993 -0.0837  0.4776
 9646W        W19339   9.916  14.121   0.092  0.4339  0.0867 -0.3093
 9647W        W19340   9.032  16.536   6.082  0.0679  0.2290 -0.3016
 9648W        W19341   4.608   7.901   7.025 -0.0513 -0.2497  0.1885
 9649W        W19342  16.358   3.273   3.393 -0.0715  0.1113  0.0771
 9650W        W19343  10.383   3.148   3.068 -0.1600 -0.1976  0.0048
 9651W        W19344   9.005   3.316  16.916  0.2354 -0.2036 -0.0633
 9652W        W19345  17.685   8.407  13.092  0.0474 -0.2550  0.0077
 9653W        W19346   3.943   2.090  15.230 -0.1059  0.0538  0.0813
 9654W        W19347   7.082   5.211   3.430 -0.0926 -0.0418 -0.0530
 9655W        W19348  11.503  12.996  16.366  0.2823  0.1919  0.0443
 9656W        W19349  11.437   5.242   2.979 -0.4716 -0.2625 -0.2103
 9657W        W19350  11.720   7.010   2.571 -0.0730  0.4227  0.4172
 9658W        W19351  17.408   6.466   3.747  0.2272  0.2096 -0.3894
 9659W        W19352  10.913   3.137   3.181 -0.2787 -0.0483  0.4698
 9660W        W19353  11.652   3.995  14.900 -0.1189  0.0212  0.1632
 9661W        W19354   7.358   2.007  12.359 -0.0777 -0.0345 -0.2300
 9662W        W19355   5.637  11.390  15.713  0.1048  0.1616  0.0236
 9663W        W19356   7.035   5.418   5.359  0.1057  0.0685  0.1513
 9664W        W19357  10.095  17.708   4.508  0.2957 -0.2000 -0.2515
 9665W        W19358   2.174  17.629  15.061  0.2233 -0.2948  0.0177
 9666W        W19359   5.632   0.170  15.761  0.1804  0.0665 -0.0673
 9667W        W19360   8.496  12.700  15.595  0.3955  0.4186 -0.2362
 9668W        W19361  12.080   6.303  11.744 -0.3116 -0.1233  0.1069
 9669W        W19362   7.984  17.353  16.173  0.1989  0.1562  0.0076
 9670W        W19363   7.778  12.619  14.126 -0.1463 -0.3855  0.0933
 9671W        W19364   1.740   5.967   2.384 -0.1524 -0.1663 -0.1426
 9672W        W19365   3.536   1.689   5.739  0.2095 -0.1559  0.0628
 9673W        W19366   5.438  13.364   0.029  0.3808  0.0721  0.0033
 9674W        W19367   5.652  14.654  14.704  0.0903 -0.1420  0.2583
 9675W        W19368   4.492   8.892   4.286 -0.3013 -0.0717 -0.1342
 9676W        W19369  12.421   5.680  12.886  0.2418 -0.0245  0.3175
 9677W        W19370   8.746   7.742   3.395  0.1761  0.3593 -0.2690
 9678W        W19371   7.604  13.767   2.688  0.0781  0.0498  0.2303
 9679W        W19372   0.426   3.175  14.742 -0.0568  0.2790 -0.3843
 9680W        W19373   8.182  12.564  14.428  0.0333  0.1623  0.0578
 9681W        W19374  17.813  15.616  16.122  0.3641 -0.0716  0.1319
 9682W        W19375   7.939   3.643   3.267  0.1204 -0.1168  0.0546
 9683W        W19376   8.213  14.587   3.890 -0.0467 -0.2347  0.5022
 9684W        W19377  11.971  17.152   1.315  0.1377  0.0881 -0.0181
 9685W        W19378  14.561   9.804   5.596 -0.1482  0.2565 -0.0570
 9686W        W19379   4.928   3.636   3.664  0.0513  0.2553 -0.1452
 9687W        W19380   3.590   9.442  14.675 -0.2009 -0.0655 -0.5751
 9688W        W19381   8.126  13.182   5.794 -0.1130  0.0017  0.0653
 9689W        W19382   5.853   9.875  12.607  0.1969 -0.1547 -0.1036
 9690W        W19383   0.585   6.982  16.436 -0.0249  0.0916  0.0511
 9691W        W19384   2.304  16.879   5.112 -0.0152  0.3695  0.0780
 9692W        W19385   8.457  11.059   4.376 -0.3984  0.0555  0.1281
 9693W        W19386   7.703  17.185  11.957  0.0784  0.0765 -0.0409
 9694W        W19387   9.596   7.393   1.797 -0.2685  0.2159 -0.1240
 9695W        W19388   3.967  11.119   1.130  0.1768  0.0887  0.0746
 9696W        W19389   2.602  10.154  12.593 -0.2788 -0.1225 -0.1120
 9697W        W19390   2.728   7.145   3.503 -0.2474  0.1305  0.3762
 9698W        W19391   5.943   2.020  12.568 -0.2184  0.3212 -0.1246
 9699W        W19392  16.362   6.785   3.788  0.2581 -0.1654 -0.0374
 9700W        W19393  12.490  17.222   3.468 -0.0216  0.4291 -0.0906
 9701W        W19394  11.545  15.114   4.826  0.2264 -0.0014  0.2179
 9702W        W19395   2.550   7.650  14.369 -0.0680  0.1913 -0.1146
 9703W        W19396   7.465   8.587  13.384  0.1216  0.0010 -0.1069
 9704W        W19397   1.491  13.476   3.334  0.3042 -0.2114  0.0811
 9705W        W19398   1.041  13.279   2.448  0.2648 -0.2506 -0.0608
 9706W        W19399  15.217   7.151  15.909 -0.1386  0.2362  0.0764
 9707W        W19400   4.614   4.994  13.243 -0.0514 -0.0297  0.1186
 9708W        W19401  14.314   9.188  13.288 -0.0396 -0.1572 -0.2090
 9709W        W19402   3.799  10.549   6.236 -0.0318  0.0387 -0.3850
 9710W        W19403  13.179   7.667   2.115 -0.1958 -0.1708 -0.0398
 9711W        W19404   3.415   3.033   4.139  0.0865 -0.0052 -0.1620
 9712W        W19405  14.932  14.185  16.617 -0.0070 -0.1000 -0.1355
 9713W        W19406  16.783   3.175   1.016 -0.1730  0.0595 -0.0881
 9714W        W19407   8.694  11.429   5.524 -0.0341  0.0777 -0.0050
 9715W        W19408   3.067   7.186  13.715 -0.0778  0.0881 -0.0389
 9716W        W19409  14.952   8.717  16.292  0.0897  0.1723  0.0843
 9717W        W19410   4.070   0.582  16.386  0.1182  0.0067 -0.2654
 9718W        W19411  17.848  16.951   4.670 -0.1635  0.1749  0.0553
 9719W        W19412   3.140   0.958  13.466  0.2443  0.0438  0.0794
 9720W        W19413   6.453   6.299  13.697 -0.2553  0.4106  0.0475
 9721W        W19414   5.443   6.729   2.084  0.2791 -0.2742  0.4357
 9722W        W19415  14.662   0.327  16.724  0.0381 -0.2214 -0.1930
 9723W        W19416   6.927   6.699   1.581 -0.2846 -0.1015  0.0069
 9724W        W19417   8.504  14.938  14.393  0.0666  0.0604 -0.0565
 9725W        W19418   4.781  10.982   3.994 -0.0774  0.0118 -0.0282
 9726W        W19419   4.444   7.697  16.402 -0.0468  0.2031  0.0242
 9727W        W19420   3.590  15.811  12.720  0.0158  0.0020  0.1194
 9728W        W19421  14.406  10.964   5.263 -0.2619  0.1355 -0.1527
 9729W        W19422   1.054  13.066   0.016 -0.0286  0.1258  0.2464
 9730W        W19423   6.112   5.288   4.092  0.4536 -0.0327 -0.1109
 9731W        W19424   7.391   8.321   3.847  0.0508 -0.2403 -0.1886
 9732W        W19425  10.355   7.763   6.604  0.1743  0.0981  0.0970
 9733W        W19426   5.226   6.504  17.027  0.1697 -0.2049 -0.3023
 9734W        W19427   3.796   2.981   3.696  0.0054 -0.4000  0.0496
 9735W        W19428   6.318   5.192   2.228 -0.2296 -0.1186 -0.2057
 9736W        W19429   6.578   3.178  12.915  0.1467 -0.1446 -0.2259
 9737W        W19430   0.306   4.116   1.156 -0.3063 -0.0448  0.2540
 9738W        W19431  16.648  16.172   2.492  0.2566 -0.1144  0.2009
 9739W        W19432   2.847  15.318  13.881 -0.0826 -0.0327 -0.1290
 9740W        W19433   2.417  13.983   1.544 -0.4084  0.0408  0.1359
 9741W        W19434   2.384   8.835   1.058 -0.2374 -0.0661  0.0087
 9742W        W19435  11.559  17.164   3.360  0.2652 -0.1109 -0.0804
 9743W        W19436   2.959   0.324   1.377 -0.2263 -0.0117 -0.1754
 9744W        W19437   4.071   3.508   4.457  0.0098 -0.2018 -0.3137
 9745W        W19438   5.992  14.129   1.904  0.1115 -0.0072 -0.2568
 9746W        W19439   1.606  13.657   5.722  0.1224  0.2671 -0.1124
 9747W        W19440   3.749   7.985   4.149 -0.2345 -0.0861 -0.0311
 9748W        W19441   2.787  11.472  16.332 -0.0417 -0.0957  0.2115
 9749W        W19442   0.110   9.022  12.389  0.2660 -0.2168 -0.2372
 9750W        W19443   7.827   7.196   1.473  0.0982 -0.1127 -0.0227
 9751W        W19444   3.911  15.732   1.741  0.2089 -0.2639 -0.1822
 9752W        W19445   5.630  11.465   0.914  0.2315  0.1126  0.0269
 9753W        W19446   4.649   2.037   5.231  0.0315 -0.2995  0.0719
 9754W        W19447  12.518   6.963   1.816 -0.1664 -0.2391  0.2770
 9755W        W19448   5.590   9.021   3.502 -0.0842  0.0719 -0.0108
 9756W        W19449   3.260   5.556  13.068 -0.0859  0.2353 -0.2797
 9757W        W19450  15.459   2.822  16.962  0.0662 -0.3147  0.0109
 9758W        W19451   1.363   1.855   4.387 -0.0319 -0.1046 -0.0607
 9759W        W19452   3.060  11.038   5.847 -0.3364  0.0301  0.1123
 9760W        W19453   5.464   6.297  15.811 -0.1792  0.1758 -0.1417
 9761W        W19454   5.682   0.171  13.451  0.0265 -0.0234  0.0304
 9762W        W19455   2.775  16.173  14.504  0.1246  0.2700  0.0856
 9763W        W19456   8.008   6.060  13.685 -0.0838  0.2705  0.1209
 9764W        W19457   2.263   5.268  14.708 -0.1253 -0.1731 -0.2114
 9765W        W19458   1.008   9.334   0.082  0.0134  0.2584  0.1091
 9766W        W19459   8.023   5.058   6.002 -0.1065  0.3367  0.1165
 9767W        W19460   8.021   3.775   5.381  0.0598  0.0176  0.0449
 9768W        W19461   1.888   3.423   3.449 -0.1892  0.1287  0.1503
 9769W        W19462  12.228   0.017   4.434  0.1109 -0.1489  0.0043
 9770W        W19463   1.007   7.017  12.363  0.0444 -0.3198 -0.3397
 9771W        W19464   6.116  12.106  12.826  0.0284  0.0668 -0.1388
 9772W        W19465   1.047   6.742  15.621  0.1140 -0.1598 -0.3192
 9773W        W19466   9.348   3.877   5.106  0.0110 -0.3521  0.4302
 9774W        W19467   3.561   4.795   2.446  0.0427 -0.1216 -0.1242
 9775W        W19468  15.788   1.225   2.641  0.1943  0.0671 -0.4290
 9776W        W19469   5.488   5.229  13.343  0.0031 -0.1318 -0.2328
 9777W        W19470  10.902   7.323   4.789 -0.0719  0.3164 -0.2590
 9778W        W19471   6.638  17.271  13.681  0.3150 -0.2480  0.0804
 9779W        W19472  17.709   4.540  11.648 -0.0030 -0.0715  0.4011
 9780W        W19473   1.345  17.649  14.419  0.0340 -0.1800 -0.2325
 9781W        W19474   0.486   2.929   3.567 -0.1109 -0.0450 -0.0016
 9782W        W19475   5.452   6.236   2.187 -0.0667  0.0198 -0.0345
 9783W        W19476   0.533   5.727   4.258 -0.0513 -0.0611  0.1687
 9784W        W19477  10.480   3.638  13.085  0.2281 -0.2306 -0.3823
 9785W        W19478   6.072   4.813  12.841  0.2351 -0.1272  0.1461
 9786W        W19479   4.767   5.889  15.596  0.0045 -0.2034  0.0447
 9787W        W19480  14.754   0.454  15.989  0.0851 -0.0693  0.3529
 9788W        W19481   1.469   9.018   6.456 -0.3391 -0.0519  0.0040
 9789W        W19482   6.618   4.148   0.026 -0.1299  0.1095 -0.1063
 9790W        W19483   6.714  15.649   5.505  0.2123  0.0416  0.0363
 9791W        W19484   4.094   7.545   0.596 -0.0351  0.0012 -0.2857
 9792W        W19485   0.921  13.410   4.923  0.3233  0.1903  0.1603
 9793W        W19486   7.125   9.563   2.533 -0.1913 -0.3316 -0.2472
 9794W        W19487   9.568  10.497   5.338  0.0389  0.0392  0.1444
 9795W        W19488  11.120   3.087  16.938 -0.0276  0.1452 -0.1579
 9796W        W19489   6.056  11.400   3.335  0.3254  0.4065 -0.1531
 9797W        W19490   7.164   7.628  16.335  0.0652 -0.4741 -0.2030
 9798W        W19491   1.145   7.116  13.896  0.3100  0.2820  0.5879
 9799W        W19492   2.979   8.638  15.198 -0.1449  0.0790 -0.2354
 9800W        W19493   4.918  10.795  15.968  0.2485 -0.1680 -0.0745
 9801W        W19494   7.365   8.148  13.208  0.0571  0.2069 -0.1736
 9802W        W19495   2.041  14.552  16.405  0.1816 -0.1188 -0.3243
 9803W        W19496   8.893   4.990   4.458  0.0066 -0.1102  0.1047
 9804W        W19497   7.794  10.249  14.136 -0.0983  0.1431 -0.2007
 9805W        W19498  14.752  13.989   4.702 -0.0955  0.2019 -0.1367
 9806W        W19499   6.361   1.154   5.277 -0.0812  0.1409  0.1252
 9807W        W19500   6.428  14.104  14.662  0.0371  0.0742 -0.0211
 9808W        W19501   1.364  10.620   2.492 -0.3028  0.0854  0.0446
 9809W        W19502  10.272  17.440  13.581  0.1602  0.0575  0.1567
 9810W        W19503   7.489   9.127  14.375  0.0805  0.0630  0.2765
 9811W        W19504   7.005  15.586  14.356 -0.0330 -0.0849 -0.1418
 9812W        W19505   5.641   8.285  15.860 -0.4555  0.0335 -0.2568
 9813W        W19506  11.658   8.969   0.131  0.1507  0.0374 -0.0488
 9814W        W19507   7.008  13.949   1.105  0.2280 -0.1517 -0.3859
 9815W        W19508   9.282  11.852   6.537 -0.1124  0.0194 -0.0369
 9816W        W19509   0.270  12.562   0.369  0.0450 -0.1442  0.2455
 9817W        W19510   3.905  12.433  12.014 -0.0524 -0.5454  0.0249
 9818W        W19511  12.361  16.111   1.533  0.1183  0.1353  0.2324
 9819W        W19512   0.604   0.931   3.233  0.2457 -0.0272 -0.2020
 9820W        W19513  16.110   3.854   2.970 -0.0029 -0.3121  0.0389
 9821W        W19514   4.118   6.405   2.370  0.0895 -0.0641 -0.1140
 9822W        W19515   9.438   6.648   4.709  0.0936  0.0287 -0.1052
 9823W        W19516   1.851   2.107  11.402 -0.1833 -0.0614  0.0811
 9824W        W19517   4.781  11.368   0.577  0.4048  0.0763  0.0769
 9825W        W19518   5.311  13.650   3.240 -0.2077  0.0737 -0.0903
 9826W        W19519   4.721   6.370   1.829  0.2134  0.1654 -0.2292
 9827W        W19520   4.781  14.656  12.293  0.1449  0.1178  0.1212
 9828W        W19521   6.496   0.770   5.741 -0.0773  0.1185 -0.2593
 9829W        W19522  10.193  14.249   2.735 -0.1582 -0.0052 -0.0435
 9830W        W19523  17.248   7.320  11.724  0.0296  0.0179 -0.2609
 9831W        W19524   7.786  16.894   5.169 -0.0922 -0.0602  0.1202
 9832W        W19525   5.659  12.607   5.519 -0.1599 -0.1842  0.0146
 9833W        W19526   4.719  12.937   0.646 -0.2160  0.0178 -0.0596
 9834W        W19527   0.716  17.203   4.806 -0.0233 -0.2677 -0.0694
 9835W        W19528   5.204   3.251   1.898  0.4241 -0.0479  0.0929
 9836W        W19529   3.530  17.403   2.773 -0.0705  0.1923 -0.1039
 9837W        W19530  10.900  12.689  15.010  0.3364  0.1019  0.0083
 9838W        W19531   8.588  16.814   4.188  0.0440  0.0454 -0.3008
 9839W        W19532   2.539   6.380  16.172  0.0038 -0.0096 -0.0138
 9840W        W19533   2.984  17.599  15.043  0.1945 -0.0423 -0.1985
 9841W        W19534   1.742   7.086   4.182 -0.1041  0.1498  0.0531
 9842W        W19535  11.333   2.735   3.328 -0.3486 -0.1202  0.0747
 9843W        W19536   4.415   3.725  15.942 -0.0032 -0.0108  0.2568
 9844W        W19537   0.397   8.370  13.783 -0.2217 -0.0452 -0.0684
 9845W        W19538  11.961  11.672   5.704 -0.1158 -0.0382 -0.1931
 9846W        W19539   5.799   2.076   0.111  0.3653  0.0813 -0.2884
 9847W        W19540  17.872  10.595   2.704 -0.0355  0.0789 -0.0212
 9848W        W19541   9.932  15.334   3.043 -0.1293  0.1552  0.2329
 9849W        W19542   3.916   7.947   1.588  0.1525  0.2405  0.2075
 9850W        W19543   6.454  15.492  12.408 -0.1493 -0.1674 -0.0094
 9851W        W19544  11.145   3.711  16.198 -0.1116  0.0292 -0.0730
 9852W        W19545   9.091  15.162  16.083  0.2059 -0.0705 -0.1054
 9853W        W19546  17.497   3.868   5.967  0.1672  0.0890 -0.2990
 9854W        W19547   3.284  15.876  15.193 -0.0459  0.1907  0.0349
 9855W        W19548   5.870  15.514   4.200  0.1030 -0.2014 -0.2936
 9856W        W19549   0.354  16.965   4.424 -0.0414  0.3155 -0.3435
 9857W        W19550  14.262  13.580  12.336  0.0941  0.0700 -0.3663
 9858W        W19551   5.487  15.175  13.280 -0.0768 -0.1158  0.0446
 9859W        W19552   7.108  12.301   3.113 -0.0979 -0.0597 -0.0704
 9860W        W19553   5.865   8.720   0.046 -0.0935 -0.2815  0.1770
 9861W        W19554   7.366   4.584  16.733 -0.0663 -0.0837 -0.0156
 9862W        W19555   6.241   1.226   0.863 -0.0463 -0.0215 -0.1483
 9863W        W19556   5.169   1.283  13.147 -0.0490 -0.0061 -0.1936
 9864W        W19557   1.796  15.654   2.791  0.0535  0.1409 -0.0773
 9865W        W19558   6.306   3.575   0.805  0.3359 -0.0416 -0.1120
 9866W        W19559  17.021   7.122   6.229 -0.0457 -0.0187  0.0528
 9867W        W19560  13.127   5.701  12.443 -0.2622  0.3027  0.1756
 9868W        W19561   6.434  13.881  13.672  0.2562  0.1748  0.1672
 9869W        W19562   8.361  14.135   0.624  0.3129 -0.1196 -0.0659
 9870W        W19563  10.653  15.192  12.014 -0.3034 -0.2740  0.0612
 9871W        W19564  12.101   6.606  13.761  0.0521  0.0031 -0.1960
 9872W        W19565   5.923   4.559  16.459 -0.1269 -0.1541 -0.1172
 9873W        W19566   2.636   1.501  14.613  0.3128 -0.1623  0.1237
 9874W        W19567  16.592  11.202  16.562  0.0453 -0.0176 -0.2164
 9875W        W19568   6.963   5.675   5.790 -0.2222 -0.1803 -0.3253
 9876W        W19569   4.104   8.751   0.179  0.0878 -0.0744 -0.0735
 9877W        W19570   8.462   3.819  11.763 -0.1082  0.1105 -0.1340
 9878W        W19571   0.878  17.391  13.296  0.0596  0.0493  0.1895
 9879W        W19572   2.355   8.830  13.470  0.1336  0.0125 -0.0645
 9880W        W19573  12.090  15.798  16.852  0.0094  0.0556 -0.0705
 9881W        W19574  10.793   4.028   1.302  0.1170 -0.1972  0.0106
 9882W        W19575   3.263  16.244  12.826  0.0316  0.1637 -0.0703
 9883W        W19576   4.622  11.834  11.717  0.3032 -0.2111 -0.2317
 9884W        W19577   1.703   9.995   6.048 -0.4961  0.3135 -0.2296
 9885W        W19578   4.154  10.363  10.883 -0.0012 -0.3923 -0.2326
 9886W        W19579   3.215  12.910  15.107  0.0978 -0.0013  0.0793
 9887W        W19580  15.660  11.748   4.764 -0.1651 -0.3043  0.1084
 9888W        W19581   4.579   4.943  15.933  0.1986 -0.2463 -0.2269
 9889W        W19582   1.181  17.210  14.200  0.1650 -0.3587 -0.0281
 9890W        W19583   3.780   9.575   5.992 -0.0158  0.1929 -0.3135
 9891W        W19584   3.529  17.279   4.472  0.3425 -0.0835 -0.2224
 9892W        W19585  17.938  16.500   1.014 -0.1420  0.4500  0.0581
 9893W        W19586   5.983   2.142  16.749 -0.3961  0.0403 -0.1048
 9894W        W19587   0.985   1.900   3.410  0.2647 -0.2449 -0.1521
 9895W        W19588   3.916  15.161   3.904  0.0310 -0.1795  0.0570
 9896W        W19589  10.018  14.778   4.892  0.1089 -0.1590  0.1815
 9897W        W19590  16.847   0.626   2.496 -0.4237 -0.0734  0.3096
 9898W        W19591  14.792   2.089   0.690 -0.1284 -0.4213  0.0295
 9899W        W19592   5.509  10.254  16.554 -0.0414  0.1535 -0.4256
 9900W        W19593   6.614   9.203   4.537 -0.0600 -0.1317 -0.1822
 9901W        W19594  13.485  15.366  14.609  0.2256  0.4337  0.1488
 9902W        W19595  11.620   1.700  11.674 -0.0689  0.0966 -0.0386
 9903W        W19596   8.723  14.201  13.169 -0.1694 -0.0091  0.1603
 9904W        W19597   1.821  14.525   1.492  0.1635  0.1610  0.1219
 9905W        W19598  11.153  13.565  14.863  0.0880  0.1712 -0.0869
 9906W        W19599   6.691   0.474   6.170  0.0095  0.0879 -0.1412
 9907W        W19600  10.997   5.880  15.518 -0.2256 -0.0738 -0.0396
 9908W        W19601   3.120   8.835   5.216  0.1639  0.0474  0.2609
 9909W        W19602  13.224   5.794  14.793 -0.2330 -0.0310 -0.0925
 9910W        W19603   7.712  11.123   1.678  0.0409 -0.2390 -0.1479
 9911W        W19604   5.021  11.537   2.713 -0.0877 -0.0446  0.0680
 9912W        W19605   2.206   7.107  12.847 -0.1607 -0.1632 -0.2003
 9913W        W19606   9.237  13.364  15.648 -0.1830  0.1055  0.0644
 9914W        W19607   6.674  12.960  16.678  0.3535 -0.1556 -0.2789
 9915W        W19608   4.135  13.907  11.974  0.1335  0.2978  0.0326
 9916W        W19609   5.030   5.637  16.981  0.3202  0.2192 -0.2935
 9917W        W19610  11.211  17.160  16.781 -0.1621  0.2118  0.1900
 9918W        W19611  12.261   8.396  15.041 -0.2411  0.0950 -0.1336
 9919W        W19612   0.626  11.916  13.979 -0.0819  0.3130  0.1293
 9920W        W19613  11.224   2.091  14.632 -0.2135  0.1166  0.0948
 9921W        W19614   5.458   6.568   0.335 -0.2391  0.0263 -0.0652
 9922W        W19615   5.375   4.394   4.886 -0.4914 -0.1407 -0.0524
 9923W        W19616  11.202   4.228   3.778  0.1579  0.4888 -0.4610
 9924W        W19617  10.534  16.069  13.447 -0.0093  0.4826 -0.0521
 9925W        W19618  17.029   4.323   2.785  0.0488  0.1001  0.2939
 9926W        W19619  13.208  14.471   5.882 -0.0745  0.3765  0.0080
 9927W        W19620   8.372   4.352   1.607  0.0634  0.3657  0.2012
 9928W        W19621   7.923  15.349  10.899  0.2706  0.0284  0.1145
 9929W        W19622  15.409  10.626   3.648  0.3623  0.1035  0.1095
 9930W        W19623   8.383   3.785  13.972  0.3349  0.3152  0.0398
 9931W        W19624   3.868   7.743   1.129 -0.2034 -0.2139 -0.0405
 9932W        W19625   1.738  17.712   5.632 -0.1437  0.0619  0.2165
 9933W        W19626   4.441  14.498   0.947 -0.0096  0.1426  0.3458
 9934W        W19627   3.933  11.968  16.493 -0.1054  0.1057  0.1081
 9935W        W19628  12.501   3.568   2.137  0.3192  0.1636  0.1732
 9936W        W19629   5.833   8.248  14.427 -0.1393 -0.1393  0.1876
 9937W        W19630   9.551  16.642  14.812 -0.1731  0.0899 -0.0059
 9938W        W19631  17.417   7.352  12.362 -0.0412  0.1718  0.0285
 9939W        W19632   4.271  11.326   0.788  0.1390  0.2995  0.3547
 9940W        W19633   6.111   3.869  15.906  0.1854  0.0770 -0.0324
 9941W        W19634   5.662  16.046  12.900  0.0690 -0.2073  0.6034
 9942W        W19635   4.722  17.693   3.048  0.1817 -0.1793 -0.2785
 9943W        W19636   9.320  17.600   2.234 -0.0737 -0.0392  0.2285
 9944W        W19637  17.494  15.902  13.450 -0.0568  0.0716  0.1379
 9945W        W19638   7.194  16.070  15.039 -0.1612  0.1280  0.0512
 9946W        W19639   5.553   7.968  13.540  0.1176  0.2581 -0.0577
 9947W        W19640  16.774  12.218  16.403  0.0554 -0.0872  0.1597
 9948W        W19641   5.688   8.681   3.083  0.0878 -0.0670 -0.5031
 9949W        W19642   6.939   7.748  15.393  0.3102 -0.0768  0.3306
 9950W        W19643  17.133   4.145  16.995  0.4741  0.0733 -0.2953
 9951W        W19644   1.163  12.050   2.488  0.1248  0.1550 -0.1218
 9952W        W19645  15.519   3.238  10.092  0.1460  0.3809  0.0344
 9953W        W19646   5.099   5.556   5.307 -0.2439 -0.1415 -0.0328
 9954W        W19647   8.494   8.812  16.897 -0.1015 -0.2739  0.0842
 9955W        W19648  16.218   5.236   0.956 -0.0965 -0.1325  0.0054
 9956W        W19649   3.771   7.306   0.196  0.0131 -0.0575 -0.2914
 9957W        W19650   3.488  10.621   4.990 -0.2114 -0.4203 -0.1166
 9958W        W19651  11.649   9.316  13.391  0.0400  0.1287  0.0194
 9959W        W19652   4.577   9.349  16.601  0.1997 -0.4855  0.2940
 9960W        W19653  15.207   7.201   0.047  0.1374  0.0592 -0.2555
 9961W        W19654  12.197  10.615   0.862 -0.2220 -0.0754 -0.2323
 9962W        W19655  11.294  12.817  12.881 -0.0088 -0.1404 -0.1298
 9963W        W19656  15.143  10.144  15.261 -0.1309 -0.1639  0.0113
 9964W        W19657   4.345   0.198   5.893 -0.0780  0.0290  0.2749
 9965W        W19658  10.706  10.115  13.796 -0.0730  0.1257  0.0205
 9966W        W19659  16.525  17.710  11.293 -0.3087 -0.1629  0.2345
 9967W        W19660  17.849  13.874  16.143  0.0776  0.0799  0.0850
 9968W        W19661   4.287  13.861   1.711 -0.0552  0.1185 -0.1624
 9969W        W19662   3.020  16.401  15.550  0.1596  0.0622  0.0915
 9970W        W19663  15.123   1.942  15.843  0.2040 -0.0495  0.1384
 9971W        W19664   7.998   1.139   2.291 -0.2052 -0.0006  0.0299
 9972W        W19665  12.416   2.868   1.097  0.0751 -0.0956  0.0549
 9973W        W19666   4.151   3.983   4.631 -0.2390  0.0991  0.1886
 9974W        W19667   5.581  11.451  16.500  0.1198  0.1230  0.0092
 9975W        W19668  12.350   5.996   1.257  0.0276 -0.2100  0.1806
 9976W        W19669   5.660  17.661   2.833  0.1245 -0.1488 -0.0105
 9977W        W19670   1.208   2.701  15.313  0.3786 -0.3680  0.1215
 9978W        W19671   3.220   2.551   1.257 -0.2007 -0.0909  0.0739
 9979W        W19672  13.100  16.696   0.054 -0.0367 -0.0833 -0.1085
 9980W        W19673   9.780  13.128  15.054  0.1184  0.2299  0.0282
 9981W        W19674  13.063  14.453  15.558  0.0383 -0.1435 -0.0375
 9982W        W19675   7.491  16.258   1.445 -0.1467  0.1458  0.1454
 9983W        W19676   8.690   6.835  17.043 -0.0840  0.0385  0.0809
 9984W        W19677   0.489  14.950  11.879  0.0641  0.1533 -0.1379
 9985W        W19678  11.379   2.187  11.848 -0.2614  0.1423 -0.4018
 9986W        W19679  16.734  14.558  12.454  0.0124  0.0575 -0.0164
 9987W        W19680  13.030   2.469  12.957  0.1160 -0.0213 -0.0232
 9988W        W19681   5.243   2.813  13.373  0.0178  0.0522 -0.1104
 9989W        W19682   7.468   9.942  13.901 -0.0094 -0.0772  0.1620
 9990W        W19683   3.768  12.848  11.768  0.0054 -0.0347  0.0938
 9991W        W19684   0.549   4.682  14.700  0.1463 -0.2681  0.2056
 9992W        W19685   1.386   1.488  12.145 -0.1277  0.0669 -0.0806
 9993W        W19686   4.024   2.413  10.748 -0.0710  0.1663 -0.0012
 9994W        W19687  12.272  14.054  13.943 -0.1225 -0.1765  0.0853
 9995W        W19688   4.688  14.966  16.887  0.0794 -0.3028 -0.0417
 9996W        W19689   5.801  15.414  13.596  0.2024  0.1682  0.0141
 9997W        W19690   5.532   7.395  14.318  0.1109 -0.1487 -0.1970
 9998W        W19691  11.759   1.936  13.911 -0.0747 -0.0171 -0.0049
 9999W        W19692   7.410  13.224  11.442  0.2560  0.1255  0.0494
10000W        W19693   3.382  13.946   1.673 -0.0767 -0.2696  0.4724
10001W        W19694   8.278   6.465  12.929  0.1848 -0.0934 -0.1036
10002W        W19695   6.560  13.766  13.073  0.0522 -0.1481  0.1123
10003W        W19696   7.450  16.906  13.821 -0.0481 -0.1640 -0.0615
10004W        W19697   7.264  17.371   1.234 -0.0706  0.1043 -0.0375
10005W        W19698   9.199   7.924   3.769  0.0901 -0.2730 -0.0894
10006W        W19699   7.220   6.852   0.332  0.1800 -0.0465  0.0478
10007W        W19700   5.158  10.483  16.965  0.1991 -0.1535  0.2627
10008W        W19701   5.225   4.110   0.969  0.2578 -0.0316 -0.1301
10009W        W19702   0.613  12.643   2.954 -0.0988 -0.0318  0.0371
10010W        W19703   0.626   1.589  11.631  0.0920 -0.0148  0.0274
10011W        W19704  12.228  13.778  13.535 -0.1617  0.2353  0.1860
10012W        W19705   6.984  12.914   6.206  0.1376 -0.1639 -0.4745
10013W        W19706   4.657   7.066   6.681  0.0108  0.2288 -0.0422
10014W        W19707   2.497  14.552  16.226  0.1110  0.2553  0.0108
10015W        W19708   7.538  10.547   4.448 -0.0452  0.2205  0.0344
10016W        W19709  14.850   1.147   1.121 -0.0966  0.0569 -0.0453
10017W        W19710   8.452  15.281   0.312 -0.2700  0.2079  0.2437
10018W        W19711   4.184   4.941   4.886  0.3027 -0.2550 -0.1099
10019W        W19712  10.248  10.241  12.540  0.0847 -0.1064  0.1530
10020W        W19713   9.538  15.006   1.485 -0.1809  0.1483  0.2351
10021W        W19714   1.484  14.365   3.148  0.1213  0.1229 -0.1692
10022W        W19715  12.135  17.621   5.902  0.1541 -0.0287  0.0500
10023W        W19716   1.553  11.683   1.430  0.0596  0.0676 -0.1150
10024W        W19717  16.676   4.572   1.044 -0.0236 -0.2425  0.2038
10025W        W19718   0.691   0.487  11.279 -0.2214 -0.1138 -0.1108
10026W        W19719  14.026   2.416   4.312 -0.1681 -0.0372 -0.1745
10027W        W19720   2.080  10.863  13.536  0.0666 -0.0407 -0.2914
10028W        W19721   4.918   2.828   1.671  0.0164 -0.2539  0.3224
10029W        W19722   1.737   2.913  12.024  0.2557  0.0580  0.0373
10030W        W19723   2.520  15.305   3.992  0.1247  0.2118  0.1174
10031W        W19724   7.448   4.164   2.561  0.0691  0.1731  0.1007
10032W        W19725   7.397  12.849   1.405  0.1568  0.1170  0.0432
10033W        W19726   0.857  17.158   2.139  0.3135  0.2179  0.1206
10034W        W19727   6.387  15.132  16.097 -0.0579 -0.1640  0.1135
10035W        W19728   1.503   1.047   0.354 -0.0793  0.1035 -0.3079
10036W        W19729  10.682  17.047  11.917 -0.2768  0.1903  0.2581
10037W        W19730  17.475   1.981  13.035  0.0913 -0.1964 -0.2225
10038W        W19731  13.733   0.099  16.496  0.1995 -0.3089 -0.0071
10039W        W19732  17.656   0.521  14.779  0.1720  0.1763  0.0653
10040W        W19733   3.584   3.771   0.612  0.4903  0.0694 -0.1232
10041W        W19734   3.101  11.630   3.906 -0.0157 -0.0753 -0.0681
10042W        W19735   6.052   2.050   5.695  0.0656 -0.1409 -0.1975
10043W        W19736   7.725  12.968   5.628  0.2360 -0.1093 -0.1246
10044W        W19737   3.637  17.298  13.112 -0.1022 -0.3182  0.1794
10045W        W19738   6.846   9.351   3.471  0.0030  0.3799  0.1497
10046W        W19739   9.775  17.406  12.797  0.2634 -0.0054 -0.0269
10047W        W19740   4.719   2.955  11.701  0.2652 -0.2757 -0.0484
10048W        W19741  16.989   9.689  16.849  0.0156  0.3569 -0.1293
10049W        W19742   2.106  12.771  13.264  0.3587 -0.1818 -0.0023
10050W        W19743   2.418   6.432   4.337 -0.1490  0.2592  0.0496
10051W        W19744   1.118   6.182   5.601  0.0936 -0.0482  0.0148
10052W        W19745   3.447  10.470   0.754 -0.1277  0.0499  0.5168
10053W        W19746   6.876   8.706   2.761  0.0522  0.2158 -0.2654
10054W        W19747   9.094   6.853   3.458 -0.2169 -0.0721 -0.0129
10055W        W19748  13.626  14.860   4.726  0.2188 -0.0546 -0.2425
10056W        W19749   4.742   4.597   0.375  0.0033 -0.2640  0.3174
10057W        W19750  16.434   0.780   3.538 -0.0404  0.2652  0.0793
10058W        W19751   4.854  17.297  15.065  0.0217  0.0796  0.2151
10059W        W19752   2.696   7.833  17.088 -0.1500 -0.1669 -0.0347
10060W        W19753   9.042  13.391   4.870 -0.0728 -0.2857  0.3347
10061W        W19754   1.538  12.202  13.959  0.1599 -0.2454 -0.0063
10062W        W19755  17.619  13.820   4.702  0.0865 -0.2293 -0.3680
10063W        W19756   3.863   1.822   6.396  0.3093  0.2593 -0.0816
10064W        W19757   7.237  10.352  12.345  0.0999 -0.4148 -0.3338
10065W        W19758   4.697   0.375   4.455  0.0520  0.0251  0.0238
10066W        W19759  10.380  14.809   5.256 -0.1218 -0.0360 -0.0818
10067W        W19760   3.112  11.402  15.964 -0.3024  0.1096 -0.0491
10068W        W19761   5.283  12.782   4.613  0.0276  0.4946  0.0691
10069W        W19762   4.187   8.683   3.709 -0.1860 -0.0029  0.1335
10070W        W19763  10.013   4.329   0.408  0.1747  0.0912  0.1329
10071W        W19764   7.215  10.644  12.914  0.0695 -0.1118  0.1766
10072W        W19765   5.053  10.234   1.148  0.1726  0.2230 -0.0478
10073W        W19766  12.854  11.302   1.213 -0.1217 -0.1427  0.1093
10074W        W19767   0.123  13.808  16.969 -0.0095  0.1212  0.2020
10075W        W19768  14.296   4.035   1.692  0.0571 -0.0208 -0.1863
10076W        W19769   1.109   9.921   1.936  0.0066  0.1934 -0.0831
10077W        W19770   5.054   2.424   6.545  0.0971 -0.1532 -0.0496
10078W        W19771   3.704   4.022   6.053  0.1880 -0.3069  0.1789
10079W        W19772   3.371   4.376  16.430 -0.0368  0.1411 -0.1336
10080W        W19773  12.698  11.783   1.247  0.4328 -0.2200  0.0172
10081W        W19774   3.690  16.835  16.984  0.2244 -0.3639  0.2307
10082W        W19775   1.642   2.898   0.481  0.1279 -0.4365 -0.2994
10083W        W19776   3.472  11.381   5.832  0.0938  0.1014 -0.2947
10084W        W19777   9.015  13.695  14.903  0.2658  0.0224  0.2012
10085W        W19778  17.028   9.769   5.650 -0.1000  0.2489 -0.0094
10086W        W19779  11.622   8.333  11.630  0.0462 -0.0125  0.1013
10087W        W19780   4.833   5.446   4.397  0.1238 -0.0030  0.0398
10088W        W19781   7.144   9.770   4.134 -0.1102  0.0377  0.0313
10089W        W19782  10.995   0.475  11.656  0.1182 -0.2194 -0.0305
10090W        W19783  12.079  10.861  14.859 -0.1369  0.0643 -0.0762
10091W        W19784   9.818  13.515   1.931  0.1067 -0.0989 -0.1434
10092W        W19785  17.425  15.027  12.677  0.0658 -0.0432  0.0552
10093W        W19786  11.670   1.662   5.809  0.1175 -0.0845  0.1817
10094W        W19787   0.277  17.948   2.024 -0.0317  0.0408 -0.0549
10095W        W19788   2.544  14.258  12.194 -0.2293  0.2090  0.0829
10096W        W19789   8.404  11.108  12.637 -0.1303 -0.0491 -0.0425
10097W        W19790   7.704   5.769   1.783 -0.1118  0.0291  0.0819
10098W        W19791   0.610   4.152  17.097  0.1013 -0.1114 -0.0933
10099W        W19792  11.924   5.254   2.675 -0.0562 -0.1063 -0.2293
10100W        W19793  11.130  16.565   1.718  0.0457 -0.0194 -0.3191
10101W        W19794   8.778   9.027   3.471 -0.0587 -0.1849  0.0897
10102W        W19795   1.963  12.830   1.849 -0.1025 -0.2466 -0.1459
10103W        W19796  14.575   1.614  12.163 -0.2207  0.0217  0.1627
10104W        W19797   0.560   5.185  14.449 -0.0668 -0.0684  0.0821
10105W        W19798  12.038   7.836   1.852 -0.0792 -0.1822  0.4858
10106W        W19799   9.477  12.439  12.075  0.1461 -0.1968 -0.4009
10107W        W19800   5.911   3.038  16.799  0.0593  0.0482  0.1463
10108W        W19801  16.898  17.048  10.605  0.0246  0.3240 -0.0192
10109W        W19802   4.049   3.842   3.198 -0.2899 -0.0225  0.0040
10110W        W19803   7.666   9.769   1.123  0.1371 -0.0528  0.1839
10111W        W19804  17.548   9.626  11.463  0.2188  0.0347 -0.1019
10112W        W19805  10.740   8.472  15.749 -0.0264  0.1184 -0.2600
10113W        W19806   5.013  11.177   0.208  0.1077 -0.0750  0.0131
10114W        W19807  12.057   6.452   4.122 -0.0601 -0.0418 -0.2745
10115W        W19808  11.010  12.784   2.215 -0.2671  0.0607  0.0228
10116W        W19809   5.074   4.213   3.957 -0.2061 -0.3181 -0.0276
10117W        W19810  13.522  10.972   0.810 -0.1657 -0.1329 -0.2670
10118W        W19811   5.369  14.069   2.404 -0.3272 -0.2135  0.1150
10119W        W19812   8.819  14.102   6.590  0.0601 -0.0734 -0.0958
10120W        W19813   6.456   2.945   5.362  0.2589  0.4695 -0.3131
10121W        W19814   0.511  13.968   0.174 -0.0119 -0.0082 -0.3047
10122W        W19815  16.970  10.153   2.754  0.0656 -0.4038 -0.0551
10123W        W19816   9.611  12.724  13.955 -0.0371  0.2874  0.2256
10124W        W19817   5.754  10.330   3.396  0.1525  0.3574  0.2507
10125W        W19818   4.092  13.958   6.205  0.0021  0.1812 -0.0274
10126W        W19819  10.074  13.167   0.299  0.1405 -0.1887 -0.2028
10127W        W19820   1.169   2.399   3.425  0.1582  0.3621  0.1673
10128W        W19821   4.388   3.164  13.816  0.1274  0.2367 -0.0447
10129W        W19822  11.143   4.421  16.944 -0.0553  0.0206 -0.3767
10130W        W19823   6.618   5.809  16.970  0.1367  0.0428  0.1669
10131W        W19824   4.240  12.271  13.416  0.0167 -0.0652  0.0826
10132W        W19825  15.095  11.366   4.692 -0.0499 -0.2062  0.1157
10133W        W19826   0.557   2.180   0.957 -0.1905  0.1921 -0.0048
10134W        W19827   3.186   2.352  14.020  0.2761  0.1150 -0.0029
10135W        W19828   6.187   2.188   1.876  0.0075 -0.0695 -0.0111
10136W        W19829  12.433  16.264  12.311  0.1036 -0.0143  0.1793
10137W        W19830  17.523  17.237  16.162 -0.3096  0.1517 -0.0002
10138W        W19831   2.252   4.337  16.263 -0.1511  0.2087 -0.0117
10139W        W19832   4.290   2.191   5.912 -0.4467 -0.1913  0.1008
10140W        W19833   3.021   6.158  15.992  0.3220  0.0170  0.0390
10141W        W19834   9.904  11.207  13.784 -0.0672  0.0032 -0.1270
10142W        W19835  15.464   1.649   2.881 -0.0312 -0.4089 -0.2487
10143W        W19836   9.868   7.591  13.661 -0.3111 -0.1148 -0.0163
10144W        W19837   1.278  16.555  11.691  0.0347  0.1004 -0.0065
10145W        W19838   2.944   1.839  17.053 -0.1995 -0.1913  0.0598
10146W        W19839   5.401   1.580   3.446  0.2549  0.1818 -0.1372
10147W        W19840  10.786   8.773   5.747 -0.0960 -0.1924 -0.1085
10148W        W19841   2.816   5.132  16.528 -0.0422  0.0379 -0.3069
10149W        W19842   1.824   5.461  14.539 -0.1473 -0.0362  0.2827
10150W        W19843   4.418  11.980   2.094  0.0913  0.0155  0.1315
10151W        W19844   2.327  14.093  13.145  0.0373  0.0015  0.1791
10152W        W19845  11.462   5.915   2.247 -0.1905  0.0848 -0.0876
10153W        W19846   6.719   7.226  16.448 -0.0329 -0.0867  0.1345
10154W        W19847  12.117   4.778   0.068  0.1640  0.2186 -0.1057
10155W        W19848  17.903   8.506   1.789  0.0816  0.1022 -0.0902
10156W        W19849  17.021  17.621  11.253  0.0562  0.1558 -0.1352
10157W        W19850  16.651   7.505   3.775  0.0839 -0.1354 -0.0476
10158W        W19851   9.001  14.954   0.405  0.1410 -0.1066 -0.0424
10159W        W19852   8.605  11.304  15.503 -0.1242 -0.0350  0.1264
10160W        W19853   3.705  11.545  15.256  0.0854  0.1777  0.3855
10161W        W19854   0.396   7.456   4.601 -0.2874 -0.0873  0.1613
10162W        W19855   8.219   6.186   5.940  0.2350  0.2335 -0.1167
10163W        W19856  15.897  13.061   2.444 -0.0487 -0.1112 -0.2160
10164W        W19857  17.776   4.411   2.438  0.1707  0.1015  0.0955
10165W        W19858   2.823   2.839   4.333 -0.2565 -0.0134  0.0243
10166W        W19859   9.638   1.958  13.116  0.1467 -0.2303  0.0974
10167W        W19860   3.420   0.858   2.430 -0.0674 -0.2319 -0.0126
10168W        W19861  15.331   7.030  15.047  0.2383  0.2881  0.1272
10169W        W19862  11.790  10.409   4.361 -0.3040 -0.0003 -0.0418
10170W        W19863   0.471  15.839   4.368  0.1772 -0.2049 -0.0967
10171W        W19864   6.358  15.605   4.392  0.0584 -0.0463 -0.1590
10172W        W19865   7.769   1.349  14.243 -0.1521 -0.2276 -0.2620
10173W        W19866  10.877  17.931   4.408 -0.1191 -0.2466 -0.0838
10174W        W19867   5.455  17.788  13.068  0.1757  0.2700 -0.2685
10175W        W19868  12.130  13.318   3.038 -0.2009 -0.3108 -0.0364
10176W        W19869  17.844  17.932  13.038 -0.0103  0.0617  0.1006
10177W        W19870  11.351  15.494   3.377  0.0494  0.2030  0.0098
10178W        W19871   6.558   5.349   4.948 -0.1069 -0.0647 -0.1996
10179W        W19872  15.311  15.570  16.417 -0.4295 -0.0873  0.0996
10180W        W19873  13.165   2.707  14.238  0.1721 -0.2085  0.2197
10181W        W19874   2.310   4.585  12.631  0.1936  0.3589 -0.1516
10182W        W19875  10.701   1.231   2.648  0.0182 -0.0594  0.0624
10183W        W19876   5.946   1.986   3.392 -0.2656 -0.0823 -0.0602
10184W        W19877  17.723   7.204  11.133 -0.3204  0.1451  0.2213
10185W        W19878   6.127  10.824  14.123  0.0181 -0.4332  0.1365
10186W        W19879   4.395   8.432  14.139 -0.0653 -0.2694  0.2096
10187W        W19880   1.306   6.480   1.782  0.0636  0.3673  0.0773
10188W        W19881   3.899   8.970   4.829  0.1584  0.0102  0.4043
10189W        W19882  11.437   8.433  13.125  0.1898 -0.0048  0.0590
10190W        W19883   2.784   9.069  16.335 -0.0427 -0.3102  0.0319
10191W        W19884  11.283   8.587   1.581  0.0405 -0.2674  0.2011
10192W        W19885  11.452   0.337  14.581 -0.2304  0.1237  0.0788
10193W        W19886  16.595   9.774   1.612 -0.1902  0.0697  0.0671
10194W        W19887   2.346   0.047  13.773 -0.1314  0.0325 -0.0869
10195W        W19888   8.476  17.074  13.306 -0.0959  0.4333  0.1246
10196W        W19889   2.836   6.913  13.291  0.0657  0.1845  0.4018
10197W        W19890   4.203   4.719  14.084 -0.1303 -0.2979 -0.1450
10198W        W19891  16.754   7.052  13.428  0.1867  0.0039 -0.1178
10199W        W19892   6.095   4.874  12.306 -0.0107  0.0763  0.1649
10200W        W19893  11.804   2.365   1.979 -0.0811  0.2998 -0.1073
10201W        W19894   5.025  13.733  14.941 -0.1250 -0.0269  0.1702
10202W        W19895   3.859  10.810   4.069  0.0246 -0.1538  0.5018
10203W        W19896   6.039  10.152  16.758  0.0488  0.0194 -0.4916
10204W        W19897   0.284   9.167  14.819  0.2155 -0.0902  0.3031
10205W        W19898  16.355   7.988   2.134 -0.0260  0.0184  0.1295
10206W        W19899  11.218  16.234  11.652 -0.0883 -0.1676  0.0612
10207W        W19900   1.927   5.318  13.723 -0.1231  0.1064 -0.1783
10208W        W19901   3.515  13.146   5.981 -0.1682  0.0940 -0.2645
10209W        W19902   7.984  10.195   4.451  0.3641 -0.0488 -0.1844
10210W        W19903  10.404  12.331   1.895  0.1904 -0.1083  0.0537
10211W        W19904   7.370   0.890   3.616 -0.3864 -0.1544 -0.1068
10212W        W19905  13.879  11.152  12.152  0.4760 -0.0650  0.0302
10213W        W19906   4.576  14.512  14.717  0.0573  0.0149 -0.2482
10214W        W19907   1.182   6.400   3.387 -0.1363 -0.0018  0.0576
10215W        W19908   5.541   0.015   4.228 -0.1988 -0.0903 -0.0010
10216W        W19909   8.008  16.756  12.827  0.0373 -0.2120  0.2215
10217W        W19910   4.032   2.673  16.749 -0.2058 -0.0898  0.5207
10218W        W19911   4.180   9.288  13.117  0.2299 -0.2080 -0.2692
10219W        W19912   7.464   3.091   2.338 -0.0511 -0.3521 -0.1397
10220W        W19913   1.315  10.433   4.942 -0.0738 -0.3861  0.2055
10221W        W19914   6.102   8.336   1.748  0.2222 -0.1076  0.4068
10222W        W19915  10.745  13.891  14.869 -0.1120  0.1454  0.3650
10223W        W19916   8.950   1.179   4.000 -0.2287  0.1253 -0.1294
10224W        W19917  12.139  12.605  14.914 -0.0703  0.3486  0.2261
10225W        W19918   2.134  11.038   1.142 -0.1198  0.0770 -0.1881
10226W        W19919   7.309   7.057   4.900 -0.2380 -0.0393 -0.0864
10227W        W19920   6.002   9.471  14.025 -0.1369 -0.0398 -0.1247
10228W        W19921   8.738  16.865   2.513 -0.1730  0.1830  0.1290
10229W        W19922   0.411  16.761   2.521  0.3203 -0.1326  0.0104
10230W        W19923  12.447  15.336  14.963 -0.0098 -0.1341  0.2378
10231W        W19924   9.646   9.430   5.314  0.1288  0.3634  0.1339
10232W        W19925   2.658   7.819   1.439 -0.2588  0.2529  0.1290
10233W        W19926  14.182  13.166   0.154  0.3188 -0.1091 -0.0898
10234W        W19927   9.791  15.397   0.479 -0.1117 -0.2840 -0.1177
10235W        W19928   9.611  17.272   6.591 -0.1845 -0.3757 -0.0537
10236W        W19929   6.528   4.739   0.858 -0.2843  0.1823 -0.0776
10237W        W19930   0.930   9.702  14.292  0.1245 -0.2029  0.0217
10238W        W19931   2.082  15.483   4.063  0.0254 -0.1130 -0.2629
10239W        W19932   9.600  14.803  14.478 -0.0006  0.0140  0.1023
10240W        W19933   9.137  11.307   4.834 -0.3915 -0.1666  0.0378
10241W        W19934   3.765  16.604   3.184 -0.1407  0.0601 -0.1220
10242W        W19935  14.957  10.770  12.047  0.0422  0.2064  0.1150
10243W        W19936   1.884   3.632  12.730 -0.0134 -0.0160  0.1326
10244W        W19937  10.041  12.350  11.903 -0.5805 -0.0430  0.0200
10245W        W19938   3.089   4.864  15.276 -0.1955  0.2132 -0.1360
10246W        W19939   3.908  11.280  15.617 -0.0639 -0.2011  0.0539
10247W        W19940  10.398  13.087  14.476  0.0991  0.0279  0.0363
10248W        W19941   7.378   6.396  15.386 -0.1408 -0.0867 -0.1507
10249W        W19942   5.564  17.121   5.080  0.0851  0.1865  0.1037
10250W        W19943   1.342  14.569   1.307 -0.1976  0.1413  0.0060
10251W        W19944   6.361  13.623   5.813 -0.0283  0.0391 -0.3889
10252W        W19945   2.543   4.958   2.166 -0.2431  0.1490  0.3757
10253W        W19946   5.659  15.189   5.668  0.2827  0.0518 -0.2299
10254W        W19947   0.424   9.267   2.995  0.2431  0.0423  0.1324
10255W        W19948   2.611   5.807  13.471 -0.0392  0.0509 -0.0877
10256W        W19949   2.585   9.424  15.166  0.2701 -0.3807 -0.0051
10257W        W19950   6.705   5.445  12.805  0.0164  0.0227  0.2099
10258W        W19951  17.549  12.426  14.705 -0.5009 -0.3645 -0.0740
10259W        W19952   3.408  12.661   5.788  0.2594  0.1889  0.2915
10260W        W19953   3.067  13.008   3.719  0.0607  0.0949 -0.0135
10261W        W19954  16.561  12.236   1.085 -0.0598  0.2356  0.1470
10262W        W19955   8.692   1.144  13.217  0.1386  0.0109 -0.0214
10263W        W19956  11.352   4.609  14.390 -0.0038  0.0267  0.1135
10264W        W19957   6.686  12.528   6.445  0.0973  0.0421 -0.0431
10265W        W19958   9.791  17.945  12.879 -0.2663  0.0841  0.0461
10266W        W19959  14.109   4.301  12.379  0.0428  0.1748 -0.0442
10267W        W19960   7.446   5.269   1.904 -0.3666 -0.2717 -0.0167
10268W        W19961   9.059  12.237  14.334  0.1091  0.4192 -0.2069
10269W        W19962   4.301  14.844  12.987 -0.0258  0.0605  0.2764
10270W        W19963   2.248  10.358   2.874  0.2696  0.1627 -0.1511
10271W        W19964   3.081   6.818   5.512  0.0106 -0.0767  0.1685
10272W        W19965   5.579  16.247  14.937 -0.0994  0.1137  0.0095
10273W        W19966   1.971   3.794   0.722  0.2941  0.0485  0.0068
10274W        W19967   6.798  10.550   1.791 -0.1340  0.2340 -0.0212
10275W        W19968   3.423   4.396   5.753  0.5620  0.1507 -0.4807
10276W        W19969  15.169   4.768  12.842  0.1069 -0.0959 -0.2985
10277W        W19970   1.826   6.056   2.918  0.0724  0.0968 -0.2145
10278W        W19971   8.675   8.756   4.387 -0.1238  0.0086  0.0730
10279W        W19972  16.556  16.567  15.760 -0.0347  0.0251 -0.2007
10280W        W19973  10.238   1.937  13.225  0.2688 -0.0337  0.0395
10281W        W19974   5.375   9.716  12.755 -0.1100 -0.2107 -0.1501
10282W        W19975   5.996  12.707   2.787  0.0600 -0.1669  0.0176
10283W        W19976  15.377   9.134   0.752 -0.2054  0.1139 -0.1550
10284W        W19977   4.405   7.609  15.119  0.1853  0.0565 -0.0320
10285W        W19978   0.993   8.170   1.717 -0.0819  0.0738 -0.1157
10286W        W19979   7.061  14.173   5.845 -0.0116 -0.3007 -0.1698
10287W        W19980  10.752  15.412   0.284  0.0652 -0.1645  0.0291
10288W        W19981   0.931   1.881  11.278  0.1990 -0.0253  0.0829
10289W        W19982   3.598   9.045  15.841  0.3006  0.0341 -0.1907
10290W        W19983   8.277   3.209  13.528  0.1085 -0.1713 -0.0811
10291W        W19984   0.994   0.160   0.190  0.1228 -0.2193  0.1540
10292W        W19985   0.900  13.059   5.504  0.1105 -0.0457  0.0612
10293W        W19986  13.891  13.785   0.662  0.1023  0.1137  0.0201
10294W        W19987   4.431   4.255   2.392  0.3176 -0.0287  0.2487
10295W        W19988   9.358   9.051   6.232  0.1664  0.0206 -0.0946
10296W        W19989  17.062   5.170  11.933 -0.1288 -0.3871  0.1138
10297W        W19990   2.863  11.236   1.584 -0.3253  0.2093 -0.1559
10298W        W19991   9.776   8.945   5.282  0.1595 -0.0837  0.0547
10299W        W19992   4.067  12.191  14.403  0.2734  0.0908 -0.2694
10300W        W19993  14.687  11.962  16.945 -0.4665 -0.1185  0.1092
10301W        W19994  15.617  13.460   4.834  0.2495 -0.0886  0.0583
10302W        W19995   4.305   8.175  15.032  0.0485  0.1384  0.3610
10303W        W19996   4.283   7.150   1.919  0.0882 -0.2888  0.1164
10304W        W19997   7.587  11.843   5.559 -0.1690  0.0887  0.1252
10305W        W19998   2.673  12.704  11.201 -0.0017  0.0412  0.0130
10306W        W19999   8.106  17.538  14.073 -0.2728  0.2473 -0.2357
10307W        W20000  11.756  16.302   4.339  0.1049 -0.1513 -0.1279
10308W        W20001   5.310  13.358  15.085 -0.0970 -0.0730  0.0815
10309W        W20002   5.249   2.075   4.634  0.0188 -0.0933 -0.0208
10310W        W20003   8.510   9.726   4.837  0.3808  0.3118  0.0290
10311W        W20004  14.577  15.828  13.534  0.2922 -0.1609 -0.0441
10312W        W20005   6.959  14.662  13.380 -0.3088 -0.0583 -0.1213
10313W        W20006  12.506   9.863  14.855 -0.1659 -0.2586  0.1811
10314W        W20007  10.004  16.060   1.166 -0.1311  0.0910  0.2967
10315W        W20008   6.037   9.236  15.916 -0.4011  0.2672  0.1306
10316W        W20009   1.348  14.850   4.951 -0.1535 -0.0472  0.1330
10317W        W20010   0.269   4.221  14.879  0.0599 -0.2402 -0.2115
10318W        W20011   7.703   6.447  16.687  0.0087  0.0571 -0.1239
10319W        W20012   1.765   2.361  12.679  0.1496  0.2134 -0.0006
10320W        W20013   0.089   9.255  16.502 -0.0710  0.0256  0.0528
10321W        W20014  14.408  14.451   0.328  0.0360  0.1173 -0.1433
10322W        W20015   4.106   0.295  15.532 -0.0478 -0.0716  0.0211
10323W        W20016   8.108  15.898   0.710 -0.0901  0.0225 -0.2912
10324W        W20017  11.172   4.375   3.263  0.0582 -0.0074  0.0504
10325W        W20018   5.580   2.378  12.517 -0.3389 -0.0537  0.2570
10326W        W20019  11.550   4.228  12.518  0.1966  0.0502 -0.0370
10327W        W20020   4.883   3.133  16.368  0.0286 -0.1414  0.1833
10328W        W20021   2.378   2.023  10.482 -0.0383  0.1084 -0.0152
10329W        W20022   6.422  16.695   2.918 -0.1078  0.0791  0.4412
10330W        W20023   7.736   5.042   0.458 -0.1738 -0.1899 -0.3691
10331W        W20024   9.153  13.798   4.591 -0.2206 -0.4290  0.2034
10332W        W20025   6.661  10.780   4.529 -0.0564  0.0410 -0.1175
10333W        W20026   8.161  10.843  13.083 -0.0702 -0.0746 -0.2011
10334W        W20027   9.260  17.175  15.824 -0.4508  0.1753 -0.1995
10335W        W20028   8.971  10.644   6.561  0.0031  0.0069 -0.1328
10336W        W20029  17.539   5.154   1.379 -0.1923 -0.1810 -0.2820
10337W        W20030  14.267  14.849   1.372  0.3547  0.2985 -0.1669
10338W        W20031   0.393   3.767   4.333 -0.0908 -0.0682  0.2459
10339W        W20032  14.831  12.233   5.092  0.1735  0.1210  0.0548
10340W        W20033   3.336  10.551   2.656 -0.5132 -0.0942 -0.2283
10341W        W20034   9.992  15.395  16.037  0.0451 -0.0083  0.0413
10342W        W20035   5.880  16.086   2.580 -0.1753 -0.2308 -0.0171
10343W        W20036   9.506   6.951  13.019 -0.1561  0.1846 -0.1254
10344W        W20037  10.973   3.483  13.945 -0.3902 -0.1010 -0.1365
10345W        W20038   3.600   2.029   0.413  0.2238  0.1180  0.1802
10346W        W20039  12.454   8.421   2.296  0.2520 -0.1614 -0.0622
10347W        W20040   9.528  13.156   0.394 -0.2105 -0.0654 -0.1859
10348W        W20041  12.040   6.390   2.810  0.2097 -0.0518  0.3114
10349W        W20042   5.422   9.393  16.883  0.1339 -0.0014 -0.2059
10350W        W20043   5.216  15.733   6.016  0.0796 -0.0909  0.2379
10351W        W20044   1.635   7.627  12.167 -0.1875  0.2329  0.1520
10352W        W20045  12.971   1.220  16.724 -0.0098 -0.0598 -0.1882
10353W        W20046   6.241   8.803   1.913  0.4068  0.1301  0.1204
10354W        W20047   9.112  12.771   0.472  0.3469 -0.3022  0.0660
10355W        W20048   2.616   9.670   5.519  0.0338 -0.3951 -0.1756
10356W        W20049   4.268  17.126  15.277 -0.0352  0.0983 -0.0134
10357W        W20050   0.973  10.064  13.520  0.0124 -0.0303 -0.1892
10358W        W20051   3.901   9.970   6.250  0.1277 -0.4445 -0.0720
10359W        W20052   9.361  14.860  14.000 -0.0196  0.1792 -0.3031
10360W        W20053   7.953  10.287   6.382  0.0240  0.0729 -0.1114
10361W        W20054   9.387   6.459   3.161  0.0258  0.1441 -0.3097
10362W        W20055  12.574   0.740  12.948  0.4484 -0.1016  0.0132
10363W        W20056   6.594   0.613  13.399 -0.2085  0.3358 -0.0400
10364W        W20057   6.335   1.833  14.133 -0.0091  0.0123 -0.1653
10365W        W20058  11.621   7.729  16.914 -0.1112 -0.1607  0.3181
10366W        W20059   7.142  14.985  16.560 -0.3559 -0.2076  0.2243
10367W        W20060   3.780   5.376   1.556 -0.3763 -0.5037 -0.0264
10368W        W20061   4.830   0.584  15.721 -0.0704  0.2047  0.0762
10369W        W20062   7.150   9.837  13.245  0.1792  0.0112  0.0076
10370W        W20063   2.631  11.663   5.585  0.5473 -0.2301 -0.0610
10371W        W20064   2.136  11.141  13.925 -0.1866 -0.0498 -0.2347
10372W        W20065   0.137   0.852  14.293  0.0279  0.2225 -0.0478
10373W        W20066   1.179  16.609  14.836  0.0912 -0.1858 -0.0080
10374W        W20067   3.767  17.280   1.798  0.0474  0.3446  0.1529
10375W        W20068   6.962  11.000  13.463  0.0095 -0.1054 -0.1274
10376W        W20069   3.967   7.185  13.821 -0.1112 -0.0529  0.3255
10377W        W20070   1.666  17.225   0.639  0.1833  0.0323  0.0326
10378W        W20071   2.009   8.659   2.601  0.4622  0.2580  0.0906
10379W        W20072   3.265   2.192   3.994  0.0036  0.5288  0.0159
10380W        W20073  13.983   7.760  14.253  0.0756 -0.0841 -0.3127
10381W        W20074  11.124  12.337   4.469  0.1567  0.1063  0.1054
10382W        W20075  13.109   0.674   4.014 -0.2755 -0.0512 -0.0482
10383W        W20076  13.712  12.284  15.398  0.1655  0.0145  0.1193
10384W        W20077   8.478  10.372  12.413  0.2050 -0.0808  0.0050
10385W        W20078   7.167   9.966  14.678 -0.1673  0.1329 -0.0943
10386W        W20079   4.181  16.485   5.489 -0.2362  0.1039 -0.0858
10387W        W20080   6.979  12.960   5.718  0.0664 -0.0771  0.1455
10388W        W20081  16.904  15.079   1.255 -0.4628  0.0143  0.1267
10389W        W20082   9.023  11.907   1.798  0.3646 -0.2489 -0.0104
10390W        W20083   5.086   7.795   5.568 -0.2400 -0.2046  0.2725
10391W        W20084   7.430   9.667  14.370  0.0247  0.0740  0.0173
10392W        W20085   5.346  10.210  14.854 -0.0303  0.2027  0.1394
10393W        W20086   8.177  14.205   2.249 -0.0533 -0.1541 -0.0192
10394W        W20087   0.943   9.149   5.084 -0.2494 -0.1115 -0.3080
10395W        W20088  11.065   6.412   6.068  0.3045  0.0691 -0.1223
10396W        W20089  12.136  12.068  14.792 -0.0956 -0.3858 -0.2897
10397W        W20090  11.969  16.220  11.272 -0.2306  0.3061 -0.4019
10398W        W20091   1.506   7.901  16.492  0.1824  0.0738 -0.1058
10399W        W20092   5.702  14.491  13.955  0.0055  0.1041 -0.0931
10400W        W20093  17.602  11.899  14.824  0.0071 -0.0484  0.2374
10401W        W20094  16.935   1.828   5.162  0.0856  0.3080  0.0359
10402W        W20095  11.351   8.699   1.032 -0.0938  0.1066  0.2464
10403W        W20096  17.726   7.736  14.170 -0.2000  0.0939  0.0644
10404W        W20097   3.807   4.773  14.353 -0.1297 -0.1314 -0.0617
10405W        W20098   6.062  13.311  12.419  0.0182 -0.0707  0.0730
10406W        W20099  17.808   7.390   2.873  0.1574 -0.2994  0.0710
10407W        W20100   8.862  15.454   0.604 -0.2234 -0.3993  0.0766
10408W        W20101   5.476   9.074   5.211  0.1325 -0.2880 -0.0231
10409W        W20102   1.657   2.443  13.958 -0.0733 -0.0193 -0.0180
10410W        W20103   9.418  16.334   2.889 -0.2182  0.0873 -0.1296
10411W        W20104  14.808  15.552   0.864 -0.1198  0.0357  0.1576
10412W        W20105   2.148  16.008   5.707  0.4025  0.2934 -0.0038
10413W        W20106   3.375   4.146   0.336 -0.2708 -0.0314  0.1549
10414W        W20107   2.870   2.208  15.371  0.2417 -0.0906  0.2901
10415W        W20108   5.321   3.155  12.977 -0.1194  0.0255 -0.2732
10416W        W20109  11.865   6.594  15.889  0.0152 -0.0962  0.0227
10417W        W20110   4.780   1.047   5.622 -0.0788  0.2354 -0.0620
10418W        W20111   4.091   1.236   2.317  0.2128  0.2030 -0.0560
10419W        W20112   6.537   7.545  14.865  0.1186 -0.2340 -0.1343
10420W        W20113  13.356  11.941  13.663 -0.0313  0.1128  0.1130
10421W        W20114  16.977  14.043  15.773  0.0203 -0.2733  0.1014
10422W        W20115   1.121   3.643  15.042 -0.0223  0.2017 -0.0158
10423W        W20116   2.243   5.181  14.105 -0.1771  0.0345 -0.0891
10424W        W20117  12.278  12.935   5.857  0.0583 -0.0940  0.0699
10425W        W20118   8.585  13.228   0.296 -0.3446 -0.1884  0.1788
10426W        W20119   7.640   0.390   2.921 -0.0750 -0.1279  0.3558
10427W        W20120   2.457  11.538  16.814 -0.0847  0.1270 -0.1674
10428W        W20121   9.015   6.315   4.472 -0.2605 -0.0967 -0.1683
10429W        W20122   3.434   9.793   5.074 -0.0573  0.1754  0.1581
10430W        W20123   6.258  16.694  15.983 -0.1676 -0.1027 -0.1455
10431W        W20124   3.523   9.406   0.429 -0.0690  0.0023  0.1112
10432W        W20125  11.187   4.311   1.518  0.0072 -0.0620 -0.0601
10433W        W20126   4.219  14.054  12.493 -0.2102 -0.3350  0.0294
10434W        W20127   4.945  13.315  17.006  0.0704  0.0616 -0.0117
10435W        W20128   1.522  11.823   5.380 -0.2838 -0.1386  0.0906
10436W        W20129   5.580  11.428   6.408 -0.0791 -0.0948 -0.2821
10437W        W20130   8.671  13.695   4.672 -0.2847 -0.0853 -0.1004
10438W        W20131   6.352   5.347  15.215 -0.0136  0.1811  0.0134
10439W        W20132   3.289  15.704  12.218 -0.2094  0.1580 -0.1283
10440W        W20133  13.810   6.301  14.791  0.1422  0.2801  0.1347
10441W        W20134   2.753  14.006  12.743 -0.3104 -0.4104  0.4369
10442W        W20135   8.434   2.761   5.014  0.3290  0.5354 -0.2909
10443W        W20136   6.282   5.880   3.536  0.0050  0.0357  0.1165
10444W        W20137   8.944  13.544  11.934 -0.1730 -0.0434 -0.0579
10445W        W20138   9.378  15.970   1.618  0.1970 -0.0484  0.3715
10446W        W20139  13.727   8.339  11.539 -0.1876  0.1518 -0.0228
10447W        W20140   1.347   8.094   3.790  0.2686 -0.0087 -0.0243
10448W        W20141   0.207   0.702   4.521  0.1439 -0.0891  0.1598
10449W        W20142   7.777   7.052   6.129 -0.1143 -0.1883  0.1907
10450W        W20143   6.476   1.632   5.068 -0.3254  0.3014  0.1745
10451W        W20144  12.099   4.149  11.726 -0.1777  0.1479  0.1097
10452W        W20145  10.763   9.674   3.818 -0.1294 -0.0197 -0.0021
10453W        W20146   6.047  17.063   2.848  0.4273  0.1282  0.1224
10454W        W20147   4.052   1.728   5.939 -0.0462 -0.2768  0.0915
10455W        W20148  17.960  13.962   5.740  0.1056  0.2676 -0.2959
10456W        W20149   5.807   0.338   0.310  0.0303 -0.3407 -0.1378
10457W        W20150   0.662   0.650  16.485 -0.1068 -0.0279 -0.3104
10458W        W20151   3.097  17.393  11.648 -0.2140  0.0186 -0.1387
10459W        W20152   4.585  15.945   2.398  0.0141 -0.1243  0.2202
10460W        W20153   6.358   7.643  15.585  0.1623  0.0959  0.1649
10461W        W20154   4.021   9.622  13.448 -0.2108  0.2850  0.2821
10462W        W20155   6.962  12.158   4.979  0.0208 -0.0458  0.0346
10463W        W20156  11.969   8.860   5.569 -0.2033  0.1908 -0.0710
10464W        W20157  13.396  12.156   5.557  0.2981 -0.0574  0.0160
10465W        W20158   0.112  16.861  13.009 -0.0886  0.2364 -0.0775
10466W        W20159   4.866   7.336  13.034 -0.3500  0.0437 -0.1601
10467W        W20160   2.556   8.599   6.149 -0.1145  0.2368  0.1111
10468W        W20161  17.770  11.972  14.193 -0.1234  0.0378  0.1767
10469W        W20162  11.146   4.565  12.623 -0.0487 -0.0349  0.0465
10470W        W20163   3.344   7.243  13.160 -0.0727 -0.0516  0.2385
10471W        W20164   5.528  16.240   1.454 -0.0774 -0.6268 -0.2953
10472W        W20165   9.498   8.532   5.314 -0.0631 -0.0265  0.4060
10473W        W20166   6.593  10.912  15.676  0.0280 -0.0181  0.1430
10474W        W20167   4.969  13.344   0.391  0.0206 -0.0896  0.1796
10475W        W20168   1.034   9.159   2.222  0.2072  0.0174 -0.0315
10476W        W20169   5.604   3.977   4.811 -0.2168  0.1381 -0.0423
10477W        W20170   3.965   8.284   1.001  0.0863 -0.0684  0.1276
10478W        W20171   5.631   2.799   5.091 -0.1254  0.1276  0.0022
10479W        W20172  11.527  14.325   2.175  0.2198  0.2004 -0.0450
10480W        W20173   4.819  12.137  12.173 -0.1071  0.1101 -0.0082
10481W        W20174  10.687   4.513   5.146 -0.1203  0.1763  0.1801
10482W        W20175  15.791   4.176   3.277 -0.0467 -0.1549  0.0862
10483W        W20176   9.271   3.606  16.442 -0.0205 -0.0870 -0.4001
10484W        W20177   8.044   0.253   4.731  0.3968  0.0932  0.0160
10485W        W20178   4.784  17.651  12.572 -0.2653 -0.3403 -0.2844
10486W        W20179  10.032  12.764   2.840 -0.2121  0.1335 -0.1453
10487W        W20180   9.134  11.825  14.701 -0.1000 -0.0708 -0.0438
10488W        W20181  16.753   5.766   1.612  0.1678 -0.0382 -0.3550
10489W        W20182   9.546   7.772   1.426  0.1710 -0.1760 -0.3492
10490W        W20183   8.613  14.057  12.669 -0.2820 -0.1288  0.1012
10491W        W20184   3.279  10.046   1.024 -0.0720  0.1673  0.2757
10492W        W20185   7.115  13.847   1.571 -0.1992 -0.3013  0.1698
10493W        W20186   9.223   0.602   3.366 -0.0184  0.0711  0.0158
10494W        W20187   2.652   9.906   2.252  0.2199  0.0819  0.4763
10495W        W20188  14.397  15.179   3.054 -0.0123 -0.2556  0.0452
10496W        W20189  16.672   6.603  16.275  0.3213  0.2298 -0.0758
10497W        W20190  15.175   4.458   4.464 -0.0646  0.0005  0.1830
10498W        W20191  11.636   6.655  15.317 -0.1607 -0.1198  0.0314
10499W        W20192  17.694   4.956   0.731 -0.1885  0.0788 -0.1390
10500W        W20193   9.711  15.686   2.489  0.4075  0.0886  0.2117
10501W        W20194   7.083  12.510   0.898 -0.3643  0.2455  0.0493
10502W        W20195   5.354  15.934  13.712 -0.0049 -0.0553  0.4070
10503W        W20196   7.371  12.270  11.829 -0.0608 -0.0918 -0.0079
10504W        W20197   1.310   9.209   5.475  0.0545  0.2132 -0.2515
10505W        W20198   7.676   6.327  14.572  0.3381 -0.2233 -0.0816
10506W        W20199   7.893  15.968   5.148  0.1066 -0.3112  0.0317
10507W        W20200  17.837  10.068   4.441 -0.0228 -0.0682  0.0329
10508W        W20201  15.934  12.213   4.928 -0.0226  0.1958 -0.2513
10509W        W20202   9.508   9.862  16.540  0.0074  0.0881  0.1300
10510W        W20203   3.414  14.917   2.882 -0.2002  0.0284 -0.0500
10511W        W20204   6.326  15.484   2.135  0.0556 -0.3516  0.0868
10512W        W20205   4.028   2.875   1.300  0.1015 -0.0240  0.0861
10513W        W20206  10.833   8.310   1.629  0.0759 -0.0914 -0.0187
10514W        W20207  11.225   2.172   3.551 -0.0952 -0.1207  0.3092
10515W        W20208   5.945  17.038  15.803  0.0231 -0.1001  0.0910
10516W        W20209   8.809  15.220  17.085 -0.1223 -0.1217  0.3706
10517W        W20210  17.716   2.098   1.986 -0.1599  0.0840  0.0933
10518W        W20211   6.283   7.815   1.778 -0.0326 -0.2945 -0.5003
10519W        W20212   6.513  14.782   1.148  0.0025  0.0255  0.0580
10520W        W20213   4.826  11.774  15.764  0.1162  0.2408 -0.1622
10521W        W20214   5.360   5.848   0.987  0.3287  0.0386  0.0324
10522W        W20215   6.563  13.548  15.358 -0.0045 -0.0290 -0.0428
10523W        W20216   5.187   0.607   4.304 -0.0130 -0.0543  0.2884
10524W        W20217  11.011  11.186  12.081  0.2856  0.0441  0.1287
10525W        W20218  10.910   8.638   4.855  0.1408  0.0722 -0.1271
10526W        W20219   2.786   2.298   5.475  0.0745 -0.1276 -0.0336
10527W        W20220  15.902   9.823  14.044  0.1877 -0.1696  0.3091
10528W        W20221   9.705   5.037  16.082  0.3317 -0.3382  0.1564
10529W        W20222  10.437   6.301   2.262  0.1244  0.0184 -0.5423
10530W        W20223   1.887   1.688  14.309  0.4713 -0.1626 -0.0119
10531W        W20224   1.503  10.235   4.362 -0.1031  0.0876 -0.1606
10532W        W20225  13.304   4.701   5.428  0.2537 -0.2080 -0.1430
10533W        W20226  12.294  11.378   3.069 -0.1783 -0.0143 -0.0183
10534W        W20227   7.258  16.973   1.840 -0.0082 -0.2929 -0.0656
10535W        W20228   7.635  10.670   6.222  0.1208  0.2321 -0.4385
10536W        W20229   8.714  11.809   1.452 -0.3594 -0.0424 -0.1951
10537W        W20230  10.554  12.484  11.955  0.0495 -0.1124 -0.0553
10538W        W20231  13.920  14.265   0.650 -0.3014  0.1212 -0.4137
10539W        W20232  10.735  14.627   5.565 -0.0398 -0.1755 -0.0948
10540W        W20233   8.814  15.835  11.468  0.1574 -0.2012 -0.2717
10541W        W20234  13.362   8.670  13.913  0.1360  0.2763 -0.0928
10542W        W20235   6.703   9.517  16.255  0.4258  0.0054  0.0443
10543W        W20236  14.446  17.957   4.280  0.4428 -0.0536  0.2302
10544W        W20237   6.642   1.223  11.988  0.0078 -0.0852 -0.0605
10545W        W20238   4.190   4.055   6.239  0.1600  0.0415  0.2430
10546W        W20239  12.833   7.570  13.291  0.2607  0.1184 -0.1726
10547W        W20240   9.059  16.297   0.275  0.1979  0.0335 -0.1854
10548W        W20241  10.850   5.387  12.257  0.0165  0.0542 -0.1531
10549W        W20242  16.863  15.395  12.220  0.2954 -0.2924  0.1671
10550W        W20243  12.950  15.719   3.738  0.2264 -0.1190  0.0769
10551W        W20244   6.379  14.193  12.889 -0.0496  0.0767  0.1422
10552W        W20245  11.329  13.854   5.681  0.1520 -0.1024  0.1591
10553W        W20246  16.329   2.680  11.920 -0.0156 -0.1443 -0.0726
10554W        W20247  11.950  13.176   4.871 -0.0501  0.2523 -0.0867
10555W        W20248  10.069   4.606  15.842 -0.0075 -0.0372 -0.0771
10556W        W20249   1.939   3.839  15.501 -0.0583  0.0917 -0.0017
10557W        W20250   0.355  14.492  14.072  0.0929  0.0291  0.1114
10558W        W20251   4.792   7.168   4.363 -0.1695 -0.1139 -0.1890
10559W        W20252  10.733  12.690  12.402  0.1530 -0.2230 -0.0505
10560W        W20253  17.021  10.182  14.919  0.0894  0.0120 -0.0484
10561W        W20254  16.348  17.954   0.730  0.1924  0.2747 -0.0116
10562W        W20255   1.865   0.751  14.023  0.0602  0.0923 -0.1746
10563W        W20256   3.629  14.186   5.033 -0.1716 -0.2148  0.0089
10564W        W20257   5.110  17.906   4.697 -0.1036  0.1369 -0.0947
10565W        W20258   4.463   0.616  10.287 -0.0476 -0.1968  0.0413
10566W        W20259   4.655   6.767   4.821  0.4505  0.1932  0.2300
10567W        W20260   5.620   4.746  12.551 -0.1710  0.2633 -0.3702
10568W        W20261   2.197   3.376  15.307 -0.0602  0.0943  0.0542
10569W        W20262  15.928   2.996   0.401  0.2281  0.1184 -0.0801
10570W        W20263  10.979   0.657  10.483 -0.3171  0.1175 -0.1543
10571W        W20264   2.973   6.884   2.844 -0.0776  0.0145 -0.1275
10572W        W20265   0.384  11.018  15.192 -0.0630  0.0162  0.2007
10573W        W20266   2.044   3.753  12.224 -0.2224  0.0640  0.4434
10574W        W20267   8.278  14.081   3.921  0.1332  0.2086  0.2550
10575W        W20268  16.216   5.324   6.145 -0.0226 -0.1399  0.1292
10576W        W20269   4.045   3.771   0.722 -0.1620 -0.1663  0.1049
10577W        W20270   0.990  10.666  12.223 -0.1150  0.0684 -0.0195
10578W        W20271   4.700   0.801   1.374  0.0438 -0.0587 -0.0638
10579W        W20272   5.814  13.458  16.505  0.1532  0.0756  0.1424
10580W        W20273   7.268   8.498  16.730  0.0810  0.0248  0.0498
10581W        W20274   0.585   9.057  14.370 -0.2717 -0.3210 -0.1768
10582W        W20275   3.910  15.780   2.996  0.0617 -0.4026  0.1892
10583W        W20276   2.216   5.489   4.746  0.4595 -0.0271 -0.0621
10584W        W20277   7.060  17.225  12.671  0.3364  0.1410  0.0697
10585W        W20278   7.635   7.218  16.324 -0.4298 -0.1250  0.0251
10586W        W20279   5.529  17.214   4.277  0.0938  0.0103 -0.1120
10587W        W20280   1.971  17.000   5.434  0.1224 -0.0894 -0.2127
10588W        W20281   3.234   3.751  14.160 -0.0845 -0.0116  0.1178
10589W        W20282   4.998   6.211   5.414  0.3186  0.1443 -0.0579
10590W        W20283   0.583  17.027   5.911 -0.0840  0.0262  0.0201
10591W        W20284   5.543  11.033  15.339  0.0137  0.1097  0.2043
10592W        W20285  10.512  17.541   4.660  0.0772  0.0039 -0.2117
10593W        W20286   7.463  15.125   4.749  0.0978  0.2472  0.0540
10594W        W20287   2.185   6.800   2.265 -0.1814 -0.2350 -0.0110
10595W        W20288   2.044  17.032   2.557  0.2410 -0.2102 -0.1686
10596W        W20289  11.081   6.870   3.917 -0.1106  0.1134 -0.0962
10597W        W20290   9.032   6.426   1.470 -0.2607 -0.2285 -0.2926
10598W        W20291  11.090  10.039   2.880  0.1229  0.0675 -0.0401
10599W        W20292  17.780  17.463  12.775 -0.2845 -0.0466  0.2239
10600W        W20293   4.617   1.219  13.859  0.1013 -0.1907  0.0701
10601W        W20294   9.728  14.928   1.921  0.1567  0.0035 -0.0242
10602W        W20295   6.901   0.646  14.486  0.0776 -0.1664 -0.2141
10603W        W20296  16.064   0.115  13.775 -0.0564 -0.0389 -0.2862
10604W        W20297   3.958   8.394  14.510 -0.0581 -0.0724 -0.0106
10605W        W20298   8.451   3.520   3.196 -0.1928  0.3678 -0.0585
10606W        W20299  14.664   4.052   1.206 -0.0259 -0.1016  0.1164
10607W        W20300   7.311  11.521   1.782  0.1422 -0.2157  0.0012
10608W        W20301   3.671  17.326  11.780 -0.1109  0.1483 -0.1772
10609W        W20302   9.422  13.387   6.067 -0.1028 -0.1057 -0.2211
10610W        W20303   5.200   1.368   1.397  0.1248 -0.0298 -0.0631
10611W        W20304  13.692  11.558  13.709  0.0592  0.0267 -0.1682
10612W        W20305   2.021  12.363   3.133  0.0327 -0.1799  0.0440
10613W        W20306  10.104   0.536   3.880 -0.1339  0.1318  0.1635
10614W        W20307   0.517  14.807  10.496  0.0584 -0.0261  0.2886
10615W        W20308   2.404   7.231  16.810 -0.0433 -0.0989 -0.3321
10616W        W20309   6.558  17.136  14.211  0.2027 -0.1241  0.3473
10617W        W20310   5.698   0.299  15.260  0.1115  0.0823  0.0926
10618W        W20311  16.804  11.302  12.126 -0.3722 -0.2251  0.0836
10619W        W20312   1.822   0.245  15.466 -0.1534  0.0773 -0.1572
10620W        W20313  17.264  15.671  11.299  0.1608 -0.0316 -0.1476
10621W        W20314   1.119  15.193  14.953 -0.1452  0.3224  0.2488
10622W        W20315  13.017  14.710   5.412  0.1446  0.0081  0.0052
10623W        W20316  12.440   5.479   3.081  0.3192 -0.2047 -0.0881
10624W        W20317  16.225   5.104  15.281 -0.2030 -0.0137 -0.1339
10625W        W20318  11.823  10.121  14.397  0.1041  0.2032  0.3180
10626W        W20319  14.636  13.900   1.476 -0.3105  0.1839  0.1959
10627W        W20320   9.787   1.281  16.667  0.0143  0.0291  0.0147
10628W        W20321  11.840   0.752  11.692 -0.1671  0.0954  0.1859
10629W        W20322   7.822   0.875  14.230 -0.2968  0.0596  0.2790
10630W        W20323  16.419   9.262   4.451  0.0168 -0.3179 -0.0046
10631W        W20324  11.931  15.209  14.992 -0.0155  0.0435 -0.2525
10632W        W20325  13.673   1.994  11.619  0.0769 -0.0699 -0.0704
10633W        W20326  13.435  14.156  14.012 -0.0115 -0.1752 -0.2106
10634W        W20327   5.669  13.511   0.508 -0.0617  0.0087  0.1521
10635W        W20328  11.762  10.046  15.909 -0.1648  0.1532 -0.1974
10636W        W20329   7.125  11.309   2.941 -0.0059  0.0919 -0.4079
10637W        W20330   2.776   7.823  12.567 -0.1348  0.1240 -0.1070
10638W        W20331   3.323  15.811   2.781  0.0777  0.1360 -0.1262
10639W        W20332   0.035   1.315  14.547 -0.0884 -0.0761 -0.2478
10640W        W20333   8.335   6.240   3.790  0.3554 -0.1704 -0.2199
10641W        W20334   3.885   7.625   6.464 -0.1756  0.1339 -0.0350
10642W        W20335   3.139  17.851  14.242  0.1032 -0.1607 -0.2537
10643W        W20336   5.089  14.488   1.145 -0.1782  0.1851  0.1847
10644W        W20337   5.967  17.135  11.000 -0.0234  0.1710  0.0916
10645W        W20338  13.730  11.368  16.213  0.3415  0.0629  0.1936
10646W        W20339   0.442   4.561  13.135  0.0393  0.1439  0.3330
10647W        W20340   2.214   8.289  15.799  0.0248 -0.1600  0.1592
10648W        W20341   6.696  15.579   4.894 -0.0131 -0.0968  0.0604
10649W        W20342  11.194   5.971   6.313  0.2169  0.2893 -0.2214
10650W        W20343   1.332   5.286   0.057 -0.2470 -0.1502 -0.3278
10651W        W20344  17.255   8.504  12.445  0.1619 -0.2021 -0.2313
10652W        W20345   0.528  17.533   1.076 -0.4439 -0.0093 -0.3925
10653W        W20346  13.595   5.574   3.047  0.1567  0.2428 -0.1682
10654W        W20347   8.187   3.364   0.781  0.1696 -0.1420  0.1494
10655W        W20348   7.062  12.025   2.675 -0.1575 -0.0531  0.1589
10656W        W20349   9.929   7.100   4.908 -0.1606 -0.3969 -0.4009
10657W        W20350  11.318   3.951   4.302  0.0910  0.0711  0.0475
10658W        W20351   3.944  17.663  14.239 -0.1888 -0.0862  0.1939
10659W        W20352   5.860  12.117  15.277 -0.0804  0.2760 -0.0121
10660W        W20353   3.355   4.929  14.785  0.0047  0.0206 -0.3761
10661W        W20354   5.817  13.872   0.211 -0.0432  0.2026 -0.0121
10662W        W20355   0.245   9.741  11.208 -0.0357 -0.2189  0.1880
10663W        W20356   7.622  13.786   4.634 -0.0211  0.1106 -0.0378
10664W        W20357  10.359   5.849  15.252 -0.0545  0.0197 -0.2044
10665W        W20358   4.998   1.714  16.204  0.1744  0.2710 -0.1112
10666W        W20359   3.754   6.624  13.876 -0.0751 -0.0121  0.1893
10667W        W20360   3.871  14.283   3.699  0.0330  0.0651  0.0554
10668W        W20361   0.913  11.529  11.497  0.0184  0.1416 -0.2695
10669W        W20362  16.140  12.144   2.135 -0.1819  0.0760  0.1270
10670W        W20363   9.318  17.020   5.216  0.1360 -0.2792 -0.0637
10671W        W20364  13.161   0.609  12.825  0.1391  0.1877 -0.3579
10672W        W20365   4.787   6.338   4.975  0.0551  0.1274  0.1394
10673W        W20366   6.427  17.731   3.783 -0.3477  0.3035  0.2799
10674W        W20367   7.400   5.243   4.174 -0.0238 -0.2618  0.2691
10675W        W20368   1.291  16.679   0.461  0.2288  0.2596  0.1216
10676W        W20369  10.779   1.366   0.192  0.0266  0.0008 -0.1626
10677W        W20370  10.244  15.164  11.694  0.1442 -0.1574  0.0700
10678W        W20371   7.776   9.782  16.387 -0.0320  0.1651  0.1700
10679W        W20372   1.708   1.993  15.121  0.2255 -0.0320 -0.1401
10680W        W20373   9.746   0.504  13.776 -0.0274 -0.0228  0.0341
10681W        W20374   5.833   2.993   3.309 -0.0547 -0.1656 -0.0277
10682W        W20375   4.250   4.505   0.660  0.3277  0.2524  0.1530
10683W        W20376  15.731  17.184   2.359 -0.0065 -0.4440  0.1231
10684W        W20377  11.799  14.221   1.205  0.0591  0.1110 -0.0323
10685W        W20378   7.910  15.351  11.445 -0.0219 -0.2495  0.0670
10686W        W20379   5.855   2.005  13.923 -0.1042 -0.0064 -0.1858
10687W        W20380   5.448   6.230   1.301 -0.1354  0.2657  0.0272
10688W        W20381  14.555  17.135  16.339 -0.0056 -0.1401 -0.1651
10689W        W20382   0.994  12.787   3.255 -0.0092 -0.1762  0.1525
10690W        W20383   3.864   2.818   0.406 -0.1597 -0.1242 -0.3910
10691W        W20384   0.412   7.601   0.136  0.1150  0.1336 -0.2924
10692W        W20385   9.379  12.374   3.518 -0.3592  0.0020  0.2121
10693W        W20386  11.977   9.587  15.665  0.0970  0.1060 -0.0097
10694W        W20387   1.104   9.298   4.601  0.0047  0.1539  0.2262
10695W        W20388  15.781  17.580  12.142  0.0209  0.2653  0.1756
10696W        W20389   4.022   4.375  12.590 -0.0612 -0.3790 -0.0482
10697W        W20390   5.537  17.279  12.943  0.3737 -0.0023  0.0783
10698W        W20391  10.602  15.877   0.126  0.2580  0.0028  0.0305
10699W        W20392   2.291  16.429  14.372 -0.1076  0.1312 -0.5548
10700W        W20393  11.256  15.017   3.448  0.1424 -0.1977  0.0364
10701W        W20394  10.047   7.515  16.392  0.2755  0.0490 -0.0012
10702W        W20395  14.112   6.943  12.416  0.2062 -0.5271  0.1437
10703W        W20396   9.614   7.069   5.913 -0.3852 -0.1189 -0.0101
10704W        W20397   8.545  11.665  11.403 -0.0960  0.0930  0.2424
10705W        W20398   0.271   5.808   3.807  0.2410  0.1277 -0.1709
10706W        W20399   3.134   1.713   1.734  0.3644  0.2488  0.0543
10707W        W20400   1.283   6.794  11.803 -0.0967  0.0512  0.1191
10708W        W20401   8.899   3.453  15.751 -0.2538 -0.0637  0.0236
10709W        W20402   7.309   5.493  16.401 -0.2846  0.0581 -0.3065
10710W        W20403   9.697  12.520  14.923  0.2677 -0.0008  0.1716
10711W        W20404  10.474   8.830  13.089  0.0721  0.0604  0.0412
10712W        W20405   5.134   2.169  12.330  0.1054  0.1292  0.1537
10713W        W20406  12.091   3.491   0.348 -0.0011  0.0267 -0.2749
10714W        W20407   5.383   4.181   1.479  0.1238 -0.1377  0.0207
10715W        W20408   6.064   5.395  12.749 -0.0159 -0.1791  0.2053
10716W        W20409   1.811   4.817  15.472 -0.2102  0.1239  0.0851
10717W        W20410  12.433  15.930   5.200  0.0204  0.4144 -0.0341
10718W        W20411   3.149  11.863   4.763  0.0111 -0.2219  0.3192
10719W        W20412  14.608  12.438  17.054 -0.1812 -0.2209 -0.2330
10720W        W20413   4.302  16.502  11.805 -0.2388 -0.0013 -0.2158
10721W        W20414  17.132   1.693   1.670 -0.1769 -0.0833 -0.1309
10722W        W20415   2.632  11.047  12.109  0.0568 -0.0677 -0.1948
10723W        W20416   3.249   4.475   0.035 -0.2383 -0.0730 -0.2440
10724W        W20417   5.216   9.302  13.256  0.0455  0.0263 -0.1345
10725W        W20418   0.734  15.648  10.825 -0.1147  0.0850  0.0899
10726W        W20419  14.562   2.102   2.125 -0.2497 -0.0199  0.0486
10727W        W20420   7.598   6.706   1.609  0.1180  0.0099  0.1548
10728W        W20421   9.858   5.854   6.290  0.1552  0.1351  0.0169
10729W        W20422   8.418   5.599   2.516  0.2715  0.1286 -0.0483
10730W        W20423   0.187   8.704   5.672 -0.4295  0.3424  0.0626
10731W        W20424  16.518  17.507  13.636  0.0358 -0.0050 -0.2356
10732W        W20425  16.238  17.284  12.189 -0.1247 -0.1784  0.0989
10733W        W20426  10.482  16.521   3.710  0.1089  0.1486  0.1283
10734W        W20427   8.951   2.336   2.172  0.4779  0.1972  0.1780
10735W        W20428  12.105   0.790   1.109  0.3785  0.2651  0.1215
10736W        W20429   9.433   2.537  14.016  0.3083 -0.1003 -0.0048
10737W        W20430  17.623  10.833  14.400  0.2317  0.0829  0.0354
10738W        W20431   9.755  10.151   5.744  0.0698  0.2402 -0.3687
10739W        W20432  12.071  12.548  13.973  0.0708 -0.1555 -0.2344
10740W        W20433  10.376  13.380   5.989 -0.0212 -0.1524 -0.0948
10741W        W20434   9.480   8.301  15.597 -0.3763  0.0343 -0.1218
10742W        W20435   1.064   6.688   0.549 -0.3110  0.2910 -0.3010
10743W        W20436   2.066   9.433   3.221  0.0338  0.1907  0.0314
10744W        W20437   3.571   5.454   3.747 -0.0348 -0.1045  0.0311
10745W        W20438   2.113   4.144   5.093  0.1795  0.0391 -0.1537
10746W        W20439   0.439   8.034   5.597  0.2981 -0.0348 -0.2835
10747W        W20440  16.726   0.734  16.719  0.2002  0.1733 -0.3304
10748W        W20441   5.936   0.234   2.931 -0.2663 -0.1566 -0.1846
10749W        W20442   7.903   0.833   3.580  0.1192 -0.1142 -0.2201
10750W        W20443   8.288   9.008   3.345 -0.1772 -0.0331 -0.1611
10751W        W20444   8.281   7.505  12.006 -0.2050  0.1131  0.1738
10752W        W20445   5.325   5.493  16.001  0.0776  0.3411  0.0503
10753W        W20446   0.400  17.511   4.269 -0.1476 -0.0029 -0.0989
10754W        W20447   0.801   4.195   3.183 -0.4712  0.1019  0.0464
10755W        W20448   0.057  10.375   6.067 -0.2527 -0.0355 -0.3149
10756W        W20449  16.066  10.988  14.838  0.1670  0.2021 -0.0347
10757W        W20450   8.969   1.944   1.247  0.2037  0.1608  0.0736
10758W        W20451  14.327   7.043  14.797 -0.2867  0.0120  0.1393
10759W        W20452   6.870   6.382   1.199 -0.1675 -0.0299  0.0521
10760W        W20453   9.220   7.602   0.616  0.2846  0.1551 -0.0177
10761W        W20454   5.535  17.263   2.080  0.1873  0.0701 -0.0523
10762W        W20455  11.678   1.345   4.955  0.0063 -0.0035 -0.0519
10763W        W20456   2.324  14.470  15.451 -0.1262 -0.2291  0.0872
10764W        W20457   3.567   9.534  16.030  0.2220 -0.0731  0.2575
10765W        W20458   6.424   9.997  12.611 -0.0746  0.1995  0.0618
10766W        W20459  14.044  11.350   5.375 -0.0589 -0.1061 -0.1881
10767W        W20460  16.233   5.027   2.011 -0.1205 -0.0937 -0.1374
10768W        W20461   7.473  15.420  14.178 -0.2486 -0.0394 -0.2618
10769W        W20462   2.501   3.103   5.640  0.4919  0.0429 -0.0782
10770W        W20463  14.679  11.795   5.338  0.1032 -0.1930  0.1270
10771W        W20464   7.838  11.686  16.683 -0.0040  0.2819  0.0800
10772W        W20465   4.554   1.085  14.685 -0.0742 -0.0604  0.2313
10773W        W20466   4.690   8.445   6.969  0.0901 -0.3519 -0.2621
10774W        W20467   6.239  15.678   5.215 -0.1304 -0.2111  0.1311
10775W        W20468   3.265   8.176   5.587  0.3325 -0.0373 -0.0484
10776W        W20469   0.139   8.687  12.897  0.1021  0.1622  0.2897
10777W        W20470   4.440  13.075   6.217  0.3779 -0.1429 -0.1959
10778W        W20471  15.069  15.811  15.806  0.0387  0.1091  0.1301
10779W        W20472  10.419  16.267   6.066 -0.1752 -0.1943  0.1720
10780W        W20473   9.304   1.379  16.936 -0.0091  0.1372 -0.0625
10781W        W20474   0.616  11.497  11.991  0.3369  0.0427 -0.0169
10782W        W20475   9.697  17.573   4.265  0.0033 -0.2063 -0.2963
10783W        W20476   5.466  10.184  12.921  0.1046  0.1998 -0.1286
10784W        W20477   8.729  13.870   2.405  0.1458 -0.1560 -0.0251
10785W        W20478   2.346   6.343   2.153 -0.2490  0.0725 -0.2714
10786W        W20479   3.464  15.220   1.239  0.0884  0.0764  0.0157
10787W        W20480  11.519  14.688  11.624 -0.0521 -0.0954  0.0179
10788W        W20481  15.044   3.905  12.467 -0.0552 -0.1071  0.1239
10789W        W20482   3.497   6.726   1.834  0.3475 -0.1597  0.0966
10790W        W20483   4.891  10.813  14.734  0.1862  0.2143  0.1033
10791W        W20484   9.467  11.180  14.113  0.4489  0.1761 -0.4656
10792W        W20485   7.891   3.736  14.134 -0.0075  0.0767 -0.4865
10793W        W20486  16.957   0.240   4.063 -0.1133  0.0748 -0.1114
10794W        W20487  15.391  11.656  15.090 -0.1814 -0.4312 -0.1390
10795W        W20488   2.293  11.051   2.437 -0.0597 -0.0005 -0.0879
10796W        W20489   7.779  14.186  14.519 -0.0582  0.1488 -0.0350
10797W        W20490  11.561  17.104   5.399  0.0550  0.0104 -0.3730
10798W        W20491  11.576   2.762  15.312  0.1062 -0.0243  0.1062
10799W        W20492   4.613  15.080  12.614  0.0932 -0.1425 -0.2556
10800W        W20493   8.316  11.287   3.204 -0.1128 -0.2229  0.0124
10801W        W20494  11.673  12.595   3.543 -0.0309 -0.1574 -0.0418
10802W        W20495   8.891   9.765  14.136 -0.0518 -0.0489  0.0343
10803W        W20496   3.037  12.557  12.707 -0.1404 -0.3167 -0.2437
10804W        W20497   1.219   5.097   4.900 -0.0823 -0.2244  0.1044
10805W        W20498   6.417  11.257   5.936  0.2547  0.2649 -0.1774
10806W        W20499   6.501   5.918   1.494  0.1542  0.1060 -0.0397
10807W        W20500   2.338   7.793  16.705  0.1971  0.1972  0.0130
10808W        W20501   6.918   1.944  16.395  0.2148 -0.0180  0.0467
10809W        W20502   2.286  11.851  15.540  0.5075 -0.0876 -0.1633
10810W        W20503  11.379   1.898   2.385 -0.0503 -0.0361 -0.0465
10811W        W20504   6.258  12.701  11.333  0.2532  0.0556 -0.2039
10812W        W20505   4.752   7.945   4.315 -0.0413  0.0160  0.0292
10813W        W20506   1.587   1.780   0.805 -0.2050  0.1209 -0.0826
10814W        W20507   6.508   6.696  15.155 -0.4110  0.1388 -0.2025
10815W        W20508   6.625   5.778   2.884 -0.2895 -0.0642 -0.1594
10816W        W20509   4.622  15.973   1.205 -0.1690 -0.1983 -0.1103
10817W        W20510  13.047   6.148  12.056  0.0805 -0.1555  0.0042
10818W        W20511   3.561  15.424   5.685 -0.0583  0.1171 -0.2920
10819W        W20512   5.843   4.854   5.323  0.1871  0.0640  0.0201
10820W        W20513  16.020   6.142   1.030  0.2170 -0.3649 -0.2482
10821W        W20514  14.715   8.214   3.501  0.0240 -0.0619  0.3075
10822W        W20515  10.418   3.760  16.889 -0.3654  0.1430  0.0980
10823W        W20516  12.722   2.285   0.621 -0.0969  0.0934  0.1498
10824W        W20517  16.619  11.779  13.544 -0.0308 -0.0095  0.1670
10825W        W20518  11.106  13.289   1.403 -0.1622  0.1694  0.3364
10826W        W20519   4.104  12.540   4.003  0.2624  0.0392 -0.0276
10827W        W20520   7.159   0.504   5.260 -0.0085 -0.2932 -0.0128
10828W        W20521  12.521  16.792   3.769 -0.1816 -0.0784 -0.0375
10829W        W20522   8.297  16.601   3.836 -0.1402  0.2135 -0.0526
10830W        W20523   9.866   4.391  17.031  0.1815  0.2702 -0.0109
10831W        W20524  10.507  11.578   0.566 -0.0858  0.1299  0.1733
10832W        W20525   4.977   1.753  12.118  0.0141 -0.2020 -0.0431
10833W        W20526   4.515  17.809   3.526  0.1002  0.1101 -0.2361
10834W        W20527  14.851  15.971   5.465  0.1887  0.1998 -0.0896
10835W        W20528   4.583   0.946   0.088 -0.0437  0.0440  0.0144
10836W        W20529   6.891  12.454  13.187  0.0932  0.2799  0.3186
10837W        W20530   9.572   4.347   5.261  0.1910 -0.1098 -0.0572
10838W        W20531   2.825   7.341  10.891 -0.2919 -0.1847  0.0279
10839W        W20532   4.432   2.681  15.203  0.0356 -0.0668 -0.0515
10840W        W20533  13.467   0.375  11.946  0.0178  0.2201  0.0880
10841W        W20534   8.567   1.419   2.904 -0.1373  0.0676  0.0715
10842W        W20535   8.718   4.163  16.186  0.0194 -0.0243  0.0196
10843W        W20536   1.160   8.592   4.412  0.0604  0.1109  0.0056
10844W        W20537   0.463  17.095  14.694 -0.0747 -0.2261  0.1483
10845W        W20538   1.659   8.631   5.692 -0.1062 -0.0854  0.0278
10846W        W20539   6.520  12.140   0.139 -0.0323  0.0770  0.2137
10847W        W20540   6.073   5.536   1.759  0.1214  0.0663 -0.1415
10848W        W20541   7.999  15.163  14.232 -0.0838  0.0968  0.1934
10849W        W20542   1.247  14.970  15.840 -0.2502  0.0403 -0.2966
10850W        W20543   6.634  14.009   1.513 -0.0447  0.2281  0.0824
10851W        W20544   1.239  14.789   4.014  0.1595  0.3051  0.0602
10852W        W20545   8.694   7.277  15.641  0.1722  0.1573 -0.0646
10853W        W20546  17.118   1.526  14.224 -0.0870 -0.0982 -0.4143
10854W        W20547   6.429   6.369   1.687  0.1257  0.0764  0.0978
10855W        W20548   6.819   1.741   2.706  0.0114 -0.0666  0.0985
10856W        W20549   3.706   0.888   5.252 -0.0974 -0.1069 -0.2171
10857W        W20550   0.762  10.773   4.224  0.1772 -0.1633 -0.1870
10858W        W20551   5.051   6.235  12.954 -0.0266  0.0757 -0.1906
10859W        W20552   4.127  13.158  14.923 -0.1192  0.0353  0.0449
10860W        W20553  10.290   1.334  12.026  0.1393  0.0935  0.0183
10861W        W20554  15.413  16.901  16.576  0.1102  0.2454 -0.0100
10862W        W20555   1.621   3.533  16.441 -0.0914  0.0891 -0.3059
10863W        W20556   2.350   3.308  14.823 -0.2071  0.2908 -0.1187
10864W        W20557   0.089  14.198  11.577  0.0085  0.0121 -0.0770
10865W        W20558   6.039   1.305  14.526  0.0610  0.3381  0.3767
10866W        W20559   7.039   6.134  13.361  0.3922  0.2775  0.0259
10867W        W20560   8.355  10.460   4.622 -0.1410 -0.2573 -0.0708
10868W        W20561  14.038   1.881   4.729  0.0231  0.1243 -0.0532
10869W        W20562   6.553   0.898   3.137  0.4342  0.1033 -0.1766
10870W        W20563  10.410  13.943  13.823 -0.4833  0.2458 -0.0718
10871W        W20564   0.189   1.970   1.234 -0.3427 -0.1659  0.1129
10872W        W20565   2.821  10.320   2.041  0.1626  0.0614 -0.1384
10873W        W20566   5.309   9.126   0.964  0.1357 -0.2076  0.1734
10874W        W20567   1.310   4.116  14.914 -0.0814 -0.1152  0.0205
10875W        W20568   0.850   2.394  15.279  0.4767 -0.1490  0.3355
10876W        W20569  10.809  17.195  12.389 -0.1205  0.0059 -0.0655
10877W        W20570  14.059   4.894  13.948 -0.1575  0.0203 -0.1811
10878W        W20571   9.369  10.845   2.878 -0.2329  0.3061 -0.0411
10879W        W20572   0.299  10.186  11.800 -0.0301  0.2628 -0.0813
10880W        W20573   0.737  10.554  13.818  0.1042 -0.1354 -0.3175
10881W        W20574  14.712   5.206   6.337  0.0812 -0.2111 -0.0448
10882W        W20575   8.964  14.908   5.336  0.1817  0.0077  0.0660
10883W        W20576   7.111  10.195   3.160  0.3162 -0.0065 -0.3236
10884W        W20577   7.993   2.779  12.058 -0.0178  0.3119 -0.0642
10885W        W20578   5.954  13.078  13.093 -0.2936  0.2272  0.1348
10886W        W20579   0.088  13.388  14.562 -0.3608 -0.4031 -0.1990
10887W        W20580   4.549  16.571  15.196 -0.0643  0.2020 -0.0818
10888W        W20581   9.350  10.319   2.649 -0.0609  0.1189  0.1139
10889W        W20582  16.014  16.739  14.125 -0.0605 -0.3044 -0.0605
10890W        W20583   9.289  17.529   3.908 -0.1134  0.0382 -0.0046
10891W        W20584   3.520   4.082   1.723 -0.0459  0.3711  0.1011
10892W        W20585   5.496  14.907   2.252  0.1955  0.0646 -0.2144
10893W        W20586   1.588  15.664  12.796  0.2676  0.0863 -0.0286
10894W        W20587   8.030   0.878  10.692  0.0311  0.1037 -0.0714
10895W        W20588   6.500   5.042  13.055  0.0704 -0.0033  0.0782
10896W        W20589   8.018   1.099   6.233  0.0266 -0.0631  0.0880
10897W        W20590   7.782  15.005  12.392  0.3633  0.2557 -0.2020
10898W        W20591   6.055   8.940   4.802 -0.0720  0.1029 -0.0054
10899W        W20592   7.283  12.929  12.965 -0.0775 -0.1611  0.0183
10900W        W20593   3.635  15.661  10.495  0.0973  0.1135  0.0438
10901W        W20594   5.853   5.018   2.081  0.0599 -0.1658  0.1657
10902W        W20595   3.546  11.642   2.560 -0.0386 -0.0305  0.0381
10903W        W20596   8.376  17.347  15.891  0.1189 -0.3755  0.2800
10904W        W20597   3.597   4.667   0.946  0.0406  0.3045 -0.0586
10905W        W20598   6.148   1.772  14.614  0.1630 -0.0515  0.2911
10906W        W20599   6.137   8.669  14.283 -0.0754 -0.0466  0.3380
10907W        W20600   6.609  11.334   4.560  0.4045  0.4130  0.0287
10908W        W20601   2.914  13.234  15.775  0.0360 -0.4142 -0.3442
10909W        W20602   7.139   8.785  14.385  0.3513 -0.3376  0.1135
10910W        W20603   2.534   0.590   6.247  0.1553  0.1797 -0.1113
10911W        W20604   1.148  14.929  13.241  0.4543 -0.3235 -0.0247
10912W        W20605   8.035   6.697   3.596  0.1763  0.0360 -0.0159
10913W        W20606   4.155  17.716   4.862 -0.0173 -0.1093  0.3885
10914W        W20607  17.287  14.056  16.932  0.1137  0.1743 -0.3405
10915W        W20608   1.204   5.800  12.993 -0.1612  0.0526  0.2413
10916W        W20609   1.912   8.563   2.119 -0.1825  0.0159 -0.2543
10917W        W20610   3.810  17.609   4.197  0.1301  0.1615  0.0283
10918W        W20611   4.507   1.845   3.242 -0.1350 -0.2017  0.1668
10919W        W20612   2.964   2.313  16.285 -0.2268  0.2657  0.1236
10920W        W20613  17.124   3.395   3.031  0.0137  0.1710 -0.0378
10921W        W20614   3.446  17.433   0.056 -0.1497 -0.0488  0.2100
10922W        W20615   0.089   4.202   0.035 -0.0772 -0.2917 -0.0347
10923W        W20616   8.107   8.245  15.337 -0.2351  0.0710  0.2523
10924W        W20617   4.821   0.417  13.528 -0.1473 -0.2434 -0.0407
10925W        W20618   9.914  14.805   3.752 -0.2128  0.1356 -0.1307
10926W        W20619   9.381   3.057  13.143  0.4664 -0.0037  0.1310
10927W        W20620   5.470   6.930  17.047 -0.1016  0.0180 -0.2702
10928W        W20621  14.016  13.937  16.464 -0.3452 -0.0780 -0.4045
10929W        W20622  15.546   3.558  15.919  0.2957  0.0005  0.2065
10930W        W20623   3.078  16.318   1.320  0.0632 -0.0413  0.2594
10931W        W20624   2.505   8.564   2.687  0.1749  0.1811  0.2249
10932W        W20625   0.867  10.804   1.668  0.3975  0.2982  0.0472
10933W        W20626   5.940   7.092  13.578 -0.3211  0.1274  0.1333
10934W        W20627   5.758   7.651   2.570  0.3074  0.0933 -0.2531
10935W        W20628   1.705   9.113   1.293  0.2063  0.0841  0.1980
10936W        W20629   8.170   9.029  15.000  0.1134 -0.1631  0.2783
10937W        W20630   3.778  16.195   5.449  0.1485  0.5144  0.1536
10938W        W20631   1.495   5.099  14.624 -0.0091  0.1922 -0.3408
10939W        W20632   6.531   2.873   0.315 -0.2236  0.1545 -0.0878
10940W        W20633   6.163  13.437   0.409 -0.2260  0.0911 -0.1172
10941W        W20634   6.361   0.470  14.583 -0.1704  0.0088 -0.1272
10942W        W20635  16.289   7.034  14.262 -0.0098  0.2521 -0.0275
10943W        W20636   6.526  12.909   2.569  0.1846  0.0357  0.0155
10944W        W20637   3.324  12.526   4.699 -0.1255  0.1737 -0.0459
10945W        W20638   3.190  17.526  13.584  0.1722 -0.2765 -0.0267
10946W        W20639  16.388   0.368   5.262 -0.0521  0.0940  0.1730
10947W        W20640  17.267  17.810  12.177 -0.1067  0.2075 -0.1443
10948W        W20641  16.122  11.986   5.964  0.1096 -0.3487  0.0878
10949W        W20642   8.352   2.193  11.332  0.1652 -0.1041  0.1898
10950W        W20643   3.654  12.803  14.892  0.1854 -0.1640 -0.1108
10951W        W20644   5.902   4.208   1.586 -0.0505  0.1729 -0.0396
10952W        W20645   4.183  15.819  16.808  0.0865 -0.0702 -0.0108
10953W        W20646  11.725   0.121   0.282 -0.0437  0.1727 -0.1889
10954W        W20647   7.864   6.461   1.157  0.0787 -0.0088  0.1819
10955W        W20648  17.136   5.446  16.360 -0.2634 -0.0256  0.0860
10956W        W20649   7.166   2.442   1.700  0.1143 -0.1581 -0.0460
10957W        W20650   4.566   0.223   3.077  0.1610  0.3044 -0.2021
10958W        W20651  17.006   8.838  17.067  0.0654  0.2448 -0.1208
10959W        W20652   3.542   8.129   1.238 -0.0550 -0.2050 -0.0401
10960W        W20653   7.865  14.095   0.291  0.3440 -0.1646  0.2973
10961W        W20654   6.223   9.426   2.569  0.0123 -0.0293  0.2755
10962W        W20655   6.989   9.596   0.706 -0.4828 -0.1711  0.0844
10963W        W20656  12.870  14.166   2.557 -0.3118  0.0721  0.2761
10964W        W20657   1.131   7.341   3.285 -0.2245 -0.0064 -0.3087
10965W        W20658   5.103  17.607   2.787  0.0186 -0.0807  0.2458
10966W        W20659   3.877   8.828   1.063 -0.0040 -0.0374  0.2304
10967W        W20660   3.678   0.359   4.850 -0.4242  0.0979 -0.0320
10968W        W20661   3.101   8.937  15.630  0.0803  0.0357  0.2324
10969W        W20662   5.505   4.420   4.112  0.1385  0.1390  0.2187
10970W        W20663   8.146   9.107   2.838 -0.1396  0.1789  0.2886
10971W        W20664  12.288  17.214  12.298  0.1400  0.2042  0.1059
10972W        W20665   2.403   3.535   5.285  0.1231 -0.3059 -0.1220
10973W        W20666   9.234   2.567   2.800  0.0689 -0.0261 -0.2137
10974W        W20667   3.331  13.645   1.296 -0.0594 -0.4034  0.2599
10975W        W20668   7.546   2.162   2.502  0.1072 -0.0046 -0.0099
10976W        W20669  10.399   2.546   5.361 -0.3316 -0.0357 -0.2742
10977W        W20670   8.952   3.611  14.770  0.3083  0.0364  0.1296
10978W        W20671   7.952   1.181  15.250  0.0243  0.0643  0.1563
10979W        W20672   8.766  13.890  16.820 -0.0183 -0.3517  0.3721
10980W        W20673   6.970  16.894  13.514 -0.2343 -0.0303 -0.1286
10981W        W20674  15.766   1.501  15.307 -0.1767  0.1089 -0.2045
10982W        W20675   8.605   5.268  12.239 -0.3929  0.1188  0.1058
10983W        W20676  17.816  16.376  10.269 -0.0321 -0.0154  0.0111
10984W        W20677  14.804  14.479   4.887  0.1877  0.0551  0.0780
10985W        W20678   0.082   2.485  11.685  0.0110  0.1052  0.0064
10986W        W20679   2.640  13.670  12.287 -0.1165 -0.0620  0.1012
10987W        W20680   2.536   4.164   1.881  0.0405  0.2138 -0.2220
10988W        W20681   2.006  16.652   4.655  0.1147 -0.2542 -0.3829
10989W        W20682  17.938  14.199  14.117 -0.2000 -0.2265  0.0736
10990W        W20683   9.891   1.505  13.043  0.1346 -0.1251  0.0701
10991W        W20684   3.025   3.985   1.589  0.0888  0.0672 -0.1007
10992W        W20685   9.243  13.629   2.251 -0.0240 -0.1775 -0.1030
10993W        W20686   3.850  12.012  15.116  0.1044 -0.2284 -0.0120
10994W        W20687   5.877  15.795  11.602  0.1811  0.1975  0.3928
10995W        W20688   6.722  10.129  15.245  0.0786 -0.1120 -0.1519
10996W        W20689  12.892  11.771  13.628  0.0769  0.1791 -0.0628
10997W        W20690   9.713  12.660  12.520  0.0878 -0.2806  0.0765
10998W        W20691  14.139   9.518   4.206 -0.0911 -0.1604 -0.1018
10999W        W20692   6.466   4.575   1.596 -0.0021 -0.1614  0.0264
11000W        W20693   7.507   4.183  13.283 -0.2966  0.3304 -0.1436
11001W        W20694   6.115  11.495   4.262  0.1080  0.3995 -0.3262
11002W        W20695  10.058   8.640   4.725  0.0081 -0.1706 -0.0606
11003W        W20696   1.947   9.054   4.289 -0.2499 -0.1194  0.0225
11004W        W20697   5.486  14.632   4.475  0.0734 -0.2756  0.0518
11005W        W20698   7.478   5.215   5.198  0.1615 -0.3206 -0.1426
11006W        W20699  12.301  16.869  14.592 -0.2620  0.0217  0.1579
11007W        W20700   2.154  12.321   0.094  0.0517  0.0155 -0.0956
11008W        W20701   1.872   5.912  10.446  0.1971 -0.1379  0.0690
11009W        W20702  10.441   4.447   0.552  0.2037  0.3074 -0.4823
11010W        W20703  17.554  12.056   1.256  0.0029 -0.0299  0.0610
11011W        W20704   3.630  11.834   5.970  0.0857 -0.0650  0.0624
11012W        W20705   1.945   8.160   1.811 -0.1599 -0.0102  0.0907
11013W        W20706   1.010  13.543   0.864 -0.3158  0.0614  0.0517
11014W        W20707   6.308   9.219  16.422  0.1066  0.3473 -0.0751
11015W        W20708   2.714  16.312   1.798 -0.0517  0.1543  0.0991
11016W        W20709   4.505  17.660  15.055  0.1150 -0.1072 -0.2482
11017W        W20710   0.953   0.312  14.710  0.0759 -0.0501 -0.1787
11018W        W20711   7.596  15.464   2.627  0.2173  0.2189 -0.3442
11019W        W20712   0.781   6.605   5.672 -0.0830  0.1741  0.1841
11020W        W20713   8.066  15.743   1.769 -0.2281  0.1162  0.0290
11021W        W20714   3.169   8.176  13.504  0.2825  0.1889  0.1547
11022W        W20715   3.719  15.157  12.719  0.0527  0.1762 -0.0622
11023W        W20716  17.980   6.901  15.359 -0.0114 -0.1763  0.2005
11024W        W20717   0.592  12.725  11.791 -0.1899  0.0160 -0.3616
11025W        W20718   8.451  10.636  11.523 -0.2407 -0.0288  0.1081
11026W        W20719   1.909   2.242   4.954  0.0898 -0.0034 -0.0593
11027W        W20720   7.366  11.090   3.380 -0.0538  0.2250  0.0950
11028W        W20721   6.996   5.691   4.977 -0.1948  0.0029  0.3674
11029W        W20722   5.832   6.795  15.312 -0.1940 -0.1796 -0.0995
11030W        W20723   3.355  17.084  10.895  0.2238  0.1934  0.1805
11031W        W20724  11.028   6.903   5.197 -0.0280 -0.0305 -0.0687
11032W        W20725   5.371   4.955   5.196  0.1273  0.2802 -0.2960
11033W        W20726   8.909   4.448  14.410  0.0178 -0.1558 -0.3181
11034W        W20727   0.380   5.367   1.400 -0.0203  0.1486 -0.1543
11035W        W20728  10.372  17.142   0.237  0.0213  0.0348  0.1207
11036W        W20729   4.810   3.351  14.562  0.2573  0.0223  0.1174
11037W        W20730   5.661  13.046   3.908  0.0104  0.2840  0.0873
11038W        W20731   7.585   2.860  16.855  0.1995  0.1176  0.1176
11039W        W20732   4.775   5.524  15.135 -0.0716  0.1988  0.1567
11040W        W20733   0.651   0.044   1.082 -0.1683  0.0505 -0.1124
11041W        W20734   7.057  17.605   5.717  0.0215 -0.0671 -0.0598
11042W        W20735  17.655   9.129  16.839  0.1728 -0.2240  0.1322
11043W        W20736   0.440  17.668   0.116 -0.0270  0.1754 -0.0487
11044W        W20737   4.907  12.683   4.959 -0.0007  0.0690 -0.4050
11045W        W20738   3.142   9.214  15.181  0.0558  0.0330 -0.2893
11046W        W20739   0.603  10.653   4.778  0.1387 -0.0188  0.1303
11047W        W20740   6.926   3.993  13.962  0.0117 -0.3589 -0.1900
11048W        W20741  10.918  11.765  16.802 -0.1665  0.4538 -0.0082
11049W        W20742   2.872   1.705  14.235 -0.1084 -0.0120 -0.0273
11050W        W20743   4.653  14.562   5.193  0.1189  0.0726  0.1397
11051W        W20744   2.747  12.183   4.126  0.0846  0.1512  0.0693
11052W        W20745   4.770   1.613   3.635  0.1969  0.3282  0.0648
11053W        W20746   3.475   7.691  12.846  0.0397  0.0110  0.0832
11054W        W20747  16.887  10.165  16.892 -0.0691 -0.1770 -0.1580
11055W        W20748   0.526  12.884  11.312 -0.2093 -0.1207  0.0628
11056W        W20749  14.918   7.393   3.986 -0.0034 -0.0774  0.0790
11057W        W20750  12.844   6.183   1.300 -0.1948 -0.0794 -0.2110
11058W        W20751  15.185  14.820   1.056 -0.0585 -0.2425 -0.1482
11059W        W20752   8.518   0.399   1.966 -0.0874 -0.0405 -0.0712
11060W        W20753  17.797   6.730   5.983 -0.0770 -0.1110 -0.0421
11061W        W20754   0.478  10.500  12.163  0.2431 -0.0085  0.1477
11062W        W20755   9.952  17.036  15.154  0.0071  0.2258  0.0264
11063W        W20756   6.588   0.637  15.794 -0.0283 -0.0821  0.1996
11064W        W20757  11.941  12.581   5.457 -0.2899 -0.3576 -0.1021
11065W        W20758  16.040  14.805   2.080  0.0773 -0.0037  0.2449
11066W        W20759   4.823   2.625  13.890  0.0797  0.0427  0.0955
11067W        W20760   6.543   8.334  16.046  0.0289 -0.0253  0.0827
11068W        W20761   0.737  14.798   4.221 -0.2650 -0.2375 -0.0095
11069W        W20762   4.334   6.718  12.894 -0.0430 -0.0455 -0.3180
11070W        W20763  16.481  13.808   3.384 -0.1836  0.0031  0.3769
11071W        W20764  15.026  13.550   4.502 -0.1481  0.1975  0.0687
11072W        W20765   4.489   2.972  15.586 -0.0584  0.0297 -0.0339
11073W        W20766   5.604   4.380   5.508 -0.1231 -0.1098  0.2416
11074W        W20767   5.783  13.770  14.211 -0.0522 -0.2563  0.0294
11075W        W20768  16.158   3.502   0.167  0.1260  0.2383  0.0392
11076W        W20769  17.699   9.626  13.626 -0.3296  0.0258  0.1495
11077W        W20770   4.745   8.038   1.802 -0.0987 -0.1723 -0.1631
11078W        W20771  17.900  12.548  12.438 -0.0513 -0.1460  0.0973
11079W        W20772   9.408  10.371  11.875  0.1054 -0.2363  0.0017
11080W        W20773   3.891  14.928   3.088  0.0215  0.0188 -0.0359
11081W        W20774   6.761   3.251   1.125  0.0818  0.3256 -0.0906
11082W        W20775   3.900  14.514  15.288 -0.5233 -0.1954  0.2041
11083W        W20776   7.512  17.282  16.189 -0.0268 -0.0336 -0.0620
11084W        W20777  14.297   3.729   3.337  0.1355 -0.1079  0.0763
11085W        W20778   5.108   1.779   1.587 -0.1513  0.3151  0.1134
11086W        W20779   3.499   7.588  14.753 -0.0807  0.0564 -0.0623
11087W        W20780  10.655   6.493  16.454 -0.2742  0.2390 -0.1218
11088W        W20781   7.054   2.777  13.520  0.0219  0.0479  0.2559
11089W        W20782   4.249   3.426  15.547 -0.3110  0.1089  0.1182
11090W        W20783  15.110   2.897  10.594  0.1310 -0.2760 -0.1477
11091W        W20784   7.629   2.894   3.166 -0.0078  0.2578 -0.0318
11092W        W20785  13.993   8.893   3.721  0.2234 -0.3191 -0.3292
11093W        W20786  12.091  13.826  14.975 -0.2252  0.2441 -0.2460
11094W        W20787   3.207   9.098   0.043  0.1729  0.0497 -0.2606
11095W        W20788   9.391  12.575   1.196  0.2775 -0.0206 -0.1589
11096W        W20789  11.382  17.620   3.017  0.0779 -0.3242  0.1976
11097W        W20790   7.115   9.385  12.590 -0.0144  0.0337  0.2212
11098W        W20791   3.416  17.102   3.181 -0.3612  0.0062 -0.0052
11099W        W20792   1.237  13.228  11.744 -0.1365  0.2272 -0.3319
11100W        W20793  10.571  10.699   4.892 -0.1458 -0.3301 -0.0169
11101W        W20794  14.181   4.396  13.756 -0.4508 -0.1677  0.2471
11102W        W20795   1.330   5.001  12.344  0.1401  0.0994  0.1665
11103W        W20796   7.127   8.168  15.469 -0.1442  0.0245 -0.3309
11104W        W20797   9.351  10.997  16.551  0.3196 -0.0028  0.0225
11105W        W20798   2.538   7.625  14.946 -0.2018  0.2439  0.0565
11106W        W20799   2.607  12.411  16.913 -0.1826 -0.1769 -0.2323
11107W        W20800  14.853   1.285   4.991 -0.1905 -0.1202 -0.1970
11108W        W20801   5.801  11.868  16.730 -0.1029  0.0179  0.1355
11109W        W20802   0.164   1.623   5.049 -0.2331 -0.0454  0.0035
11110W        W20803   5.265   1.149  14.946 -0.2966  0.0502  0.2223
11111W        W20804   3.438   7.000   0.919 -0.0439  0.0654 -0.0669
11112W        W20805  13.891  14.243  14.205  0.3209 -0.1539  0.0721
11113W        W20806   1.307  14.809  15.225  0.0315 -0.2554 -0.2311
11114W        W20807  16.183   2.747   4.059 -0.0368 -0.0015  0.0618
11115W        W20808   6.579   2.400  14.901 -0.0954 -0.1079  0.0030
11116W        W20809   3.635  11.121   4.385 -0.2013  0.1709 -0.0807
11117W        W20810  15.272   9.654   2.124 -0.1725 -0.2933 -0.1656
11118W        W20811  16.300  17.653  14.091  0.1259  0.0563 -0.2074
11119W        W20812   7.561   6.084   4.695 -0.1928 -0.1457 -0.3111
11120W        W20813  13.688   4.504  12.382 -0.0335  0.0302  0.5774
11121W        W20814   4.365  14.111   4.762  0.1112 -0.0095  0.0154
11122W        W20815   1.958   5.656   3.215  0.0560  0.0490 -0.0385
11123W        W20816  14.969   7.782  11.354 -0.1568 -0.0835 -0.0294
11124W        W20817   4.029  13.960  13.311 -0.3781 -0.3362  0.0386
11125W        W20818   5.861  16.251  11.904 -0.0783  0.3422 -0.0352
11126W        W20819   5.789   4.097  14.706 -0.0594  0.1735  0.0939
11127W        W20820  11.569   9.997   5.916  0.0486 -0.0043 -0.0904
11128W        W20821  17.379   1.683   1.165  0.0624 -0.1710 -0.0252
11129W        W20822  17.662  15.160   2.209 -0.0100 -0.1097  0.2527
11130W        W20823  16.818  13.809   2.929  0.2009  0.2386 -0.3106
11131W        W20824  13.795   8.486   1.420  0.0049  0.1106  0.0776
11132W        W20825   4.854   5.217  11.923 -0.2149 -0.1597  0.1817
11133W        W20826  12.022   2.092  12.960 -0.1070  0.1148  0.0657
11134W        W20827  12.640  10.295   3.982  0.1711  0.0261  0.3254
11135W        W20828   7.782   5.010  17.085 -0.1309 -0.1322 -0.0218
11136W        W20829  15.744   2.833  12.977 -0.1086 -0.0343  0.2483
11137W        W20830  12.106  13.567   2.566 -0.2748  0.2494  0.1016
11138W        W20831  14.665   1.165  13.893  0.0428  0.0484  0.1432
11139W        W20832  15.003  10.681  16.121 -0.2603 -0.0716 -0.0626
11140W        W20833   9.852   3.308  13.173 -0.3485 -0.0176  0.2115
11141W        W20834  16.036   4.449  14.029  0.2620  0.2189 -0.1370
11142W        W20835   8.987   8.168  13.565  0.0973 -0.0549 -0.2016
11143W        W20836   7.345  13.052   2.207 -0.2799 -0.0606  0.1981
11144W        W20837   4.708   8.305   2.988  0.1483 -0.1747  0.6125
11145W        W20838  12.861  13.650  15.335 -0.0030  0.0903 -0.0251
11146W        W20839  12.076   8.735   1.882  0.2737 -0.3468 -0.0758
11147W        W20840  12.604  12.838  16.795 -0.1232 -0.0207 -0.0391
11148W        W20841   3.185   2.826  13.383 -0.1591  0.1980  0.0898
11149W        W20842   6.484  12.453  12.792 -0.0112 -0.1515 -0.2440
11150W        W20843   9.703   0.190   0.593 -0.1235  0.1014  0.1522
11151W        W20844  16.656  13.607   1.007 -0.0085 -0.1311  0.0035
11152W        W20845   9.199  15.105   4.896 -0.0228 -0.1539  0.0875
11153W        W20846   8.630   2.497   3.250  0.0316 -0.0425 -0.1575
11154W        W20847  14.656  16.268  16.467 -0.0603  0.0051  0.0108
11155W        W20848   8.730   5.253   2.741  0.0699  0.0401 -0.0791
11156W        W20849  16.671  13.775   3.884 -0.0954  0.0155  0.0387
11157W        W20850  11.267   1.377  12.050  0.0294  0.0162 -0.0353
11158W        W20851  17.900  13.658  14.119  0.1945 -0.0715 -0.0141
11159W        W20852  17.304   1.884  14.566 -0.2770 -0.0139  0.0185
11160W        W20853   2.216  15.092   4.392 -0.0508  0.2916 -0.0428
11161W        W20854   2.137  17.050  11.899 -0.4578 -0.2727  0.5792
11162W        W20855  10.024  10.611   5.196  0.0467  0.2155 -0.0085
11163W        W20856   4.726   4.619   2.245  0.0820 -0.1727  0.1552
11164W        W20857   8.769   7.050   5.455  0.1950  0.1805  0.0994
11165W        W20858   2.865  11.487  17.099  0.1524  0.2035 -0.0642
11166W        W20859  15.346   4.392  16.224 -0.0769  0.0759  0.0849
11167W        W20860   8.966  15.698   6.639 -0.0804  0.0872  0.4396
11168W        W20861   1.306   0.676   2.684  0.0403  0.0647 -0.0590
11169W        W20862  11.247   7.612   1.399  0.0136 -0.2143 -0.1239
11170W        W20863  14.966   1.140  16.684 -0.3883 -0.0742  0.2215
11171W        W20864   6.613   3.266   6.191 -0.1042 -0.3120 -0.1007
11172W        W20865   2.971  15.858  16.282 -0.4675 -0.2099 -0.0414
11173W        W20866  16.451   8.728   4.805  0.0802  0.1310 -0.2739
11174W        W20867   0.521   4.501  12.565  0.0190 -0.0205  0.2393
11175W        W20868  11.354   3.183  15.186 -0.0640  0.1669 -0.0143
11176W        W20869   9.484   3.092  16.774  0.0532  0.0022  0.0048
11177W        W20870   2.650  13.695  13.264  0.2339 -0.0279 -0.2250
11178W        W20871   0.668   6.322  15.078  0.0351  0.2614  0.2458
11179W        W20872  10.193  14.477  15.213 -0.0091 -0.1571  0.0865
11180W        W20873   2.084   6.396  11.592  0.0367 -0.1098 -0.1100
11181W        W20874   3.277  15.505  14.514  0.1410 -0.1685  0.2665
11182W        W20875  10.738  13.383  14.668  0.1387 -0.0411 -0.5211
11183W        W20876   4.625  10.089  13.453  0.2670  0.2258 -0.1214
11184W        W20877   7.129  16.301   2.518 -0.2132  0.1068  0.2034
11185W        W20878  11.727  12.196  13.813 -0.1019  0.3724  0.1207
11186W        W20879   5.963   9.070   5.314 -0.1080 -0.1766  0.1228
11187W        W20880   6.452  12.225   5.879  0.1099  0.2177  0.0670
11188W        W20881  11.007   3.017   3.710  0.0291  0.1655 -0.1375
11189W        W20882  14.326  12.121   0.995 -0.0594  0.2837 -0.1214
11190W        W20883   3.281  14.635   3.658  0.1874 -0.2881 -0.1044
11191W        W20884  15.168  14.443   5.580  0.0187 -0.2815 -0.1759
11192W        W20885  10.739   6.894   2.974  0.3853  0.1864 -0.1609
11193W        W20886   7.261   3.274  14.715 -0.0995 -0.1028  0.1443
11194W        W20887   2.551   6.392   4.987 -0.0950 -0.2159 -0.0479
11195W        W20888   3.341   6.279   4.779  0.0926 -0.0968  0.1394
11196W        W20889   8.397  13.660   1.594 -0.0600  0.1647 -0.0247
11197W        W20890   3.074  15.454  13.488 -0.1235  0.1954  0.1283
11198W        W20891   9.542   2.847  15.821  0.0706 -0.2224  0.2524
11199W        W20892  12.059   5.280  16.933 -0.1309  0.4637  0.0864
11200W        W20893   6.836  16.329  15.282  0.0209  0.1356  0.1788
11201W        W20894   5.131   4.013   5.115 -0.2580  0.6614 -0.1580
11202W        W20895  17.265   0.118   3.581 -0.0114  0.0735  0.0318
11203W        W20896   4.530   3.563   4.624  0.0273 -0.1270  0.0525
11204W        W20897  15.531  13.881  11.432  0.1130 -0.1216  0.0331
11205W        W20898   1.919   7.124  12.310 -0.0856  0.0624  0.0116
11206W        W20899   6.550   7.827  12.960  0.2519 -0.1151 -0.1378
11207W        W20900   9.685  11.020   0.404 -0.1363 -0.3017  0.1316
11208W        W20901  12.264  16.592  14.127 -0.1759 -0.2964  0.1168
11209W        W20902   6.997  13.643   5.175 -0.0301  0.0138 -0.1926
11210W        W20903   9.199  17.466   6.233 -0.0477  0.2003 -0.0767
11211W        W20904  17.245  15.037   4.502  0.2655  0.0012 -0.1194
11212W        W20905   4.380   4.412   4.033 -0.1941  0.2380 -0.0419
11213W        W20906   3.339   6.211  17.026 -0.1359 -0.0633 -0.0325
11214W        W20907   4.258   2.411   1.543 -0.3206 -0.1687 -0.1655
11215W        W20908   8.748  15.380  14.577  0.2704  0.2612  0.1938
11216W        W20909   3.095   5.707  13.513  0.1260  0.0852 -0.2027
11217W        W20910  12.926   5.974   2.599 -0.1286 -0.1869 -0.1938
11218W        W20911   9.995   5.517  17.116 -0.2377 -0.0487  0.0166
11219W        W20912  14.178   1.751  13.739 -0.1099  0.1674 -0.3301
11220W        W20913  10.413  17.038  11.083  0.1445 -0.0120 -0.2152
11221W        W20914   1.086   5.035   2.977 -0.1712 -0.2299  0.1096
11222W        W20915   6.105  13.409   5.424 -0.0081  0.2763  0.0506
11223W        W20916   1.370   9.943  17.016  0.1073  0.2477  0.0455
11224W        W20917  11.430  11.927   5.508  0.0091 -0.0800  0.1341
11225W        W20918   9.276   6.463   2.619  0.1553  0.0177 -0.0185
11226W        W20919   3.035  17.448  10.340 -0.0268  0.3065  0.3565
11227W        W20920   5.330   8.786   2.043  0.0688  0.2399 -0.2061
11228W        W20921   2.650  11.920  14.462  0.1324 -0.0410  0.1785
11229W        W20922   6.991   1.821  15.863 -0.2673  0.1089  0.1572
11230W        W20923  15.206   6.574  15.284 -0.0153  0.2472 -0.1402
11231W        W20924  11.116   4.055  15.824  0.1968 -0.0080 -0.0430
11232W        W20925  10.364   6.586  16.005 -0.0983 -0.0525  0.1370
11233W        W20926   8.168  10.147   5.542 -0.1304  0.0016 -0.1329
11234W        W20927  17.786  14.525   2.118  0.0294 -0.1328  0.2932
11235W        W20928   5.023   6.207  13.468 -0.0272 -0.2036 -0.0127
11236W        W20929   3.779   7.185  14.658 -0.1423  0.2241 -0.0708
11237W        W20930   5.091  12.407   0.002  0.2979  0.1973  0.1148
11238W        W20931  12.140  15.830   2.845 -0.0984 -0.1756 -0.1372
11239W        W20932   2.284  14.005   2.989  0.1348 -0.1823  0.2500
11240W        W20933   5.614   6.613   4.061 -0.1034  0.1149  0.1498
11241W        W20934  12.253   9.941  12.327  0.0320  0.1095 -0.0895
11242W        W20935   9.104  17.815  12.789 -0.0026  0.1466 -0.2200
11243W        W20936   2.904   6.285   4.020  0.1615 -0.0934 -0.0541
11244W        W20937   6.384  17.350   5.006  0.0629  0.3161  0.0038
11245W        W20938  11.447  14.130   3.817  0.2605 -0.4021 -0.3159
11246W        W20939   1.533   8.186   4.691  0.1261 -0.1632  0.0813
11247W        W20940   6.274   5.122   5.355 -0.0295 -0.2633  0.0895
11248W        W20941  11.659  17.732   5.982  0.0679  0.2400 -0.1048
11249W        W20942  13.100  16.930   2.856 -0.3186 -0.0300  0.0113
11250W        W20943   6.061   0.146  12.430 -0.4216 -0.1340  0.0011
11251W        W20944   6.679   0.159   2.448  0.0145 -0.4181 -0.1060
11252W        W20945   9.970  12.477   6.797  0.1326 -0.2321 -0.3082
11253W        W20946  13.397  12.657  10.904  0.0840 -0.0572  0.2129
11254W        W20947   0.627   7.507  11.193  0.1654  0.0554  0.1099
11255W        W20948   7.658   7.635   5.263  0.0346 -0.0736  0.0882
11256W        W20949   5.977  10.720   2.130  0.3203  0.1720  0.0377
11257W        W20950   7.772   3.761  12.500  0.1986 -0.2360  0.0893
11258W        W20951   0.436   6.554   4.582 -0.0845 -0.1606  0.1241
11259W        W20952   4.327  13.711   1.066 -0.1308 -0.1893 -0.1212
11260W        W20953  14.154   7.660   4.422 -0.0955  0.1172 -0.0778
11261W        W20954   9.190  16.085   5.571 -0.3346 -0.0030 -0.4862
11262W        W20955   9.699   9.323   2.400 -0.0025 -0.0414 -0.3838
11263W        W20956   2.176   6.077  15.835 -0.0879 -0.1383  0.2116
11264W        W20957   3.201   9.363   6.585 -0.2797  0.0682  0.3624
11265W        W20958   0.985   3.431  13.167  0.0646  0.0014 -0.0953
11266W        W20959  16.462   6.746   2.761 -0.0912 -0.0480  0.0853
11267W        W20960  13.308   0.015   3.118 -0.0086 -0.1856  0.0932
11268W        W20961   9.882  15.086  16.409  0.1561  0.1637  0.0631
11269W        W20962   6.154  15.725  12.111  0.1111 -0.1832  0.1760
11270W        W20963   6.138  12.284   6.844 -0.3860  0.0528 -0.1855
11271W        W20964   0.631  10.904  16.203 -0.1987  0.1929  0.2462
11272W        W20965   7.117   2.220   3.382  0.0448  0.1742  0.1285
11273W        W20966   6.272   6.174   1.136 -0.3843 -0.0972  0.1159
11274W        W20967   7.074  16.189  16.260  0.0429  0.0225 -0.1953
11275W        W20968   9.729  10.225   1.492  0.0863 -0.0396 -0.1481
11276W        W20969   6.470  14.267   5.061 -0.0318  0.1396  0.0140
11277W        W20970   4.941   1.197  11.487  0.0339 -0.1964  0.4953
11278W        W20971   3.312  13.417   0.819 -0.0397  0.1668 -0.1268
11279W        W20972   1.932   2.704  16.752  0.2488  0.2331  0.1986
11280W        W20973   3.406   6.435   0.875 -0.0099  0.0882 -0.0980
11281W        W20974   1.437  11.935  15.691  0.0425  0.0214 -0.2460
11282W        W20975  14.668   2.761  12.983  0.3467  0.0174  0.1075
11283W        W20976   9.827   3.771   5.354  0.3380  0.1887 -0.0582
11284W        W20977   5.592  13.983   0.616  0.1627 -0.0138  0.0813
11285W        W20978  17.020   6.858  15.023 -0.1667 -0.1303  0.0695
11286W        W20979  10.478   6.989  15.730 -0.0125 -0.1223 -0.2627
11287W        W20980   4.563  12.481  16.887 -0.1548 -0.0533 -0.1394
11288W        W20981   9.985  16.443  12.435 -0.0416 -0.0296 -0.2183
11289W        W20982  10.013   9.710  13.419 -0.1690 -0.1023 -0.2029
11290W        W20983   5.604   5.795   1.453 -0.0606 -0.1630  0.1254
11291W        W20984  10.017  12.548  14.230 -0.0326 -0.2983  0.0202
11292W        W20985   8.019  13.915  16.956  0.0633  0.0069  0.1364
11293W        W20986   9.992  14.828   1.456  0.0806  0.2947  0.1677
11294W        W20987   4.240  12.893   4.342  0.1105  0.1326  0.0589
11295W        W20988   6.766  10.831  16.531  0.1003  0.1102 -0.0744
11296W        W20989  16.077   0.702   5.263 -0.0184  0.3305  0.1322
11297W        W20990  14.177   2.890   4.015  0.1235  0.1515  0.0432
11298W        W20991   4.418   0.169  13.308 -0.0457  0.0447 -0.1987
11299W        W20992  14.038   4.323  15.366 -0.0240  0.1207  0.0027
11300W        W20993  10.786   3.903  15.492 -0.1429 -0.2580  0.1888
11301W        W20994   7.399   6.543   4.761  0.2602 -0.0936 -0.2592
11302W        W20995   8.094  16.094   2.417  0.1559  0.5757 -0.0336
11303W        W20996   1.129  13.190   0.503 -0.0688 -0.3371  0.1966
11304W        W20997   8.769  12.980   1.220  0.1941 -0.0787  0.0412
11305W        W20998  13.915   1.483  11.648 -0.1269 -0.0164  0.4157
11306W        W20999   0.342  14.437   3.579  0.1443  0.0104  0.0162
11307W        W21000   7.586   0.133   4.918 -0.0569  0.0015 -0.0973
11308W        W21001   1.983   2.546   4.032 -0.0610  0.1442 -0.2312
11309W        W21002  13.675   1.692  13.813 -0.1798  0.1523 -0.2258
11310W        W21003   1.111  11.124   5.230  0.2796 -0.0336  0.2278
11311W        W21004  17.588   8.876  14.241  0.3753  0.3510  0.2208
11312W        W21005   4.232   6.129   1.845 -0.0457 -0.0886 -0.2007
11313W        W21006  10.967   1.052   3.351 -0.0412  0.3005  0.0246
11314W        W21007   3.951   2.501   1.899  0.1038 -0.3864  0.2426
11315W        W21008  16.380   4.873   3.426  0.2637 -0.2043 -0.2606
11316W        W21009   9.696   4.009   0.697 -0.3382 -0.1306  0.1829
11317W        W21010   9.447   1.078  13.848 -0.3940 -0.0073  0.2596
11318W        W21011   9.346  14.155  16.140  0.1154  0.0980 -0.0218
11319W        W21012  11.629  12.944  16.911  0.1161  0.2001  0.1809
11320W        W21013   8.084   9.965   1.360  0.1392  0.0032 -0.2566
11321W        W21014  13.569  15.919  13.543  0.0971  0.0990 -0.3194
11322W        W21015   7.170   8.991   6.244 -0.1884 -0.0816  0.1697
11323W        W21016  16.118  16.525  14.575 -0.0084 -0.0499 -0.1900
11324W        W21017  11.729  14.397  15.906  0.3585  0.1700  0.3037
11325W        W21018   8.941  12.022   4.200  0.0914  0.2690 -0.2259
11326W        W21019   5.437  14.153   4.703  0.1405  0.0031 -0.2134
11327W        W21020   0.379  11.527   5.722 -0.0851  0.2048  0.0580
11328W        W21021   1.813  13.606  12.424 -0.2038 -0.0897  0.1546
11329W        W21022   0.474   0.417  12.276 -0.1377  0.1693 -0.0507
11330W        W21023   6.697  11.880  16.145 -0.2779  0.0127 -0.2495
11331W        W21024  13.027  12.196   0.675 -0.3653 -0.2169 -0.0996
11332W        W21025   7.465   1.736   5.790 -0.3535 -0.1829 -0.0216
11333W        W21026   6.617  17.615  15.144 -0.1275 -0.3322  0.0899
11334W        W21027   1.243   9.146   1.060  0.0518 -0.1158  0.1868
11335W        W21028   4.683  11.376   3.600 -0.0788  0.1759  0.1886
11336W        W21029   1.470   1.616  16.256  0.0435 -0.1308 -0.1745
11337W        W21030   7.906  15.765   0.246 -0.1229  0.0552 -0.0140
11338W        W21031   2.062  16.227   1.185  0.2516 -0.3403 -0.2375
11339W        W21032   7.413   3.558  15.134  0.0317  0.0963  0.0499
11340W        W21033   5.335  13.232  16.632 -0.0505  0.0470 -0.5353
11341W        W21034  11.356   6.739  15.715  0.1428 -0.1163 -0.2854
11342W        W21035  10.831   9.312   1.807 -0.2015 -0.0284  0.3614
11343W        W21036   5.802  12.485  12.966 -0.2177  0.2912 -0.0827
11344W        W21037   3.626   6.530   2.348 -0.0970 -0.0268 -0.1176
11345W        W21038   9.321  13.403  12.738  0.1997  0.0534 -0.3840
11346W        W21039  15.735   3.078  13.432  0.1369  0.3424  0.3138
11347W        W21040   5.216   1.077  15.497  0.2562  0.0373  0.0908
11348W        W21041   3.311   2.350  16.676  0.0661 -0.1185  0.4499
11349W        W21042   3.966   8.183  14.019  0.2788  0.0572  0.1438
11350W        W21043   4.760   9.756   5.463  0.1808  0.1044  0.0055
11351W        W21044   5.315  16.680   1.208  0.2013  0.5204 -0.0507
11352W        W21045  17.156   8.361   6.200  0.1678  0.1492 -0.1428
11353W        W21046  13.224   8.908  12.345  0.1649 -0.0904 -0.1277
11354W        W21047   4.978   5.430  15.581  0.0218  0.0200 -0.3075
11355W        W21048   9.359  12.332   3.051 -0.0427  0.3087  0.1888
11356W        W21049   7.947  15.834  14.978 -0.3253  0.2451  0.0859
11357W        W21050   6.683   9.677   4.373  0.1068 -0.0725 -0.2581
11358W        W21051   3.905  12.084   3.137 -0.1529 -0.0501  0.2111
11359W        W21052  13.099   5.250   3.656  0.2302  0.1171  0.1472
11360W        W21053   9.035  15.658   1.250 -0.0774 -0.1155 -0.2686
11361W        W21054   7.278   7.126   5.849 -0.2386  0.1092  0.0733
11362W        W21055   4.764  12.753  13.914  0.0201  0.1371  0.2028
11363W        W21056  14.465  15.800   2.999 -0.2287  0.1874 -0.1245
11364W        W21057   4.488   9.665  13.239  0.2062  0.1210  0.4076
11365W        W21058   4.412   9.744  16.232 -0.1962  0.1724 -0.3732
11366W        W21059   1.009  16.317   2.754  0.1083 -0.1461  0.0246
11367W        W21060   0.801   9.837  11.056 -0.0377 -0.2505  0.1936
11368W        W21061   2.536  16.088   5.384  0.1646 -0.0896 -0.0836
11369W        W21062   0.132  15.857  13.041  0.1865  0.2942 -0.1943
11370W        W21063   8.806   3.767  16.545 -0.2744 -0.3034  0.2651
11371W        W21064  11.363   1.648  15.808 -0.1544  0.0155 -0.1371
11372W        W21065   6.696  16.921   0.547  0.1528 -0.0143  0.3650
11373W        W21066   9.438  10.623  12.351  0.0916  0.1831  0.2008
11374W        W21067  14.349  16.445   3.719  0.1194 -0.0008  0.1359
11375W        W21068   6.469  10.694   2.212  0.2676 -0.0854  0.0295
11376W        W21069  12.174   1.615   3.709  0.0116 -0.0504  0.0831
11377W        W21070  11.248  15.086   2.820 -0.2267  0.2288 -0.1074
11378W        W21071   9.471  13.049  16.645  0.1436  0.3797 -0.0801
11379W        W21072   7.089   1.643   3.221 -0.1384 -0.4387  0.2831
11380W        W21073   2.278   6.735  16.598  0.3352 -0.0134 -0.0895
11381W        W21074   1.317  11.940  13.513 -0.0658 -0.2529  0.2247
11382W        W21075  17.488   4.648   1.701  0.0733 -0.2273 -0.2860
11383W        W21076   9.311  15.418   2.483  0.1543 -0.0998 -0.0992
11384W        W21077   7.007   5.356  13.840 -0.0444  0.2386  0.0531
11385W        W21078   9.028  13.804  15.862 -0.0978 -0.1770  0.1757
11386W        W21079   1.432   1.172   4.234  0.0187  0.0175 -0.2956
11387W        W21080   1.537  15.992  15.634  0.2330 -0.0793  0.1678
11388W        W21081  15.531  12.542   3.437  0.2389  0.0099  0.2202
11389W        W21082  14.529   5.890  14.326  0.0403  0.0386  0.0783
11390W        W21083   4.865   9.976   5.050  0.3080  0.2720  0.1326
11391W        W21084   8.899   1.753   0.379  0.2031 -0.1286 -0.1340
11392W        W21085   9.166   2.707  15.024  0.2501  0.1234 -0.1087
11393W        W21086   8.353   1.425   3.387  0.0869  0.2811 -0.0463
11394W        W21087   4.403   2.490  14.564  0.0481  0.2208  0.1212
11395W        W21088  15.872  13.584   2.553 -0.0440  0.3408  0.2268
11396W        W21089   6.342  17.281   2.216 -0.1251 -0.0766  0.0469
11397W        W21090   6.084  17.280  12.364 -0.2209  0.1305  0.1534
11398W        W21091  13.587  15.725   6.080 -0.0637  0.2703 -0.0706
11399W        W21092   5.735   1.950  14.916  0.0143  0.1655 -0.2409
11400W        W21093   7.906  12.740  15.769  0.1376 -0.0449 -0.0851
11401W        W21094  13.120   3.627  16.239 -0.1381  0.1045  0.3956
11402W        W21095  11.158  15.442   6.531 -0.2957  0.1699 -0.0701
11403W        W21096   9.060  17.861   1.275  0.0374  0.0428 -0.0002
11404W        W21097  12.339   1.599  16.116  0.3178  0.1096 -0.1954
11405W        W21098   8.685   3.168   5.110 -0.0299  0.0449  0.1226
11406W        W21099  14.767  11.475  14.080 -0.1284  0.2233  0.1554
11407W        W21100   0.671  14.824  11.384 -0.1630  0.3190 -0.0246
11408W        W21101   1.284  12.096  14.735  0.0290 -0.2614  0.5376
11409W        W21102  12.058   1.368   2.319  0.0874  0.1317  0.0741
11410W        W21103  10.080   0.062   5.838  0.3427  0.1304 -0.0200
11411W        W21104  10.659   6.346   6.465 -0.2013  0.2533 -0.1101
11412W        W21105   7.220  16.426   3.870  0.0078  0.2174 -0.0120
11413W        W21106   6.598   8.058   1.411 -0.0424  0.0564 -0.0635
11414W        W21107  11.516  13.361  13.449 -0.1842  0.1227 -0.0319
11415W        W21108  12.890  13.668   3.920  0.1888  0.0861 -0.1712
11416W        W21109   6.094  13.592  13.268 -0.1044 -0.1638 -0.8671
11417W        W21110   2.475   1.587   1.083  0.2477 -0.4054  0.3148
11418W        W21111   7.306   1.080   0.894 -0.0253  0.2316 -0.1072
11419W        W21112  17.030  11.765   1.598  0.0841 -0.0594 -0.0637
11420W        W21113   2.523  14.396  14.045 -0.1360  0.1453  0.1372
11421W        W21114  11.889   6.368   6.701 -0.0299  0.1920  0.2662
11422W        W21115   0.949   3.813  14.544  0.0946  0.3750 -0.0026
11423W        W21116  17.738   0.182   5.274  0.0576  0.0516  0.0673
11424W        W21117   4.748   5.414   6.297  0.0200 -0.1803  0.2969
11425W        W21118   2.109   0.462  13.270  0.0598  0.1617  0.1629
11426W        W21119   2.898  16.537  12.526 -0.2484  0.0734 -0.2280
11427W        W21120   2.530  10.456   4.784 -0.0816 -0.0335  0.0237
11428W        W21121  16.937   4.226  16.458 -0.1374 -0.2071 -0.1419
11429W        W21122   5.026  14.964   2.048  0.0368  0.0802 -0.0906
11430W        W21123   1.284   9.732  16.362  0.2972  0.2168 -0.1537
11431W        W21124   1.101   2.686  16.124  0.1358  0.0660  0.0610
11432W        W21125   8.323   5.378  13.172 -0.1854 -0.2689 -0.0068
11433W        W21126  15.921  10.477  17.074 -0.0066  0.2043  0.1416
11434W        W21127   4.104  16.604   0.120  0.2576  0.0001 -0.3479
11435W        W21128  10.369   8.462   3.495  0.0346 -0.0027 -0.0869
11436W        W21129   9.896  16.928  15.966  0.0162  0.3748  0.0343
11437W        W21130   2.148   1.772  11.601  0.0743  0.2469 -0.1739
11438W        W21131   9.830   9.100   2.798 -0.0629 -0.0423 -0.2825
11439W        W21132  15.177  12.038  15.853  0.1557  0.0842  0.0301
11440W        W21133   3.224  12.972   2.286  0.2000 -0.3056  0.1128
11441W        W21134   5.489  15.158   0.789 -0.2242 -0.2211 -0.0424
11442W        W21135   8.936  16.306  16.357 -0.1109  0.3536  0.1255
11443W        W21136  10.563  16.966   3.363 -0.0416  0.0386  0.2023
11444W        W21137   1.324   1.328   6.064  0.1109  0.1890 -0.0926
11445W        W21138   8.669   7.119  14.681 -0.0817 -0.0266 -0.0647
11446W        W21139   7.111  14.048   6.319  0.1243  0.1920  0.1703
11447W        W21140   0.050   7.169  14.795 -0.1852  0.2400 -0.2106
11448W        W21141  15.396  16.214   5.770  0.3611  0.0201  0.0909
11449W        W21142   5.962  12.530   5.100 -0.0388 -0.3030 -0.2112
11450W        W21143   0.817   4.059   2.405 -0.2211  0.2068 -0.0309
11451W        W21144   7.294  17.718  16.164 -0.2365 -0.0104  0.0170
11452W        W21145  11.889   2.955   2.805  0.1314  0.0079 -0.0907
11453W        W21146  11.127  14.523  11.932 -0.0314 -0.1372  0.0687
11454W        W21147   2.608  12.040  14.936  0.1975  0.2125 -0.1226
11455W        W21148  10.426   3.714   5.948 -0.1849 -0.1663  0.0420
11456W        W21149   7.163  15.944  13.079  0.0939 -0.3922 -0.0783
11457W        W21150   0.301  15.421  12.796 -0.2400  0.0089  0.1125
11458W        W21151   3.920  13.244  15.417 -0.0833  0.0256  0.2397
11459W        W21152   4.820   1.049   6.635  0.1506 -0.2477 -0.1280
11460W        W21153   7.744  15.474  16.119  0.1288  0.3172 -0.1074
11461W        W21154   7.835   5.516  14.974 -0.0184 -0.2088  0.0230
11462W        W21155   5.783   5.198   3.155  0.0323  0.1358 -0.0330
11463W        W21156  10.872   2.544   3.687 -0.0460 -0.1856  0.1819
11464W        W21157   5.950  14.334   0.106 -0.2075 -0.1168  0.0342
11465W        W21158  15.219   6.699   2.969 -0.0046  0.1732  0.3165
11466W        W21159   2.534   7.809   6.609  0.1209  0.1245 -0.1756
11467W        W21160   2.974  12.428   5.103 -0.0452  0.1337 -0.0827
11468W        W21161   3.758   9.398   5.499  0.0489  0.0986 -0.1374
11469W        W21162  16.409  16.907  14.900  0.2334  0.1466 -0.1157
11470W        W21163   8.792   7.361  17.070  0.2635  0.0050  0.3468
11471W        W21164   3.006   8.289  15.525  0.3598 -0.0864 -0.1192
11472W        W21165  13.180  10.751   0.424  0.1810 -0.0719 -0.0183
11473W        W21166   9.630   4.958   2.094 -0.0034 -0.1046  0.0612
11474W        W21167   8.964   4.622   1.643 -0.0118  0.0780 -0.0185
11475W        W21168  11.751  13.688   1.840  0.0307  0.0076  0.0231
11476W        W21169   0.544  13.082  12.130 -0.0206  0.2652 -0.4747
11477W        W21170   1.597   0.602   0.498  0.0086  0.1147 -0.1194
11478W        W21171   4.183  10.387   4.210  0.1606  0.1814  0.2639
11479W        W21172   4.094   5.530   0.266 -0.0910 -0.0005 -0.0414
11480W        W21173  13.306   4.083   4.486 -0.0449 -0.3043 -0.1583
11481W        W21174   3.474   5.588   4.396 -0.4949  0.2851  0.2618
11482W        W21175   7.590   9.911   6.571  0.2346  0.0224 -0.0975
11483W        W21176  15.544   6.941   1.331  0.0703 -0.0921 -0.0883
11484W        W21177   3.341   1.155   1.466  0.1771 -0.2543  0.0464
11485W        W21178  15.189   2.391   0.779  0.2100 -0.2635  0.0303
11486W        W21179  15.338  14.395  16.323 -0.0888 -0.0326 -0.1229
11487W        W21180   7.342  14.772   2.616  0.3467 -0.2270  0.0617
11488W        W21181   9.931  10.632  13.665 -0.1266  0.1361 -0.1852
11489W        W21182   7.650  11.501   0.979 -0.3587  0.2368  0.1326
11490W        W21183   8.169  13.292  11.545 -0.0385 -0.0397 -0.1897
11491W        W21184   2.026   8.716  11.408 -0.1761 -0.1941 -0.1710
11492W        W21185  11.037   0.612  15.807 -0.1950  0.1892  0.1805
11493W        W21186   6.460  14.113   2.102 -0.0919  0.1464  0.1661
11494W        W21187  12.771  17.177  15.355 -0.0970 -0.0276  0.1405
11495W        W21188  13.841   0.975   0.572 -0.0165  0.2168  0.1096
11496W        W21189   0.266   3.202  16.920 -0.2886 -0.0097  0.2618
11497W        W21190   9.026  11.770   4.655  0.2704  0.0955  0.0246
11498W        W21191   2.787   5.051   5.986 -0.2802 -0.0540 -0.1961
11499W        W21192   7.892  12.151  16.782  0.1405 -0.4226  0.1786
11500W        W21193   1.333  12.454   0.757  0.2822 -0.2128 -0.2371
11501W        W21194  17.739   8.970   4.518 -0.2498 -0.0317  0.0148
11502W        W21195  16.069  12.154  11.028  0.0233 -0.1006 -0.0150
11503W        W21196   5.856  14.421  15.678  0.2477  0.1624 -0.0552
11504W        W21197   1.068   5.447   2.587 -0.1116  0.0593  0.0507
11505W        W21198  10.172  14.091  14.326  0.0805  0.0611 -0.1077
11506W        W21199   1.952  10.243  15.033 -0.2063  0.2137 -0.1866
11507W        W21200   1.442   4.024  13.838 -0.0818  0.0622  0.3510
11508W        W21201   9.177  13.772   1.480  0.0604  0.0403 -0.1542
11509W        W21202  10.497   2.644  16.218  0.3073  0.2199 -0.1042
11510W        W21203   4.310   0.002  16.417 -0.0754 -0.1762  0.2291
11511W        W21204  10.807  10.195  15.254  0.1932 -0.1826  0.0584
11512W        W21205   4.401   3.090   4.323  0.0985  0.0032 -0.1478
11513W        W21206   8.771   9.995  12.245  0.0086  0.3670 -0.0081
11514W        W21207   1.498   8.722   0.957  0.0251 -0.0143 -0.0401
11515W        W21208   7.704   2.636  11.681 -0.2513 -0.0308 -0.0618
11516W        W21209  11.938   3.610  14.658 -0.0743  0.3277 -0.0293
11517W        W21210   6.548   3.039  15.651 -0.0004 -0.0194 -0.1774
11518W        W21211   0.318  10.235   3.471  0.2243 -0.2070  0.1847
11519W        W21212   9.944   9.734   1.513 -0.0649 -0.2722 -0.0951
11520W        W21213  16.697   0.261   0.489 -0.1626 -0.0002  0.3252
11521W        W21214  12.935  17.532  16.195  0.1017 -0.1926  0.3861
11522W        W21215  11.227  10.373   4.223 -0.0253 -0.3498 -0.0817
11523W        W21216  11.866   7.671   0.841  0.0767  0.1596  0.2817
11524W        W21217   8.661  16.706  14.724  0.5413 -0.5245  0.3673
11525W        W21218   7.284  12.592  13.931 -0.0537  0.0537 -0.0099
11526W        W21219   8.460  13.740   0.092  0.0719 -0.0036  0.0629
11527W        W21220   3.612  11.581   4.742 -0.0373  0.1251  0.0313
11528W        W21221  13.533  15.406  15.774 -0.0653 -0.1373 -0.1752
11529W        W21222   5.534  10.193  14.219  0.0033  0.2416  0.0654
11530W        W21223   2.363  14.269   3.965 -0.0973  0.0816  0.2689
11531W        W21224   5.885   5.245  13.727 -0.0491  0.1519  0.0658
11532W        W21225   5.220  12.201   2.723 -0.2579 -0.0379 -0.0514
11533W        W21226   5.923   8.475   5.736 -0.2564  0.2065 -0.2234
11534W        W21227   9.688   5.500  15.861  0.2413 -0.0253  0.0631
11535W        W21228   0.583   0.317  15.160 -0.2752 -0.1302  0.2476
11536W        W21229  12.587   0.313   4.765 -0.1414  0.4129 -0.2512
11537W        W21230  13.983  16.569  12.026 -0.0679  0.5243  0.2295
11538W        W21231  11.977   3.442  13.043  0.1617 -0.1368 -0.0939
11539W        W21232   1.678   1.512  11.671  0.2807 -0.0550 -0.3002
11540W        W21233   4.242   3.119   3.869  0.0454  0.1347  0.0025
11541W        W21234   5.334  10.596   0.723  0.0523  0.0528 -0.2257
11542W        W21235   1.335  17.870  15.472 -0.1770 -0.0556  0.0076
11543W        W21236   1.587   1.516   5.467 -0.0489 -0.2671  0.0028
11544W        W21237  14.225  10.630   4.116  0.1586  0.1048 -0.3089
11545W        W21238   8.478   1.380  11.751  0.0240 -0.0946 -0.1742
11546W        W21239   5.706   9.771  16.835  0.1202  0.1381  0.3030
11547W        W21240   8.899   5.581   3.279  0.2367 -0.1044  0.0940
11548W        W21241  17.105  15.691  14.297 -0.0897  0.1106 -0.4481
11549W        W21242   6.158   9.607  13.523  0.2524 -0.0045 -0.0975
11550W        W21243   3.717  14.119  16.003 -0.1093  0.3319  0.1000
11551W        W21244   9.779   4.343  11.599 -0.0172  0.0166 -0.0387
11552W        W21245   8.510  17.401   4.982  0.0610 -0.0619  0.0250
11553W        W21246   2.743  13.990   0.806 -0.0969 -0.0472  0.3001
11554W        W21247  12.462   3.917  15.592 -0.1398 -0.0845  0.0671
11555W        W21248   7.996  12.937   6.773 -0.0514  0.2054 -0.1833
11556W        W21249  13.052  15.909   4.889 -0.2153  0.0143  0.2927
11557W        W21250   9.757   4.547   0.862  0.3459  0.2322  0.0089
11558W        W21251   0.738  13.198   4.224 -0.0493  0.1056  0.0568
11559W        W21252   8.762  14.880  15.659  0.1106 -0.4464  0.0180
11560W        W21253   4.303  16.180   4.534 -0.2320 -0.0642  0.0759
11561W        W21254   5.239  17.421  12.409  0.0296  0.1254 -0.3620
11562W        W21255   3.795  10.008  12.492  0.0034  0.0892  0.1460
11563W        W21256   5.869   0.940   5.024  0.2626  0.1307 -0.2129
11564W        W21257   3.714   8.941  16.379 -0.0015  0.1457 -0.2537
11565W        W21258  10.537   8.477  16.483 -0.1125 -0.0264  0.1140
11566W        W21259   4.244   8.419  15.727 -0.0988  0.0091 -0.0238
11567W        W21260  10.203   9.281   6.391  0.0848  0.3674  0.2590
11568W        W21261  16.879   3.441   4.070 -0.0050 -0.3099  0.0087
11569W        W21262   3.661   4.725   4.517  0.0120 -0.0377 -0.0148
11570W        W21263   1.989   4.348   5.691  0.1433  0.0317 -0.3611
11571W        W21264   1.942  10.470  13.190  0.1921 -0.1964 -0.1757
11572W        W21265   7.080   5.091   4.938 -0.1676 -0.2137 -0.2808
11573W        W21266   0.039   2.923  16.466 -0.1839 -0.0068  0.0315
11574W        W21267  14.512   3.877   6.925 -0.1051  0.4661 -0.0820
11575W        W21268   1.260   8.366  13.623  0.3127 -0.0846 -0.0203
11576W        W21269   8.448  13.155   1.769  0.3711 -0.3057  0.2748
11577W        W21270  11.137   6.355  16.486  0.0582 -0.1968  0.0808
11578W        W21271  12.489  13.820   0.931  0.0058 -0.1829 -0.3413
11579W        W21272   9.277  11.655  12.593  0.2926  0.0799  0.3275
11580W        W21273   5.102   7.081   6.391 -0.1188  0.0393 -0.0928
11581W        W21274   6.215   5.692  15.562 -0.1322  0.1406  0.1005
11582W        W21275  17.664  13.974   1.193  0.0470  0.1196 -0.0174
11583W        W21276   0.907   3.129  15.248  0.0879  0.1615 -0.1705
11584W        W21277   4.141   6.250   0.037  0.0253  0.3762 -0.1882
11585W        W21278  15.408  14.220   4.069  0.1228  0.1279 -0.1463
11586W        W21279   6.201   5.999   2.938  0.0711  0.0660 -0.2822
11587W        W21280   1.483  16.122  11.784 -0.0022 -0.4446 -0.0746
11588W        W21281  10.023   2.920  15.615 -0.0010 -0.0355 -0.1517
11589W        W21282   4.281   7.963  14.346 -0.3163 -0.3110 -0.0554
11590W        W21283   1.921   1.628  12.940 -0.0188  0.1433  0.0369
11591W        W21284  10.365   8.417   2.949  0.0391  0.2393 -0.0270
11592W        W21285   7.304  15.979   4.404 -0.1659  0.0590 -0.1766
11593W        W21286   2.019  17.167  15.778  0.0518  0.0623 -0.1777
11594W        W21287   1.909  16.743  16.876  0.0154  0.1667  0.3705
11595W        W21288   4.631  11.074  12.159 -0.0380 -0.3276 -0.1997
11596W        W21289   6.264   5.532   3.218  0.1428  0.1209  0.2306
11597W        W21290  10.312   6.712   1.988  0.1796 -0.2115  0.4337
11598W        W21291   9.005   8.198   3.329 -0.2135 -0.0563 -0.0138
11599W        W21292   6.454   9.240   3.048  0.3198  0.0728 -0.0802
11600W        W21293   7.145  13.655   0.468 -0.0482  0.1057  0.1914
11601W        W21294   4.082  13.379   4.303 -0.0694 -0.0781  0.1588
11602W        W21295   2.128   7.629  12.113 -0.2246  0.2355 -0.0977
11603W        W21296  11.449  17.135  14.504 -0.2342  0.1887 -0.0381
11604W        W21297   5.115   4.117  13.503 -0.4130  0.0068 -0.4258
11605W        W21298  11.763   2.033   2.716  0.2690  0.1514 -0.3189
11606W        W21299   8.819  12.336   5.918  0.2238 -0.3128 -0.2323
11607W        W21300   0.167   3.792   0.368 -0.1961 -0.2010  0.0042
11608W        W21301   6.833   6.736   3.059 -0.0107  0.0889 -0.0534
11609W        W21302   5.189  12.763   2.801  0.2238  0.0169 -0.0340
11610W        W21303   4.472   3.014  16.676 -0.0254  0.1344  0.4043
11611W        W21304  13.526   5.018   2.389 -0.2220 -0.0727  0.0323
11612W        W21305  11.181  15.385   2.419 -0.1715  0.1014  0.0108
11613W        W21306  10.746   0.074  12.373  0.0859 -0.1626  0.1042
11614W        W21307   0.941  12.124   1.512 -0.0462 -0.1096  0.0121
11615W        W21308   3.885   4.934   0.056 -0.0892 -0.1662  0.1360
11616W        W21309  11.634  14.437  11.186  0.0485  0.0081 -0.0563
11617W        W21310   2.087   1.262   3.439 -0.1655 -0.0773  0.2674
11618W        W21311   7.878   2.370  12.350 -0.0324 -0.1192  0.2685
11619W        W21312   9.077  10.626   5.388 -0.1078  0.2421 -0.1143
11620W        W21313   3.322  15.019  14.677 -0.0748 -0.2286 -0.2485
11621W        W21314   4.087  14.991  15.151 -0.1413 -0.0191 -0.2289
11622W        W21315  17.221   3.533  13.308 -0.2068  0.0335 -0.0666
11623W        W21316   1.915  16.230  15.133  0.2373  0.3551  0.0622
11624W        W21317   7.743  10.474  13.011  0.2926  0.0460 -0.1297
11625W        W21318  15.795   9.361  15.533 -0.0597 -0.0446  0.0180
11626W        W21319   9.772  17.651   1.963 -0.0525 -0.0303  0.1900
11627W        W21320   7.497  10.225  15.482  0.2166 -0.2473  0.0544
11628W        W21321  11.807   0.900   4.119  0.1822  0.2485 -0.4289
11629W        W21322  16.495   7.143   6.132 -0.1098 -0.0439  0.0150
11630W        W21323   8.185   2.711  14.693 -0.0917 -0.1529 -0.3461
11631W        W21324   9.559   2.827   3.133 -0.2065  0.2315  0.5182
11632W        W21325  14.234   9.931   3.926  0.0410  0.1508  0.1857
11633W        W21326  11.788   1.298  12.113  0.3007 -0.0921 -0.1346
11634W        W21327   6.932   2.296   3.861  0.0779  0.1266  0.0598
11635W        W21328   7.294   6.895   3.592 -0.0042 -0.0242 -0.1687
11636W        W21329   4.116   7.590   5.275 -0.2988 -0.2557  0.3423
11637W        W21330   1.411   0.062  14.664 -0.0901  0.1716  0.1259
11638W        W21331   5.120   8.014  13.763  0.1294 -0.0637  0.2834
11639W        W21332   3.553   7.061   2.274  0.0399 -0.0071  0.1337
11640W        W21333  10.724  11.823   2.170  0.1218 -0.0934 -0.0234
11641W        W21334   3.887  12.220   0.193  0.2321 -0.1975  0.1354
11642W        W21335   1.733  11.672  15.370  0.1616 -0.0540  0.1509
11643W        W21336   1.125  10.382  17.076 -0.0677  0.5190 -0.1974
11644W        W21337   1.522  10.476   1.584  0.0807  0.1987 -0.0206
11645W        W21338  16.113  12.331  12.801 -0.1735  0.1312 -0.3602
11646W        W21339  14.056   3.531   4.568 -0.2170 -0.3763  0.1449
11647W        W21340   4.683  15.592  11.459 -0.1934  0.0369  0.1576
11648W        W21341   4.954   5.918   3.895 -0.0189 -0.0111 -0.0508
11649W        W21342   5.571   4.281  13.366  0.0715  0.1629 -0.0035
11650W        W21343   3.860   4.386  15.660 -0.0494 -0.0539 -0.0917
11651W        W21344   9.394  12.337   2.510 -0.0554 -0.0449 -0.1387
11652W        W21345  15.914  10.236   1.900  0.0627 -0.3177  0.0412
11653W        W21346   1.871   9.968   4.032 -0.1340 -0.0201 -0.2691
11654W        W21347   5.990   0.375  16.544 -0.1523 -0.0419 -0.1063
11655W        W21348   2.053   4.998  12.778  0.3025 -0.0228 -0.1536
11656W        W21349   8.071  16.846   1.530  0.0797 -0.1674  0.2405
11657W        W21350   3.753   5.313   3.234 -0.0989 -0.1584  0.1631
11658W        W21351   6.428   8.116  13.537  0.0708  0.1386  0.0140
11659W        W21352  15.899   8.918  10.883 -0.2883  0.1130 -0.0377
11660W        W21353  14.083   5.908   0.721  0.0303 -0.2727  0.2612
11661W        W21354   4.652   2.840   5.263 -0.3149  0.2122 -0.0868
11662W        W21355   9.012  10.617  16.898  0.0930  0.1689 -0.2132
11663W        W21356   9.144  14.431  14.175  0.2103  0.1479 -0.0859
11664W        W21357   1.166   2.626   6.095 -0.0311 -0.1669  0.0670
11665W        W21358   2.933   2.793  12.701 -0.0506 -0.0181  0.3395
11666W        W21359   7.000  10.061   2.679 -0.0151  0.0873 -0.1896
11667W        W21360  15.226  16.408   1.245  0.0478 -0.0566  0.0001
11668W        W21361   5.020  13.629   5.982  0.0666  0.2033  0.0190
11669W        W21362   6.998   2.781  16.994 -0.1854 -0.0857  0.0918
11670W        W21363  12.782   2.641  13.920 -0.3242  0.5786 -0.3090
11671W        W21364   1.116  11.983  13.939  0.0496  0.0856 -0.3658
11672W        W21365   3.620  16.264  14.565 -0.2614 -0.2701  0.1284
11673W        W21366   9.804   4.996   5.725  0.1078  0.1826 -0.1364
11674W        W21367  17.022  12.248   5.617  0.1071  0.0805 -0.0203
11675W        W21368   2.386   7.281   4.541 -0.1800  0.0938  0.0020
11676W        W21369   5.564   5.324   6.562  0.1666  0.0289  0.0735
11677W        W21370   8.223  12.750  13.425 -0.2556  0.5090  0.4583
11678W        W21371   3.735  12.148   3.768  0.0002  0.0708 -0.2841
11679W        W21372   1.504  15.807   2.389 -0.2633  0.1355 -0.0390
11680W        W21373   7.401   4.127  13.897 -0.2353  0.1683  0.1099
11681W        W21374   8.610  14.995   0.755  0.0678 -0.1605  0.0264
11682W        W21375   8.513  16.691  15.261 -0.1827 -0.0032  0.2173
11683W        W21376  10.726  12.398  17.066  0.2804 -0.4297 -0.1835
11684W        W21377  15.769  16.503   3.354  0.1514 -0.0627  0.0895
11685W        W21378  15.708   7.505  10.186 -0.1767 -0.2206  0.1817
11686W        W21379   7.822   6.124  15.250 -0.0000  0.0323 -0.0943
11687W        W21380   4.709  11.678   1.131 -0.0592  0.1193  0.0254
11688W        W21381   9.338  15.639  13.490 -0.2694 -0.1073 -0.2473
11689W        W21382  14.163   3.257  16.893 -0.1651 -0.1041 -0.1353
11690W        W21383   4.233   8.373  13.195  0.0254 -0.1999 -0.0625
11691W        W21384   1.020  10.115  16.621 -0.2722 -0.0198 -0.1402
11692W        W21385   6.972   4.089   2.371  0.1636  0.1005  0.0066
11693W        W21386  13.236   7.300  15.353 -0.1056  0.0571 -0.0226
11694W        W21387  11.123  14.950   5.871  0.3768  0.0320 -0.1697
11695W        W21388  12.513   8.035  11.308  0.1540 -0.0688 -0.3010
11696W        W21389   4.444  13.876   4.333  0.0796  0.0746 -0.0787
11697W        W21390  11.418   9.722  13.588 -0.3023  0.1031 -0.0720
11698W        W21391   0.872   6.061   3.120  0.1917  0.1932  0.1547
11699W        W21392   1.491   4.775   5.569  0.1183  0.0943 -0.0063
11700W        W21393  11.709   1.414   0.724 -0.1400  0.0596  0.0465
11701W        W21394  13.130  17.539  15.388  0.2749 -0.0452  0.0924
11702W        W21395  17.667   9.025   6.135  0.0832 -0.0323 -0.0852
11703W        W21396   3.967  10.113   5.770 -0.1523  0.1293  0.0160
11704W        W21397   6.394   1.128   2.651  0.0375 -0.2512 -0.2900
11705W        W21398   5.800   6.149   5.533  0.0135  0.1006 -0.1946
11706W        W21399   0.378   7.242   2.795 -0.0333  0.2708  0.1385
11707W        W21400  16.567   6.484   4.207 -0.2030  0.0678  0.0534
11708W        W21401   1.508  17.894   5.061  0.2860 -0.0180 -0.0853
11709W        W21402   1.036   1.175   0.185  0.0602 -0.0649 -0.1815
11710W        W21403   7.040  14.057  16.172 -0.0763  0.2325 -0.0976
11711W        W21404   1.361   7.403   1.794 -0.1722 -0.2052  0.1163
11712W        W21405   6.724   9.762   4.903 -0.0783 -0.1962 -0.2104
11713W        W21406   9.863   2.379   0.794 -0.2321  0.0665 -0.2755
11714W        W21407  17.914   5.538   1.493  0.0651  0.0276  0.1643
11715W        W21408   0.170   8.877  13.882  0.3010  0.0951 -0.0416
11716W        W21409   4.707   7.319  15.582 -0.2065  0.3500  0.0904
11717W        W21410  10.216  12.103   3.452 -0.1023 -0.1011  0.3870
11718W        W21411   6.300   2.199   6.542  0.1778  0.1055  0.1109
11719W        W21412  17.917  10.967  16.537 -0.2560 -0.0744 -0.0829
11720W        W21413  12.030  14.122  15.612  0.1230 -0.1825 -0.1978
11721W        W21414   0.671  10.369   3.187  0.0440 -0.0208  0.1037
11722W        W21415   0.696   6.593  14.678 -0.0767  0.1523 -0.1970
11723W        W21416   9.599   0.714  11.232  0.2943 -0.3134  0.3528
11724W        W21417   7.806   8.284  12.449 -0.0590  0.0472 -0.1006
11725W        W21418  12.330   8.084   4.855  0.0033 -0.0081  0.0941
11726W        W21419   1.810   1.182  14.274  0.1648  0.1469  0.5102
11727W        W21420   2.156   5.020   2.434  0.0307  0.0125  0.2093
11728W        W21421   8.233   3.379   4.929  0.1336 -0.1132  0.1065
11729W        W21422  14.829   4.830   2.685  0.6887 -0.0504  0.3330
11730W        W21423   8.693   1.364  12.185  0.0930 -0.0932  0.3427
11731W        W21424   8.725  16.742   3.447 -0.0387 -0.0449 -0.1890
11732W        W21425   3.705  15.743  11.748  0.0045  0.0933 -0.1362
11733W        W21426   3.422  17.792  16.701 -0.0326 -0.3744  0.4814
11734W        W21427  10.713  13.811   0.633 -0.1112  0.1726 -0.2675
11735W        W21428  17.881   7.399   4.764  0.2579 -0.1290 -0.1271
11736W        W21429   1.342   6.783   3.091  0.0790  0.2434 -0.4185
11737W        W21430  15.124  12.273   0.017 -0.2268 -0.2700 -0.0532
11738W        W21431   1.503  12.638   1.749  0.0200 -0.0782 -0.2376
11739W        W21432   4.216   3.494  12.449  0.0884  0.4858  0.0239
11740W        W21433   5.089  13.133   0.939  0.0950 -0.1788 -0.3201
11741W        W21434   4.073   0.414   5.243  0.2611 -0.0393  0.0234
11742W        W21435   5.600  13.652   5.358 -0.0167  0.3273 -0.2948
11743W        W21436   3.493   4.252  14.736  0.2531 -0.0489 -0.1767
11744W        W21437   8.591  10.732  13.363  0.0539 -0.2924 -0.1328
11745W        W21438   3.973  11.299   4.085  0.4396 -0.1117 -0.0412
11746W        W21439   5.454   9.249   3.042 -0.2034  0.3270 -0.1729
11747W        W21440   1.546  14.735  11.357  0.2479 -0.0762 -0.3188
11748W        W21441   9.272  17.853   2.706  0.0468  0.0635 -0.0823
11749W        W21442   4.740   6.458   0.815 -0.1925  0.1033  0.1206
11750W        W21443   8.763  10.388   6.063 -0.0447 -0.0792 -0.1358
11751W        W21444  10.741  10.041  16.549  0.0261  0.1534  0.2122
11752W        W21445  11.373   0.277  14.045 -0.3287  0.1063  0.2982
11753W        W21446  12.269  17.423  15.291  0.1456 -0.2339  0.0071
11754W        W21447   3.759   5.117  13.828 -0.0689 -0.4147 -0.0050
11755W        W21448   2.500  16.380   4.393  0.1191 -0.1587  0.1316
11756W        W21449  10.707   6.048   5.251 -0.0021 -0.0068  0.3981
11757W        W21450   2.728  12.851  12.939  0.1684  0.1201  0.1434
11758W        W21451   8.169   9.135  12.866 -0.1178  0.0445  0.0283
11759W        W21452   1.303  15.189  11.573 -0.0821  0.1204  0.2219
11760W        W21453   5.402   6.314   5.213 -0.2384 -0.2956 -0.0453
11761W        W21454   8.290  15.140  15.674  0.1978 -0.1905  0.2786
11762W        W21455   3.856   4.269   6.512 -0.0386  0.2417 -0.1538
11763W        W21456  16.017  17.863  11.216  0.0730 -0.0324  0.0668
11764W        W21457   1.986  14.769  15.188  0.2023  0.4369  0.0523
11765W        W21458   4.984  16.615   4.387 -0.1512  0.2547 -0.0825
11766W        W21459   9.872  16.180  14.121 -0.1238 -0.0995  0.0845
11767W        W21460   3.407   0.271  14.134  0.1892 -0.2178  0.1348
11768W        W21461   9.405  14.975   0.689 -0.1735  0.4483 -0.1177
11769W        W21462   8.734  17.505  13.195 -0.0555 -0.2707  0.1247
11770W        W21463   6.685   5.551   1.981  0.0673 -0.0898 -0.2359
11771W        W21464   2.346  11.712   4.613 -0.0006  0.0710  0.0661
11772W        W21465   7.321   4.927  15.547  0.0119 -0.2732  0.3761
11773W        W21466   6.200  12.056  12.112  0.1202  0.0183 -0.5195
11774W        W21467  12.670  17.703  14.597  0.2781  0.3402 -0.0009
11775W        W21468   2.189  12.654  13.735 -0.0155 -0.0328  0.0184
11776W        W21469   2.289   2.855  16.463 -0.3491 -0.3522 -0.0789
11777W        W21470   1.873   4.827   4.099 -0.1015  0.2237  0.3502
11778W        W21471   2.314  17.585  15.605  0.0631  0.0486 -0.1829
11779W        W21472  11.521   6.349   0.776 -0.0452 -0.1012  0.1741
11780W        W21473   8.847   7.093   3.995  0.0322  0.0925  0.1763
11781W        W21474   4.606  10.524   1.996  0.1762 -0.0810 -0.1331
11782W        W21475   2.706  13.640  15.008 -0.0158 -0.1796 -0.2313
11783W        W21476   1.518  13.861  14.508 -0.0371  0.3930  0.2288
11784W        W21477  14.949  13.633  13.866 -0.0048  0.1821 -0.1641
11785W        W21478  11.790   2.232  12.182 -0.1581  0.0417  0.0972
11786W        W21479  15.876  11.496  14.975  0.1025  0.0336 -0.0684
11787W        W21480   7.070  16.881   4.070  0.1657 -0.0939 -0.3050
11788W        W21481   1.650   8.600  11.731 -0.2802  0.2785  0.1436
11789W        W21482   8.603  15.908  16.262  0.2625  0.2454 -0.0997
11790W        W21483   9.845   3.109   4.717 -0.1566 -0.0266  0.5978
11791W        W21484   4.580   7.404  14.697  0.2164 -0.0764 -0.3044
11792W        W21485   6.874   7.738  16.743  0.2710  0.1398  0.2823
11793W        W21486  16.020  15.053  15.720  0.0463 -0.0380  0.3196
11794W        W21487  16.090   4.519   6.190  0.1155  0.0031 -0.0615
11795W        W21488   2.069  17.451   0.828 -0.1727 -0.2081  0.3006
11796W        W21489   9.559  11.086   6.106  0.1858 -0.2022  0.2628
11797W        W21490   1.139   2.607   4.278 -0.2662  0.0664  0.0449
11798W        W21491  10.105  17.537   0.094  0.2319  0.2880 -0.2389
11799W        W21492   4.025  13.074  12.817  0.1278 -0.1492  0.0196
11800W        W21493   2.915  12.987  16.197  0.0357 -0.1714 -0.1528
11801W        W21494   0.966   4.638  12.357  0.0847  0.0582 -0.2625
11802W        W21495  12.946  12.019   3.167 -0.0210  0.1284  0.1777
11803W        W21496   5.815   6.978  14.472  0.3906  0.0722 -0.0206
11804W        W21497   8.466  16.538   6.722  0.1807  0.2158  0.1065
11805W        W21498  10.706  16.811   0.410  0.2935 -0.3211  0.0556
11806W        W21499   0.282  10.147   2.683 -0.0170 -0.0448 -0.2901
11807W        W21500  16.009  15.881  16.395 -0.2307 -0.0969  0.0892
11808W        W21501  11.833   6.764   5.731 -0.0853  0.1373  0.0530
11809W        W21502   5.080   4.660  12.699  0.0731 -0.3743  0.0633
11810W        W21503   4.835   4.499   2.701 -0.2028 -0.0270 -0.1773
11811W        W21504  11.927  12.527  13.412  0.1682  0.5808  0.3320
11812W        W21505   4.910   1.894  15.253 -0.3030 -0.0315  0.0886
11813W        W21506   6.692   5.808   0.433  0.0230  0.0199  0.0762
11814W        W21507   7.545   0.629  15.845  0.2055 -0.0080 -0.0355
11815W        W21508   4.353  10.576  13.394  0.1776  0.2194 -0.2169
11816W        W21509  12.501   0.136  12.558  0.2287 -0.0829  0.2447
11817W        W21510  12.460   9.342  13.429  0.0851  0.0781 -0.1161
11818W        W21511   5.588  11.539   5.588 -0.0383  0.0357 -0.1929
11819W        W21512  11.390   6.423   4.647 -0.3055  0.0739 -0.0305
11820W        W21513   2.824   2.055  10.695  0.2930 -0.0411  0.4404
11821W        W21514   3.158   5.694   2.543 -0.3018 -0.1143 -0.0140
11822W        W21515   7.609   2.317  15.045  0.1679  0.0716  0.0807
11823W        W21516  10.494   4.854   3.609 -0.0762  0.0129  0.1732
11824W        W21517  11.809   0.015  14.072 -0.0543  0.1842 -0.1434
11825W        W21518  16.294   1.613  11.291 -0.4003 -0.0437 -0.0288
11826W        W21519   5.661   3.813  16.143 -0.1331 -0.4043  0.1957
11827W        W21520  16.423  11.539   5.447  0.0932  0.2622  0.1890
11828W        W21521   3.845  14.231  11.683  0.1463 -0.2710  0.2157
11829W        W21522  11.991   2.828   4.931  0.0926  0.2602  0.0575
11830W        W21523   4.390   5.325  11.972  0.0174 -0.0630 -0.0751
11831W        W21524  14.375   2.098  14.035  0.0502 -0.0824 -0.0451
11832W        W21525   3.625   8.093  14.397 -0.2225  0.0425 -0.4609
11833W        W21526   4.654  10.944   4.628 -0.1041  0.2292 -0.0707
11834W        W21527   5.114   6.647  13.752  0.1462  0.3205 -0.1617
11835W        W21528   4.557  12.962  12.474 -0.0695  0.2109  0.1093
11836W        W21529   8.596  12.863   0.606  0.1807  0.0928 -0.3179
11837W        W21530  13.234   3.241  15.247  0.1066  0.5139 -0.2503
11838W        W21531   6.722  13.844   6.094 -0.0761  0.0124 -0.3061
11839W        W21532  10.552  16.564  13.386  0.0206 -0.1356  0.3151
11840W        W21533   6.137   8.198   1.199  0.0684  0.0793  0.0948
11841W        W21534   6.471   1.572  17.098 -0.0396  0.2193 -0.3723
11842W        W21535  16.952   3.644  10.247 -0.1089 -0.1337 -0.0520
11843W        W21536   4.969  13.852  13.233  0.1526 -0.3223 -0.2390
11844W        W21537  12.494  16.706   5.858  0.1812  0.2550 -0.0654
11845W        W21538   6.030   3.928  13.228  0.0635  0.2029 -0.0259
11846W        W21539   6.215  17.017   0.698  0.1499  0.1784  0.2145
11847W        W21540   1.317  15.225   2.115  0.2286 -0.2210  0.3416
11848W        W21541   9.039   5.882   0.069  0.1069  0.1685  0.1194
11849W        W21542   6.301   6.060  16.418  0.2222 -0.1744 -0.0788
11850W        W21543   2.864   4.484   0.971 -0.0179 -0.3190 -0.3440
11851W        W21544  12.177   9.892   6.384  0.3155 -0.0866 -0.0224
11852W        W21545   7.297   4.022   1.661 -0.2415  0.0622  0.0152
11853W        W21546   0.816   1.403   5.627  0.1438  0.1234  0.2033
11854W        W21547  17.511  17.266   3.093 -0.1336  0.2260  0.0117
11855W        W21548   7.979   0.154   3.703 -0.0806  0.0531  0.1829
11856W        W21549   0.430   6.749   2.862 -0.4085 -0.1937 -0.1569
11857W        W21550  15.372  10.257   4.915  0.0635  0.1229  0.1803
11858W        W21551   5.518   9.276   2.439  0.0697  0.0085  0.2952
11859W        W21552   7.308   6.286   1.486 -0.0401  0.0601 -0.0761
11860W        W21553   4.216   1.921   5.471  0.0595 -0.0053  0.0054
11861W        W21554   7.134   3.512   3.570 -0.0677 -0.0247 -0.1746
11862W        W21555   7.406  13.911  13.567  0.0227 -0.2914 -0.1433
11863W        W21556  15.268   5.662   2.561  0.1130 -0.0821  0.2300
11864W        W21557  16.831   9.692  12.079  0.0539 -0.1165 -0.1166
11865W        W21558  15.541   3.719   3.013  0.1203  0.1366  0.0720
11866W        W21559   3.209   4.277  11.791 -0.1630 -0.1091  0.0347
11867W        W21560   5.053   6.601  14.505  0.2192  0.3542 -0.2599
11868W        W21561  16.713   5.196   6.294  0.1071 -0.0124 -0.0384
11869W        W21562   8.395   3.060   2.345 -0.0551 -0.1008 -0.1051
11870W        W21563  16.134   5.497  15.635 -0.1221 -0.0482  0.2465
11871W        W21564   8.979  11.930   3.518  0.1138 -0.2507  0.0814
11872W        W21565  12.041   9.512  11.368  0.0855 -0.2766  0.1583
11873W        W21566   4.861  11.177   5.071  0.0407 -0.2253  0.0847
11874W        W21567   1.601  12.079  13.161 -0.0046 -0.1939  0.0562
11875W        W21568  16.499   3.826  15.342  0.0310  0.1072  0.2089
11876W        W21569  17.548   3.379   2.690  0.2369 -0.0353  0.0357
11877W        W21570   3.357  14.882   1.646 -0.1346 -0.0956 -0.2242
11878W        W21571   4.333  15.095   3.462 -0.1643  0.0552  0.2203
11879W        W21572   1.619   7.316  15.348  0.1790  0.3281  0.0785
11880W        W21573   7.208  16.523  14.139 -0.5362  0.2446 -0.0199
11881W        W21574   1.776  14.236   3.621 -0.1998  0.0691  0.1940
11882W        W21575  10.344   2.543   3.512  0.1500  0.1405  0.0676
11883W        W21576  17.242  11.022  14.772 -0.0736 -0.1138  0.0888
11884W        W21577  13.334   6.230   6.065 -0.0763  0.1829 -0.1214
11885W        W21578   4.827   1.340  15.109 -0.3896 -0.1604 -0.0976
11886W        W21579   5.736   3.768   2.562  0.0967  0.1207 -0.1948
11887W        W21580   6.787   7.907  15.931  0.1665  0.1503 -0.2769
11888W        W21581   5.528   7.254   6.178  0.1481 -0.0970 -0.3718
11889W        W21582  17.008   0.089   0.098  0.3891  0.2207 -0.0756
11890W        W21583   2.852   5.195  14.708  0.1612 -0.1820  0.0362
11891W        W21584   3.101  17.540   4.731  0.0366 -0.2248  0.1338
11892W        W21585  14.579   4.142   5.243 -0.0013  0.1151  0.2208
11893W        W21586   8.177   1.579  14.970  0.1348 -0.0013  0.1021
11894W        W21587   5.258   2.731   5.521  0.0010  0.1900  0.3415
11895W        W21588   3.783   7.644  15.657  0.2854  0.0897 -0.3770
11896W        W21589   2.021  10.411   1.742  0.0892 -0.0530  0.0316
11897W        W21590   5.595   2.660   0.972 -0.2802  0.1233 -0.0588
11898W        W21591   0.645   5.847   0.039  0.0120  0.0793 -0.0881
11899W        W21592  10.533  15.785  12.126  0.1125 -0.1840  0.1675
11900W        W21593   1.229   0.236  15.138  0.1064  0.2514  0.0486
11901W        W21594  16.110   6.334  15.490  0.0160 -0.0394  0.1991
11902W        W21595   4.272  16.414  13.740  0.1212 -0.1956  0.0402
11903W        W21596   0.065   1.014  10.952 -0.2312 -0.0272 -0.0309
11904W        W21597   6.435   7.157   6.247  0.0721  0.2962  0.0289
11905W        W21598   8.647   4.676   0.361  0.1565 -0.0594  0.3344
11906W        W21599  17.764   7.328  16.193 -0.2048 -0.0764 -0.2415
11907W        W21600   3.276   5.998   3.910 -0.2615 -0.1106 -0.3953
11908W        W21601   5.436   5.581  16.668  0.1945  0.2504  0.1014
11909W        W21602   5.527  14.224   3.023 -0.0853  0.0556  0.2473
11910W        W21603   2.943   2.926  12.087 -0.1422 -0.0436  0.2294
11911W        W21604  11.454   0.209   3.863  0.1214  0.0787 -0.1416
11912W        W21605   9.735  12.750  16.354  0.0179 -0.3375  0.0788
11913W        W21606   3.940  16.405   4.196  0.0125 -0.0360  0.2444
11914W        W21607  10.029  12.227   6.127  0.2803 -0.0010  0.3426
11915W        W21608   1.707  15.034   1.446  0.0991 -0.3912  0.2086
11916W        W21609   8.496  10.568  12.885 -0.0383  0.1911 -0.0132
11917W        W21610  12.860   3.141  14.925  0.0308  0.0929  0.1259
11918W        W21611   9.655  13.868  12.945  0.0232  0.0703 -0.1841
11919W        W21612  10.811  13.450   4.222  0.2333  0.3150  0.1356
11920W        W21613  14.324   9.463   3.466  0.2077  0.0220 -0.1394
11921W        W21614   6.835   1.260   0.979  0.3021  0.3766 -0.1061
11922W        W21615   1.911  13.529  14.769 -0.0753  0.0649  0.0367
11923W        W21616  10.897   0.873   0.179  0.0918 -0.0314  0.3025
11924W        W21617   2.675   8.704   5.575 -0.0848  0.1806 -0.0481
11925W        W21618   0.450   1.218  15.455 -0.1753 -0.0148 -0.2166
11926W        W21619  16.654  15.867   0.866 -0.1111 -0.2120 -0.0016
11927W        W21620   2.605   5.504   4.397 -0.1562 -0.0305 -0.1290
11928W        W21621   8.472  13.104   4.130  0.0144  0.0581  0.1164
11929W        W21622   2.836  16.488   4.799  0.0470  0.1020  0.0298
11930W        W21623  14.108  11.833  14.619  0.1683 -0.0272 -0.1972
11931W        W21624   3.278   0.819   4.199  0.1683  0.0385  0.2284
11932W        W21625   2.900   7.215   5.818 -0.2112 -0.0769 -0.4086
11933W        W21626   6.275   5.438   2.704 -0.1587 -0.2924 -0.1262
11934W        W21627  15.319  17.285  11.121  0.0909 -0.1822 -0.0817
11935W        W21628   1.639   3.053   1.640  0.2608  0.1661 -0.1296
11936W        W21629   9.234   4.111   1.487  0.3110 -0.0725 -0.1381
11937W        W21630  11.810   4.194   0.284  0.1517  0.0193  0.2563
11938W        W21631   1.061   5.424  15.538  0.0677  0.2682 -0.4544
11939W        W21632   5.512  15.040  13.875  0.2299  0.2178  0.3338
11940W        W21633   6.662   2.645  13.142 -0.0655 -0.1290  0.1980
11941W        W21634   0.394   8.190   1.717  0.3860  0.0902  0.2471
11942W        W21635   3.194   7.309  12.675 -0.2071  0.0463  0.3599
11943W        W21636   8.353   4.237   6.453  0.6144 -0.0690  0.0866
11944W        W21637   9.710   2.557  15.311 -0.1329  0.1039  0.1521
11945W        W21638  14.204   5.950   6.353 -0.1411 -0.5323 -0.1454
11946W        W21639   0.354   7.773  10.821  0.0959  0.0252 -0.0350
11947W        W21640  10.659  14.631   0.832 -0.2482 -0.2372 -0.1697
11948W        W21641   1.527  11.416   0.152  0.0950 -0.1906  0.1621
11949W        W21642  10.201   8.196   5.720 -0.2932 -0.2975  0.1075
11950W        W21643   6.269  13.797  15.665 -0.3487  0.1773  0.0041
11951W        W21644   4.031  14.578   1.291 -0.1665  0.2354  0.2351
11952W        W21645   3.467   6.029   5.368  0.0782  0.0281 -0.0250
11953W        W21646   2.644  11.026  16.136 -0.2430  0.2032 -0.3329
11954W        W21647   1.781  16.308   0.283  0.0984  0.2013 -0.0825
11955W        W21648   6.402  15.920   4.802 -0.0510 -0.1125 -0.0198
11956W        W21649  10.199   5.271   3.800 -0.0019 -0.4444  0.2574
11957W        W21650  11.574   1.254   1.618 -0.0419  0.3235  0.2850
11958W        W21651   4.687  16.013  14.456 -0.0306  0.0755 -0.0780
11959W        W21652   5.854   2.190  16.208  0.3140  0.2905 -0.1293
11960W        W21653   4.567   6.362   4.491  0.0077  0.0307 -0.1658
11961W        W21654   6.147   1.181  11.715 -0.1131  0.0846 -0.0737
11962W        W21655   8.267   6.920  14.486 -0.1003  0.6267 -0.0563
11963W        W21656   7.705   9.147   0.149 -0.0980 -0.2213  0.3541
11964W        W21657   3.098   2.343  14.914 -0.0149 -0.2254 -0.1043
11965W        W21658   9.253   9.527  13.136 -0.0269 -0.0578  0.0301
11966W        W21659   8.939  12.482  12.399  0.2120 -0.3371  0.3156
11967W        W21660   6.781  14.164   3.062  0.1510  0.1053 -0.1300
11968W        W21661   7.365  10.392   0.583 -0.2590  0.1222  0.1132
11969W        W21662   1.825   7.139   1.768 -0.4344 -0.2418  0.1353
11970W        W21663  11.545   4.791   2.365  0.1933  0.1815  0.0525
11971W        W21664   8.716   2.999   1.919  0.0410  0.1177  0.0711
11972W        W21665   0.845  17.354   0.255  0.1807  0.0273 -0.2139
11973W        W21666   7.545   8.428   0.921  0.0958  0.1063  0.1758
11974W        W21667   8.423  11.832  12.164  0.1405  0.0488  0.1005
11975W        W21668   3.484   5.151  15.441 -0.0633  0.1507  0.0258
11976W        W21669   5.619  10.917   4.735 -0.0692  0.0364  0.4847
11977W        W21670   7.034   0.479  15.707  0.0029 -0.0439 -0.0724
11978W        W21671  10.005   2.175   1.517 -0.2034 -0.0524  0.0209
11979W        W21672   2.592  15.430  15.135 -0.1681 -0.1197  0.0841
11980W        W21673   4.598   5.864   4.333  0.1419 -0.1073 -0.3911
11981W        W21674   9.866   2.153  14.289  0.3091  0.1706  0.3593
11982W        W21675   0.343  10.607   2.397 -0.0397 -0.1258  0.1518
11983W        W21676   3.029   0.324   5.942 -0.2445  0.0406  0.2458
11984W        W21677   6.698  15.215   2.891 -0.0046 -0.0204 -0.1218
11985W        W21678   5.217   7.265  15.709 -0.2515  0.1318 -0.0279
11986W        W21679   2.244   9.630  12.970 -0.0506  0.1026  0.0143
11987W        W21680   2.268   0.933  14.229  0.2888  0.1755  0.4585
11988W        W21681   6.308  14.084   3.165 -0.1468 -0.1492  0.0980
11989W        W21682  11.800  17.596  15.179 -0.3274 -0.2323 -0.2765
11990W        W21683   4.676   1.887   5.787  0.0144  0.0473  0.0484
11991W        W21684   6.638   8.333   4.262 -0.2359 -0.2012 -0.2261
11992W        W21685  17.782  11.514  13.964  0.1556  0.0507 -0.0187
11993W        W21686   2.500   6.672  12.942  0.2099  0.1430  0.1525
11994W        W21687   1.844   8.408   3.008  0.0204 -0.0493  0.1612
11995W        W21688  13.213   8.323  16.019 -0.1580 -0.3863 -0.0569
11996W        W21689   9.256   1.474  15.633  0.1173 -0.4034  0.2009
11997W        W21690   5.046   8.403   2.550 -0.0449 -0.3486  0.4157
11998W        W21691  14.080  14.771   3.068 -0.1246 -0.0103  0.0626
11999W        W21692   7.776  10.438  15.040  0.1779 -0.1771  0.2120
12000W        W21693  15.672   1.257  14.793 -0.1515  0.0235 -0.3670
12001W        W21694   9.584   5.733   4.849  0.0139 -0.0097  0.1453
12002W        W21695   0.611  15.292   4.238  0.0965  0.2908 -0.0455
12003W        W21696   5.053   7.702  15.533 -0.0837  0.4975  0.2760
12004W        W21697   6.501   4.314   1.160 -0.2847  0.1445  0.2098
12005W        W21698   8.726   4.468  13.264  0.0225 -0.1971  0.1023
12006W        W21699  11.588  15.007   5.765 -0.1832 -0.1803 -0.0032
12007W        W21700   2.690   7.804   5.176 -0.0969 -0.1501 -0.2362
12008W        W21701   5.872  11.388   2.164 -0.4080 -0.0041  0.1339
12009W        W21702   7.934  11.904   2.570 -0.2090  0.0033  0.2176
12010W        W21703  14.161   8.148   5.425  0.0038 -0.2310 -0.1674
12011W        W21704   4.580  13.209   1.096  0.0415 -0.1628  0.3566
12012W        W21705  16.274   4.376  12.445  0.2076 -0.0451 -0.0074
12013W        W21706   2.176  14.111  16.114  0.1199  0.3665  0.3125
12014W        W21707  15.138   5.610  12.917 -0.0795 -0.3199 -0.0806
12015W        W21708   4.345  15.735   5.322 -0.2408  0.0141  0.1008
12016W        W21709  15.799   2.395   5.925 -0.0569 -0.3208 -0.2940
12017W        W21710  16.848  14.048   0.088  0.2832  0.3101 -0.0291
12018W        W21711  11.061   8.970  14.069  0.0481 -0.3542 -0.0601
12019W        W21712  13.410  16.465  13.335  0.0995  0.2881 -0.3317
12020W        W21713   2.213   4.228  15.500  0.2305  0.1798  0.1921
12021W        W21714  16.276   7.146  14.748 -0.1220  0.0173 -0.1473
12022W        W21715   4.904  10.217  16.075 -0.1197 -0.1226 -0.0680
12023W        W21716   5.768  15.563  13.047 -0.2997 -0.1901  0.3686
12024W        W21717   5.071  14.177   5.904 -0.4020 -0.2176  0.1734
12025W        W21718   8.789  17.825  10.752  0.1811 -0.4858  0.0149
12026W        W21719   7.736   8.188  13.470 -0.1049  0.1400 -0.1329
12027W        W21720  16.339  11.400  16.188  0.0612 -0.0568  0.0817
12028W        W21721  17.153  13.499  11.130 -0.0935 -0.1275 -0.1165
12029W        W21722   2.337  10.672  12.268 -0.3429 -0.0890 -0.3101
12030W        W21723   1.207  10.153   2.509  0.2611 -0.0032 -0.0750
12031W        W21724   0.453  16.784   4.994  0.3058  0.3008 -0.2347
12032W        W21725   4.650   6.942   0.460 -0.1841 -0.1974 -0.1697
12033W        W21726   9.939   8.070   0.072  0.0954 -0.1399 -0.2115
12034W        W21727   3.688   6.334   3.908 -0.3194 -0.2540 -0.1807
12035W        W21728   4.746   5.842  14.752 -0.1954  0.0084  0.2337
12036W        W21729   8.393  15.482  14.168  0.1481 -0.0605  0.1593
12037W        W21730   8.447  17.090   3.766  0.1370  0.0822  0.1140
12038W        W21731   4.526   2.548  16.983  0.0877 -0.2109  0.1605
12039W        W21732   6.120   4.508   0.367 -0.1486 -0.0633 -0.0653
12040W        W21733   7.234   0.659   0.555  0.2715 -0.3701 -0.2540
12041W        W21734   1.869   9.289  16.499  0.0135 -0.1129 -0.0401
12042W        W21735   8.772   1.982  12.288 -0.2178  0.0986 -0.3658
12043W        W21736  12.620   9.932   1.267 -0.1020  0.0649  0.1558
12044W        W21737   8.172   2.131  13.781 -0.0756  0.2075  0.0530
12045W        W21738  10.436  10.441   0.214  0.0654 -0.2865  0.3828
12046W        W21739  10.661   3.276  14.359  0.1854  0.1293 -0.0402
12047W        W21740   5.115   4.868  14.715  0.0371 -0.0619  0.4468
12048W        W21741   0.909   7.573   0.967  0.1712 -0.1907 -0.3118
12049W        W21742   4.954   4.297  16.387 -0.0999 -0.0966 -0.3546
12050W        W21743   1.862  12.637  11.981  0.1794 -0.0001  0.1733
12051W        W21744  17.499   6.226  15.428 -0.2042 -0.2867  0.0468
12052W        W21745   5.945  12.606   1.213 -0.0267  0.2167 -0.7073
12053W        W21746   8.807   0.254  11.307  0.2319  0.0061 -0.1775
12054W        W21747  16.280  17.878   3.783 -0.1134 -0.0569 -0.2047
12055W        W21748   3.143  15.695   3.320 -0.1114 -0.0415 -0.0502
12056W        W21749   7.686   6.551   6.083 -0.0342  0.1377 -0.0318
12057W        W21750   5.959   6.944   1.065 -0.0420  0.2261 -0.1051
12058W        W21751   2.722   8.413  13.704  0.2131  0.3953 -0.1582
12059W        W21752   9.369  16.857  13.543  0.0159  0.0670 -0.2869
12060W        W21753   3.832  16.991   2.845 -0.1917 -0.1900  0.1687
12061W        W21754   1.121   0.337  11.524  0.0529  0.2203  0.0583
12062W        W21755  15.092   2.055  11.238 -0.2097  0.0144  0.0186
12063W        W21756  10.560  16.741   0.909 -0.2444  0.2991 -0.3109
12064W        W21757   0.320   9.849   4.257 -0.1537 -0.0898 -0.3822
12065W        W21758   8.326  15.877   5.689 -0.1717  0.0625 -0.0404
12066W        W21759   1.564   8.542   3.647  0.0913  0.2563 -0.3578
12067W        W21760  10.512   2.197   1.531 -0.2746  0.0758  0.1453
12068W        W21761   6.150   0.072   1.219  0.2726  0.0517  0.1058
12069W        W21762   3.781   6.105  13.950  0.2044 -0.2588  0.0360
12070W        W21763  10.196   4.493   3.413  0.2696 -0.2384 -0.0622
12071W        W21764   4.278   7.672   4.806 -0.1456 -0.1272  0.1089
12072W        W21765  17.159  17.030  12.105  0.1146 -0.2722 -0.1986
12073W        W21766   3.360   8.290  13.953 -0.2124  0.0370  0.0234
12074W        W21767   3.365   2.178  11.514 -0.0832  0.5081  0.3135
12075W        W21768  12.572   5.714   0.902  0.2433  0.0753 -0.1844
12076W        W21769  10.438   8.106  14.088  0.1013  0.0777 -0.0318
12077W        W21770   4.763   1.862  12.533  0.0148  0.0542  0.0342
12078W        W21771   1.614  12.247  16.934  0.2674  0.0714 -0.1626
12079W        W21772   3.022   7.520   1.756 -0.1508  0.0855 -0.1455
12080W        W21773   2.783   2.920   3.444 -0.2971 -0.0430 -0.1119
12081W        W21774   4.223  15.110  17.006  0.1162  0.0601  0.0767
12082W        W21775  10.242  17.907  13.611  0.2069  0.0019 -0.2217
12083W        W21776   3.092  14.611  13.448 -0.0829 -0.1379 -0.0097
12084W        W21777   5.544  12.480  12.521 -0.0097 -0.0572 -0.1201
12085W        W21778   0.984  13.550  10.619 -0.1958 -0.1811 -0.1060
12086W        W21779  13.769   6.821   0.073  0.0684  0.0190  0.0449
12087W        W21780   5.477   2.548   3.054 -0.1551 -0.1583  0.2816
12088W        W21781  16.467  14.899   5.768  0.0953  0.1816  0.1739
12089W        W21782  10.996   7.547   6.278 -0.0049 -0.0758  0.0644
12090W        W21783  17.439  11.890  17.078  0.0285 -0.1602 -0.0550
12091W        W21784   3.627  14.230   1.021 -0.2864  0.1022 -0.1123
12092W        W21785   6.597   0.381   1.228  0.0677 -0.3313 -0.0469
12093W        W21786   3.952  14.944  16.103 -0.2120  0.3898 -0.1762
12094W        W21787   5.443   4.326   3.548 -0.1287  0.0804  0.3524
12095W        W21788  11.958   7.993  13.446 -0.0928  0.0001  0.0221
12096W        W21789   9.723  16.099  16.991  0.2461  0.1108 -0.0728
12097W        W21790  10.788  17.003   1.248 -0.0155  0.0102  0.1514
12098W        W21791   4.400   2.467   4.898  0.1807  0.0829 -0.1008
12099W        W21792   4.291  13.592   4.755  0.0163  0.1784  0.1366
12100W        W21793   4.243  12.336   0.561  0.0765  0.2807 -0.0175
12101W        W21794   8.665   6.674  13.181 -0.0602  0.1801  0.0703
12102W        W21795   8.284  13.143  15.728 -0.1733  0.0222  0.3219
12103W        W21796   4.201  16.128  16.435 -0.4713 -0.1496  0.0597
12104W        W21797  12.499   0.916  15.423 -0.2482 -0.1569  0.2610
12105W        W21798   0.280   5.987   3.351 -0.0302  0.0099  0.2014
12106W        W21799  15.512   4.103  14.512  0.1744 -0.1730  0.5610
12107W        W21800   6.538   0.715  11.286  0.1193  0.1774 -0.1256
12108W        W21801  17.670   3.479  13.801  0.0466  0.2695 -0.0081
12109W        W21802   0.966  10.104  14.035 -0.1804 -0.0429 -0.0226
12110W        W21803   9.927   6.432   2.293 -0.0738  0.0630 -0.1354
12111W        W21804   3.049   9.407  12.984  0.2474  0.0135  0.2282
12112W        W21805   9.789  16.693   2.384 -0.0847 -0.3222 -0.2892
12113W        W21806   9.499  13.261   4.577 -0.1086  0.0860  0.3260
12114W        W21807  12.741  13.169   1.581 -0.1119  0.0571 -0.0501
12115W        W21808  15.897  14.173   0.500  0.0094  0.2446  0.1943
12116W        W21809   5.992   0.731  11.490 -0.0537 -0.1557 -0.1128
12117W        W21810   5.388   2.072  15.283  0.0241 -0.0992  0.2039
12118W        W21811   9.291   7.695  13.618  0.1154  0.2382 -0.0438
12119W        W21812  12.991  11.249   4.116  0.0613  0.1549 -0.2812
12120W        W21813   3.730  15.936   0.971  0.2548 -0.4495 -0.1510
12121W        W21814   3.240  15.793   0.027  0.2559 -0.1799 -0.1201
12122W        W21815  13.724   3.088   0.942  0.0341  0.1804 -0.0602
12123W        W21816   4.933  11.653   0.165 -0.0197 -0.0092  0.3541
12124W        W21817   5.419  10.542   1.238 -0.2901 -0.0747  0.0206
12125W        W21818   9.463   5.215  14.211 -0.3324 -0.0992 -0.0821
12126W        W21819  12.215  14.312   4.454 -0.1951 -0.0341 -0.2235
12127W        W21820   6.759  13.306   0.497  0.2290 -0.1781 -0.0260
12128W        W21821  10.738  12.585   0.637  0.1021  0.0606  0.1663
12129W        W21822   3.803   0.913   4.193 -0.2717 -0.2571 -0.0587
12130W        W21823   2.249  13.091  11.786  0.0470 -0.2093 -0.0764
12131W        W21824   3.211   1.634   2.801 -0.1243  0.1869 -0.0898
12132W        W21825   6.731   8.577   5.136  0.1536  0.0262  0.0022
12133W        W21826   2.438   6.852   2.913  0.1163  0.5018 -0.1272
12134W        W21827   8.993   9.014   5.851  0.2519 -0.1311 -0.0547
12135W        W21828   9.217   4.195   2.005 -0.1448  0.0557 -0.0544
12136W        W21829   2.343   5.038   0.247 -0.0062 -0.1221  0.1694
12137W        W21830   7.602  12.967   5.101 -0.1752 -0.4272 -0.0342
12138W        W21831   7.283   8.801  15.363 -0.1741 -0.2754  0.1957
12139W        W21832   8.824  17.875   3.352 -0.1776  0.4237 -0.3323
12140W        W21833   3.037   9.306  16.046 -0.0151 -0.0113  0.1444
12141W        W21834   9.962  10.564   0.251  0.2479 -0.0251  0.1802
12142W        W21835   3.533  11.892  16.799  0.1203  0.0926 -0.0754
12143W        W21836   7.236   7.650  14.209  0.0477  0.2093  0.0311
12144W        W21837  11.026  13.658   2.663 -0.3886 -0.3874  0.1044
12145W        W21838  17.083   1.524   0.834 -0.0307 -0.2090  0.1319
12146W        W21839   8.203   3.742  13.481 -0.2026  0.0379  0.4021
12147W        W21840   1.720  14.731   3.387  0.3058  0.0529 -0.2667
12148W        W21841  14.984  13.183  12.668 -0.0354 -0.0297  0.0847
12149W        W21842  14.778   8.304   1.935  0.2404  0.2032  0.1679
12150W        W21843   2.609   7.474   0.990 -0.0603  0.5250  0.0170
12151W        W21844  12.040  17.240   1.851  0.0350  0.2576 -0.2422
12152W        W21845   7.364  17.229   0.018 -0.0690  0.3751  0.0963
12153W        W21846   4.202  16.804   2.016 -0.2042 -0.3247 -0.1173
12154W        W21847  12.294  15.427  15.830  0.0422  0.0392  0.0307
12155W        W21848   6.122   8.174  15.654 -0.3626 -0.1457  0.1578
12156W        W21849   2.024  13.756   3.811 -0.1968 -0.1664  0.2857
12157W        W21850  17.611   4.759  12.055 -0.0202 -0.1156  0.3891
12158W        W21851   1.054  14.404  16.070  0.1057  0.0227 -0.3232
12159W        W21852   2.821  10.054  14.711  0.1234 -0.1720  0.0431
12160W        W21853  13.442   5.545   0.154  0.1444 -0.0733 -0.2702
12161W        W21854  14.755   3.671   3.575  0.1585  0.1847 -0.1614
12162W        W21855   7.981  13.325  13.115 -0.0711 -0.0857  0.1747
12163W        W21856   5.553   8.288   1.132 -0.0984 -0.0893 -0.1487
12164W        W21857   8.433  14.303   2.682  0.0559  0.0488 -0.0624
12165W        W21858   6.913   3.596  14.859 -0.0232  0.1357  0.4380
12166W        W21859   3.663  16.077  13.182 -0.0416  0.0396 -0.1444
12167W        W21860  11.404  11.160  15.990  0.0606 -0.0776  0.1673
12168W        W21861  16.753  16.064  14.009  0.2407  0.0076  0.3918
12169W        W21862   2.052   5.967  16.870  0.0554 -0.0152 -0.3463
12170W        W21863   0.366  15.399  15.554  0.0020  0.3002 -0.2817
12171W        W21864  12.965   3.526  13.686  0.0479  0.0653  0.1684
12172W        W21865  13.209   2.784  14.801  0.0665  0.1875 -0.1496
12173W        W21866  10.911  12.721  11.618  0.2520  0.1334 -0.2072
12174W        W21867   4.715  13.597  14.580 -0.2124 -0.4020 -0.2724
12175W        W21868   5.373   7.313   5.538  0.1550 -0.0115  0.0062
12176W        W21869   8.737   1.107  16.293 -0.0115  0.1722 -0.0408
12177W        W21870   2.974  10.759   3.458 -0.0954 -0.0661 -0.4212
12178W        W21871   6.339   2.932   4.058  0.1761  0.1798 -0.1738
12179W        W21872   0.005  11.205  15.447  0.0691 -0.3327  0.1806
12180W        W21873   2.497   4.678  15.404  0.2792  0.1367  0.0487
12181W        W21874   3.565  15.811   2.092 -0.1169 -0.1614  0.1127
12182W        W21875   4.238   5.750  12.190 -0.0300  0.0916  0.2276
12183W        W21876  17.089  17.691  13.648  0.1386 -0.1164 -0.2061
12184W        W21877   5.442   7.254  12.230  0.0516 -0.2376  0.0148
12185W        W21878   9.074   7.149  16.677 -0.3735 -0.1431 -0.0169
12186W        W21879  13.854  12.849  15.319  0.0465  0.0744  0.1949
12187W        W21880   8.047   3.109   3.333 -0.0862 -0.0062 -0.0865
12188W        W21881   6.120   0.928   0.466 -0.1679 -0.0031  0.1485
12189W        W21882   9.570   9.297   0.225  0.0011  0.0805  0.0145
12190W        W21883  16.299   3.889   1.490 -0.1333  0.1033 -0.0560
12191W        W21884  11.406  13.803  12.896 -0.1204 -0.0255 -0.0246
12192W        W21885   1.739  14.808  12.814  0.1815  0.1102  0.1438
12193W        W21886  16.546   2.894   0.650  0.0084 -0.0897 -0.2463
12194W        W21887   5.804  16.790  11.838 -0.2214  0.0577  0.0576
12195W        W21888   1.032   6.194   0.801  0.1719  0.1882  0.0848
12196W        W21889   3.033   9.905   4.842 -0.2305  0.1348  0.4565
12197W        W21890   4.554   1.252   3.328 -0.2002  0.3289  0.2085
12198W        W21891  11.660  11.779   3.064 -0.1685 -0.0561  0.2489
12199W        W21892   5.095   3.317  15.026  0.1058 -0.0073  0.3835
12200W        W21893   7.448   1.353   3.351  0.1543  0.0883 -0.1776
12201W        W21894   4.860  14.036  11.519  0.1751  0.1046 -0.1208
12202W        W21895   0.160  15.551  14.381  0.1909 -0.2389 -0.2204
12203W        W21896   2.119  11.506   0.069  0.0720  0.0478 -0.0142
12204W        W21897  17.324   6.937  14.032  0.2459  0.3572  0.0456
12205W        W21898  12.139   5.165   2.217 -0.1084  0.0418  0.0244
12206W        W21899   1.444   6.821   0.233  0.1436  0.0044  0.0429
12207W        W21900  17.898  10.999  11.523  0.2577  0.0243 -0.1249
12208W        W21901  17.726   2.021   0.950  0.1701  0.1770 -0.0237
12209W        W21902  10.813  10.849  15.489  0.0260 -0.1251  0.1373
12210W        W21903   3.440  12.347  15.055  0.0913  0.0484  0.0431
12211W        W21904  14.268  12.909   5.238  0.3961 -0.0754 -0.2305
12212W        W21905   6.908  11.995   0.493  0.0328  0.0198 -0.0387
12213W        W21906   4.120  13.317   0.828  0.1652 -0.0367 -0.2065
12214W        W21907   3.862   9.369  15.560 -0.0450 -0.0551 -0.2875
12215W        W21908   7.385   9.349   2.885  0.1359  0.1099 -0.3332
12216W        W21909   7.518   5.801   6.452 -0.0590 -0.2220 -0.0464
12217W        W21910   2.852  15.675   2.864  0.2222 -0.0554  0.2168
12218W        W21911  13.299  14.602  16.842  0.0104  0.3262 -0.6008
12219W        W21912  12.571   9.179  16.284  0.0859  0.3544 -0.0184
12220W        W21913  14.159  12.493   3.469  0.0463  0.0553  0.1069
12221W        W21914   3.187  13.928   2.528 -0.3693  0.0610 -0.0773
12222W        W21915   5.378   9.263  16.107 -0.1272 -0.0649 -0.0591
12223W        W21916   9.670  10.275   0.575 -0.0399 -0.2546  0.2109
12224W        W21917  16.430   7.813   1.263  0.2668 -0.1510 -0.0185
12225W        W21918   2.894   9.744  13.876 -0.2032  0.1480  0.1671
12226W        W21919   3.400  15.409  11.452  0.0061  0.1896 -0.1653
12227W        W21920   8.482   1.163  13.699  0.2759 -0.0965 -0.2098
12228W        W21921   2.420  12.124  13.606 -0.3059 -0.3933  0.1371
12229W        W21922   7.327   7.219   2.131  0.0180 -0.2573  0.1912
12230W        W21923   6.624  15.956  14.534  0.1755 -0.0053 -0.0212
12231W        W21924  13.885  13.933   6.309 -0.0317 -0.0543  0.0795
12232W        W21925   5.987   2.678   3.694  0.0854 -0.4496 -0.1058
12233W        W21926  16.759  14.859   0.431  0.2103 -0.0013 -0.0559
12234W        W21927  15.649   3.218  12.081  0.1427 -0.0839 -0.4649
12235W        W21928   5.643  13.335   4.775 -0.2998  0.1030 -0.2283
12236W        W21929  13.128   3.846  11.774  0.1205  0.0705 -0.0673
12237W        W21930   3.145   7.306  15.837  0.3892 -0.1000 -0.1941
12238W        W21931   0.799  11.747   0.212  0.0834 -0.3211  0.0487
12239W        W21932   4.659  12.742   5.893  0.0385 -0.0208  0.2156
12240W        W21933   1.695   7.711   3.821 -0.0642 -0.0586  0.1676
12241W        W21934   6.156  17.762  14.450 -0.0152 -0.1303  0.0401
12242W        W21935   6.786   9.097   5.821  0.2212  0.1166 -0.0127
12243W        W21936   9.383   9.114  12.271 -0.0507 -0.0491  0.1118
12244W        W21937   6.680   8.737   2.277 -0.0351 -0.0218  0.1178
12245W        W21938  14.422   5.153   1.905  0.1318  0.0043 -0.0192
12246W        W21939   9.269  13.627  14.391  0.2154 -0.4353  0.2644
12247W        W21940  15.678   1.627  12.650  0.1801  0.2716 -0.0512
12248W        W21941   3.060   6.394  14.605  0.2018 -0.0132 -0.0233
12249W        W21942  11.366  14.056  11.716 -0.2977  0.1609  0.2257
12250W        W21943   6.918   8.381  14.557  0.2203  0.0499  0.0425
12251W        W21944   2.431   7.499  12.517  0.0886 -0.0500  0.1385
12252W        W21945   4.865   3.264   4.386  0.0199  0.0652  0.0441
12253W        W21946   2.794   6.730   4.237  0.3785 -0.0100 -0.0845
12254W        W21947   4.479  11.077  16.141  0.0166 -0.0298 -0.3045
12255W        W21948   1.023   7.921  16.388  0.2470  0.0502 -0.0591
12256W        W21949   8.614   6.802   3.595 -0.2931 -0.1585 -0.1025
12257W        W21950   5.484   4.516  14.732 -0.0456  0.0813  0.0152
12258W        W21951  17.890   6.979   1.450 -0.0965 -0.0878 -0.1453
12259W        W21952  10.839   8.664  14.523  0.1479  0.2670  0.0301
12260W        W21953  13.331   8.349  17.025  0.0189  0.0870  0.0559
12261W        W21954  15.177   3.135  15.635 -0.1162 -0.2919  0.0965
12262W        W21955   4.365  12.745   5.308  0.1079  0.3516  0.1552
12263W        W21956   2.060   9.603  14.321 -0.0249 -0.2490  0.1897
12264W        W21957  15.381   3.791  14.931  0.0983  0.1343  0.1390
12265W        W21958   0.880  15.371  15.755  0.0968  0.2782  0.0583
12266W        W21959  11.448  17.516  12.067  0.0588  0.2359 -0.1236
12267W        W21960   1.533   4.142   4.606 -0.0398 -0.2592 -0.0819
12268W        W21961   0.892  14.153   4.750  0.0885  0.1782 -0.0188
12269W        W21962  14.590   2.489  13.822 -0.1616 -0.1413  0.2183
12270W        W21963  11.718   4.564  12.166  0.1376  0.0498 -0.1248
12271W        W21964  11.897   2.120   1.377 -0.1373 -0.3060  0.0798
12272W        W21965   4.874  12.285   4.665  0.5425  0.0770 -0.0346
12273W        W21966  15.511  15.764  13.064 -0.0263  0.3639 -0.1861
12274W        W21967   7.013   8.135   0.521  0.1650  0.0494  0.0558
12275W        W21968  15.936  15.921   5.474 -0.0745 -0.1032 -0.1503
12276W        W21969  15.967   4.450   0.835  0.0373  0.1686  0.0683
12277W        W21970   2.575   9.436  14.096 -0.0397 -0.0314  0.0099
12278W        W21971   5.253   3.021  16.722 -0.1269 -0.2099  0.0825
12279W        W21972   6.159  12.511   0.308  0.1883  0.0587  0.0457
12280W        W21973   8.246   5.198  13.652  0.0070  0.1108  0.5556
12281W        W21974   5.155   6.028   3.397  0.1262  0.0270  0.3761
12282W        W21975   2.619   4.066   3.891 -0.0059 -0.1290  0.1699
12283W        W21976   6.136   1.384  12.818  0.1701 -0.1740 -0.0159
12284W        W21977  14.984   3.341   1.724 -0.1026 -0.1890  0.3507
12285W        W21978  17.087   3.054  13.375  0.1030 -0.2112  0.1248
12286W        W21979  15.511   0.506  13.193  0.1889 -0.0265 -0.0151
12287W        W21980   8.241   2.278   5.065 -0.1027  0.1281 -0.1919
12288W        W21981   8.809  14.136   5.454  0.2073  0.0887 -0.2311
12289W        W21982   1.116   7.028   4.010 -0.0693 -0.0054 -0.3350
12290W        W21983   2.776   5.841   3.814 -0.1607  0.0500  0.1232
12291W        W21984   5.198   6.636   4.931  0.0055 -0.0517  0.0191
12292W        W21985  14.539   2.168   0.262  0.1041  0.0417  0.0425
12293W        W21986  12.476  13.863   5.372 -0.1587  0.3420  0.0195
12294W        W21987   3.472   1.153   2.999 -0.0680  0.0680  0.0244
12295W        W21988  10.333   3.074   5.361  0.4760  0.0536 -0.0272
12296W        W21989   6.046   1.302   1.858  0.3537 -0.1198 -0.0918
12297W        W21990   3.658  14.743  14.919 -0.5735 -0.0450 -0.2701
12298W        W21991   7.438   5.897   5.914  0.1030 -0.0976 -0.1550
12299W        W21992   9.215  13.497  16.761  0.0983 -0.1468 -0.1394
12300W        W21993   7.504   1.429   0.458 -0.0594 -0.0041  0.1191
12301W        W21994   7.603  14.636  12.722  0.0925  0.2524  0.4080
12302W        W21995   2.456  11.928  12.254  0.0454 -0.0350  0.2477
12303W        W21996   1.876  12.553   6.345  0.4155  0.0994  0.2247
12304W        W21997   1.879   3.034  12.807 -0.3680 -0.0343  0.0182
12305W        W21998   1.308   1.666  13.166  0.0049  0.0682 -0.0318
12306W        W21999   6.536  14.592   3.279  0.3253  0.2458 -0.0357
12307W        W22000  15.485   4.911  13.173  0.1434 -0.0475  0.2368
12308W        W22001   6.598   7.676   2.138 -0.1321 -0.0922  0.3028
12309W        W22002   9.076   9.479   2.388  0.0036 -0.0512 -0.1606
12310W        W22003   0.282   2.718   5.932 -0.0174  0.0468  0.0556
12311W        W22004   9.718  11.649  13.943  0.2463  0.1093 -0.2919
12312W        W22005  14.337  12.278   1.612 -0.1541 -0.0187  0.1760
12313W        W22006   6.259   3.327   1.276  0.1887 -0.1994  0.0423
12314W        W22007  13.491   5.124   4.906  0.5153  0.1632  0.3978
12315W        W22008  14.338  16.536   0.051 -0.1886 -0.0956 -0.0296
12316W        W22009  17.583  14.575  12.855 -0.1485 -0.1039  0.2130
12317W        W22010   9.386   5.269  15.525  0.0786  0.1797 -0.1187
12318W        W22011   2.122   4.320   3.606 -0.0696 -0.0224 -0.0791
12319W        W22012  10.809  10.945   3.409  0.3086 -0.0647  0.1245
12320W        W22013   4.372   5.257   3.532  0.2073 -0.0862  0.1500
12321W        W22014   7.994   9.460   3.300  0.0858 -0.1741  0.3523
12322W        W22015  13.471   8.668   5.813  0.2401  0.3763 -0.2600
12323W        W22016  10.662   5.822   3.045  0.0725 -0.1363  0.3934
12324W        W22017  15.264  15.929  17.116  0.2281 -0.3093  0.2110
12325W        W22018  14.452   3.702  16.882  0.1637 -0.1278  0.0683
12326W        W22019   7.957   4.745  15.977 -0.0418 -0.1827 -0.0243
12327W        W22020   2.983  14.438  16.128  0.0620 -0.0562 -0.1672
12328W        W22021   8.725  17.750  16.049  0.0226 -0.3907  0.1575
12329W        W22022   6.075   1.154  11.221  0.0125  0.0690  0.0438
12330W        W22023   4.930  15.055  13.958  0.0565 -0.1048 -0.0651
12331W        W22024  16.969   6.239   3.824  0.0399  0.0046  0.1573
12332W        W22025   9.359  17.214   1.360  0.1778  0.1397  0.0072
12333W        W22026  17.771   4.261   1.041  0.1804  0.0505  0.0148
12334W        W22027   1.056   5.694  16.260 -0.1769  0.0760  0.2290
12335W        W22028   9.933  13.387   4.398  0.1240 -0.0166  0.2333
12336W        W22029   2.759  11.007   0.313  0.0239  0.0032 -0.2266
12337W        W22030  16.741   3.793  13.004  0.1909 -0.2180 -0.0139
12338W        W22031   6.860   7.404   4.698 -0.2710  0.2246  0.2342
12339W        W22032   7.800   8.565   5.227  0.0637 -0.2213 -0.0905
12340W        W22033   7.469  13.673  14.867 -0.0488  0.2189  0.0051
12341W        W22034   1.472   6.234  13.476 -0.5801  0.1072  0.0405
12342W        W22035  11.525   7.857   4.218 -0.0343 -0.0873  0.3406
12343W        W22036   6.295  15.757  11.205  0.2120 -0.3890 -0.0456
12344W        W22037   5.598  12.798  16.014 -0.1345 -0.1437 -0.1758
12345W        W22038  16.711   2.538  14.416  0.1389 -0.1765 -0.0497
12346W        W22039   7.175  17.061   3.616  0.2229  0.1583 -0.2069
12347W        W22040   8.344  12.231   5.639 -0.6445 -0.1249  0.2362
12348W        W22041   9.967  13.415  14.597  0.1041  0.0343  0.0863
12349W        W22042  16.284   1.145   5.172  0.1365  0.0684 -0.2672
12350W        W22043  14.294   5.346  15.653  0.0043  0.2546 -0.2087
12351W        W22044  10.453  10.869   1.115 -0.0064 -0.0422 -0.2072
12352W        W22045   7.912   5.782   6.184 -0.1879  0.1849  0.0168
12353W        W22046   8.378   0.491  12.500 -0.1558 -0.0900 -0.2130
12354W        W22047  15.074  14.794  14.762  0.0119  0.0483  0.0409
12355W        W22048   6.268   6.564  14.605  0.0793 -0.4340 -0.2121
12356W        W22049  10.807   8.425   3.897  0.3896  0.2636 -0.1792
12357W        W22050  15.046  13.349  14.495 -0.1163  0.1476  0.1914
12358W        W22051   9.753   8.293   0.580  0.2590 -0.1072 -0.1620
12359W        W22052   1.164   6.468  12.347 -0.0486 -0.1956 -0.2786
12360W        W22053  11.160   4.838  15.336  0.0896  0.0226  0.2032
12361W        W22054  10.634   7.850   3.863 -0.0105  0.0936  0.6819
12362W        W22055  10.903  15.429  15.969  0.1374  0.0408 -0.2151
12363W        W22056   9.601   8.904  14.832  0.0837 -0.1122 -0.0867
12364W        W22057   2.271  13.376  16.952  0.1534 -0.4358 -0.2346
12365W        W22058   3.182  16.112   2.098  0.1139 -0.2078 -0.1843
12366W        W22059   0.632  12.695  13.615 -0.0700 -0.1820 -0.1706
12367W        W22060   7.971   0.690   2.036  0.1672  0.0211 -0.0872
12368W        W22061   4.875   8.433  13.976 -0.1215 -0.1477 -0.1358
12369W        W22062   6.121   7.580   0.033  0.1528  0.1938  0.0461
12370W        W22063  13.366   0.239  14.507  0.0630  0.0108 -0.1314
12371W        W22064  13.125  14.984   5.914 -0.0873  0.1677  0.0110
12372W        W22065   7.837  15.079  11.869  0.1960 -0.0884 -0.2410
12373W        W22066  13.716   6.366  15.275 -0.3740  0.6768  0.1251
12374W        W22067   3.828   3.889   0.123 -0.3502  0.0742 -0.0229
12375W        W22068   6.259  10.963   3.215  0.0835 -0.2684 -0.1826
12376W        W22069   2.116   3.790   3.769  0.0954 -0.1969 -0.1471
12377W        W22070   2.535   4.634   5.785  0.0867 -0.1253 -0.5225
12378W        W22071   2.057   3.526   4.313  0.0212  0.1071  0.0081
12379W        W22072   6.528  13.125   5.553 -0.2745  0.0561 -0.0395
12380W        W22073  16.254  14.435   5.582  0.0267 -0.1672 -0.0617
12381W        W22074  11.625  10.525  15.730  0.0726 -0.0464  0.1717
12382W        W22075  14.262   4.723  14.461  0.1179 -0.2940 -0.0336
12383W        W22076   8.313  11.089  17.059 -0.0674 -0.1278  0.0364
12384W        W22077   5.682  10.546   0.404  0.0940 -0.0132 -0.0915
12385W        W22078   3.432  10.617   3.194  0.4829 -0.1199 -0.2102
12386W        W22079  10.453   5.710  16.285  0.0377  0.0120 -0.4414
12387W        W22080  15.967  16.965   4.555 -0.0444  0.1793 -0.0832
12388W        W22081  13.283   0.775  16.896 -0.0351 -0.1807 -0.0470
12389W        W22082   4.745   8.409  13.458 -0.1637  0.1192  0.0332
12390W        W22083   9.096   4.109  13.350  0.0819  0.0022 -0.0533
12391W        W22084   5.175  16.938  15.811 -0.0255 -0.0015 -0.1171
12392W        W22085  12.264   0.140  16.021 -0.0509  0.1193 -0.3657
12393W        W22086  15.706  12.384  15.033 -0.2059 -0.0391  0.0324
12394W        W22087   0.730  15.877  14.385  0.1293 -0.2213  0.0990
12395W        W22088   5.559  10.785  16.732  0.2837 -0.1563 -0.2060
12396W        W22089   9.073  15.212   1.011  0.1862 -0.1888  0.1841
12397W        W22090  10.703   2.209  12.266  0.1463  0.2107  0.0271
12398W        W22091  14.122   5.691  16.113 -0.3896 -0.2654 -0.0563
12399W        W22092   4.464   9.862  16.764  0.0199  0.0656  0.3811
12400W        W22093   2.413   0.736   0.743  0.0087  0.1322  0.1677
12401W        W22094   2.816   7.976  16.488  0.0374  0.1074  0.2127
12402W        W22095   2.593   5.859   1.979  0.1165 -0.0833  0.3905
12403W        W22096   0.164  11.962   1.190 -0.2080 -0.2852 -0.1827
12404W        W22097   5.883   4.414   5.065  0.3735  0.0519 -0.1148
12405W        W22098   8.436  13.246   4.628 -0.5189 -0.0051  0.1605
12406W        W22099   1.347   5.398   3.981  0.0548 -0.0786  0.0702
12407W        W22100   5.732  10.013   1.261 -0.2635  0.1153 -0.0605
12408W        W22101   3.887   4.201   3.899 -0.1648 -0.1735 -0.0303
12409W        W22102   3.324  12.245   5.535  0.1744 -0.0959  0.1284
12410W        W22103  10.770   9.054   7.085  0.0394  0.0986 -0.0193
12411W        W22104   7.076  15.305   1.560 -0.1083 -0.0913 -0.3533
12412W        W22105   6.321  16.378  14.534 -0.1087 -0.1078  0.2073
12413W        W22106  10.622   2.210  14.692 -0.1218  0.2644 -0.3156
12414W        W22107   9.531   8.789   4.259  0.0792 -0.0982 -0.0240
12415W        W22108   1.128  14.773  12.755 -0.0493 -0.0271  0.0647
12416W        W22109   4.711  13.451   6.568  0.3935  0.0048 -0.0582
12417W        W22110   7.038  17.771  14.448  0.0768 -0.3840  0.2887
12418W        W22111  10.357   3.847  16.355  0.1139  0.0511  0.1801
12419W        W22112   1.863   0.781  11.169 -0.3534 -0.2792 -0.3292
12420W        W22113   6.408   6.871   1.675  0.0226  0.2815 -0.0593
12421W        W22114   0.001   3.267  11.165  0.3263  0.3192  0.0404
12422W        W22115   5.817   1.445  14.931 -0.1135  0.0538  0.0610
12423W        W22116   6.563  12.604  15.697 -0.3229 -0.3991 -0.1480
12424W        W22117   5.922   5.624   6.801 -0.3939 -0.0184  0.2171
12425W        W22118  12.113   3.041  12.703  0.0118 -0.2139  0.0655
12426W        W22119   0.406   5.129  11.015  0.1254  0.0365  0.1753
12427W        W22120   8.330  14.116   5.445  0.3780  0.1249 -0.2326
12428W        W22121   8.094  13.114   5.263 -0.1311  0.0382 -0.1457
12429W        W22122  11.495   9.016   2.425 -0.2407 -0.2035 -0.0465
12430W        W22123   0.775  17.735  11.813 -0.0788  0.0250  0.2451
12431W        W22124  13.882  15.167  11.573  0.1810 -0.1570  0.2616
12432W        W22125   3.574   8.261   2.393  0.1889 -0.2243  0.0857
12433W        W22126  12.548  11.406   3.969 -0.2104 -0.2536 -0.0834
12434W        W22127   8.276   7.699   3.639 -0.0914 -0.2262  0.1197
12435W        W22128   6.829   9.121   0.204 -0.1982  0.1705 -0.0128
12436W        W22129  14.496   3.216  16.530  0.1001 -0.1317 -0.1353
12437W        W22130  14.028  12.946   2.692 -0.0218 -0.0162  0.4676
12438W        W22131   4.040  16.957   5.440 -0.0828  0.0621  0.0724
12439W        W22132   2.231  13.976  14.071 -0.0478 -0.3119 -0.1855
12440W        W22133   4.804  17.360   0.347  0.0859 -0.0993  0.3308
12441W        W22134  11.764  13.778  13.198 -0.2786  0.1739  0.2792
12442W        W22135   9.454  11.049   4.402 -0.1773  0.0889  0.2416
12443W        W22136   0.824  17.931  15.448 -0.0786  0.0390  0.1145
12444W        W22137  11.335  12.086  12.586  0.2856  0.2321  0.0456
12445W        W22138   9.100  14.669   4.040  0.0484  0.4049 -0.1509
12446W        W22139   2.798   5.746  14.007  0.0120  0.2327  0.0110
12447W        W22140  17.412   0.299  13.091 -0.0351  0.0102  0.2693
12448W        W22141  11.130  17.702  12.923 -0.0630  0.1476  0.1992
12449W        W22142   6.295  16.480   5.915 -0.0282 -0.2890  0.5541
12450W        W22143   0.702  14.761  14.989 -0.0287  0.0968  0.3912
12451W        W22144   6.305  17.935   2.121 -0.2101  0.2571  0.0783
12452W        W22145   1.294  12.393  14.362 -0.2266 -0.0378  0.0849
12453W        W22146   7.977   5.505  14.374 -0.1647 -0.2289 -0.3510
12454W        W22147  12.616   8.204  14.171  0.0370  0.0318 -0.0553
12455W        W22148   4.925   2.377  15.468 -0.1049  0.1867  0.0976
12456W        W22149   4.365  14.869   4.565  0.1337  0.0345  0.4452
12457W        W22150   3.322   5.269   6.010 -0.0794  0.0279 -0.0416
12458W        W22151  10.071   6.711  13.759 -0.2065 -0.3558 -0.0438
12459W        W22152  17.141  14.546   0.200  0.1402 -0.1667  0.0620
12460W        W22153  12.211  12.565  14.421 -0.2159 -0.0615  0.0725
12461W        W22154   5.577   1.035   1.168 -0.0437 -0.1596  0.1387
12462W        W22155   3.003  11.805  15.693 -0.0268  0.3121 -0.2514
12463W        W22156  11.070  11.723  14.475 -0.1951  0.1675  0.1593
12464W        W22157  17.815   1.322  13.557  0.1459 -0.0595 -0.1722
12465W        W22158  10.800   8.699  15.361  0.0322 -0.2115  0.2798
12466W        W22159   1.098   4.528   2.787 -0.1471  0.0812 -0.0399
12467W        W22160  11.769   3.162  11.522 -0.2004 -0.0498 -0.0782
12468W        W22161   0.552   0.820   3.745  0.3216 -0.2909 -0.1072
12469W        W22162   7.095  15.518  16.248  0.1112 -0.1317  0.0266
12470W        W22163  11.678  14.367   4.528  0.1241 -0.2190  0.3558
12471W        W22164   1.341   5.817   2.762  0.0574  0.2668 -0.0911
12472W        W22165   7.456  15.048  15.396 -0.0379 -0.0077 -0.1877
12473W        W22166  14.383   7.293   2.023  0.0749  0.0053  0.0562
12474W        W22167   6.020  11.434   1.694  0.0232  0.1577  0.2079
12475W        W22168  11.831  15.521  15.943 -0.0153  0.2299  0.1454
12476W        W22169   0.276   9.338   0.808 -0.0473 -0.0677  0.2501
12477W        W22170   3.007   7.003  15.367  0.1886 -0.0507 -0.1333
12478W        W22171   0.243  13.944  13.261  0.0565 -0.1070 -0.3903
12479W        W22172   8.320   4.458   0.021  0.0006 -0.0719  0.2215
12480W        W22173  15.516   8.617   4.579 -0.2684 -0.1248  0.1646
12481W        W22174   4.820  11.321  12.560  0.1470  0.0139  0.0204
12482W        W22175   0.583   8.540   3.532 -0.0281 -0.0936  0.1195
12483W        W22176   1.574  17.726  16.912 -0.2730  0.1791 -0.0368
12484W        W22177   2.493  15.424   1.670 -0.0237  0.0371 -0.1640
12485W        W22178  10.154  16.904  16.448 -0.1784 -0.0031  0.4863
12486W        W22179   3.208  16.690   5.105  0.1484  0.5005 -0.1581
12487W        W22180   4.622   3.720  15.307 -0.1326  0.0703 -0.1853
12488W        W22181   8.215  11.899   0.553 -0.1573  0.0756 -0.1494
12489W        W22182  14.844   7.237   0.497  0.0281 -0.1016  0.2388
12490W        W22183  15.142  14.814  16.081 -0.2207  0.2638  0.0113
12491W        W22184  10.232  16.269   1.666  0.1116  0.1045 -0.0692
12492W        W22185  10.727  12.421   5.125  0.0926 -0.0515  0.2871
12493W        W22186   5.421   8.852  13.197  0.4578 -0.2025  0.1149
12494W        W22187   8.181  13.574  11.085 -0.0088  0.0630  0.5356
12495W        W22188   4.239   2.608   4.423  0.0122  0.2753  0.1473
12496W        W22189   0.809   2.104  13.333 -0.1629 -0.0309 -0.3484
12497W        W22190   0.957   7.018  14.761  0.2223 -0.0730 -0.0786
12498W        W22191   4.061  13.715   2.173 -0.2966 -0.2250  0.1396
12499W        W22192   3.412   7.479   4.537 -0.0189 -0.2622  0.1543
12500W        W22193  13.550  13.292  16.628  0.1241 -0.2747 -0.0246
12501W        W22194   5.990   0.926  16.410  0.0739  0.0971  0.0784
12502W        W22195   0.367   6.617  11.734  0.0499  0.0728  0.2245
12503W        W22196  13.729  10.503   4.130 -0.2499  0.0712  0.0184
12504W        W22197  13.890   9.750   1.130  0.1903 -0.2356  0.0236
12505W        W22198   1.302  13.069   1.635  0.0271 -0.2978 -0.4463
12506W        W22199   8.246   9.493   1.836  0.1700  0.0750 -0.0444
12507W        W22200  10.720  17.891  16.434 -0.0739 -0.0418 -0.0595
12508W        W22201  12.311  13.789  15.872 -0.0751  0.1522 -0.3209
12509W        W22202   6.102   9.332   4.382  0.1054 -0.2141  0.0088
12510W        W22203  10.250   8.905   5.139 -0.2526  0.0757  0.3216
12511W        W22204   4.307   0.907   5.642  0.0513  0.0630 -0.0596
12512W        W22205   2.072   6.428  16.280 -0.1227 -0.0858  0.0534
12513W        W22206   0.913   5.840  12.161  0.1394 -0.2903  0.1678
12514W        W22207  10.858  12.539   6.234  0.0989 -0.2291  0.0627
12515W        W22208  12.967   1.240  14.048  0.0272  0.2010  0.0060
12516W        W22209  11.605   4.226   1.210  0.1499 -0.2399 -0.2163
12517W        W22210   4.406   9.710   2.123  0.2544 -0.0473 -0.1522
12518W        W22211   6.006   9.030   0.391  0.1422 -0.1105 -0.1454
12519W        W22212  16.773   2.414   0.506  0.3989 -0.0384  0.2425
12520W        W22213   9.455   8.417  14.841  0.2901  0.0740 -0.0494
12521W        W22214   2.071   0.165  12.884 -0.0363 -0.0657  0.0468
12522W        W22215   2.039  10.709  14.078 -0.2193 -0.0124  0.0924
12523W        W22216   5.504  14.268  13.014 -0.0537 -0.2719  0.1244
12524W        W22217  17.472  14.159   5.056  0.0545  0.2258  0.1654
12525W        W22218   4.939   9.901  14.986  0.0070 -0.2476  0.1942
12526W        W22219   4.990  16.640  13.131 -0.0840  0.0356 -0.0713
12527W        W22220  10.134   2.352  12.925 -0.3311  0.1100  0.1036
12528W        W22221   2.642   8.707  12.012 -0.2249 -0.2072 -0.1836
12529W        W22222   0.050  15.702   1.497  0.0948  0.0241 -0.1156
12530W        W22223   5.742  15.500   6.859 -0.0618  0.1824  0.0175
12531W        W22224   6.045   0.829   5.943 -0.2322 -0.3923 -0.1781
12532W        W22225   3.661   1.595  16.457 -0.2268  0.2178 -0.0641
12533W        W22226   8.025   9.759   6.203 -0.4924 -0.0079  0.2983
12534W        W22227   8.019  15.596  11.863 -0.1028 -0.2475  0.1205
12535W        W22228   5.915   7.046   5.292  0.1479 -0.1725 -0.3940
12536W        W22229  16.344  17.046  16.729  0.3674  0.2337 -0.3018
12537W        W22230  14.255  11.317  13.682 -0.2324 -0.1689  0.1655
12538W        W22231   2.813  15.071  12.587  0.3234 -0.3830  0.1814
12539W        W22232   4.886  11.972   2.984 -0.0351 -0.1136  0.2037
12540W        W22233  16.508  12.264   4.445 -0.0202  0.3061 -0.1062
12541W        W22234   6.511   9.035   0.537  0.3242 -0.0454 -0.1039
12542W        W22235   6.930   3.980   3.696  0.1800 -0.0959  0.2133
12543W        W22236  15.973  17.644   4.127 -0.0899 -0.4086 -0.4180
12544W        W22237   7.719   0.485  16.290  0.3215 -0.1242 -0.0635
12545W        W22238  10.728  16.402  15.162 -0.0242 -0.0880 -0.1174
12546W        W22239  11.505   7.072   3.426  0.1333  0.4277  0.0389
12547W        W22240   3.880  11.549  12.375  0.0402  0.2839 -0.1414
12548W        W22241   8.735  14.969  11.932 -0.2301  0.1338  0.0947
12549W        W22242   4.346   5.304   4.298  0.1018 -0.0753  0.0707
12550W        W22243   1.233   6.230   0.009  0.0583  0.2118  0.3277
12551W        W22244   8.494  11.772  13.182  0.6052 -0.3414 -0.2708
12552W        W22245   2.841   8.900  13.607 -0.0170  0.1937  0.0901
12553W        W22246   1.486   4.790   3.030 -0.2513  0.0466  0.1506
12554W        W22247   8.182  16.555  14.611 -0.1763 -0.2548 -0.0559
12555W        W22248   7.555  13.550   2.179  0.1741 -0.0039 -0.1461
12556W        W22249   7.601  17.507  14.150  0.1176 -0.1116  0.0713
12557W        W22250   7.166  13.639   5.995 -0.0932  0.2978  0.3767
12558W        W22251  16.971   8.343  11.996  0.2724 -0.0825 -0.3452
12559W        W22252   2.349  15.928   4.295  0.3324  0.1884 -0.2067
12560W        W22253   6.974   4.848  14.568  0.0773  0.2077  0.0313
12561W        W22254  10.969   0.402   2.549 -0.1873 -0.2710 -0.0870
12562W        W22255  11.916  16.925  15.370 -0.1374  0.3774  0.2050
12563W        W22256  14.331  10.097   1.139 -0.4047  0.2226 -0.0232
12564W        W22257   5.011  16.157   0.320  0.1126 -0.3048 -0.1991
12565W        W22258   5.465  11.379   1.594  0.1972 -0.2812 -0.0796
12566W        W22259  15.365   4.972  15.087  0.0300  0.2009 -0.2609
12567W        W22260  17.520   5.729  11.049 -0.1681 -0.0465 -0.1181
12568W        W22261   0.425   4.000  15.320 -0.0531 -0.1608  0.1481
12569W        W22262   6.226   3.123  16.410 -0.2216  0.0433  0.0164
12570W        W22263   2.618   2.676  13.163 -0.1544 -0.2426  0.3757
12571W        W22264  16.435  14.196  12.609 -0.2414 -0.2668 -0.1244
12572W        W22265   8.727   0.624  11.597  0.0233 -0.2648 -0.1499
12573W        W22266   3.656   1.971  13.630  0.0319 -0.0998 -0.1336
12574W        W22267  16.292   2.755   3.025 -0.0065  0.0288 -0.4745
12575W        W22268   1.114   7.360  15.647 -0.2265  0.0662 -0.1123
12576W        W22269  13.926   7.446  11.776 -0.1064 -0.0565  0.0568
12577W        W22270   2.736  16.216  13.503  0.0696 -0.2083  0.0949
12578W        W22271   1.231  11.738   2.065 -0.1173  0.2724 -0.3090
12579W        W22272  10.444  17.369   2.689 -0.2425  0.0814  0.0125
12580W        W22273  11.393  12.040  11.050 -0.2133 -0.0830 -0.1984
12581W        W22274   6.535   5.934   4.883  0.0766 -0.1691  0.2406
12582W        W22275  17.627  12.309  15.964  0.0654 -0.0265  0.0373
12583W        W22276   1.860   7.156  16.123 -0.0978 -0.1238  0.1327
12584W        W22277   7.296  13.821  16.582 -0.0232  0.2170 -0.3102
12585W        W22278   6.180  16.836  12.247 -0.0981 -0.2720  0.2373
12586W        W22279  10.675   8.455  11.181 -0.4114  0.1726  0.3008
12587W        W22280   9.384   0.042  13.188 -0.0837  0.0693  0.1740
12588W        W22281   9.030   6.514   5.842  0.0537 -0.0519 -0.0878
12589W        W22282   5.025  13.660  15.943 -0.0600  0.2550  0.3080
12590W        W22283   6.486   1.183   3.569 -0.2288 -0.1891  0.5577
12591W        W22284   1.850  10.980   5.915 -0.4105 -0.2005 -0.1801
12592W        W22285  17.693  13.595  15.298 -0.1370 -0.1718  0.0184
12593W        W22286   3.642   0.925  13.360 -0.1965  0.0294  0.0520
12594W        W22287   3.190  11.426  16.578 -0.0086 -0.1318 -0.3834
12595W        W22288   0.766  17.627   4.587 -0.0748  0.1042 -0.0306
12596W        W22289   9.243  12.722  16.340  0.1977 -0.0438  0.0385
12597W        W22290   4.323  12.472  13.977 -0.0551 -0.1032 -0.1535
12598W        W22291   8.429  16.145   2.917  0.0494  0.1001 -0.2497
12599W        W22292   0.763  16.999  16.525 -0.2870  0.0662  0.0968
12600W        W22293   1.904  16.024  12.906 -0.0710 -0.2858  0.0162
12601W        W22294   8.336  11.631   6.023 -0.1033 -0.1406  0.0089
12602W        W22295   5.980   8.017   5.979  0.0220 -0.3081 -0.1157
12603W        W22296   4.882  15.914   3.660 -0.0055  0.4137  0.2906
12604W        W22297   6.068  16.228  14.149  0.2604  0.1414  0.4240
12605W        W22298   1.012  11.288   0.282  0.1955  0.0818 -0.2764
12606W        W22299   5.487  11.241  13.068 -0.1501 -0.4193 -0.1017
12607W        W22300   1.639   8.187   5.953 -0.1171 -0.2516 -0.2925
12608W        W22301   6.301   4.613   5.216 -0.2605 -0.2638 -0.4325
12609W        W22302   0.781   3.252   0.710 -0.0738 -0.0374  0.0683
12610W        W22303   1.359  12.675  10.811 -0.0487  0.3709  0.1170
12611W        W22304   6.182   3.577   4.244  0.0863 -0.2668 -0.2548
12612W        W22305  17.225   4.344  13.450  0.0738  0.3016 -0.0143
12613W        W22306  12.615   5.417  12.484 -0.0942 -0.3321 -0.0273
12614W        W22307  13.538   1.589  11.327 -0.3716  0.0568 -0.3032
12615W        W22308   4.607  10.108   2.981  0.0585  0.0136 -0.0756
12616W        W22309  11.637   9.506   3.957 -0.0417  0.1108  0.1489
12617W        W22310   6.671   6.227   2.723 -0.1044 -0.2628 -0.3100
12618W        W22311  11.812  11.404  17.001  0.0483 -0.0696 -0.4015
12619W        W22312   3.924   2.823   3.256 -0.0605  0.0992 -0.3416
12620W        W22313   3.150  11.424  13.190 -0.0048 -0.2247  0.0857
12621W        W22314   0.542   0.804  15.059 -0.3026 -0.0758 -0.0818
12622W        W22315   7.578  12.210   2.255  0.2257  0.0488 -0.2071
12623W        W22316  11.631   6.257  15.613 -0.0528  0.2235  0.0547
12624W        W22317   6.356   2.144  12.110  0.1534 -0.1675  0.0533
12625W        W22318  13.673   4.045  13.285  0.1726  0.2199 -0.1834
12626W        W22319  11.972   8.263   2.127 -0.0795 -0.2783 -0.2537
12627W        W22320   4.016   0.606  13.498 -0.1497 -0.0191  0.0804
12628W        W22321   6.536   7.333  12.910  0.2114  0.1649 -0.1875
12629W        W22322   5.740   9.799   5.582 -0.0070 -0.0751  0.0197
12630W        W22323   1.458   4.063  11.778  0.1396 -0.0696 -0.0703
12631W        W22324  17.448  13.156   4.082  0.0704 -0.2680 -0.2526
12632W        W22325   4.927   3.767  14.889  0.0349 -0.1098  0.0242
12633W        W22326   5.709  15.007  11.743 -0.2259 -0.1338  0.1859
12634W        W22327   5.408   8.078   0.690  0.3111 -0.1824  0.1398
12635W        W22328  12.511  10.316   1.580  0.0826  0.0891 -0.2931
12636W        W22329  11.467  14.535   0.871  0.0439  0.0692  0.1236
12637W        W22330   3.220   8.857  14.791  0.1626  0.2800 -0.1938
12638W        W22331   5.673  13.275  13.504  0.2003 -0.2203  0.2822
12639W        W22332  13.467   5.251  16.018  0.2127  0.0853  0.3255
12640W        W22333  16.276  11.415  13.742 -0.2837 -0.2083  0.3308
12641W        W22334   6.594   0.321  12.526 -0.1691  0.0196  0.0054
12642W        W22335   9.154   9.944  16.171  0.2980  0.0516 -0.0348
12643W        W22336  16.218  17.877  13.104  0.0806 -0.0272 -0.1612
12644W        W22337   4.375  11.609   3.059  0.0015 -0.1587 -0.5947
12645W        W22338   8.448   7.284  13.771  0.3158  0.2941 -0.0705
12646W        W22339  14.986  15.748  13.242  0.1794  0.2291  0.0609
12647W        W22340   3.512   9.265   5.046  0.2377 -0.2254  0.1609
12648W        W22341   2.728   9.831  13.010  0.0299  0.2248  0.0045
12649W        W22342   1.949   7.067  15.620  0.2213 -0.0346  0.2269
12650W        W22343   0.705  11.405  16.440  0.0086  0.2244  0.1600
12651W        W22344   5.046  15.877  16.327 -0.0165 -0.4554 -0.1541
12652W        W22345   5.675   1.792   4.586  0.1356 -0.0259 -0.3183
12653W        W22346   6.141  15.188  15.535  0.0591  0.1493 -0.3390
12654W        W22347   0.701   8.807   6.121 -0.2125  0.2023  0.1211
12655W        W22348   3.012  14.879   4.050  0.2206  0.1393  0.1087
12656W        W22349   3.030   2.918  14.831 -0.1766  0.1065  0.2774
12657W        W22350   3.405  15.189  14.141  0.0336 -0.0167  0.0163
12658W        W22351   3.831   7.847  12.499 -0.2360 -0.3589  0.0673
12659W        W22352   7.750  12.781  16.264  0.2140  0.2589  0.0604
12660W        W22353  17.051   9.469   1.510 -0.0180  0.0470 -0.0256
12661W        W22354  11.554   3.262   6.065  0.0787  0.0041  0.0231
12662W        W22355   3.222  10.825  15.923 -0.2655 -0.4108  0.2121
12663W        W22356  11.888   2.087  11.632 -0.0190  0.3872  0.2703
12664W        W22357   2.848   9.213  11.705 -0.1913  0.2816 -0.2260
12665W        W22358   4.335  17.383   3.213  0.1691  0.0851 -0.0364
12666W        W22359   9.810  12.079   4.840  0.1927 -0.0837  0.2490
12667W        W22360   7.512   2.876  15.210 -0.1775  0.0056 -0.1646
12668W        W22361   7.476   9.907   2.814 -0.0294  0.1360 -0.3090
12669W        W22362   9.374   4.619   5.765  0.1119 -0.0843 -0.0170
12670W        W22363  10.630  10.793  12.481 -0.2403  0.0680  0.1887
12671W        W22364   3.960  16.345   5.905  0.0788  0.1391  0.2344
12672W        W22365  10.489   8.211   2.480 -0.1106  0.0662 -0.0652
12673W        W22366  12.489   3.499   3.557 -0.0835 -0.2772  0.1858
12674W        W22367   0.728  14.544  10.943 -0.0251 -0.2691 -0.0889
12675W        W22368   0.110   9.723   0.537 -0.0225 -0.4572  0.2334
12676W        W22369   1.876   3.267   2.548  0.2128  0.0530 -0.0637
12677W        W22370   1.554  16.949   2.431 -0.0048 -0.1015 -0.0878
12678W        W22371   5.434   7.849  15.173  0.2450  0.2528  0.0853
12679W        W22372   9.451   3.460  14.011  0.0215  0.2858 -0.3092
12680W        W22373   8.300  13.682  13.310 -0.0049 -0.0741  0.1819
12681W        W22374  17.467  11.778   3.946  0.0890 -0.5028  0.2561
12682W        W22375   3.485  13.593  11.588 -0.0941  0.0272  0.0071
12683W        W22376   9.447   2.694  12.233  0.1200  0.0982 -0.0054
12684W        W22377   3.010  13.392   2.572 -0.1212 -0.1279  0.2776
12685W        W22378  12.806   0.252  12.104 -0.3278 -0.0412  0.1668
12686W        W22379  17.974  14.013   1.768  0.0434 -0.0914 -0.0195
12687W        W22380   0.998  10.502  14.561  0.0327  0.1992 -0.2263
12688W        W22381  16.383  16.284   0.659 -0.2523  0.2683  0.2774
12689W        W22382   2.959   8.287  12.438 -0.0181  0.2695 -0.2473
12690W        W22383   7.853  17.321   2.898 -0.2204 -0.0667  0.0935
12691W        W22384  10.820   9.402  13.114  0.0923 -0.1069 -0.2786
12692W        W22385  15.504  10.659  16.165  0.0359  0.0837 -0.2154
12693W        W22386  10.916  17.480  13.512 -0.2545 -0.4530 -0.1488
12694W        W22387   9.676  17.903   3.748 -0.0397  0.0987  0.0711
12695W        W22388   2.209   0.365  14.217  0.0208  0.3292  0.1383
12696W        W22389   4.385   5.231   1.224 -0.0330  0.0214 -0.1139
12697W        W22390  10.017   8.723  16.822 -0.2154 -0.0356 -0.1580
12698W        W22391  16.955   9.792   1.936 -0.0283  0.1260 -0.2425
12699W        W22392   6.207   0.397   5.952  0.2108  0.1631 -0.1914
12700W        W22393   2.032   2.301  14.880  0.1807 -0.0173  0.1232
12701W        W22394   5.673   1.209   5.933 -0.0146 -0.0860 -0.3686
12702W        W22395   5.121   4.552   1.273  0.2705 -0.0360  0.2442
12703W        W22396   1.536   8.748  13.457  0.2678 -0.0212  0.0155
12704W        W22397  11.920   7.004  12.382 -0.0289  0.0819  0.0317
12705W        W22398   3.747   6.745   4.325  0.0984 -0.3081 -0.2238
12706W        W22399   8.820  17.794   2.358  0.0369  0.0255 -0.0608
12707W        W22400   2.389  11.559  14.249  0.2001  0.2281 -0.3644
12708W        W22401   7.533  14.692   4.448  0.0297 -0.3122  0.2927
12709W        W22402   7.169   3.079   3.293  0.1433  0.1248 -0.1403
12710W        W22403  10.848   1.045   5.129 -0.0109 -0.0723 -0.2111
12711W        W22404   9.194   1.085   5.665 -0.4597  0.1264 -0.1099
12712W        W22405   1.568  14.393  14.495 -0.0246  0.3699  0.1113
12713W        W22406  17.709   9.986  16.370  0.1468  0.1083 -0.2722
12714W        W22407   9.004  15.777  16.614 -0.0799 -0.0498  0.0027
12715W        W22408   4.475  17.069  10.518  0.2794 -0.0200 -0.1596
12716W        W22409  14.724  14.238   2.974  0.1411  0.0209 -0.0411
12717W        W22410   0.604  14.135  16.816 -0.1702 -0.3992  0.0229
12718W        W22411   5.059  10.812   1.080  0.0982  0.1606  0.2295
12719W        W22412   9.975   1.917  12.723  0.0481  0.0986  0.0420
12720W        W22413  10.474   0.864  15.272  0.2883  0.2677 -0.1827
12721W        W22414   4.379   6.762  11.782 -0.0457  0.0559 -0.0081
12722W        W22415   0.743   9.656  13.847 -0.2210 -0.0445  0.0784
12723W        W22416   3.097  10.305  16.150  0.1077 -0.3253 -0.2836
12724W        W22417   6.439   9.775  13.963 -0.0395 -0.3922 -0.0513
12725W        W22418   2.348  14.177  16.588  0.2071 -0.1048 -0.4543
12726W        W22419   2.117  15.104  12.762 -0.1728  0.0079  0.2486
12727W        W22420   7.394   1.996  16.217  0.0790  0.3472 -0.2140
12728W        W22421   9.188  12.560  13.346  0.2103 -0.1149 -0.1345
12729W        W22422   7.812   6.198  12.764 -0.2982 -0.1893 -0.1472
12730W        W22423  14.632  16.786   2.206  0.0184  0.0568 -0.0701
12731W        W22424  15.566  15.049   4.945  0.0813  0.0651 -0.0698
12732W        W22425  16.296  16.054   0.202 -0.1170 -0.1323 -0.0393
12733W        W22426  13.369  11.249   1.169 -0.2350  0.1951  0.0604
12734W        W22427  17.043   7.047   1.672 -0.2304 -0.1412  0.0399
12735W        W22428  17.056   1.680  10.838 -0.0249 -0.1018  0.2665
12736W        W22429  10.797  15.804  12.551  0.0012  0.1777  0.4579
12737W        W22430   7.090   1.442  16.191  0.3289 -0.1315 -0.1159
12738W        W22431   4.514   1.524  14.427 -0.1336 -0.0161  0.1496
12739W        W22432   6.390   5.187   0.982 -0.0581  0.2911 -0.2101
12740W        W22433   5.989   9.396   6.206 -0.1102  0.3539 -0.2391
12741W        W22434   9.852   1.774  13.560 -0.1078  0.0834 -0.2004
12742W        W22435  14.695   7.207   1.628 -0.1770  0.1747  0.0749
12743W        W22436  17.871   2.634   5.190 -0.3809  0.2691 -0.1022
12744W        W22437   4.957  16.530  14.436  0.0685 -0.1944  0.0183
12745W        W22438  16.365  15.126   0.168  0.1753  0.0039 -0.2376
12746W        W22439   4.012  11.196   4.677 -0.2149  0.0700  0.1587
12747W        W22440  14.276  14.528  14.874  0.1885  0.4285 -0.0486
12748W        W22441   1.859   7.797   4.573  0.2988  0.0052 -0.4738
12749W        W22442  13.049  13.364   3.197 -0.0619  0.1204 -0.1060
12750W        W22443   5.586   0.979   0.228 -0.1995  0.0127  0.3556
12751W        W22444  16.931  16.293  12.763  0.3082 -0.3233 -0.0688
12752W        W22445   5.413   3.279   1.083  0.2044 -0.1819  0.1694
12753W        W22446   2.000   2.809  10.788  0.3535  0.3940  0.0170
12754W        W22447   4.414  15.280  15.416 -0.1181 -0.0960 -0.1531
12755W        W22448   9.098  12.805  14.409 -0.0168  0.1554  0.0988
12756W        W22449   3.574  17.030   3.704 -0.0463  0.2336  0.0338
12757W        W22450   4.426   7.751  13.012  0.1063  0.0669 -0.1634
12758W        W22451  10.767  12.713   1.128  0.0833 -0.0668 -0.1921
12759W        W22452   4.321  12.164  12.022 -0.0237  0.0429  0.1197
12760W        W22453   6.219   9.050  15.510  0.0059 -0.0096  0.1589
12761W        W22454   9.387   5.203   6.006  0.1747  0.0268 -0.0954
12762W        W22455   5.349   8.265   4.362 -0.2234 -0.2199 -0.0734
12763W        W22456   6.569  13.445  15.838 -0.0423  0.0217 -0.4741
12764W        W22457   3.332  15.079   3.453  0.1149 -0.0319  0.0894
12765W        W22458   4.074  13.995   6.716  0.2917 -0.0638 -0.1277
12766W        W22459   3.683  11.755  13.633  0.2151 -0.0596  0.0167
12767W        W22460   5.515  15.900  11.927 -0.0185  0.0585 -0.2590
12768W        W22461  13.688   7.511  13.497 -0.0841  0.0138  0.0138
12769W        W22462   1.492   0.953  12.037  0.1958 -0.0506 -0.1605
12770W        W22463   6.914  14.123  12.227 -0.3869  0.1610  0.2057
12771W        W22464   0.673  13.699   3.485  0.3896  0.1420  0.1142
12772W        W22465   6.431   7.337   4.427 -0.2613  0.0820  0.0316
12773W        W22466  17.115   6.708   3.265 -0.0188 -0.2072  0.0039
12774W        W22467  11.649  13.158   3.022 -0.0239  0.2696  0.1030
12775W        W22468  11.234  14.690   4.800  0.0044 -0.1397  0.0547
12776W        W22469   0.380   8.092   0.001  0.1288  0.0205  0.0548
12777W        W22470   1.605  15.275  12.004 -0.0858 -0.0654  0.1809
12778W        W22471   5.046  16.393  16.412 -0.0499  0.0609 -0.1830
12779W        W22472   3.044  13.412  17.014 -0.0984  0.0562  0.0797
12780W        W22473   7.381  16.801   1.339 -0.3417 -0.0586  0.0601
12781W        W22474   2.078   8.137  12.046 -0.1590 -0.0903 -0.1877
12782W        W22475  11.206  14.449  13.544 -0.2265  0.1956  0.0943
12783W        W22476  15.083   7.964   6.460 -0.1146  0.1259  0.1388
12784W        W22477  13.558  15.296  11.184 -0.2200 -0.1035  0.1555
12785W        W22478  11.677  12.257   6.384  0.3163  0.4109  0.1817
12786W        W22479   4.873   7.879   0.875 -0.1826  0.2722 -0.2379
12787W        W22480   3.181   6.565  15.195  0.1489 -0.2133  0.1285
12788W        W22481   7.699   8.290  16.872  0.1188 -0.3744  0.0762
12789W        W22482   8.243   1.134  12.134  0.0173 -0.4114 -0.2912
12790W        W22483  12.770   1.825   4.751  0.0894  0.1702  0.0330
12791W        W22484   0.811  17.033   0.642 -0.1048  0.0367 -0.1111
12792W        W22485  16.536   6.664  13.698 -0.2294 -0.0618 -0.1292
12793W        W22486   8.831   9.077   1.608  0.1892  0.4517  0.0057
12794W        W22487   5.052  10.310   2.158  0.1451 -0.2091  0.3374
12795W        W22488  10.736  10.082   4.128 -0.3224  0.1706 -0.3390
12796W        W22489  17.589   3.383  11.407 -0.2576 -0.0572 -0.1491
12797W        W22490   2.733  13.277  16.650  0.0305  0.0976  0.2721
12798W        W22491   4.157  16.001  13.057  0.0111 -0.0594 -0.3879
12799W        W22492   9.614  11.968   3.335 -0.1166  0.1257 -0.2469
12800W        W22493  14.995  11.541   2.669  0.0352 -0.0493 -0.0135
12801W        W22494   1.561  16.352  13.067 -0.3206 -0.0690  0.0022
12802W        W22495  10.361  11.480   2.946 -0.3222 -0.0431 -0.2603
12803W        W22496  10.001   4.205   3.937  0.0683  0.1646 -0.1249
12804W        W22497  13.230  12.916  14.638  0.3718 -0.0999 -0.4169
12805W        W22498   1.343   9.689   1.080  0.3558 -0.0820  0.0394
12806W        W22499  14.461  10.711  16.041 -0.0287  0.0512  0.0408
12807W        W22500  14.834   9.553  11.717  0.1991 -0.1952  0.0944
12808W        W22501   7.858  10.971   5.887  0.0470 -0.1450  0.1532
12809W        W22502   9.737  14.345  11.183 -0.2232  0.2811  0.1927
12810W        W22503  13.910   1.468   5.712  0.3896  0.0115 -0.1241
12811W        W22504   2.067  12.812   4.440 -0.2276  0.2251  0.2594
12812W        W22505   0.043   3.756   3.328 -0.0556  0.0103 -0.0393
12813W        W22506   3.406   9.939  12.834  0.2658 -0.2188  0.2535
12814W        W22507  10.019  15.667   5.219  0.0124  0.0624 -0.1207
12815W        W22508   8.038   7.568   4.495  0.0296 -0.0147 -0.0537
12816W        W22509  15.874  15.143  14.477 -0.2270  0.0275  0.1018
12817W        W22510   7.177  12.855  16.398  0.0392  0.2309 -0.1134
12818W        W22511  12.320   1.945  13.295 -0.2613 -0.3505 -0.0681
12819W        W22512  13.771  12.581   4.049 -0.1735  0.0604  0.0894
12820W        W22513   2.608  12.892   5.295  0.0734  0.3754  0.2634
12821W        W22514   1.697  17.071   2.880 -0.1971 -0.1641 -0.3213
12822W        W22515   7.166  14.320  13.675 -0.1246 -0.1166 -0.2217
12823W        W22516   3.004  14.755   5.335  0.0755 -0.0692 -0.1798
12824W        W22517   7.539  16.709   0.844 -0.1601  0.0010 -0.0230
12825W        W22518   2.306  16.576  11.709  0.1830 -0.1858 -0.0211
12826W        W22519  17.301  15.391  11.856 -0.0166  0.1095  0.2118
12827W        W22520   5.436   1.364   1.862 -0.1801  0.2916 -0.0158
12828W        W22521   1.775   5.772   5.025  0.1948  0.3022 -0.1665
12829W        W22522   4.492   0.741   3.186 -0.2085 -0.0187  0.0169
12830W        W22523   1.335   4.573  16.086 -0.0197  0.1746 -0.0924
12831W        W22524  17.830   3.808  12.785  0.2575 -0.1744 -0.1664
12832W        W22525  17.864   6.203  17.039  0.2256 -0.1410 -0.0358
12833W        W22526  17.421  12.458  12.260  0.0036 -0.1763 -0.3159
12834W        W22527   2.588   5.484  12.003 -0.1826  0.0071 -0.1302
12835W        W22528   1.389   0.580  14.695  0.0993 -0.0327  0.3197
12836W        W22529   5.856   9.610  14.839  0.1224  0.1906 -0.1054
12837W        W22530   4.575   0.663  13.161  0.1116 -0.0034  0.0254
12838W        W22531   5.335  13.203   5.823  0.1733  0.1141 -0.2056
12839W        W22532   8.398   9.578   4.384  0.1697  0.1083  0.0260
12840W        W22533  16.443  12.123  14.289  0.4102 -0.1898 -0.0347
12841W        W22534   9.365   4.058  12.853 -0.1846  0.1451  0.1260
12842W        W22535   9.877   3.407  14.770  0.0386 -0.1579  0.1305
12843W        W22536   9.668  10.578  15.299 -0.2110 -0.1711 -0.3486
12844W        W22537   2.020  16.257  11.373 -0.2789  0.2854 -0.0195
12845W        W22538   7.377  11.392   3.824 -0.2958 -0.1952 -0.2024
12846W        W22539  11.572  13.429  12.463 -0.0284  0.0501  0.1818
12847W        W22540   7.804   5.305  13.935  0.1069  0.1219  0.0539
12848W        W22541   1.559   8.779   3.200 -0.0771  0.0535 -0.2420
12849W        W22542   5.892  14.000  16.788  0.1265 -0.1162  0.1268
12850W        W22543   0.250  17.893   4.759 -0.1044 -0.1210 -0.0029
12851W        W22544  13.114  13.637  16.683 -0.0380  0.1336 -0.2409
12852W        W22545   8.988  12.583   5.442 -0.1339 -0.0052  0.1809
12853W        W22546  10.683   0.170   4.904 -0.0925 -0.3228 -0.1369
12854W        W22547   8.584  16.216  14.564 -0.3108  0.2911  0.1401
12855W        W22548  13.218  10.332   3.332 -0.0260 -0.0968 -0.1852
12856W        W22549   4.475  15.545  12.090  0.0135 -0.4965 -0.0237
12857W        W22550   5.574   8.488  16.361 -0.0214  0.0550 -0.6192
12858W        W22551   1.159   5.918  14.405  0.1870  0.0296 -0.0216
12859W        W22552   1.062  12.716  13.246  0.2911 -0.2035 -0.2897
12860W        W22553  10.364  10.632   2.998  0.1154 -0.0702  0.3362
12861W        W22554   6.081   8.561  15.359 -0.1148  0.0254  0.1903
12862W        W22555  17.757  11.637  15.312 -0.1713 -0.1472 -0.2882
12863W        W22556  17.526   2.343  15.269 -0.2048  0.0289  0.0999
12864W        W22557   5.730   2.542  16.994 -0.0746  0.2839  0.2663
12865W        W22558  16.545  17.062   1.815  0.1554 -0.3467  0.3281
12866W        W22559  15.963  15.155  11.658 -0.0591  0.0167  0.3194
12867W        W22560   2.019  16.124  11.888  0.3090 -0.2853  0.0783
12868W        W22561   7.707  13.154   1.150  0.0084 -0.0535 -0.1941
12869W        W22562  13.868  11.514   4.089 -0.0690 -0.2686 -0.0669
12870W        W22563   7.186  14.687   5.663  0.0162  0.0755 -0.1052
12871W        W22564   3.788  11.378  11.671  0.0137 -0.3540 -0.1706
12872W        W22565   8.840  13.298   2.074 -0.3562  0.2811  0.3597
12873W        W22566   5.539  12.547   2.475 -0.0192  0.1556  0.1745
12874W        W22567   6.321  11.198  16.542  0.1288  0.0897 -0.0338
12875W        W22568  17.591   4.281   5.536  0.1602 -0.1340 -0.0372
12876W        W22569   8.283  10.624   2.042 -0.3404 -0.5149 -0.1694
12877W        W22570  14.176  13.818  14.038 -0.0397 -0.1161  0.2041
12878W        W22571  15.711  15.916   3.861  0.2228  0.0184 -0.3474
12879W        W22572   8.207   7.131   4.860  0.0615  0.1231 -0.0725
12880W        W22573  11.074   8.076  13.892 -0.1059  0.0362  0.1288
12881W        W22574  12.172  17.737  16.273  0.0128  0.0991 -0.1150
12882W        W22575   9.185   5.454  13.764  0.0126 -0.2560  0.0304
12883W        W22576   3.039  14.393  13.878  0.1470 -0.1703 -0.0997
12884W        W22577   2.694   5.968   5.367 -0.0443  0.1068 -0.0119
12885W        W22578   9.293  13.539   4.131  0.1406 -0.0023 -0.0904
12886W        W22579   6.196   0.301  13.509 -0.0872  0.0363  0.2021
12887W        W22580   6.123  16.155  14.945 -0.2318  0.0051 -0.0373
12888W        W22581   7.627   6.540   0.623 -0.0895  0.1832  0.2915
12889W        W22582   3.696   5.604   5.326  0.0549 -0.3901 -0.1818
12890W        W22583   7.781  11.289   3.263 -0.1167  0.0524 -0.1648
12891W        W22584  10.580  11.106  13.817  0.0343  0.1751  0.1078
12892W        W22585   5.128   3.728   1.666 -0.1389 -0.0297  0.0862
12893W        W22586   4.646  17.784   4.485 -0.0174  0.0643  0.1454
12894W        W22587   0.557   7.914  16.228 -0.1497 -0.2802 -0.0404
12895W        W22588   9.092  11.622   3.948 -0.0564 -0.1694 -0.0297
12896W        W22589   5.442  13.019   3.392  0.0149 -0.0571  0.2215
12897W        W22590   2.206   1.697  12.500  0.1626  0.1520  0.5826
12898W        W22591   9.485  10.567   1.163  0.1222 -0.0470 -0.4191
12899W        W22592   6.250   5.767  13.694  0.2692 -0.0543  0.1844
12900W        W22593   3.258  13.931  14.282  0.0815  0.1482  0.2368
12901W        W22594   3.086   3.053  11.580  0.1650 -0.0364  0.2336
12902W        W22595  16.398   8.241   2.594 -0.1108  0.2836  0.3091
12903W        W22596   9.891   8.898   1.555 -0.3875 -0.0731 -0.3581
12904W        W22597   3.504  12.143   5.047  0.1032  0.0176  0.1432
12905W        W22598   7.796   4.944   2.114  0.2193 -0.2488  0.2504
12906W        W22599   3.317   9.444  15.655 -0.1228 -0.0470 -0.0572
12907W        W22600  17.908   0.307  17.010 -0.0868  0.0910  0.0996
12908W        W22601   9.439   1.650   0.238  0.4236 -0.0811  0.2237
12909W        W22602   4.361  17.253   0.543 -0.0908 -0.2837  0.1445
12910W        W22603   6.086  10.178   1.694 -0.1396 -0.0367  0.6888
12911W        W22604   5.678  10.614   5.964  0.2496 -0.1015 -0.1514
12912W        W22605   9.577   7.508   6.729  0.0707 -0.1432  0.2335
12913W        W22606   5.372   0.170  14.926 -0.1501 -0.0112  0.1235
12914W        W22607   4.526  16.797   1.492 -0.0222  0.0631  0.0525
12915W        W22608  15.440   4.387  13.086 -0.0416 -0.2705  0.1715
12916W        W22609  11.075   9.277  16.998 -0.0478  0.2319 -0.3010
12917W        W22610   6.564  12.111  12.474 -0.0136  0.0735 -0.0588
12918W        W22611   8.160  15.383   6.053  0.0360 -0.2409  0.0827
12919W        W22612  15.012   4.744   1.747  0.0759  0.0048  0.1152
12920W        W22613   1.671   6.542   2.752 -0.0747  0.0149 -0.0290
12921W        W22614   6.631   7.167   2.893 -0.1189  0.1316  0.1780
12922W        W22615   1.891   1.644   1.799 -0.2716  0.1589 -0.1207
12923W        W22616   4.632  12.350   1.404  0.1010 -0.1866 -0.1208
12924W        W22617  17.972  16.073  11.792 -0.1561 -0.1368 -0.2307
12925W        W22618  11.510   7.510   3.176  0.3440  0.5306  0.0302
12926W        W22619   4.884   2.768  13.026  0.1263  0.2031 -0.1130
12927W        W22620   7.383   9.912  12.072 -0.0009 -0.3037 -0.0578
12928W        W22621   7.407  10.271   0.026  0.0158  0.3229  0.1409
12929W        W22622   7.906  17.260  12.796 -0.1948 -0.2802 -0.1348
12930W        W22623  13.204  11.256   6.075 -0.1527 -0.1756 -0.1171
12931W        W22624   7.896  10.141   0.845 -0.1120 -0.1134 -0.5169
12932W        W22625   2.059   8.458   3.487 -0.2253  0.2006  0.0884
12933W        W22626  12.641  15.513  15.431 -0.2781 -0.0321  0.0315
12934W        W22627   4.550  11.687  13.815 -0.1352  0.0456 -0.2577
12935W        W22628  14.462  10.435  13.747 -0.1837 -0.2828  0.1895
12936W        W22629   7.001   1.060   6.871 -0.2403 -0.0271  0.0577
12937W        W22630   3.548  14.613   6.080 -0.1618 -0.2769 -0.0594
12938W        W22631   3.128   5.582  12.363 -0.1740  0.0348 -0.1876
12939W        W22632  17.427  12.827   0.139  0.0785  0.1956  0.1715
12940W        W22633  17.923  12.761  11.601  0.1934 -0.3941 -0.0678
12941W        W22634   4.354   5.069   0.311  0.1705 -0.1165 -0.2284
12942W        W22635   1.317   4.480  15.556  0.0404 -0.1909 -0.1708
12943W        W22636   8.221  13.647   5.606  0.1021  0.1342  0.3862
12944W        W22637   6.914   9.009   5.349 -0.2675  0.0921  0.0782
12945W        W22638  16.204   9.541   0.342 -0.1801  0.0067 -0.1359
12946W        W22639  11.534  12.649   3.069 -0.0519 -0.0967  0.0091
12947W        W22640   9.354   9.764   6.510 -0.2035  0.0247 -0.2081
12948W        W22641   5.629  14.750  10.974  0.0137 -0.3168 -0.4041
12949W        W22642   4.431  15.886  13.962 -0.0418  0.0128  0.2926
12950W        W22643  12.181   1.758   2.692 -0.1458  0.2759  0.1143
12951W        W22644   2.601   3.813   4.502  0.0134  0.0239  0.0504
12952W        W22645  16.639  11.205  12.954  0.1145  0.1421  0.0096
12953W        W22646  11.936   4.150   0.781 -0.1070  0.1741  0.0100
12954W        W22647   4.657   4.936  12.254  0.1686 -0.0824 -0.1115
12955W        W22648   1.510  16.655  13.439  0.1146 -0.4331  0.3357
12956W        W22649   4.573   3.240   3.437 -0.2305  0.0384 -0.3687
12957W        W22650   5.563  16.223  15.772  0.1465  0.1865 -0.1042
12958W        W22651  12.913   9.623  12.451  0.0320 -0.2397 -0.2252
12959W        W22652  16.361  17.827   5.011 -0.1162 -0.0841  0.2787
12960W        W22653   3.051  11.961  15.233 -0.0878 -0.0355 -0.0407
12961W        W22654   7.402   4.711   0.158 -0.2137 -0.0837 -0.1920
12962W        W22655  13.486   1.250  15.989  0.1817 -0.2335  0.1987
12963W        W22656   7.834   2.156  11.258  0.1483 -0.1330 -0.1802
12964W        W22657  15.462   9.440  12.213 -0.1699 -0.2602 -0.2071
12965W        W22658  10.298  16.182   4.651 -0.3718  0.2461  0.1414
12966W        W22659  16.582  12.476   2.595  0.0209  0.2577 -0.1846
12967W        W22660  10.360  12.615   4.382  0.0043 -0.0496 -0.0322
12968W        W22661   6.462   8.771  16.523  0.1847 -0.0992 -0.1135
12969W        W22662  12.997  10.003   3.794  0.2983  0.1488  0.0053
12970W        W22663  11.589   7.721   5.158 -0.0911 -0.0303 -0.0764
12971W        W22664   9.427  17.169  12.476  0.2582  0.2014 -0.0026
12972W        W22665   4.253   3.349   1.477 -0.0472  0.0491 -0.0070
12973W        W22666   6.139  14.820   0.060  0.0383  0.0533  0.1192
12974W        W22667   1.748  15.138   4.263  0.0176  0.1233 -0.0531
12975W        W22668   7.510  16.817   3.891  0.3013 -0.0094  0.1174
12976W        W22669   4.852   3.060  13.642 -0.0073 -0.0027 -0.0990
12977W        W22670   6.073   4.964  16.201 -0.1366 -0.1823 -0.0803
12978W        W22671  13.139  15.686  15.622  0.0347  0.2343  0.0055
12979W        W22672  10.503  10.105  13.356 -0.1749  0.0048  0.3104
12980W        W22673  12.815  10.084   2.262 -0.0208  0.0772  0.0169
12981W        W22674   8.602  15.035  16.114 -0.2414 -0.0276 -0.0777
12982W        W22675   7.880   3.357  13.206 -0.1470  0.0299 -0.0004
12983W        W22676  17.901   6.108  14.448 -0.0992 -0.1316 -0.1687
12984W        W22677   5.958   5.604   3.724  0.1475  0.1386  0.0720
12985W        W22678   6.914  12.401   0.158 -0.1584  0.0131  0.1397
12986W        W22679  13.581   2.591   4.410  0.1347  0.3375 -0.3356
12987W        W22680   9.302   5.985   3.395 -0.0067 -0.0026  0.1367
12988W        W22681   2.397  10.908   4.579  0.0998  0.0249  0.0431
12989W        W22682  12.316  15.925  12.598 -0.0158  0.0468  0.0685
12990W        W22683   3.203  16.747   0.142  0.0994  0.2472 -0.5070
12991W        W22684   9.566   3.955  13.378 -0.1942  0.1695  0.1116
12992W        W22685   3.877   0.503  11.416  0.1483  0.2180 -0.2104
12993W        W22686   9.534  17.784   3.263 -0.1315 -0.2942  0.3275
12994W        W22687  14.295  17.347  12.338  0.0033  0.3175  0.2058
12995W        W22688  17.484  14.380  11.021 -0.0500  0.1568 -0.2566
12996W        W22689  15.841   3.319   1.986  0.0916  0.2674  0.1633
12997W        W22690   3.396   0.912  16.588 -0.2341 -0.1553 -0.0262
12998W        W22691  11.152   1.403   4.851  0.3647  0.0980  0.0611
12999W        W22692  12.097   1.103   1.533  0.2027 -0.3349  0.0430
13000W        W22693   7.730  14.834  16.568 -0.2117 -0.1983 -0.2028
13001W        W22694  11.204  12.919   1.742 -0.4508 -0.0420 -0.1218
13002W        W22695   7.065  10.574   6.203  0.0311  0.0011  0.0317
13003W        W22696   2.540   3.760  11.779 -0.2140 -0.1717  0.0538
13004W        W22697   4.500  16.502   4.208  0.1133 -0.1209 -0.2068
13005W        W22698  11.529  17.572   0.537  0.0707 -0.2879  0.0668
13006W        W22699  10.694  11.351  12.435 -0.2168  0.2915 -0.1773
13007W        W22700   1.900   6.009  12.469  0.0233 -0.0573 -0.1916
13008W        W22701   9.384  11.293  13.134 -0.1163  0.2056 -0.1965
13009W        W22702  10.092   4.717  15.132 -0.3556 -0.0181 -0.0218
13010W        W22703   7.775  10.044  16.810  0.0008  0.1430  0.2847
13011W        W22704   4.078   1.611   4.529 -0.0629  0.3192 -0.1498
13012W        W22705  11.061   9.759   0.177  0.2653  0.3003 -0.3295
13013W        W22706   7.670  16.333  11.300 -0.0937 -0.0527  0.1173
13014W        W22707  14.079   7.799  15.228 -0.0078  0.1022  0.1073
13015W        W22708   2.558   6.963  12.506 -0.0223 -0.1056 -0.1698
13016W        W22709   8.471   1.553   0.649  0.0763  0.4274  0.5199
13017W        W22710  16.140   3.854  11.743 -0.0457 -0.0358 -0.0133
13018W        W22711  15.827  14.120   2.653  0.0402 -0.0360 -0.1963
13019W        W22712   0.599  16.977  13.396 -0.0257 -0.1439  0.4192
13020W        W22713   6.021  16.496   5.488  0.0242 -0.1933  0.1540
13021W        W22714  13.046   6.076   5.660 -0.1657  0.2195 -0.0207
13022W        W22715   5.773  16.594   5.075  0.2498 -0.0564  0.3577
13023W        W22716   6.733   4.956   1.289  0.0938 -0.1597 -0.0747
13024W        W22717   8.182   5.778  14.713 -0.0060 -0.3135  0.3957
13025W        W22718   2.143  17.868  13.344 -0.0148 -0.0016  0.0336
13026W        W22719  17.239   4.563  16.727  0.0930 -0.2818  0.1666
13027W        W22720  10.939   2.323  10.701  0.2623  0.0490  0.4973
13028W        W22721   6.959  16.943  14.485  0.0467 -0.1557 -0.0346
13029W        W22722   3.322   2.575   2.754  0.2348  0.1788  0.0755
13030W        W22723   4.171   3.384  12.971 -0.0064 -0.1083  0.1712
13031W        W22724   2.294   3.305   6.100  0.1827  0.2209 -0.1735
13032W        W22725   2.870  15.813   3.747  0.0694  0.2295 -0.3788
13033W        W22726   3.986  10.243  15.920 -0.1749  0.0080 -0.0613
13034W        W22727   5.584   3.199  12.004  0.2276  0.0631  0.3569
13035W        W22728   4.279   7.868   4.158  0.1050  0.0460 -0.1060
13036W        W22729   2.172  14.992   5.355  0.0978 -0.1391 -0.1804
13037W        W22730   2.048  11.293   3.331 -0.0245 -0.0444 -0.0664
13038W        W22731   5.192   9.697   4.663  0.1181 -0.0357  0.1317
13039W        W22732   7.482  14.413   3.411  0.1169  0.0578 -0.0536
13040W        W22733  15.165   4.047   4.747  0.1520 -0.2560 -0.1327
13041W        W22734   4.820  16.301  10.948 -0.1472 -0.0859 -0.1940
13042W        W22735   8.660  14.646  11.018  0.2556  0.0570  0.0471
13043W        W22736   6.928   2.176  12.785 -0.1129  0.1831 -0.0623
13044W        W22737   0.123   1.461   0.096 -0.1729  0.0341  0.2950
13045W        W22738   2.738  10.395  12.082  0.1035  0.2372  0.0415
13046W        W22739   2.291  17.731   5.536  0.1117  0.1823 -0.0586
13047W        W22740  17.048   1.155  11.052  0.0324  0.1507  0.1613
13048W        W22741   9.119  14.732  13.478 -0.2679 -0.1745  0.1479
13049W        W22742   6.577  13.836  16.101  0.3307  0.3368 -0.1219
13050W        W22743   5.576   2.340   5.440  0.1945  0.1701  0.2089
13051W        W22744   1.078  10.885   4.813 -0.0550 -0.1972 -0.2161
13052W        W22745  13.358  10.015   2.014  0.0409  0.1337 -0.1104
13053W        W22746   2.777   3.218   0.674 -0.0803  0.0767 -0.1458
13054W        W22747  16.320  14.253   2.764  0.1022 -0.1932  0.2201
13055W        W22748  11.603  10.091   1.189 -0.4156  0.2053  0.0364
13056W        W22749  16.724   1.186   3.571  0.1877  0.2221  0.0073
13057W        W22750  11.713   8.108   0.141 -0.1654 -0.1605  0.2457
13058W        W22751   4.637  12.714   3.980  0.2649  0.0300 -0.1536
13059W        W22752   6.372  15.174  16.905 -0.0030 -0.0032 -0.0084
13060W        W22753   7.032   3.579  16.012  0.2520 -0.0580  0.0681
13061W        W22754  16.924   3.207   3.537 -0.1517 -0.2318  0.0914
13062W        W22755   3.506  11.270   0.340 -0.2313  0.3229  0.1370
13063W        W22756   7.026   2.069   2.378  0.0298  0.0414 -0.1221
13064W        W22757   9.557   7.341   0.351  0.0084 -0.3192 -0.0833
13065W        W22758   3.658   4.956   3.577 -0.2007  0.3670 -0.1246
13066W        W22759   5.303  15.166  16.102 -0.0003  0.2138 -0.1307
13067W        W22760  13.346  16.787  12.406  0.3500  0.2949 -0.0548
13068W        W22761  13.839   7.968  16.780  0.0916  0.2429  0.2953
13069W        W22762   1.903  10.084  14.551 -0.2064 -0.2831  0.0527
13070W        W22763   3.067  15.302   4.739 -0.1383 -0.3823  0.2339
13071W        W22764   6.674  16.730  16.828 -0.1960  0.0300 -0.2831
13072W        W22765   2.055  17.737  16.140 -0.2764 -0.1323  0.1108
13073W        W22766  12.487   0.788   4.802 -0.1694 -0.0103  0.4274
13074W        W22767   6.349   2.024  13.641 -0.2469  0.2827  0.1239
13075W        W22768   7.041   0.104   0.669  0.2664 -0.0846 -0.1866
13076W        W22769   0.007  14.204  13.601 -0.0561 -0.2257  0.0289
13077W        W22770  12.898  15.214   5.485  0.1921 -0.1084  0.0161
13078W        W22771   3.803  11.737   0.305  0.1828 -0.2488 -0.2432
13079W        W22772   8.196  12.952   6.235  0.4111  0.2661 -0.1608
13080W        W22773   6.467  12.731   5.976 -0.2291  0.0192  0.0592
13081W        W22774   9.730  17.277   3.356 -0.1101 -0.0990 -0.0129
13082W        W22775   1.883   4.379  11.848  0.2022 -0.1290 -0.2014
13083W        W22776   2.681  14.041   4.342  0.0504  0.1339 -0.0227
13084W        W22777   7.726  12.243  16.279  0.2895 -0.1012  0.0423
13085W        W22778  13.374  12.541   0.163 -0.0287 -0.0823  0.1833
13086W        W22779   2.700  10.180  15.302 -0.2461  0.0689  0.1262
13087W        W22780  13.308  16.859   3.290 -0.1221  0.0768  0.1057
13088W        W22781   4.182   2.908   2.749 -0.1155  0.1517  0.1088
13089W        W22782  10.650  10.657   4.379 -0.0245  0.0526 -0.0787
13090W        W22783  11.360  11.802   4.877 -0.0523 -0.1428  0.0424
13091W        W22784   9.187  11.678   0.469 -0.0539 -0.3565 -0.1544
13092W        W22785  11.109   4.627  16.472  0.1860 -0.1589  0.2416
13093W        W22786   5.839  17.291  11.892  0.1693  0.2185  0.0763
13094W        W22787  12.848   6.883  16.697  0.3221 -0.0473  0.0826
13095W        W22788   4.884  17.846  14.824 -0.1035 -0.1927 -0.0402
13096W        W22789   0.952   4.822   3.625  0.0797 -0.1530  0.2457
13097W        W22790   9.907  17.906  14.721  0.2209 -0.3400 -0.4609
13098W        W22791   7.551   6.647   2.314 -0.0981 -0.0088 -0.1795
13099W        W22792   8.713  12.044   6.327 -0.1973  0.1579  0.2167
13100W        W22793   8.625   5.028   1.900 -0.0335 -0.2011 -0.4981
13101W        W22794   5.867   9.146  14.404 -0.0924 -0.1227  0.2591
13102W        W22795  15.995   8.110   1.345  0.3913  0.1866 -0.0397
13103W        W22796   3.248   3.180  12.758  0.0228 -0.0986 -0.1929
13104W        W22797  12.932  12.511  14.305 -0.1166  0.1881 -0.0236
13105W        W22798   2.256   7.367  13.372 -0.0832 -0.2414 -0.0139
13106W        W22799  15.417   3.582   1.852 -0.1478  0.1582 -0.0408
13107W        W22800   8.064  12.398   4.635  0.1317 -0.0502  0.0978
13108W        W22801  16.329   7.031  11.662 -0.1510 -0.0019 -0.0011
13109W        W22802   7.465  17.067   4.344  0.1965  0.3204  0.0767
13110W        W22803  10.892  12.203  15.234  0.1158 -0.3189  0.5746
13111W        W22804   2.821  15.910  15.290 -0.0503  0.1657 -0.0826
13112W        W22805   4.326   7.262  12.964  0.1005 -0.0601 -0.0386
13113W        W22806   7.059   2.957  15.412  0.1241 -0.0508  0.2921
13114W        W22807   9.432   8.684  15.967 -0.3048 -0.1160  0.2355
13115W        W22808  17.855  15.252  14.056  0.3639 -0.0435  0.2783
13116W        W22809   0.400  13.106   0.053 -0.0319  0.2078 -0.2784
13117W        W22810  13.213  14.103   0.547 -0.1993  0.2605  0.1206
13118W        W22811   3.490  11.126  15.645 -0.0472  0.5509 -0.0386
13119W        W22812  12.466  11.805   2.394 -0.3562 -0.2070 -0.5574
13120W        W22813  17.239   3.647  12.249  0.0329 -0.0427  0.1277
13121W        W22814   1.546  10.121  13.854 -0.0631  0.1819  0.1825
13122W        W22815   9.727   1.017  12.891  0.1196 -0.0293  0.1131
13123W        W22816   7.181   8.190  14.180 -0.2994 -0.0477  0.0736
13124W        W22817  12.103  15.532  15.321 -0.0920  0.1210 -0.1068
13125W        W22818   0.401  10.769   1.389  0.0016 -0.0305  0.3763
13126W        W22819  10.037  15.294   4.899  0.0137  0.2173  0.1046
13127W        W22820   4.197  10.412   4.766 -0.2145  0.3587  0.1250
13128W        W22821   5.025   6.396  11.070 -0.0853  0.0821 -0.1195
13129W        W22822   1.585   6.343   3.720  0.5440 -0.2287 -0.1411
13130W        W22823   5.032   5.452   3.457  0.0128 -0.1256  0.2241
13131W        W22824   8.361  17.719  12.391  0.1964  0.0185 -0.0532
13132W        W22825   6.423   3.541  14.819  0.2160  0.1478 -0.2739
13133W        W22826   1.915   1.513  16.186 -0.0845 -0.2585  0.0319
13134W        W22827   9.738   0.560  12.108 -0.0982 -0.0994 -0.0006
13135W        W22828   4.963   2.844  15.310  0.1812  0.2928 -0.0722
13136W        W22829   1.704   1.927  12.439 -0.0946 -0.0613 -0.0894
13137W        W22830   4.231  17.407   5.599 -0.3959 -0.2259  0.0700
13138W        W22831   8.507   3.729   3.617 -0.6978 -0.1857  0.3230
13139W        W22832   7.476   2.443   2.079  0.2090 -0.0933 -0.3082
13140W        W22833  14.811  16.766  13.042 -0.0813 -0.0377  0.1947
13141W        W22834   7.869  14.240   3.633 -0.0603 -0.1682  0.2283
13142W        W22835   5.132   5.617  12.781 -0.1946 -0.0115  0.3322
13143W        W22836  17.539   1.773  17.013  0.2348 -0.1880  0.1377
13144W        W22837   6.377  14.436   2.765  0.1092  0.0793  0.1324
13145W        W22838   7.037  11.471  16.936  0.1151 -0.2692 -0.0329
13146W        W22839   0.516   5.069  15.086 -0.2156 -0.0593  0.0812
13147W        W22840   6.577  16.516  12.611 -0.0036 -0.5463 -0.0075
13148W        W22841   5.731   2.425  13.572  0.2031  0.2227  0.1017
13149W        W22842   9.049   0.387   0.995 -0.3497 -0.2442  0.1055
13150W        W22843  13.300  17.303  13.914  0.0375  0.2051  0.1959
13151W        W22844   3.890   8.119  12.930  0.2219 -0.0286 -0.2694
13152W        W22845   0.676  10.219   3.863 -0.1275  0.0601  0.0569
13153W        W22846   4.585  11.831  13.334  0.2835 -0.0654  0.0821
13154W        W22847   9.545   5.700   4.154  0.1630 -0.0363 -0.0211
13155W        W22848  12.535   5.057   0.030 -0.3714 -0.0038  0.0271
13156W        W22849  13.076   5.156  16.495 -0.1386 -0.1626  0.2108
13157W        W22850   4.939  16.148   2.723  0.2099  0.2651  0.0958
13158W        W22851  16.184  13.495   3.803  0.1180 -0.1060 -0.0003
13159W        W22852   1.058  15.532  10.379 -0.1238  0.0892 -0.3421
13160W        W22853   6.428  13.459   4.173 -0.0401  0.2848 -0.2342
13161W        W22854   8.232   3.197  16.315 -0.0664 -0.0616  0.1560
13162W        W22855  16.850  12.220  13.477 -0.0631 -0.0882 -0.0282
13163W        W22856   7.390  17.046   2.904 -0.2363 -0.2420 -0.1859
13164W        W22857   2.684  17.014  12.695 -0.4257  0.1707 -0.1379
13165W        W22858   7.976  14.128   0.970  0.0548  0.1131 -0.0587
13166W        W22859   5.572   0.771   3.523  0.0977 -0.0240  0.1804
13167W        W22860   6.629  12.990  15.415  0.1204 -0.0362  0.1191
13168W        W22861  14.765  17.230  11.431 -0.1162  0.1225 -0.0649
13169W        W22862   3.022  15.698   2.370 -0.0558 -0.0032 -0.2090
13170W        W22863   5.547  15.547   0.415  0.0005  0.0718  0.1595
13171W        W22864   5.344  14.829  12.969 -0.1613 -0.1505  0.1375
13172W        W22865   8.160   6.541  16.915 -0.1837  0.0474  0.0766
13173W        W22866  11.434   1.220  16.702 -0.0439  0.1657  0.1659
13174W        W22867  11.241  15.884   3.926 -0.0367  0.1175  0.2640
13175W        W22868  15.071   8.204   2.675  0.3184 -0.0790 -0.1687
13176W        W22869  17.179  16.621   0.425  0.2536 -0.0004  0.3605
13177W        W22870  16.854   9.127   4.229  0.2157 -0.1355 -0.3231
13178W        W22871  15.744   7.195  16.421 -0.1505  0.3507 -0.1455
13179W        W22872   3.308  10.008  12.284  0.0157 -0.0779  0.0814
13180W        W22873   2.524   0.316  13.425  0.1254 -0.0701  0.0656
13181W        W22874   2.383   7.772   0.350 -0.2254 -0.1683 -0.0370
13182W        W22875   8.275  12.910  14.826 -0.2999  0.1856 -0.3865
13183W        W22876   3.741   8.082  16.909  0.3580 -0.0192 -0.1944
13184W        W22877   8.242  14.236  13.946 -0.3305 -0.5600 -0.1760
13185W        W22878  17.639   4.880   6.201  0.0173 -0.0536 -0.1435
13186W        W22879   4.725   1.575  12.929  0.0454 -0.1516 -0.1763
13187W        W22880   2.720  15.152   5.516  0.1410 -0.0811 -0.1129
13188W        W22881   2.499  17.356   5.124  0.3425 -0.2473  0.1184
13189W        W22882   3.309   3.870   2.463 -0.0919  0.1471 -0.0314
13190W        W22883   3.783  10.562   5.600 -0.1906 -0.1972  0.1109
13191W        W22884   4.401  12.736  13.519  0.0536  0.2629  0.1974
13192W        W22885  11.341  17.737  14.411 -0.2904  0.0318  0.3232
13193W        W22886   9.880   8.023   3.706 -0.1938 -0.2907 -0.2566
13194W        W22887   2.852  16.338   0.899 -0.0503  0.1558  0.0146
13195W        W22888   4.021  17.759   0.230  0.2929 -0.2308  0.0570
13196W        W22889   0.749   0.609   0.244 -0.0544 -0.0074 -0.0503
13197W        W22890   4.015   4.434   4.880 -0.0268  0.1176 -0.0854
13198W        W22891   4.956   2.555  11.892 -0.0144  0.1810 -0.4218
13199W        W22892   7.754  13.854  13.152 -0.2978  0.2337 -0.1604
13200W        W22893   9.935   1.456  14.855 -0.1833 -0.0489  0.0400
13201W        W22894  16.736  16.424  11.342  0.2844  0.3332  0.2233
13202W        W22895   7.887  10.765  15.519 -0.0964 -0.0477  0.1014
13203W        W22896   3.909   1.738  11.444  0.0746  0.1116 -0.2851
13204W        W22897  11.349  16.069   4.916  0.2988 -0.2865 -0.2215
13205W        W22898   5.171   7.393  12.639 -0.1263 -0.3136 -0.2472
13206W        W22899   1.210  13.835   2.445  0.1483 -0.0953 -0.0533
13207W        W22900   1.906   3.834  14.177  0.1885 -0.1326 -0.1439
13208W        W22901   4.186   8.721   2.043  0.0742  0.2787  0.0251
13209W        W22902   4.466   1.103   6.173 -0.0963  0.0623 -0.1951
13210W        W22903   9.268  11.057  17.094  0.1597  0.0611  0.2624
13211W        W22904   0.352   1.282  11.354 -0.1151  0.1354 -0.1511
13212W        W22905   4.977   4.760  17.102 -0.1381  0.1040  0.1000
13213W        W22906  11.325  16.408  15.241 -0.1225  0.3763  0.2465
13214W        W22907   4.674   5.700   5.531  0.0395  0.2421 -0.1039
13215W        W22908   5.922   3.872  12.517 -0.1378 -0.1768 -0.1186
13216W        W22909   5.263  17.402   6.310 -0.1516 -0.0516 -0.1740
13217W        W22910   3.655  10.876  14.618  0.1080  0.1639  0.0427
13218W        W22911   3.128  15.927  13.260  0.1629 -0.2716  0.4463
13219W        W22912   9.839  14.764   6.312 -0.1172  0.1865 -0.1200
13220W        W22913   5.887  16.007   4.342  0.1342 -0.1061 -0.1205
13221W        W22914   8.517  13.007  13.730  0.1251  0.0900  0.0628
13222W        W22915   6.525  15.230   1.387  0.0712 -0.2903 -0.2563
13223W        W22916   2.638   5.578  12.500 -0.0186  0.1237  0.1836
13224W        W22917   1.219   9.034   3.491 -0.2612 -0.2226  0.0247
13225W        W22918  11.430  10.350  17.018 -0.1600  0.2724  0.0676
13226W        W22919   6.691  13.835  10.522 -0.0997 -0.1460  0.1007
13227W        W22920   4.613   8.834  13.824 -0.1157 -0.2379  0.0740
13228W        W22921   5.980   6.185   3.880  0.2493 -0.1499 -0.3961
13229W        W22922   8.769   1.344  15.407 -0.2543 -0.1586 -0.1986
13230W        W22923   8.824  10.367   3.454  0.0751  0.0678  0.2661
13231W        W22924   2.038  11.150   1.978  0.2343 -0.1222  0.1941
13232W        W22925   4.597   7.927  14.687  0.1083  0.0225  0.0699
13233W        W22926   3.159   0.051  15.340  0.0040  0.0721 -0.0921
13234W        W22927   4.550   1.414   4.340  0.2941 -0.0851  0.1192
13235W        W22928   5.335   9.611   3.546 -0.0831  0.2125 -0.2707
13236W        W22929   6.420   2.847   3.582  0.2131 -0.1246 -0.1421
13237W        W22930   9.604  13.685   5.689  0.1926  0.0358 -0.0001
13238W        W22931   5.335  11.367   5.960  0.2899  0.1926 -0.0251
13239W        W22932   3.038  13.686   4.386  0.1961  0.2614 -0.0834
13240W        W22933   7.895  16.410  16.010  0.1149 -0.0697  0.0397
13241W        W22934   5.957  13.028  16.334  0.3321  0.0547 -0.1765
13242W        W22935   4.754   1.162   0.495  0.1513  0.1159 -0.0822
13243W        W22936   9.074   3.257   1.231 -0.2725  0.0098  0.2161
13244W        W22937   6.007   1.188   4.068 -0.2722 -0.0741  0.3077
13245W        W22938   7.400  12.224  15.704 -0.0421 -0.0036  0.3567
13246W        W22939  13.945  12.010   2.695 -0.1516 -0.0085 -0.2944
13247W        W22940  14.501   2.792  16.917  0.2737 -0.2435  0.1702
13248W        W22941   8.061  10.801  16.536 -0.1318 -0.1196 -0.2802
13249W        W22942   7.921   0.239  15.886 -0.2308 -0.0536 -0.1265
13250W        W22943   3.603   1.468  14.726 -0.0117  0.0792 -0.2047
13251W        W22944  11.058   5.806   4.900  0.0479 -0.0039  0.2372
13252W        W22945   0.044   3.999  11.854  0.2192 -0.0283  0.1140
13253W        W22946   6.769  10.367  16.082  0.3611  0.1227  0.0425
13254W        W22947  17.272  15.413   4.789 -0.0333 -0.2221 -0.3251
13255W        W22948  16.425   8.498   2.086  0.0948  0.0343  0.1416
13256W        W22949   4.705   0.912   4.416 -0.2216 -0.1058  0.1003
13257W        W22950   2.093   6.519  15.376  0.0204 -0.2585 -0.0503
13258W        W22951  12.697  10.744   0.713  0.0954  0.0190  0.2422
13259W        W22952  10.188   1.465  11.085 -0.2829 -0.2523 -0.0955
13260W        W22953   2.060  14.533   5.733  0.3589 -0.0820  0.2409
13261W        W22954   6.307  10.935   6.440 -0.0523  0.0807 -0.0264
13262W        W22955   4.201   6.546   4.106  0.0427 -0.0272  0.1714
13263W        W22956  13.411   0.559   3.081 -0.0764  0.0390  0.1810
13264W        W22957  15.778  11.653  11.318 -0.1092  0.1767 -0.2219
13265W        W22958  17.876   6.394  10.870  0.2591  0.0537  0.0631
13266W        W22959  16.803   3.993   3.914  0.0896  0.2522  0.2149
13267W        W22960   2.946   1.022   0.084 -0.0100  0.1041  0.1639
13268W        W22961   5.689   0.476  12.282 -0.1992 -0.1292  0.0882
13269W        W22962   4.857  12.178  15.027  0.0627 -0.3068 -0.2292
13270W        W22963   0.214  12.660  13.901  0.1567 -0.2288 -0.0891
13271W        W22964   5.724  12.122   1.214  0.1652  0.0654 -0.2855
13272W        W22965   6.903   6.638   5.046  0.0911  0.0360 -0.0786
13273W        W22966  15.716  16.733   4.211  0.0509 -0.0172  0.1377
13274W        W22967   7.311  12.639   5.869  0.3852  0.2344  0.2262
13275W        W22968   1.262   0.284  16.272  0.1726 -0.2024 -0.0254
13276W        W22969   2.708   0.406  15.456 -0.2027  0.1626 -0.0254
13277W        W22970  15.814   3.172   5.507 -0.0124  0.1136  0.3783
13278W        W22971   0.979  13.937   0.108 -0.1296  0.0510  0.0844
13279W        W22972   2.176   6.642  12.536 -0.0785  0.0246  0.0625
13280W        W22973  17.313   9.231   5.037  0.1552  0.1127 -0.0309
13281W        W22974   0.211  17.938   5.266  0.0342  0.0421  0.3098
13282W        W22975   5.291  17.346   3.840 -0.0996 -0.3255  0.2176
13283W        W22976   6.460   7.526   4.943  0.2558  0.0257  0.0889
13284W        W22977   9.031   1.516  11.389  0.0182 -0.1843 -0.0057
13285W        W22978   7.002  11.853  16.571 -0.0556 -0.1625  0.2277
13286W        W22979   3.775   9.083   3.613  0.3925  0.0635  0.1449
13287W        W22980   3.737  17.655  12.318 -0.2288  0.2728 -0.0265
13288W        W22981  14.915  11.934  14.872 -0.1497  0.0032 -0.1020
13289W        W22982  11.417  12.436  13.300 -0.0906  0.1276 -0.2987
13290W        W22983   6.493  15.884   0.756  0.0014 -0.0526  0.0080
13291W        W22984  15.878   6.563  15.871 -0.0149 -0.1744 -0.2583
13292W        W22985  10.699   4.727   6.068 -0.1323 -0.0140  0.0319
13293W        W22986  11.416  17.070  15.861 -0.2798  0.2797 -0.1459
13294W        W22987   6.272   2.227   4.553  0.2261  0.0521 -0.3553
13295W        W22988   6.253   6.172  12.320 -0.1032 -0.1333  0.1111
13296W        W22989   4.487   0.611  14.796 -0.2239  0.0457  0.0586
13297W        W22990   0.508  13.824   2.571  0.1510  0.2152  0.1178
13298W        W22991   9.897   4.095   4.958 -0.1622  0.0526  0.2335
13299W        W22992  10.592  15.325   0.783  0.2028  0.1821 -0.2207
13300W        W22993   8.737   2.005   0.839  0.0293  0.3546  0.1806
13301W        W22994  14.749  15.136  16.874  0.2219 -0.0161 -0.2545
13302W        W22995  15.311   4.647   2.184  0.0301 -0.1118 -0.3753
13303W        W22996   4.188  11.555   1.284  0.5640  0.0844  0.1123
13304W        W22997   8.161  15.300  16.997  0.0401 -0.1748  0.4431
13305W        W22998   3.310  11.911  13.990  0.3737  0.1529 -0.3977
13306W        W22999  14.841   9.584   1.967 -0.2798 -0.0067 -0.1389
13307W        W23000   5.648   4.395   1.035  0.4772  0.0597  0.0133
13308W        W23001   3.631  15.339   0.297 -0.0646  0.2435  0.1579
13309W        W23002   5.691   4.196   2.207 -0.0211  0.3790  0.1058
13310W        W23003   0.274  10.371   1.920  0.0560  0.0326 -0.0454
13311W        W23004   4.035  10.790  12.935  0.1843 -0.2058  0.0851
13312W        W23005   3.280  12.642  11.770 -0.1236  0.1655  0.0580
13313W        W23006   7.836  17.958   3.222  0.0556 -0.0829  0.3849
13314W        W23007   5.531  14.300  16.560  0.2793 -0.0361 -0.2238
13315W        W23008   2.974  16.720  13.531 -0.2825 -0.2357 -0.2081
13316W        W23009   8.861  12.421  16.032 -0.0077  0.2417  0.1598
13317W        W23010   6.076  14.342  14.375 -0.0450 -0.1714 -0.3278
13318W        W23011   2.872  13.805  16.732 -0.2171 -0.0189 -0.2305
13319W        W23012   2.711   0.175  16.313  0.1211  0.1933  0.1746
13320W        W23013   9.752   0.872  11.693  0.3647  0.3214  0.1444
13321W        W23014   5.624   9.695   6.186 -0.1414  0.3479  0.1470
13322W        W23015  16.565   6.546  15.454 -0.0040 -0.2089  0.0584
13323W        W23016   4.365  13.306   2.362  0.0061  0.0074  0.1103
13324W        W23017  14.504   2.361   4.512 -0.1725 -0.0162  0.2216
13325W        W23018  10.384   9.689  13.051 -0.3092  0.0528 -0.1292
13326W        W23019  16.934   3.092   5.055  0.0852  0.0564 -0.1454
13327W        W23020   6.823  14.235  14.380 -0.0409  0.2698 -0.0774
13328W        W23021   6.182  13.845   4.427 -0.1121 -0.0444  0.0838
13329W        W23022   1.200  15.049   1.374 -0.1037  0.3352  0.0302
13330W        W23023  11.232   3.000  11.535  0.5398  0.2247  0.2662
13331W        W23024   7.445  14.116  12.008 -0.0786 -0.1504 -0.4775
13332W        W23025   7.002  15.057   1.100  0.0175 -0.0249 -0.2473
13333W        W23026   9.774   9.077  15.300 -0.2125  0.0315 -0.1512
13334W        W23027   4.867  16.995  11.473  0.1480 -0.0521  0.1742
13335W        W23028   6.171  13.173  14.390 -0.0476 -0.1497 -0.0914
13336W        W23029   1.242  16.537  15.350 -0.1454  0.1203 -0.0293
13337W        W23030   1.192   0.903   3.183 -0.3128 -0.1302  0.1424
13338W        W23031   2.186  10.113  11.132  0.0298 -0.0709  0.0381
13339W        W23032   5.050   8.523   5.517 -0.0249  0.0977 -0.1049
13340W        W23033   9.070  16.179   4.177 -0.2968  0.1102  0.3377
13341W        W23034   3.042  12.835   3.199  0.1692 -0.2297  0.2130
13342W        W23035   5.417  11.642   0.397 -0.2565 -0.0507  0.0390
13343W        W23036   9.350  14.927  11.895 -0.1400 -0.4070 -0.0674
13344W        W23037   3.119   5.995   4.432  0.0595  0.2286  0.0884
13345W        W23038  11.587  17.612   4.014 -0.1650  0.0949 -0.0453
13346W        W23039  13.946  11.364  16.669  0.1414 -0.4429 -0.0626
13347W        W23040   0.604  10.027   1.825 -0.3403 -0.0830 -0.0929
13348W        W23041  16.384  12.278  11.423 -0.0216  0.1354 -0.4684
13349W        W23042   6.844   5.810  13.071  0.1875  0.0607 -0.1389
13350W        W23043  14.269   3.688  14.607 -0.2313 -0.1135  0.2293
13351W        W23044  12.890   7.988   2.380 -0.0313  0.2045 -0.0247
13352W        W23045   6.042   3.106  15.343  0.0176 -0.1188  0.2518
13353W        W23046  17.531   2.417   5.580 -0.3920  0.4070 -0.2291
13354W        W23047   4.217   0.595   0.026 -0.1915 -0.0043  0.0502
13355W        W23048   5.994  11.275  15.244 -0.1236 -0.0534 -0.3334
13356W        W23049   7.019  10.211  14.194  0.3695  0.1214 -0.2251
13357W        W23050  11.675   9.068  16.298 -0.0273  0.1867  0.2240
13358W        W23051   8.035  16.457   2.796  0.1733 -0.2326  0.2130
13359W        W23052   0.647  16.380   3.136 -0.0145  0.0200  0.0557
13360W        W23053   7.638   8.808  16.854 -0.0691 -0.1714 -0.3389
13361W        W23054  13.077   3.869   0.336 -0.0404  0.0505 -0.0808
13362W        W23055   0.847  15.239  17.069 -0.1439  0.1547  0.1086
13363W        W23056   8.047   2.845  15.909 -0.1741 -0.5092 -0.2219
13364W        W23057   5.882   9.757   1.792  0.0649 -0.0710 -0.1085
13365W        W23058  11.958  13.651   5.114  0.1465 -0.0935  0.1932
13366W        W23059  16.633   2.505   4.738 -0.1420 -0.3395  0.0119
13367W        W23060   7.454   9.011   4.399  0.1408  0.0156  0.1711
13368W        W23061   6.133  16.592   1.210  0.0419 -0.0774 -0.0586
13369W        W23062   2.395   4.631  12.066  0.0693 -0.3003 -0.2453
13370W        W23063   8.384   1.139  15.020  0.1221  0.1531 -0.0981
13371W        W23064   8.387   6.333  16.512 -0.4706 -0.0847  0.1227
13372W        W23065   9.507  15.514   1.744 -0.1240 -0.0474 -0.0259
13373W        W23066   0.080   6.940  16.394  0.3062  0.1446  0.1994
13374W        W23067  12.260  12.699   1.418 -0.2659  0.1469  0.1901
13375W        W23068   8.309  16.618  15.727  0.2714  0.0509  0.2164
13376W        W23069   6.050  10.679   5.640  0.2950  0.0636  0.0518
13377W        W23070   7.110   7.469   1.195  0.0911 -0.1542 -0.2039
13378W        W23071  16.724   2.127  16.622  0.1659  0.1742  0.2166
13379W        W23072   9.394  14.360  12.046 -0.3045 -0.0957 -0.0677
13380W        W23073  10.885  11.800  12.307  0.0492  0.1292 -0.0602
13381W        W23074   0.700  11.818  15.988  0.1875 -0.0983  0.2414
13382W        W23075   5.690  13.896  15.776 -0.0079 -0.2899 -0.1352
13383W        W23076   7.929  13.447   4.260  0.0780 -0.0736 -0.0145
13384W        W23077  10.162   3.869   0.390 -0.1000 -0.1274  0.2946
13385W        W23078  12.397   3.175   0.621  0.3534  0.1509  0.0239
13386W        W23079   6.893   4.515  13.909 -0.1754 -0.0394  0.2164
13387W        W23080  16.049   9.793  15.904  0.1837 -0.2183  0.2039
13388W        W23081   2.999   0.038  12.713 -0.0342 -0.0165  0.1214
13389W        W23082   3.328   5.321  15.982  0.3186 -0.2187 -0.2617
13390W        W23083  15.873   8.614   4.900  0.1768 -0.1870 -0.2439
13391W        W23084  13.512  13.728  16.980  0.0177 -0.0993  0.2866
13392W        W23085  17.160   3.591   2.290 -0.1703  0.1250 -0.1527
13393W        W23086   3.496  16.417  15.015  0.1493 -0.0257 -0.0500
13394W        W23087   6.662  14.528   3.874  0.0373 -0.0917  0.2409
13395W        W23088   9.233  11.792  13.207  0.1866  0.1032  0.4492
13396W        W23089   9.997  13.865   1.639 -0.2958 -0.0156 -0.1918
13397W        W23090   4.800   7.984   2.343 -0.0988 -0.1186  0.2977
13398W        W23091  10.998   7.160  14.938  0.1337 -0.2509 -0.3810
13399W        W23092   4.808  10.293   6.478  0.0876 -0.0392 -0.0519
13400W        W23093   2.298   2.992   2.744 -0.2732 -0.0938  0.2126
13401W        W23094  14.176   0.066  14.626  0.0106  0.2987  0.4301
13402W        W23095   2.806   2.834  16.962  0.2180  0.0962 -0.1592
13403W        W23096   4.869  16.364   1.329  0.1455  0.0805  0.1896
13404W        W23097   9.641   1.697  14.012  0.0969  0.0993  0.1738
13405W        W23098   6.569   4.634  16.261  0.0754  0.2436 -0.2065
13406W        W23099   0.886  10.662   1.224  0.0782 -0.0446 -0.0475
13407W        W23100  11.153   1.604  11.593  0.0534 -0.0629 -0.0599
13408W        W23101   6.561   1.369   0.453  0.0414  0.0756 -0.0454
13409W        W23102  13.178  12.985   1.486  0.3808  0.0588 -0.1315
13410W        W23103  16.836  11.545   5.082  0.4075  0.0007  0.0828
13411W        W23104  15.355   1.600   5.708 -0.1305 -0.0066  0.3121
13412W        W23105   4.472   8.344   0.909  0.1063  0.0005  0.3207
13413W        W23106   4.212   9.763  14.101 -0.1725 -0.1785 -0.3688
13414W        W23107  16.828  17.682  15.291 -0.1430  0.3207 -0.0784
13415W        W23108   7.841  16.632  13.663 -0.2782 -0.1438  0.0326
13416W        W23109   0.264  15.388  13.774  0.0618  0.1065 -0.1964
13417W        W23110   1.773   3.422  15.620  0.0757 -0.0188 -0.4490
13418W        W23111   4.363   7.653  12.054  0.0893  0.0758 -0.0767
13419W        W23112   2.013   3.887  13.655  0.0811 -0.1593  0.1192
13420W        W23113   4.930   0.155   0.431  0.3217 -0.0443 -0.0699
13421W        W23114   2.244   7.231   5.970  0.1714 -0.0171 -0.1628
13422W        W23115   5.700   1.525   1.488 -0.0750  0.0367  0.0448
13423W        W23116   8.947  16.712  13.213  0.4482  0.0569  0.1932
13424W        W23117  11.172   8.280   0.904  0.0458 -0.1228 -0.1882
13425W        W23118   5.778  12.433   6.424  0.0122  0.0526  0.2325
13426W        W23119   8.839   5.162   6.777  0.0044  0.0489 -0.1347
13427W        W23120  13.072   8.637   3.131  0.0469  0.1299  0.0087
13428W        W23121   5.137  10.321   0.340 -0.0133  0.1787  0.0551
13429W        W23122   4.745   0.066  15.377  0.1088 -0.3556  0.0362
13430W        W23123  15.628   3.763   4.598 -0.1310 -0.1098 -0.1339
13431W        W23124  14.413  13.844   3.742 -0.1297  0.2320  0.1646
13432W        W23125   3.449   3.007  11.910 -0.1859  0.2619  0.0595
13433W        W23126   7.573   1.130  15.588 -0.3776  0.3552 -0.1153
13434W        W23127   0.140  14.227   2.833  0.1201 -0.4367  0.2207
13435W        W23128  14.080  14.247  13.152 -0.0858 -0.2500  0.1094
13436W        W23129   0.592   1.211  15.967 -0.0866  0.0827  0.2417
13437W        W23130   7.901  17.004  15.794 -0.0623 -0.1119  0.0733
13438W        W23131   4.203  10.886  10.832 -0.2492 -0.0988  0.2447
13439W        W23132  12.148   4.858  14.973 -0.1750  0.0741 -0.1525
13440W        W23133   5.893   8.321  13.581 -0.1047  0.2641  0.2503
13441W        W23134   7.072  15.611   2.123  0.2271  0.1831 -0.0937
13442W        W23135   8.329  17.953   3.344  0.1293  0.2161 -0.0142
13443W        W23136  12.018   3.905   2.974 -0.0769 -0.1566  0.1656
13444W        W23137   3.805  16.999  12.212  0.0186  0.1488 -0.0881
13445W        W23138   4.019  10.000   3.778 -0.0875 -0.0838 -0.0173
13446W        W23139  16.331   8.434  13.115  0.0275 -0.1068  0.1834
13447W        W23140   7.000   8.227   5.358  0.1511 -0.3731  0.1066
13448W        W23141  14.954   7.405  13.798  0.0035 -0.1646  0.2787
13449W        W23142  16.317   1.783  13.741 -0.0345 -0.0234 -0.3586
13450W        W23143  16.876   8.045  12.499  0.1837  0.2740 -0.3596
13451W        W23144   4.528   9.615  15.033 -0.0755  0.0052 -0.3054
13452W        W23145   5.907   8.376  14.916 -0.0488 -0.3115  0.0114
13453W        W23146   3.010   7.774  15.732 -0.0281  0.0263  0.1787
13454W        W23147   8.341  16.180   1.064 -0.1588  0.0073 -0.0996
13455W        W23148   6.891   0.505  16.238  0.1179 -0.2183  0.0535
13456W        W23149  16.697   2.996  12.622  0.0722  0.3427 -0.0473
13457W        W23150  14.464   7.328  10.793 -0.1225  0.2318 -0.0968
13458W        W23151   1.899   8.262   0.296 -0.0515 -0.0143  0.2931
13459W        W23152   3.089   0.540  16.270 -0.0623  0.1672 -0.0578
13460W        W23153  17.213  16.793   2.292  0.1561 -0.0407 -0.1331
13461W        W23154   6.891   6.456  15.283  0.0641  0.1865 -0.1311
13462W        W23155  12.009   0.317  14.725  0.1709  0.2996 -0.0141
13463W        W23156   0.216   9.670  11.696 -0.1577  0.0262 -0.0171
13464W        W23157  13.435  13.745   5.201 -0.0237 -0.1184 -0.0975
13465W        W23158   4.567   8.546  16.095  0.2279 -0.0344  0.0110
13466W        W23159   8.559   7.167   4.386 -0.1738 -0.0411  0.1060
13467W        W23160   7.501  10.901   3.953  0.0154  0.0364 -0.1552
13468W        W23161   8.505  11.772   0.957  0.2089  0.2058  0.0645
13469W        W23162   5.843   6.238  12.083  0.1324 -0.2027  0.2527
13470W        W23163   4.595  10.080   4.607  0.0523 -0.2164 -0.0928
13471W        W23164  16.999   0.906   1.461  0.1170  0.4342  0.1151
13472W        W23165   3.983  12.114  12.414 -0.1517  0.0537  0.1196
13473W        W23166   1.251  17.302   2.910 -0.1266  0.0018  0.0812
13474W        W23167   7.962  11.709   5.019 -0.2764 -0.2546 -0.3158
13475W        W23168  12.102   8.594   3.944 -0.0944  0.2044 -0.3072
13476W        W23169  10.881  16.752   4.511 -0.2173 -0.0754  0.0999
13477W        W23170   6.839   7.177   0.439  0.0242  0.0438 -0.1511
13478W        W23171   5.583   0.039  12.433 -0.0599 -0.1829  0.0898
13479W        W23172   9.259   9.983   4.338 -0.1427  0.3471 -0.0162
13480W        W23173   7.954   4.313  15.202 -0.4525  0.0315  0.3520
13481W        W23174   3.320   5.506  13.937  0.0494 -0.3218  0.2831
13482W        W23175   5.077   7.714   1.986 -0.1133  0.0507  0.1366
13483W        W23176  16.866  10.393   3.322 -0.0566 -0.5315  0.0756
13484W        W23177   5.607   7.711   5.705  0.0804  0.0218 -0.2983
13485W        W23178   1.767  10.637   4.010  0.1285 -0.1211 -0.0626
13486W        W23179   5.171  14.442   5.461  0.1928  0.1312  0.0869
13487W        W23180   5.686  17.120  11.418  0.1362  0.3101 -0.3531
13488W        W23181   5.512   6.364  14.480  0.0348  0.2219 -0.1746
13489W        W23182  10.036   0.393  14.425  0.1271 -0.1449  0.1859
13490W        W23183   8.135   0.900   2.802 -0.2547  0.0322 -0.2342
13491W        W23184   4.315   0.887  16.765  0.0237 -0.0237  0.1238
13492W        W23185   2.814   1.607  13.314 -0.0012 -0.1103  0.2491
13493W        W23186   4.081  13.635  14.732 -0.1183 -0.0199 -0.1301
13494W        W23187  15.878   1.070  15.594  0.2571 -0.4016 -0.3714
13495W        W23188   7.389  17.573   1.941  0.2085 -0.0404 -0.0266
13496W        W23189  13.004  14.716  12.234  0.1612 -0.2063 -0.2048
13497W        W23190   7.530   8.699   6.470  0.0332 -0.0093  0.2757
13498W        W23191  13.777   4.475  16.726  0.0343 -0.1564 -0.2551
13499W        W23192   1.943  12.370   4.022  0.1626  0.1577  0.1509
13500W        W23193   3.212  16.176  14.106 -0.0705  0.0321  0.0495
13501W        W23194   5.279   7.025   4.057  0.0201 -0.1217  0.0634
13502W        W23195   8.769  12.756   2.000  0.1926  0.2271  0.2668
13503W        W23196  16.285   6.477   1.809 -0.4116 -0.0136  0.0532
13504W        W23197  17.632  16.139   2.872  0.1858  0.0157 -0.1574
13505W        W23198   3.448  11.202   1.557 -0.0102  0.0607  0.1017
13506W        W23199  11.292   9.693   1.065 -0.1873  0.0644  0.2660
13507W        W23200   2.428   1.385  11.778 -0.2294 -0.0076  0.0220
13508W        W23201   7.572   5.802   2.267 -0.0996  0.1919  0.0156
13509W        W23202  10.169  16.185   2.164 -0.1274 -0.0908  0.1088
13510W        W23203   2.231  11.062   6.751 -0.1507 -0.2024  0.3924
13511W        W23204   6.761   2.478   5.344 -0.1208 -0.0026 -0.3439
13512W        W23205   2.094  17.852   3.778  0.0490  0.1693 -0.1117
13513W        W23206   0.625   2.262   3.609  0.1149  0.1648 -0.1258
13514W        W23207  10.279  12.602   1.504 -0.0098 -0.2224  0.0785
13515W        W23208   7.996   1.522   0.434  0.1277  0.0658  0.1214
13516W        W23209   4.113   8.175  11.531  0.1515  0.1133 -0.0147
13517W        W23210   9.102  15.673  16.073  0.2070  0.0655 -0.2369
13518W        W23211   1.392  10.884  11.214 -0.0488  0.3115 -0.1464
13519W        W23212  13.057   8.864   4.487 -0.0940 -0.2008  0.1308
13520W        W23213   3.259  16.811   4.614 -0.1239 -0.0037  0.0839
13521W        W23214   4.365   5.451   0.676  0.0382  0.0094  0.0444
13522W        W23215  15.120  15.929   6.599  0.1238 -0.0518 -0.0717
13523W        W23216  15.127  10.680  12.613  0.3319  0.1599  0.4168
13524W        W23217   0.296   6.665   5.515 -0.1917  0.1074 -0.1187
13525W        W23218   7.608   9.969   4.174 -0.0482 -0.1982  0.2316
13526W        W23219   0.062   9.925  13.336  0.0681 -0.1669 -0.1979
13527W        W23220   3.018   6.950   6.411 -0.3713 -0.2648  0.1933
13528W        W23221   2.816   9.664   6.412  0.2718  0.1313  0.2024
13529W        W23222  14.536   9.289   4.383 -0.1199  0.0629  0.2543
13530W        W23223   3.211  13.641   3.927  0.0637 -0.2714 -0.0132
13531W        W23224  12.416  17.531  12.690  0.0532  0.0512 -0.0501
13532W        W23225   9.611   6.816  13.857 -0.2761 -0.0530  0.5110
13533W        W23226   2.789   7.923   1.921  0.1885  0.1053 -0.0823
13534W        W23227   0.801  12.398  14.055  0.4343 -0.2642 -0.2495
13535W        W23228   1.084  11.610   1.588  0.1000 -0.0886  0.0143
13536W        W23229   0.948  14.818   2.249 -0.2395 -0.2651  0.1491
13537W        W23230   5.965   7.585   1.290 -0.1327  0.3029  0.3303
13538W        W23231   1.084   0.787  15.071  0.0929 -0.1476 -0.0866
13539W        W23232   9.752  16.249  15.970 -0.0015 -0.0898 -0.1012
13540W        W23233   6.307   2.941  12.454 -0.1929 -0.3119 -0.1516
13541W        W23234   8.389  13.790  15.192  0.1811  0.3321  0.1460
13542W        W23235   9.265   1.415  12.121  0.1673 -0.1051 -0.0069
13543W        W23236   3.148   8.745  16.098 -0.0839 -0.1192  0.3222
13544W        W23237   6.348  13.586  11.523 -0.0288  0.1005  0.3472
13545W        W23238  13.125   1.161   3.764  0.0219  0.1161 -0.1034
13546W        W23239   5.774   8.502  13.072 -0.1530 -0.0649 -0.2263
13547W        W23240   9.641   1.020  12.410 -0.1031 -0.0779 -0.0190
13548W        W23241  10.559  16.370   0.097 -0.1375  0.1709  0.0025
13549W        W23242   5.711   2.649  14.075  0.3947 -0.1311  0.3729
13550W        W23243   7.314  10.394   6.633  0.0382 -0.5518 -0.0563
13551W        W23244   4.761   2.721   0.773 -0.0955  0.0908 -0.0843
13552W        W23245   5.934  14.841  12.187  0.1152  0.3048 -0.1659
13553W        W23246  14.022  10.674   5.307 -0.1061 -0.1041  0.3406
13554W        W23247  14.964  17.732   2.004 -0.2030 -0.1596 -0.1634
13555W        W23248   7.313   3.909   5.877 -0.0119  0.0287 -0.4296
13556W        W23249  14.140   7.186  15.742  0.2509 -0.1773 -0.1407
13557W        W23250   6.101   1.621   5.431 -0.0387 -0.2655 -0.1264
13558W        W23251   9.049  16.490   3.208 -0.1962  0.1582  0.1448
13559W        W23252   8.712   4.018   0.816 -0.0216  0.1303  0.0052
13560W        W23253  17.724  16.252  13.844 -0.0133  0.2075  0.1536
13561W        W23254   1.041  15.436  11.191  0.2071 -0.0236 -0.0374
13562W        W23255   9.332  15.201  16.897 -0.0045  0.2759  0.0627
13563W        W23256   9.357   5.584   2.685  0.3436  0.1581  0.2450
13564W        W23257   6.946   7.542   4.228 -0.1533  0.1418  0.3057
13565W        W23258   5.655   9.318   5.691  0.3339 -0.2004  0.2248
13566W        W23259   5.234   6.964  12.878 -0.2227 -0.0814 -0.1209
13567W        W23260   4.393  13.919  14.393  0.1458 -0.0359 -0.1093
13568W        W23261   8.734  11.114  16.091  0.4573 -0.2082 -0.2395
13569W        W23262  17.151   7.336   3.750  0.1134  0.0574  0.1917
13570W        W23263   8.318  16.655   5.367 -0.0696 -0.0144  0.0791
13571W        W23264  15.758   0.795   1.355 -0.0157 -0.0456 -0.2238
13572W        W23265   1.718   2.038  13.051  0.1853  0.1336  0.0895
13573W        W23266   6.914   5.402  15.156 -0.1117  0.3512 -0.1111
13574W        W23267   7.609  12.042  13.329 -0.0089 -0.0975  0.0136
13575W        W23268  15.850  15.147  14.999  0.0299 -0.4262  0.0080
13576W        W23269   4.956   3.913  15.734 -0.0353  0.1164  0.1197
13577W        W23270   3.139   9.987   6.661 -0.1226  0.2857  0.1143
13578W        W23271   4.130   3.645  10.883  0.3677  0.0081  0.4142
13579W        W23272   5.442   3.709  14.806 -0.0427 -0.1161 -0.2595
13580W        W23273   1.813   1.092   0.824 -0.0066 -0.2620 -0.0884
13581W        W23274  16.285  11.055   0.101 -0.3161  0.0818  0.2419
13582W        W23275   6.469   1.720   0.811 -0.1881 -0.0332  0.0049
13583W        W23276  11.484  15.694   1.106 -0.0362  0.0499 -0.1525
13584W        W23277   7.845  15.042   6.249 -0.1420 -0.1210  0.5412
13585W        W23278   6.643   3.786  14.387  0.0564  0.0419 -0.0983
13586W        W23279  11.785  16.993  12.081 -0.0355 -0.1438 -0.0004
13587W        W23280  10.659   2.487  12.908 -0.0803  0.1476  0.2981
13588W        W23281   6.636  16.861   5.049  0.2081 -0.0555 -0.0047
13589W        W23282   5.485   5.320  15.539  0.1859 -0.0473  0.2057
13590W        W23283   0.467   3.369  15.310  0.0824  0.2726  0.0255
13591W        W23284   6.999  10.047   1.735  0.1904  0.0857 -0.2308
13592W        W23285   7.781  10.549   0.327  0.1382  0.1674  0.0471
13593W        W23286  13.574  15.685   0.414 -0.1413 -0.1694  0.4340
13594W        W23287   1.551   6.465  14.489  0.1823 -0.1480  0.0544
13595W        W23288  10.660   1.053  10.299 -0.1299  0.0349  0.3526
13596W        W23289   6.079   2.482   0.295  0.1104  0.0320 -0.2445
13597W        W23290   8.888  13.436   2.583  0.0438  0.0025 -0.1618
13598W        W23291  10.151  17.168   3.072 -0.2567  0.2004 -0.1160
13599W        W23292   9.438  14.774   3.613  0.1439 -0.0475  0.4458
13600W        W23293   4.958  14.982  14.639 -0.1961 -0.0035 -0.0459
13601W        W23294   6.598  11.698   0.664  0.1797  0.1042  0.3233
13602W        W23295   0.568  16.367   1.606 -0.1046  0.2406 -0.0964
13603W        W23296   7.813   1.956  16.489 -0.0760  0.2325 -0.2853
13604W        W23297   0.105  15.455   2.049 -0.2020  0.1290  0.2036
13605W        W23298  10.583   6.711   2.477  0.0030  0.1253  0.0377
13606W        W23299   1.212  12.499   0.194  0.1834  0.3559 -0.0715
13607W        W23300   9.512  16.648  15.728  0.0178 -0.0529  0.1587
13608W        W23301   6.232   4.520   4.699 -0.2282  0.0397  0.2325
13609W        W23302  17.162  16.388  12.226  0.2439 -0.1099 -0.0399
13610W        W23303  14.850   0.733  17.000  0.2590 -0.2031 -0.1795
13611W        W23304   1.019  17.044   1.571 -0.1736  0.0938  0.0646
13612W        W23305   3.183   5.565   5.211 -0.0243  0.1677 -0.0534
13613W        W23306   2.455  12.613   5.718  0.1463 -0.1715 -0.1559
13614W        W23307   1.256  12.705   2.621  0.0530 -0.0049 -0.2661
13615W        W23308  11.746  13.809   6.338 -0.3154 -0.0864 -0.2073
13616W        W23309  13.242  12.480   3.096  0.0339 -0.0001 -0.2697
13617W        W23310  10.284  12.538   4.880 -0.0394 -0.1136 -0.0439
13618W        W23311  17.659  12.594  15.538  0.2991  0.0608  0.2292
13619W        W23312   5.241   4.464   6.796 -0.1558 -0.1627  0.0268
13620W        W23313   2.422   1.204  12.754  0.0078 -0.0711 -0.2289
13621W        W23314  12.565   6.987   6.939  0.1143  0.0803 -0.1988
13622W        W23315   4.448   4.073  12.459  0.1622 -0.0256  0.1824
13623W        W23316   3.999   7.547   3.948 -0.2045 -0.0231 -0.1103
13624W        W23317   6.022   8.422  16.208  0.0297 -0.0093  0.1081
13625W        W23318  14.778  11.868  12.756 -0.0891  0.1249 -0.0383
13626W        W23319   6.086   3.269   1.793  0.2217  0.3246  0.0281
13627W        W23320   8.698   2.096  16.754  0.0980  0.0214 -0.0714
13628W        W23321   1.857  17.766  14.259  0.0016  0.0438 -0.2077
13629W        W23322   2.181   4.995  15.184  0.3479 -0.4135  0.2456
13630W        W23323   4.030   4.603   6.150  0.1512  0.2409  0.0436
13631W        W23324   4.420  11.967   0.139 -0.2023  0.0906 -0.2229
13632W        W23325   4.750   9.516   5.905 -0.3454 -0.1433 -0.0247
13633W        W23326  12.560   9.827  13.621  0.1056 -0.2199  0.0162
13634W        W23327   9.052  10.115  15.737  0.0345 -0.2730  0.1468
13635W        W23328   3.357   9.480  11.575 -0.1660 -0.1180  0.1703
13636W        W23329   4.633   4.190  15.958 -0.0792  0.1371 -0.1517
13637W        W23330   9.319   6.489   5.436  0.0331 -0.2168  0.0274
13638W        W23331   3.156  10.171  14.394  0.3100  0.1098 -0.0987
13639W        W23332   6.947   8.062   1.891  0.1878  0.2269 -0.0406
13640W        W23333  11.628   5.634   2.805  0.0210 -0.0996 -0.4460
13641W        W23334  14.144  12.630  12.352  0.0779  0.0632  0.1087
13642W        W23335   1.813   8.596  12.289 -0.0703 -0.1614 -0.0222
13643W        W23336  17.459   8.805  15.065 -0.0253  0.1341  0.0664
13644W        W23337   5.178   2.746  14.810 -0.1108 -0.0166  0.0236
13645W        W23338   4.483   4.737   6.020  0.0698  0.0534 -0.0740
13646W        W23339   1.547  15.658  14.890  0.1466 -0.2254  0.1153
13647W        W23340   6.574   2.287   1.102  0.2492  0.0681  0.0989
13648W        W23341   4.606   9.675   1.063 -0.0082  0.5994  0.0647
13649W        W23342   6.399  15.562  11.707 -0.0656 -0.5096  0.1631
13650W        W23343  15.218   8.094   1.311 -0.0295  0.0380  0.3681
13651W        W23344   2.897  11.411   3.436 -0.1618 -0.1890 -0.1157
13652W        W23345   7.556  15.168   1.731  0.0837  0.0225 -0.1888
13653W        W23346   4.531  16.869  14.389  0.0329  0.0825  0.5412
13654W        W23347   2.411   2.276   3.891  0.0109 -0.1580  0.2295
13655W        W23348  17.724  15.651  11.033  0.0337 -0.1938 -0.0245
13656W        W23349   1.814  14.117  16.612  0.2076 -0.3071 -0.4312
13657W        W23350   2.769  17.417  16.017 -0.2316  0.0664  0.1323
13658W        W23351  13.745  12.666  12.072  0.3514 -0.1385 -0.2966
13659W        W23352   1.536   7.113  11.465  0.1694  0.1140  0.0902
13660W        W23353  12.648   1.290  15.848 -0.2406 -0.0184  0.0471
13661W        W23354   2.745  13.362   3.862 -0.1792 -0.0704 -0.1878
13662W        W23355   2.904   8.330   5.884  0.3033 -0.1099 -0.0638
13663W        W23356   5.125   1.850  13.289  0.1753  0.1271 -0.1327
13664W        W23357  10.436   7.571  12.341  0.0926  0.0513 -0.0738
13665W        W23358  15.081  10.002   1.698  0.2920  0.2472 -0.0950
13666W        W23359   8.074   6.785   3.094 -0.1104  0.4123 -0.1860
13667W        W23360  15.412   2.882  12.534  0.0703  0.0848  0.0142
13668W        W23361  15.550   4.468   1.817  0.2723 -0.0002 -0.0144
13669W        W23362   8.859   3.835   2.285 -0.0335 -0.2648 -0.0004
13670W        W23363   2.480   9.272   0.295  0.1025  0.0544  0.0672
13671W        W23364   5.798   5.195  14.251 -0.3701  0.0602 -0.2529
13672W        W23365  10.219  17.910  14.371  0.2155  0.0030  0.5999
13673W        W23366   4.532  17.132  11.072  0.1992  0.0024  0.1223
13674W        W23367   9.443   7.975   5.081  0.0178 -0.2629 -0.0530
13675W        W23368   5.986  14.286   5.291 -0.4042  0.2158  0.0281
13676W        W23369   7.628   5.777  13.894 -0.1097 -0.0910 -0.3236
13677W        W23370   9.356  15.012   5.908  0.1963  0.1284  0.0496
13678W        W23371  14.238   0.913  10.946 -0.0455 -0.3423  0.3359
13679W        W23372  11.095   0.453   0.243  0.0977  0.0841  0.3786
13680W        W23373   9.987  17.021   2.085 -0.2010 -0.1252 -0.1349
13681W        W23374   1.604   6.622  13.141 -0.0361 -0.2145  0.1094
13682W        W23375   4.788   9.684   4.363  0.1479  0.0265  0.1773
13683W        W23376   3.677   9.051  12.228  0.0133 -0.2001 -0.0959
13684W        W23377  16.371  17.786  16.604 -0.2195 -0.0916  0.2552
13685W        W23378   5.455   5.315   2.392  0.3973  0.0032 -0.4060
13686W        W23379  11.812  10.877   1.692 -0.2184  0.1139 -0.0193
13687W        W23380   4.651   9.224   6.327  0.1844  0.3051  0.2057
13688W        W23381   3.111  12.108   1.765 -0.0236  0.0201 -0.2241
13689W        W23382  17.277  17.461  13.991 -0.3211  0.3792 -0.2658
13690W        W23383   5.497   3.125  14.695  0.0400 -0.1643  0.0725
13691W        W23384  11.873  17.699   1.437 -0.1790  0.1458  0.1311
13692W        W23385  14.402  15.687   1.795  0.2084 -0.0461 -0.3329
13693W        W23386   7.399   9.364  10.863  0.0613 -0.0534 -0.0732
13694W        W23387   6.997   6.068   0.058  0.3219  0.1442  0.1965
13695W        W23388   1.725   5.664   5.863 -0.1658 -0.3459 -0.0569
13696W        W23389   2.844   2.100   2.226 -0.0095  0.0570  0.0964
13697W        W23390   2.312  17.850   0.116 -0.1891  0.1175 -0.1692
13698W        W23391  15.132   4.755   4.059 -0.2469 -0.0201 -0.0175
13699W        W23392   5.498  16.370   4.211  0.2245  0.3385 -0.2487
13700W        W23393   8.201  12.255   6.104  0.1668  0.3131 -0.2208
13701W        W23394   4.424   6.113  15.175  0.1300  0.1155 -0.1634
13702W        W23395   0.724  12.685  16.366 -0.0051 -0.0634 -0.0838
13703W        W23396  16.846   9.264  14.543 -0.2671  0.1074 -0.2162
13704W        W23397  13.804   4.354   1.631 -0.1672  0.3812 -0.2388
13705W        W23398  15.222  11.981   6.026  0.0684 -0.1780 -0.4672
13706W        W23399   5.034  14.231   0.181  0.1523 -0.1070 -0.0763
13707W        W23400  17.236   4.927  11.224  0.0498  0.0308  0.1824
13708W        W23401  10.505   4.811   4.493  0.0713 -0.2613  0.0259
13709W        W23402  11.197   7.086   1.276 -0.1342 -0.1367  0.0230
13710W        W23403   8.732  15.503  13.790  0.1631  0.1029 -0.1068
13711W        W23404   6.776   9.607  14.885 -0.2069 -0.0408  0.0716
13712W        W23405   1.813   4.961   5.132 -0.2224  0.1996 -0.0192
13713W        W23406  15.814   4.132   5.949 -0.0640 -0.0796  0.2179
13714W        W23407   7.169  16.072   0.383 -0.2150  0.2474  0.2491
13715W        W23408   5.006   0.892  13.799 -0.0625 -0.0335  0.2861
13716W        W23409   4.149  17.791  15.548  0.1306 -0.1048 -0.2708
13717W        W23410   8.233   1.805  16.639  0.2845 -0.3439  0.2262
13718W        W23411   5.071   7.250   1.385  0.0297 -0.1308  0.1497
13719W        W23412  10.585  17.476   6.206  0.1161 -0.1974  0.0580
13720W        W23413  14.148   0.399  10.704  0.0156 -0.0154  0.0657
13721W        W23414   3.326   5.310  16.492 -0.1330  0.0962 -0.1613
13722W        W23415  16.745  12.969   2.565  0.0401  0.1082  0.0371
13723W        W23416  12.146  13.257   1.115  0.1045 -0.1035 -0.3121
13724W        W23417   6.934  11.378   4.928  0.3476  0.2679  0.1128
13725W        W23418  14.292  17.104   1.876 -0.3235 -0.1261 -0.0261
13726W        W23419   4.748  17.291   1.438 -0.0808 -0.0696 -0.1005
13727W        W23420  17.609   3.289  15.478  0.2701 -0.0756  0.0750
13728W        W23421   2.519   2.928   1.987  0.1019  0.2936 -0.1540
13729W        W23422   8.224   0.514  14.204  0.0248 -0.1036 -0.2952
13730W        W23423   9.641   0.641   6.400  0.0185  0.3168  0.3100
13731W        W23424  11.469  14.177   6.118 -0.0137  0.1060 -0.2206
13732W        W23425   2.806  12.509   2.409  0.1186  0.2450  0.0467
13733W        W23426   5.364  15.996   4.557 -0.2310 -0.1768 -0.0524
13734W        W23427   4.459  17.079  11.737  0.0147  0.0678  0.1378
13735W        W23428   0.732  13.248  11.671 -0.0717 -0.1707 -0.2838
13736W        W23429   4.308  12.367  12.934  0.1061 -0.0137 -0.2072
13737W        W23430   3.577  16.383  16.335  0.1445  0.2588 -0.1398
13738W        W23431   9.256   5.370   0.981  0.0745 -0.5615 -0.0712
13739W        W23432   2.397   3.528   0.831  0.4059  0.3868  0.0266
13740W        W23433  10.319  17.077  13.196  0.0329  0.2387  0.0858
13741W        W23434   8.989   9.818   2.768  0.4633 -0.0213 -0.2083
13742W        W23435  15.522  14.869  12.314 -0.0270 -0.0561  0.1267
13743W        W23436  10.146   1.922   1.982 -0.0471  0.1429  0.4652
13744W        W23437   2.678   2.578  15.010  0.5570 -0.0620 -0.2850
13745W        W23438  17.369   6.701   1.450 -0.2358 -0.1285 -0.0675
13746W        W23439  16.163  14.908  16.326  0.1669  0.0083 -0.0814
13747W        W23440   9.631   5.808   0.918  0.2337 -0.2500 -0.2181
13748W        W23441  11.902  14.439  14.129  0.2537  0.4152 -0.1006
13749W        W23442   9.697  16.753   0.564 -0.2327  0.1265  0.0762
13750W        W23443  12.801   5.232   1.666  0.1567  0.0239  0.2454
13751W        W23444   3.871   6.612  12.570  0.3187 -0.1619  0.0789
13752W        W23445   5.932   9.224   3.206  0.2239 -0.0771 -0.1620
13753W        W23446   2.352   7.836  16.110  0.0246 -0.3819 -0.0685
13754W        W23447   1.443   6.698   4.132 -0.2444 -0.3270 -0.1645
13755W        W23448   5.894  10.529   2.559 -0.0350  0.1616 -0.3952
13756W        W23449   6.721  17.728   4.867  0.2070  0.0043  0.1148
13757W        W23450   2.348  12.810   0.037  0.1262 -0.0116  0.0325
13758W        W23451   7.736   3.279  12.645 -0.0207  0.2386  0.0893
13759W        W23452   9.241  16.219  15.905  0.0557  0.0298 -0.0970
13760W        W23453  14.426  13.741   1.093 -0.1766 -0.0178  0.4557
13761W        W23454   1.620   7.373   4.631  0.1016 -0.0767  0.0277
13762W        W23455   7.554  13.660   1.293 -0.0977  0.0444  0.0203
13763W        W23456  12.022   1.081  16.072 -0.2820 -0.0750 -0.0518
13764W        W23457   4.206  11.534  15.153 -0.0619  0.0714  0.3249
13765W        W23458  14.641  10.859  15.014  0.2288  0.3249 -0.0324
13766W        W23459   9.097  14.527   6.752  0.1206  0.2866  0.3875
13767W        W23460  11.866   8.340   3.631 -0.0755  0.0481  0.3976
13768W        W23461   0.877  13.096  13.775 -0.1791 -0.1645 -0.1191
13769W        W23462   4.168   4.674   5.318 -0.0195 -0.0524  0.2019
13770W        W23463   9.304   4.674   2.725  0.1045  0.1335  0.2261
13771W        W23464   4.894  16.439   6.553 -0.2069  0.0901  0.3354
13772W        W23465  17.562   7.551   0.473 -0.0501  0.1597 -0.4451
13773W        W23466  12.143  16.179   1.000  0.0726 -0.0300  0.2396
13774W        W23467   0.623  16.843  11.337 -0.1369  0.2054 -0.1403
13775W        W23468   8.432  13.562   2.104  0.0129 -0.4099 -0.0386
13776W        W23469   8.260  12.415  12.044  0.0264  0.1247  0.0226
13777W        W23470  15.988   6.754  17.027  0.3158  0.1876  0.3785
13778W        W23471   5.278  10.479   6.340 -0.2509 -0.3949 -0.1846
13779W        W23472   6.174   9.657  16.676  0.1291  0.1696  0.1564
13780W        W23473  12.407  13.060   2.691  0.2185 -0.2679  0.1078
13781W        W23474   4.221  17.430  16.496  0.1744  0.0129 -0.1173
13782W        W23475   4.467   5.884   0.311  0.0414 -0.2010  0.0374
13783W        W23476  14.497  16.916  12.665  0.0644  0.1180 -0.0457
13784W        W23477   3.588  10.256   6.611  0.0762 -0.2801 -0.3223
13785W        W23478   8.904   8.804   6.351  0.3657 -0.2477  0.0982
13786W        W23479   3.043  13.680  11.933 -0.0003  0.1756 -0.0396
13787W        W23480   8.273   1.681  12.406  0.0327  0.1677  0.2455
13788W        W23481  12.410   1.049   4.300  0.1265  0.1755 -0.0390
13789W        W23482  15.924   8.188   3.941 -0.3311 -0.1017 -0.2462
13790W        W23483   6.262   2.671   2.699 -0.1511 -0.0219 -0.1298
13791W        W23484   3.717   2.292  17.073  0.0549  0.0043 -0.0253
13792W        W23485  13.704  10.891   0.290  0.1492  0.1113 -0.1931
13793W        W23486   4.966  15.881   1.528 -0.2801  0.2472  0.2103
13794W        W23487   4.778  12.898  14.401 -0.1024  0.0223 -0.4575
13795W        W23488   1.819  12.470   4.902 -0.0234  0.0545  0.0981
13796W        W23489   5.235  15.303   2.968 -0.1276  0.0053 -0.1575
13797W        W23490  13.040   2.597   2.379  0.0447 -0.0604 -0.0187
13798W        W23491  15.944  15.769   2.181  0.1246 -0.0600 -0.0821
13799W        W23492   1.207  14.621   2.699  0.1066 -0.4085 -0.1158
13800W        W23493   9.420  15.073   2.918 -0.1430 -0.0431  0.2467
13801W        W23494   6.084   2.943  15.827  0.0458  0.1843 -0.0178
13802W        W23495   9.118  14.550  12.933 -0.1382 -0.0752 -0.1500
13803W        W23496   6.319  12.177  15.416  0.1653 -0.0691  0.3151
13804W        W23497   9.317  17.257   0.466 -0.0313  0.1078 -0.1780
13805W        W23498   5.183  15.799  12.847  0.2138  0.3444 -0.0241
13806W        W23499   1.118   4.868  13.856 -0.0759  0.0905  0.0584
13807W        W23500  13.762  16.327   3.811  0.1261  0.0384 -0.2497
13808W        W23501   4.625   6.224  13.777 -0.1525 -0.0497  0.1623
13809W        W23502   7.037   4.902  15.082 -0.1051 -0.1495 -0.0441
13810W        W23503   8.285   3.899  16.441 -0.0743 -0.2139  0.3244
13811W        W23504   8.095   4.090   4.550  0.0340  0.2913  0.0097
13812W        W23505  11.894   9.357   1.667  0.0658  0.1282 -0.0120
13813W        W23506   0.931   3.640   3.292 -0.0558  0.1545  0.0647
13814W        W23507  10.556   9.252   5.597 -0.1292  0.2209  0.1279
13815W        W23508  13.314  11.691   2.866  0.1657  0.0365  0.1046
13816W        W23509   7.350   7.723   4.015  0.3470  0.2348  0.2296
13817W        W23510   8.257  16.018  12.044 -0.2847 -0.1617  0.0642
13818W        W23511   1.736  11.550   0.563 -0.1623  0.2733  0.1312
13819W        W23512   7.074  13.741  15.138  0.3162 -0.0398 -0.0662
13820W        W23513   0.486   4.349  16.199  0.1376  0.0052  0.0395
13821W        W23514  13.121   1.892   0.634  0.0179 -0.1098  0.1640
13822W        W23515  15.450  15.000   4.163 -0.3153 -0.0847  0.1133
13823W        W23516  11.772   3.099  14.893  0.3334 -0.0714 -0.0515
13824W        W23517   2.287  11.283   4.881  0.0596 -0.0132 -0.1020
13825W        W23518  17.868   7.943  16.796  0.0197 -0.0288  0.3704
13826W        W23519   1.641  11.128   3.641 -0.0139  0.1889 -0.2082
13827W        W23520   3.526   9.633   1.849 -0.1319  0.1170  0.1590
13828W        W23521   1.358   1.478  14.424  0.1902  0.0462 -0.0594
13829W        W23522   4.550  13.142   4.840  0.2629  0.0637  0.1410
13830W        W23523   2.453  17.359  16.980 -0.1835 -0.2442 -0.0633
13831W        W23524  16.690  16.132  16.289  0.0858 -0.1539  0.0276
13832W        W23525   5.402  10.593   2.744 -0.0053 -0.3253 -0.1324
13833W        W23526  17.784   6.178   3.341  0.0507 -0.1825  0.0831
13834W        W23527   4.724  11.022   2.928 -0.1281  0.4569  0.1120
13835W        W23528   4.082  12.721  15.232  0.0701  0.2566 -0.1510
13836W        W23529   7.775  16.831  16.360 -0.0683 -0.1098 -0.3052
13837W        W23530   9.134   2.430   4.660  0.1901 -0.1093 -0.3752
13838W        W23531   2.786  17.207   3.844 -0.0615  0.0612  0.1522
13839W        W23532   3.009  11.522  14.907 -0.1660 -0.0820 -0.2633
13840W        W23533  16.560   5.366  12.008 -0.1341  0.0090  0.2157
13841W        W23534   7.298   0.680  12.071  0.0831  0.3393 -0.1397
13842W        W23535   4.591   2.561  13.381  0.0411 -0.0041 -0.0015
13843W        W23536   7.991   7.521   4.000 -0.1603 -0.0458 -0.1991
13844W        W23537   5.399  15.462   4.406 -0.1697 -0.0269 -0.2268
13845W        W23538   8.214  15.699   1.279 -0.1171 -0.3010 -0.0879
13846W        W23539  12.984  16.534  12.146  0.3626 -0.4626  0.1941
13847W        W23540   6.761  12.508  16.180  0.0094  0.0201 -0.1394
13848W        W23541   4.566   6.709  13.611 -0.1138 -0.1726  0.2702
13849W        W23542   2.008   7.157   5.403  0.2494  0.0741 -0.3993
13850W        W23543   2.815  15.527  12.366  0.1805  0.1598 -0.0386
13851W        W23544  15.728   5.945   2.541  0.0757  0.0471 -0.0748
13852W        W23545   8.419  13.158   2.423 -0.1144  0.2234 -0.0048
13853W        W23546  17.615   8.197  12.614 -0.1755  0.0410 -0.3449
13854W        W23547  10.337   2.569   1.311 -0.0386  0.1201  0.2918
13855W        W23548   2.040  15.407  14.736 -0.0114  0.0318 -0.0368
13856W        W23549   8.532   9.390  16.925 -0.1463 -0.1555  0.4424
13857W        W23550  14.090   0.640  14.429  0.1221 -0.2652  0.1346
13858W        W23551  10.499  14.927   0.500  0.0773 -0.0009  0.1659
13859W        W23552   4.461   7.184  13.858  0.3967 -0.0479 -0.1252
13860W        W23553  17.569   0.869  15.422 -0.1175  0.0353  0.0293
13861W        W23554  17.778  17.933  15.025 -0.0978  0.0903  0.1211
13862W        W23555   2.773   5.933  17.030  0.0895 -0.0483 -0.0564
13863W        W23556  17.796  13.148  13.312 -0.0717  0.1513  0.0249
13864W        W23557   5.621   5.766   5.843  0.0670  0.0252 -0.1705
13865W        W23558   6.968   9.470  15.853 -0.1059  0.2183 -0.2669
13866W        W23559   7.060   7.948   6.322  0.1262  0.2550 -0.0878
13867W        W23560   1.615   9.776   5.453 -0.1303  0.1488 -0.1181
13868W        W23561   1.370   7.604  15.009  0.2953 -0.2874  0.2317
13869W        W23562   8.834   3.334   2.278  0.1117 -0.1266 -0.0754
13870W        W23563   0.587   2.012  14.444 -0.2684  0.0656 -0.3827
13871W        W23564   6.916  17.214   2.286 -0.2129  0.0220 -0.1124
13872W        W23565  17.870   4.300  11.241  0.0409  0.0215 -0.0266
13873W        W23566   3.327  15.703   0.606 -0.3088 -0.0476 -0.0935
13874W        W23567  14.501  16.034   4.540  0.0949 -0.1528  0.0328
13875W        W23568   6.462  16.403   6.349  0.0067 -0.2456 -0.2207
13876W        W23569   0.106   0.978   3.178 -0.2191  0.1359  0.1092
13877W        W23570   5.185   2.548   6.040  0.0222  0.0876 -0.0140
13878W        W23571   4.487  14.508  15.190  0.1646  0.1215 -0.0866
13879W        W23572   5.201  15.419   5.628  0.0689 -0.0872  0.0593
13880W        W23573   4.804  13.508  15.312  0.1768  0.3750 -0.1701
13881W        W23574   0.874   7.222  11.918 -0.0386 -0.2122  0.0030
13882W        W23575   1.240   7.790   1.384  0.0122  0.0006  0.2300
13883W        W23576   6.763   4.299  14.395  0.0835 -0.1595 -0.0266
13884W        W23577  10.358   6.277  13.891 -0.0193  0.0092  0.0378
13885W        W23578  15.869   9.775  11.721  0.0426  0.2246 -0.1768
13886W        W23579  16.924   3.651  15.147  0.0221  0.2208 -0.0360
13887W        W23580   4.218  15.834  16.005 -0.6166  0.2745 -0.0566
13888W        W23581   9.506  11.837  16.948  0.0088  0.1090 -0.1755
13889W        W23582   4.873  13.653   3.550 -0.3448 -0.0007  0.1343
13890W        W23583   5.084   1.217  14.148 -0.2066  0.0468 -0.0633
13891W        W23584   3.995  15.575  13.897 -0.0816 -0.1904  0.0143
13892W        W23585  17.170   4.708  11.669 -0.0497 -0.0217  0.2231
13893W        W23586   1.907   1.313   1.425 -0.1059  0.1154  0.3593
13894W        W23587   4.006   2.393   1.094 -0.0071  0.2480 -0.0088
13895W        W23588  15.526  13.743  13.836 -0.0448 -0.1829 -0.0498
13896W        W23589  10.304   2.833   0.143 -0.0944 -0.0543 -0.0488
13897W        W23590  14.257  10.635   2.323 -0.0998  0.3600 -0.0045
13898W        W23591  10.354   0.875   1.555  0.0868  0.1912  0.1812
13899W        W23592   3.219   2.373  12.641 -0.0912 -0.0641 -0.2852
13900W        W23593   6.039  16.411  16.379  0.2245 -0.2774 -0.3585
13901W        W23594  15.348   0.541   1.541 -0.0840 -0.4035 -0.2986
13902W        W23595   1.668  15.911   5.897 -0.2177  0.1579  0.3267
13903W        W23596   7.949   2.545  12.892 -0.3123  0.2080  0.0406
13904W        W23597   1.955   2.591   0.236  0.3040  0.0950  0.2672
13905W        W23598   0.863  16.163   0.444 -0.1177  0.0503 -0.2689
13906W        W23599  16.712   9.293  13.982  0.0457 -0.1567 -0.0154
13907W        W23600   3.080   4.806   5.687 -0.1857 -0.2093 -0.2056
13908W        W23601   2.419   0.764   5.788  0.1934  0.0604 -0.1397
13909W        W23602   6.920  16.578   3.432 -0.1284 -0.1183 -0.1043
13910W        W23603  16.749   3.102  11.275  0.0870  0.0905 -0.0542
13911W        W23604  15.206   1.904   0.340  0.1396 -0.0934 -0.1285
13912W        W23605   0.550   8.340  11.675 -0.2026  0.1805  0.1060
13913W        W23606   6.254   1.595  11.469  0.3604 -0.0684  0.2550
13914W        W23607   9.812  12.229   3.682  0.3303 -0.0098 -0.3351
13915W        W23608   4.838  13.688  12.767  0.4458  0.0888 -0.1413
13916W        W23609   3.694   8.472   2.814 -0.0719  0.1343 -0.1601
13917W        W23610   3.013   0.459  12.999 -0.0968 -0.4997  0.0546
13918W        W23611   3.391   0.184   0.809 -0.1692  0.0587 -0.4109
13919W        W23612   9.092  16.962  14.493  0.4007  0.0996 -0.1557
13920W        W23613  11.450   8.809  12.777  0.2220  0.0832  0.1977
13921W        W23614   4.962   6.981   3.636  0.3613 -0.0086 -0.0905
13922W        W23615   0.319  13.945  16.380 -0.1190  0.3426  0.0212
13923W        W23616   3.645   4.863   6.021 -0.1767 -0.2733  0.2757
13924W        W23617  13.238  11.207  14.365  0.2722  0.2268  0.0275
13925W        W23618  13.019   4.385  11.997  0.1503  0.2733 -0.1084
13926W        W23619   0.879  10.698   2.179 -0.1484 -0.2414 -0.1602
13927W        W23620   2.439   9.357   2.358  0.0776 -0.1864  0.5685
13928W        W23621  16.170   4.766   4.663  0.1061  0.0322  0.1419
13929W        W23622  10.350   2.830  13.637 -0.1836 -0.1971 -0.1737
13930W        W23623  13.451   3.432   1.721 -0.0373  0.4884 -0.1963
13931W        W23624   5.910   8.140  16.868 -0.0920 -0.2215 -0.1042
13932W        W23625  14.627  11.789   0.730 -0.1062  0.0914  0.0706
13933W        W23626   4.121  12.447  16.169  0.2210 -0.2488 -0.1697
13934W        W23627  14.850  14.167   0.517  0.1556  0.3665 -0.0609
13935W        W23628  12.246  15.628   4.396  0.1532 -0.1910  0.0797
13936W        W23629   8.753   5.359  16.754 -0.3066  0.3034  0.1040
13937W        W23630  10.973   3.031   5.903  0.4123  0.0009 -0.0193
13938W        W23631   8.660  11.367   4.780  0.1358 -0.1325  0.0377
13939W        W23632   9.072   6.901  13.452 -0.1686 -0.0815 -0.2525
13940W        W23633  11.044  14.879  16.841 -0.0819  0.2223  0.0968
13941W        W23634  11.561  13.635   0.472  0.1794 -0.0121  0.1257
13942W        W23635   9.856   6.596  15.165 -0.0950  0.3330  0.2250
13943W        W23636   3.867   0.053  13.100 -0.3300  0.1027 -0.1457
13944W        W23637  17.705   5.739  13.156  0.2517  0.0859 -0.0514
13945W        W23638  14.938  16.910  12.519  0.0035  0.3040 -0.0062
13946W        W23639   3.794   1.121  14.293 -0.1283  0.0266 -0.3825
13947W        W23640   1.353  13.903   0.942 -0.2063 -0.0130 -0.1911
13948W        W23641   1.270  10.783   0.194  0.1528 -0.0353 -0.0320
13949W        W23642   4.922   5.871   2.140 -0.1082  0.4407  0.2764
13950W        W23643   8.070   2.355   4.533  0.0217  0.1567 -0.1967
13951W        W23644   4.052   7.423   1.536 -0.1797 -0.1892  0.0093
13952W        W23645  13.328   0.523  16.450  0.0780 -0.0096  0.4555
13953W        W23646   0.839  16.536  15.775  0.0736 -0.0839 -0.3180
13954W        W23647   3.620  17.861  15.377  0.1441  0.1610 -0.1989
13955W        W23648   0.516   4.520  15.283  0.1071  0.0169  0.1971
13956W        W23649   4.580  17.210  12.508 -0.0141 -0.1128  0.0719
13957W        W23650   2.146   8.409   5.855  0.1266  0.3402  0.0696
13958W        W23651   6.377   8.767   3.963  0.3646 -0.0291 -0.0140
13959W        W23652  14.329   1.406   3.482  0.2015  0.2230  0.1063
13960W        W23653  13.379  10.458   6.684  0.1335 -0.2267  0.1274
13961W        W23654  12.618  11.193   4.969  0.1633  0.0830  0.0062
13962W        W23655   5.345   2.880   0.135  0.1063  0.2168  0.2139
13963W        W23656   1.866  13.784  13.084  0.0845  0.0616  0.0677
13964W        W23657   3.426  16.352   4.197  0.0103  0.3081 -0.0021
13965W        W23658   4.913   2.898   5.858  0.0940  0.1293  0.0502
13966W        W23659   2.865  10.178  13.428 -0.2231 -0.0546 -0.1404
13967W        W23660   7.645  14.482  13.771 -0.0631  0.2885  0.0049
13968W        W23661   2.988   7.591  16.243  0.3187 -0.0983  0.0915
13969W        W23662   2.140  17.342  14.403  0.0732 -0.1470 -0.2946
13970W        W23663  10.881   2.263  17.032  0.3577 -0.0975  0.1454
13971W        W23664  11.157   9.778  15.241 -0.1284 -0.0011  0.0867
13972W        W23665   2.462  10.349   2.423 -0.1789 -0.1932 -0.1307
13973W        W23666   1.461   8.599  12.620  0.2065  0.0227  0.2918
13974W        W23667   6.514   5.082   0.400  0.0225  0.0597 -0.0981
13975W        W23668  17.780  16.472   3.247 -0.0992 -0.2634  0.2919
13976W        W23669   3.756  17.116  14.257  0.0516 -0.2552 -0.1366
13977W        W23670   6.984  12.659  11.839  0.1815 -0.1355 -0.0724
13978W        W23671   4.196  11.398   3.591  0.2961 -0.3312  0.1459
13979W        W23672  12.943   6.471  17.087 -0.1961 -0.2486 -0.0105
13980W        W23673   9.536  11.484   2.335  0.1696  0.1840  0.3609
13981W        W23674  10.660  17.839  13.254 -0.1099 -0.0505 -0.0858
13982W        W23675   0.637   4.740   1.762 -0.0205  0.2542 -0.0425
13983W        W23676  17.020   0.545   5.505 -0.2766  0.0264  0.0558
13984W        W23677  12.011   9.336   0.774 -0.0766  0.2570 -0.4185
13985W        W23678  12.284   2.977  14.651  0.0636 -0.3402  0.0861
13986W        W23679  17.333  11.643  14.084 -0.2076 -0.2334  0.3792
13987W        W23680   3.066  11.584   2.349 -0.2696  0.2123  0.0827
13988W        W23681   2.993  11.838   3.065  0.1920 -0.0916 -0.5101
13989W        W23682   4.792   0.252  16.221 -0.2089  0.0388  0.1958
13990W        W23683  10.895  16.525   3.325  0.4166  0.0171 -0.3148
13991W        W23684   4.924  13.487  16.438  0.0332 -0.2969  0.1774
13992W        W23685   4.338   9.809   2.643  0.0067  0.0310 -0.0471
13993W        W23686  10.020  14.566   2.290  0.1284 -0.0201 -0.0381
13994W        W23687   8.348  15.267  14.856 -0.0030 -0.2956  0.1085
13995W        W23688  14.877   6.537  12.773  0.0570 -0.2239  0.1096
13996W        W23689   8.188   5.812   1.617  0.0276 -0.2056  0.0001
13997W        W23690   1.521   6.257  11.654  0.0260  0.4500 -0.1817
13998W        W23691   4.303   0.540   3.927  0.0339  0.3493  0.2447
13999W        W23692  17.531   5.102   4.501  0.2480 -0.3240 -0.3389
14000W        W23693   8.751  12.769  13.319  0.0632 -0.1381  0.3697
14001W        W23694   6.788  12.344  13.651 -0.1188 -0.0647 -0.2418
14002W        W23695   0.156   2.870   4.170  0.2955  0.1203  0.0325
14003W        W23696  11.259   5.921   4.203 -0.0123 -0.0750  0.2598
14004W        W23697   2.411  15.598   5.521 -0.1576  0.0246 -0.2830
14005W        W23698   7.626   5.732   4.091  0.0226 -0.1644 -0.1990
14006W        W23699   7.689   8.869   0.674  0.1811 -0.2953  0.1241
14007W        W23700   8.746   6.132   6.133 -0.0675  0.1754 -0.1104
14008W        W23701  11.557  13.114   3.638  0.1029 -0.2150  0.1000
14009W        W23702   8.160  12.158   4.183  0.1644  0.1084 -0.1360
14010W        W23703   5.781  15.120   2.927  0.0066 -0.1822  0.1407
14011W        W23704  12.540   7.260   0.348  0.0769  0.2075 -0.1352
14012W        W23705   0.011   2.403  14.552  0.1908 -0.2511 -0.0173
14013W        W23706   6.458  11.308  14.897  0.3295  0.0826  0.0702
14014W        W23707   4.139   0.732  12.155 -0.2859  0.1804  0.2348
14015W        W23708   7.398  10.382  14.487 -0.0546 -0.3421 -0.0900
14016W        W23709   4.676  12.697  12.879 -0.3451  0.0710 -0.1157
14017W        W23710   8.755  15.190  13.375 -0.2168 -0.0344  0.1278
14018W        W23711  11.576  11.131  13.435 -0.1326 -0.0578 -0.2083
14019W        W23712   3.765   6.265   6.108  0.1035  0.1283 -0.3773
14020W        W23713   7.585  14.480   0.092 -0.1271 -0.1491  0.0483
14021W        W23714   9.614   7.180   2.415  0.2065  0.2193  0.3500
14022W        W23715  17.131   1.639   4.765  0.1899  0.0977  0.0490
14023W        W23716   7.573  12.816   2.577 -0.1565 -0.0011  0.2178
14024W        W23717   0.094  17.314  13.375  0.0750  0.0355 -0.3410
14025W        W23718   1.479   7.865   5.579  0.2298  0.1376 -0.1521
14026W        W23719   8.762  16.449   3.869  0.1028  0.1001  0.1481
14027W        W23720  13.856   9.750  15.022  0.3397 -0.1265 -0.2217
14028W        W23721   0.182  11.839  15.118  0.0609 -0.0374 -0.2657
14029W        W23722   1.783  14.859  16.085  0.0459 -0.2597  0.0250
14030W        W23723  12.339   8.438   5.291  0.0685 -0.1489 -0.4962
14031W        W23724   4.738   0.360   2.300 -0.3065 -0.4285 -0.1673
14032W        W23725  10.596  14.850   4.295  0.2698 -0.1401  0.0865
14033W        W23726  10.440  14.201   6.103  0.0412  0.2201  0.1291
14034W        W23727  17.272  11.847  15.147 -0.1029 -0.1558 -0.0955
14035W        W23728   3.182  13.411   5.175  0.0880  0.0050 -0.0547
14036W        W23729  10.210   4.189   5.344 -0.0321  0.0505 -0.1374
14037W        W23730   2.984  12.937   4.945  0.1419  0.0216 -0.1462
14038W        W23731   3.900   2.796  12.536 -0.1773  0.1090 -0.2118
14039W        W23732   2.399   9.254   3.874  0.2926 -0.0637  0.1024
14040W        W23733  10.738  11.650   2.674  0.2520  0.0024 -0.0158
14041W        W23734   3.931  13.590  12.314  0.1573 -0.2776 -0.3494
14042W        W23735   2.385   7.736   2.889 -0.0272  0.1092  0.1276
14043W        W23736  10.536  10.036  14.361 -0.1191  0.1556 -0.2446
14044W        W23737  14.947   5.764  14.138  0.3369  0.1672  0.0389
14045W        W23738   7.080  12.128  15.235 -0.2448 -0.1820  0.0360
14046W        W23739  11.277  16.051   1.912 -0.1865 -0.0755 -0.0794
14047W        W23740  13.666  16.127  13.053  0.0800  0.3684  0.2176
14048W        W23741   1.324   0.375  12.602 -0.1159  0.1687 -0.0455
14049W        W23742   2.757   0.950   4.191  0.2697 -0.1097  0.3205
14050W        W23743  11.099  11.284   5.972  0.0156  0.1159  0.0982
14051W        W23744   7.996  12.551   1.287  0.4712  0.1516  0.0777
14052W        W23745   7.154  13.923   2.159  0.0279  0.1056 -0.1866
14053W        W23746   0.628   6.658   0.277  0.3403  0.0833 -0.2089
14054W        W23747   0.584  16.938   3.287  0.0974 -0.1394  0.0455
14055W        W23748   1.378   6.921   1.581 -0.2639  0.0525  0.3203
14056W        W23749  16.611   6.624   3.348 -0.2042 -0.1528  0.1820
14057W        W23750   4.039   5.619   6.048  0.0355  0.3650  0.2181
14058W        W23751   0.617  15.768  13.815 -0.0145  0.0394 -0.1760
14059W        W23752   4.141  14.672   3.953 -0.0169  0.0971 -0.1784
14060W        W23753  11.684  16.563  16.229  0.5585  0.1885 -0.2661
14061W        W23754  16.553   2.154  12.339  0.2131  0.4069 -0.3405
14062W        W23755   9.056   8.282  16.903  0.0904 -0.0666  0.1873
14063W        W23756   2.275  12.507   5.144 -0.0258  0.4326 -0.2568
14064W        W23757   3.848   7.401  13.393  0.0205 -0.0319 -0.0520
14065W        W23758   0.373  14.890  15.407  0.0051 -0.0958 -0.1538
14066W        W23759   4.730   9.396   3.606 -0.0160 -0.1189  0.2099
14067W        W23760   3.901  15.035   4.857 -0.0521 -0.1193 -0.4258
14068W        W23761  17.830   8.688   2.699 -0.0283 -0.1094  0.1074
14069W        W23762   7.145   5.516   6.311  0.0327 -0.4051 -0.0620
14070W        W23763   9.051  14.678   0.825 -0.1823 -0.3079 -0.2152
14071W        W23764  13.300   6.166  16.156  0.1344  0.0947 -0.0682
14072W        W23765  11.490  11.142   1.362 -0.0076  0.1102 -0.3508
14073W        W23766   8.291   8.746   4.709 -0.0100 -0.0260 -0.1794
14074W        W23767   9.653   6.804   2.758  0.1103  0.0777  0.0593
14075W        W23768   3.720   1.066  11.369 -0.0268 -0.0447 -0.1937
14076W        W23769  16.518   9.655   3.358 -0.0531  0.1816  0.1830
14077W        W23770   5.415  14.823   1.297 -0.1129  0.2112 -0.2425
14078W        W23771   0.546  15.924   1.405  0.1617 -0.0651 -0.1568
14079W        W23772   6.079   6.176  15.736  0.1083 -0.1669  0.2364
14080W        W23773  17.451   1.570  16.547 -0.0292 -0.2531  0.2917
14081W        W23774   3.881  13.897   4.556  0.0724  0.1571 -0.0558
14082W        W23775  15.193   3.048  12.100  0.1091  0.0955  0.2401
14083W        W23776  12.438  15.038  11.983 -0.0352  0.1908  0.0085
14084W        W23777   6.743   5.775  13.587  0.1643  0.2162 -0.1022
14085W        W23778   3.839   3.440   2.973  0.1360 -0.2718 -0.1520
14086W        W23779  15.729   4.693  13.598  0.1763 -0.1897 -0.0180
14087W        W23780  11.297  16.191  14.038 -0.2393  0.0043  0.0507
14088W        W23781   8.931   7.726  16.180 -0.0982  0.2879 -0.0012
14089W        W23782  17.532  10.142  14.986 -0.0011 -0.1123  0.0213
14090W        W23783   6.101   5.007   0.076 -0.0093 -0.0836  0.0766
14091W        W23784   9.337  10.472  16.268  0.2184 -0.0761  0.0878
14092W        W23785  17.573   8.487   4.561 -0.1238  0.0734 -0.0719
14093W        W23786   1.583  14.405  12.320 -0.1816  0.2679 -0.0531
14094W        W23787  13.472  14.656   3.578  0.0115 -0.0384 -0.1765
14095W        W23788  15.780  13.198   3.932  0.3726 -0.0298 -0.3315
14096W        W23789   5.192   5.432   2.973 -0.0983  0.2126 -0.0180
14097W        W23790  10.351   4.660   0.118 -0.1778 -0.0940 -0.0531
14098W        W23791   7.782  16.371   3.638  0.3183 -0.0664 -0.0436
14099W        W23792  15.968   1.332   0.105  0.0723 -0.0804 -0.2684
14100W        W23793   6.590  14.189   0.961 -0.1855  0.1979 -0.0979
14101W        W23794   7.808  13.692   6.801  0.0572  0.0298 -0.0611
14102W        W23795   4.716   5.155  14.816  0.1019  0.1738  0.1181
14103W        W23796  17.911  17.581   1.715  0.1664 -0.1815 -0.1782
14104W        W23797   3.362   7.636   5.585 -0.1068 -0.2260 -0.0962
14105W        W23798   3.406   3.279  14.697  0.0761  0.3108  0.2397
14106W        W23799  14.837  14.755  13.360 -0.0130  0.1875  0.0734
14107W        W23800   7.578   0.085  16.586 -0.1657  0.3796  0.3452
14108W        W23801   8.125   8.303   0.176 -0.0143  0.1639 -0.1446
14109W        W23802  17.154   6.753  14.476 -0.1250 -0.1161 -0.1901
14110W        W23803   3.991   7.577  16.119 -0.2775  0.0960 -0.3799
14111W        W23804   8.071   9.777   0.477  0.1384  0.0326 -0.0173
14112W        W23805   5.377  13.417  14.070 -0.1960  0.1259  0.0468
14113W        W23806  15.896  14.664   3.496  0.1527 -0.3633  0.1088
14114W        W23807  17.741   3.036   2.266 -0.1116 -0.2402 -0.0443
14115W        W23808   4.822   3.852  12.067  0.1738  0.0598  0.1323
14116W        W23809   2.171   6.887   3.377  0.0066  0.3689  0.2736
14117W        W23810  11.084   8.902   3.957 -0.0883 -0.2803 -0.2439
14118W        W23811  10.209   6.210  16.307 -0.4003  0.0119 -0.1176
14119W        W23812   4.005   9.292   1.159  0.3306 -0.1011  0.0511
14120W        W23813   2.263  17.391  11.550 -0.4602 -0.0952  0.1665
14121W        W23814   3.542   2.294   4.880 -0.1047  0.2212  0.0590
14122W        W23815   3.343   2.839   5.339 -0.3244 -0.0267  0.0740
14123W        W23816  10.930   5.432   5.271 -0.2135  0.0728 -0.0437
14124W        W23817   6.685   4.653   3.079  0.2059  0.4488  0.0079
14125W        W23818   5.933   0.279  11.884 -0.0204 -0.0685 -0.0680
14126W        W23819   2.570  15.508   2.469  0.0705 -0.0705  0.0118
14127W        W23820   7.131  13.511  16.041 -0.1788 -0.0263  0.1356
14128W        W23821  12.420   2.454   6.333  0.1528 -0.2113  0.0923
14129W        W23822   2.738  17.212  16.592 -0.0476  0.1371  0.0376
14130W        W23823  17.895   6.934   5.083 -0.3241 -0.0931  0.0262
14131W        W23824  17.596  11.087   4.950 -0.2005  0.0190  0.1182
14132W        W23825   2.771  15.051  13.462  0.2909 -0.0665  0.2393
14133W        W23826   1.383  11.481   5.047  0.0923 -0.1840  0.0693
14134W        W23827   4.463   2.282  16.378 -0.0532  0.0114 -0.0805
14135W        W23828   4.201  13.531   6.516 -0.0825 -0.1884 -0.0554
14136W        W23829  13.187  15.145  15.414  0.0600 -0.1359  0.0683
14137W        W23830   9.817   9.654   5.767  0.0773 -0.1754  0.0020
14138W        W23831  15.165   2.676  16.286  0.1482 -0.2469 -0.1285
14139W        W23832  16.885   8.957  12.817  0.1750 -0.2592 -0.0482
14140W        W23833  15.512   1.365  16.763 -0.0056 -0.0479 -0.4002
14141W        W23834   3.798   4.973  12.660 -0.0513 -0.3003  0.0965
14142W        W23835   6.100  13.558  16.093  0.0393  0.2519  0.2030
14143W        W23836   5.083  10.660   3.693 -0.3101  0.0342  0.1525
14144W        W23837  12.405   3.253   4.000  0.2130  0.2702 -0.0859
14145W        W23838   7.527  11.732  15.576 -0.1270 -0.1537  0.0911
14146W        W23839   6.448   6.653   1.195  0.0565 -0.3146  0.0793
14147W        W23840   5.125  14.499  12.582  0.0351  0.1927  0.2214
14148W        W23841   6.159   0.800   1.714 -0.0381  0.0460 -0.0784
14149W        W23842   9.473   2.113  12.643 -0.0148 -0.0707 -0.0415
14150W        W23843   7.440   3.398   5.828 -0.3297 -0.0999  0.0908
14151W        W23844  15.483   4.032  15.385  0.0012 -0.5722 -0.1859
14152W        W23845  14.734   5.453   0.603  0.0521  0.0631  0.1576
14153W        W23846  16.037  16.691   2.994 -0.0636 -0.1147 -0.1897
14154W        W23847  14.888  14.489  13.892  0.0229 -0.0071 -0.2469
14155W        W23848  13.198  13.132   6.062  0.0372 -0.1945 -0.1093
14156W        W23849   9.055   0.770  13.842  0.0380  0.0500 -0.4005
14157W        W23850   3.602   0.394   4.361 -0.0697  0.1250 -0.1309
14158W        W23851  16.528   1.491  10.885  0.0915 -0.0433  0.1388
14159W        W23852  14.874   0.524  15.207  0.0490  0.1151  0.2907
14160W        W23853   6.665  13.711  14.829  0.1646  0.2257  0.0014
14161W        W23854   1.953  15.469   1.650 -0.0786  0.0040  0.2468
14162W        W23855   1.596   5.393  11.859  0.0656  0.4674  0.0053
14163W        W23856   2.704   6.927  16.337  0.1564  0.1710  0.2873
14164W        W23857  16.711   1.776   3.460 -0.0755  0.2535  0.0927
14165W        W23858   3.881   3.723  11.770  0.1183 -0.0119 -0.1769
14166W        W23859   9.237  14.171   2.307 -0.3896 -0.0289 -0.0569
14167W        W23860   9.481  14.757  12.698 -0.0897  0.1628  0.2111
14168W        W23861  12.572   4.352  15.284 -0.0835  0.4195 -0.3060
14169W        W23862   0.844  15.841   1.798  0.0575  0.0259  0.2032
14170W        W23863   7.302   9.443   6.572  0.0150  0.1125 -0.1481
14171W        W23864   2.924  15.242  14.337 -0.0737  0.2052  0.2384
14172W        W23865   5.464   7.083   0.831  0.2573 -0.2254  0.1792
14173W        W23866   6.337   1.218   5.882  0.1859 -0.0538  0.0471
14174W        W23867   6.375   0.489   2.081  0.0357 -0.1599 -0.0796
14175W        W23868   3.979  10.808   5.059 -0.1854  0.0057 -0.4297
14176W        W23869   4.055  15.064  13.773  0.4474 -0.3050  0.3259
14177W        W23870   2.150   1.800   5.069 -0.1960 -0.2961  0.0488
14178W        W23871   0.580   6.734  16.923  0.2614 -0.1672  0.0839
14179W        W23872  10.742  16.258   1.697 -0.0434  0.1690 -0.2840
14180W        W23873   0.267   6.400   3.744  0.1186  0.3313 -0.2053
14181W        W23874   2.576  14.491  11.669  0.4132  0.2368 -0.2626
14182W        W23875   2.854   2.343  11.475 -0.0832 -0.1779 -0.0108
14183W        W23876   6.999   2.190   0.526  0.3886  0.1392  0.2923
14184W        W23877  17.243   7.789  12.680 -0.0170 -0.4151 -0.0385
14185W        W23878   1.369   5.436  16.684  0.2483  0.1114  0.0236
14186W        W23879  13.210   6.620  11.284 -0.3427 -0.3157  0.0994
14187W        W23880   7.754  11.615   6.347  0.0995  0.3415 -0.1195
14188W        W23881   2.187   1.595   2.172  0.0771  0.1233  0.0912
14189W        W23882   6.736  15.195   2.018  0.2781 -0.0219 -0.0901
14190W        W23883   9.080  12.908   5.902 -0.0712  0.0934  0.1361
14191W        W23884   3.231   0.583  12.059  0.0818  0.1250 -0.1875
14192W        W23885   5.179  17.577   1.271  0.0545  0.1033  0.0202
14193W        W23886  10.972   4.264  14.388 -0.0799 -0.2673  0.0976
14194W        W23887   8.905   2.830  14.584  0.0177  0.2594  0.3583
14195W        W23888   8.125   2.035   4.086 -0.0731 -0.0671  0.1768
14196W        W23889   4.614   1.824  16.591  0.1643  0.0476 -0.0420
14197W        W23890  13.202   8.685   2.086  0.0873  0.2291  0.3003
14198W        W23891   3.474   7.516   3.963  0.0559  0.1710  0.0824
14199W        W23892   3.215  16.482  12.121 -0.1029  0.0416  0.0965
14200W        W23893   5.067  10.120  14.409 -0.3344 -0.2380 -0.1100
14201W        W23894   7.801  14.547  15.963  0.1202  0.1056 -0.2178
14202W        W23895   1.421  11.060  12.247  0.1138  0.1926 -0.0675
14203W        W23896   7.737  10.724  12.109 -0.1576 -0.1795 -0.2278
14204W        W23897   8.625   6.521  16.119  0.1862 -0.2025 -0.0423
14205W        W23898   6.588   0.189   4.573 -0.1777 -0.0262  0.0417
14206W        W23899   7.767   9.398   0.618 -0.0841 -0.1738 -0.3657
14207W        W23900   4.525  10.574   3.847 -0.0034  0.1911 -0.1556
14208W        W23901   4.091   9.336   5.154 -0.3083 -0.2076  0.1171
14209W        W23902   4.212   3.331   1.941  0.0327 -0.2817 -0.1588
14210W        W23903  11.548  10.739   3.972  0.4153  0.0282  0.0132
14211W        W23904   5.577   2.321   3.571 -0.1711 -0.2229 -0.0224
14212W        W23905   3.998   3.770  15.226  0.0545 -0.0716  0.0562
14213W        W23906  16.997  15.707  16.563 -0.1698 -0.4382  0.1912
14214W        W23907   4.089   5.733   1.136  0.3473  0.0500  0.1396
14215W        W23908   0.143  10.571  12.524  0.0686 -0.0212 -0.6345
14216W        W23909  11.860   1.479   5.372 -0.2955  0.1658 -0.2979
14217W        W23910  12.170   0.923   2.552 -0.4715 -0.0190 -0.2558
14218W        W23911   4.534  16.224   3.298  0.1866 -0.1149  0.0939
14219W        W23912   8.384   0.449   0.387 -0.1836  0.0457 -0.0139
14220W        W23913  14.874   0.907  12.063  0.0494 -0.0501 -0.0548
14221W        W23914  16.755   1.127   2.204  0.2065 -0.0362 -0.3203
14222W        W23915  12.109  11.821   2.742 -0.0772 -0.1659  0.2508
14223W        W23916   1.642  10.328   5.298  0.0787 -0.0443 -0.0322
14224W        W23917  12.605  16.810   4.830  0.0399  0.1926  0.0929
14225W        W23918  10.173   7.072  16.175  0.1285 -0.0314  0.0164
14226W        W23919   9.603  12.068  13.329 -0.1009  0.3112  0.2201
14227W        W23920  10.373   6.319  14.412 -0.1306  0.2956  0.3338
14228W        W23921  15.477  14.451   2.780 -0.1614  0.1160 -0.0321
14229W        W23922  10.224  14.319  11.541  0.0575  0.0968 -0.0736
14230W        W23923   5.935   5.956  12.625 -0.0954  0.1021 -0.3878
14231W        W23924  16.921  11.653   3.354 -0.1284 -0.0430 -0.2678
14232W        W23925   4.366  16.946  16.273  0.3830  0.0131 -0.5401
14233W        W23926   7.590  11.557   2.789 -0.1215  0.0284  0.0420
14234W        W23927   3.722  15.528   4.215  0.1893  0.0492  0.3205
14235W        W23928   5.618   5.051  12.929  0.1544  0.2931 -0.0560
14236W        W23929  16.078   8.616   1.583  0.0482 -0.0031 -0.0371
14237W        W23930   7.214   6.250  14.849  0.2080  0.0824 -0.3196
14238W        W23931   1.825   2.166   2.963  0.0809  0.3129 -0.2250
14239W        W23932   6.633   1.933  14.996 -0.2381 -0.1073  0.2187
14240W        W23933   7.117   3.956  15.204 -0.0839 -0.0283 -0.2132
14241W        W23934  11.571   6.011   4.902  0.0670 -0.0508 -0.1173
14242W        W23935  10.079   9.309   5.457  0.2741 -0.3194 -0.0881
14243W        W23936   3.458  16.884  13.875 -0.2353 -0.0292  0.0651
14244W        W23937  17.029   9.082   1.120  0.1733  0.1251  0.2979
14245W        W23938  10.129  13.917   3.823  0.3071  0.4503  0.1208
14246W        W23939   2.111   3.988  15.926  0.0050 -0.1131 -0.2985
14247W        W23940  10.373   6.202   0.320  0.0143  0.2515 -0.0420
14248W        W23941  17.742   4.712   1.244 -0.0172  0.1968 -0.2062
14249W        W23942   9.473   3.455   4.743 -0.1367 -0.1097 -0.1384
14250W        W23943   5.702   9.333   4.832  0.0430 -0.0016 -0.2315
14251W        W23944   8.273  17.965  17.060  0.1159  0.0039  0.0355
14252W        W23945   8.237   9.901  16.213 -0.0946 -0.0002 -0.5199
14253W        W23946   4.657   6.585   2.652 -0.1329  0.0274 -0.0095
14254W        W23947   1.262  13.356   5.291 -0.1096  0.4113  0.1990
14255W        W23948   1.991  10.435   4.376  0.0592  0.1796 -0.0154
14256W        W23949   1.266   0.142  13.621 -0.0301 -0.0362 -0.7040
14257W        W23950   5.937  12.914   0.708  0.1239  0.2301 -0.3845
14258W        W23951   5.840   5.688   2.851 -0.2652 -0.0163  0.1208
14259W        W23952  17.538   6.138  14.122 -0.0250  0.0907  0.1608
14260W        W23953   2.745   7.472  15.400 -0.0720  0.2716  0.3476
14261W        W23954  12.920   8.861   5.848  0.0656 -0.1328 -0.1125
14262W        W23955   3.001  15.884  13.767  0.0493 -0.0981  0.1492
14263W        W23956   3.178   0.842  14.005  0.0750  0.1543 -0.1678
14264W        W23957   1.328   2.321  14.401 -0.0828  0.0369  0.3792
14265W        W23958  13.236   1.738  13.563  0.0968  0.1816  0.2701
14266W        W23959  17.813  16.608   5.119  0.0974 -0.1644 -0.1363
14267W        W23960  10.359  12.574   6.007  0.2177  0.2101  0.0210
14268W        W23961   8.107   4.652   5.597 -0.0913  0.0747 -0.0657
14269W        W23962   5.502  11.025   1.083 -0.1800  0.0244  0.2859
14270W        W23963  10.102  15.362  13.788  0.1001  0.0948 -0.1370
14271W        W23964   1.577   9.137   0.604  0.3947 -0.2079 -0.0727
14272W        W23965  16.775  13.898  14.505  0.2837 -0.0961 -0.2147
14273W        W23966   9.052   8.283  15.971  0.0762 -0.0837  0.3472
14274W        W23967  15.876  17.789  12.593 -0.1261  0.0696  0.0869
14275W        W23968  12.806   9.691   4.645 -0.1438 -0.0203 -0.0747
14276W        W23969   2.326   8.165  11.210  0.0673  0.0512  0.0446
14277W        W23970   3.189   0.642   5.063  0.3731  0.2994 -0.0647
14278W        W23971   9.425   8.408   3.837  0.1439  0.1172 -0.3255
14279W        W23972   9.668   0.427   4.592  0.0347  0.1227  0.1439
14280W        W23973   7.421   7.226  13.839 -0.0054 -0.1268 -0.2203
14281W        W23974   8.780  13.613   5.275 -0.2147 -0.1025  0.1763
14282W        W23975  13.326   1.522  12.568 -0.0026 -0.0565  0.2812
14283W        W23976  16.667   7.644  11.052 -0.2261 -0.2351 -0.0085
14284W        W23977   4.904   5.935   0.590 -0.2732  0.3173  0.0651
14285W        W23978   7.536   7.465   0.926  0.1025  0.2093 -0.0696
14286W        W23979   1.191   2.565  12.843  0.3000 -0.2159  0.3173
14287W        W23980  13.495   6.117  14.425 -0.4010  0.0696 -0.0527
14288W        W23981   5.849   6.274   4.962 -0.0899  0.2864  0.1318
14289W        W23982  13.007   8.091   0.343 -0.1655 -0.1219  0.2466
14290W        W23983   5.330   3.376  16.347  0.1541  0.2069  0.0772
14291W        W23984   3.295   4.193  15.295 -0.4534  0.2682  0.0448
14292W        W23985   9.392   5.711   2.110  0.0054  0.0126 -0.2031
14293W        W23986   4.321  17.267  14.248 -0.0101  0.0584 -0.3222
14294W        W23987  17.676  13.883  14.763 -0.1346  0.1896 -0.3648
14295W        W23988  14.026  15.878  14.415 -0.0471  0.0713  0.0521
14296W        W23989   9.860   0.006   2.938 -0.3088  0.0589 -0.1807
14297W        W23990  12.235  15.819  14.836  0.1427 -0.0892 -0.1014
14298W        W23991   5.423   7.092   2.465 -0.1348  0.1571  0.0524
14299W        W23992  10.862  12.537  13.185 -0.6513  0.1627 -0.0504
14300W        W23993   7.072   0.288   4.214 -0.0900  0.1527 -0.0873
14301W        W23994  15.476  15.158  15.931  0.0794  0.1408  0.1019
14302W        W23995   4.603   4.697   5.525 -0.2977 -0.3355 -0.1830
14303W        W23996  16.567   0.503   0.045  0.1461 -0.2438 -0.0364
14304W        W23997  16.761   3.216  16.815 -0.2285  0.3382 -0.1744
14305W        W23998   3.855   8.739  13.306 -0.3069 -0.0368  0.2563
14306W        W23999   6.064  16.990   5.175  0.0311  0.0210  0.1718
14307W        W24000   5.542  17.740  16.045 -0.0995  0.1866  0.2057
14308W        W24001   8.851   8.779   2.147  0.0173 -0.0095 -0.0188
14309W        W24002  11.358   3.739  15.336  0.1313 -0.2388  0.3323
14310W        W24003   5.137   2.699  12.370 -0.2815  0.4966 -0.1742
14311W        W24004  16.558   9.563   2.302 -0.0844 -0.1359 -0.2787
14312W        W24005   5.749  16.752   1.472 -0.2933 -0.4917  0.0961
14313W        W24006  17.763  10.296  12.737 -0.2226 -0.2380 -0.2185
14314W        W24007   8.038   5.982  16.629 -0.4142 -0.1246  0.0501
14315W        W24008   9.864   8.399   4.304  0.3128  0.2325  0.3367
14316W        W24009   8.668  15.466  12.843 -0.0127 -0.1137  0.0684
14317W        W24010   4.811  14.864  15.194  0.1638 -0.0357 -0.0196
14318W        W24011   0.049  15.311   2.561  0.0773 -0.2223 -0.1930
14319W        W24012   9.208   9.153   1.928  0.2175  0.1258  0.2461
14320W        W24013  17.697  14.415   1.569  0.0020 -0.1670 -0.0878
14321W        W24014   0.357   7.995  11.313 -0.1131  0.3007  0.0194
14322W        W24015   1.924   8.619  13.215  0.0513 -0.4752  0.1726
14323W        W24016   4.442   4.477  13.513 -0.1541  0.2199 -0.2128
14324W        W24017  10.422   1.517  15.123 -0.1385  0.1084  0.0791
14325W        W24018   3.068  14.497   3.212  0.0362 -0.1164 -0.0947
14326W        W24019  17.830   4.677  14.011 -0.4045 -0.0872 -0.1025
14327W        W24020   7.430   1.732   2.844  0.0518  0.1403 -0.1515
14328W        W24021  13.372  13.240   1.851  0.0394  0.0008 -0.0534
14329W        W24022   0.099   4.137  14.005  0.0554 -0.0804 -0.4208
14330W        W24023   7.745   4.278  16.583  0.0616  0.1576 -0.1126
14331W        W24024  14.318   1.854   0.599 -0.1300 -0.2135  0.1327
14332W        W24025  17.811  16.032  16.857  0.0672 -0.1851 -0.0801
14333W        W24026   9.576   2.584   0.454 -0.1030 -0.1986 -0.1776
14334W        W24027  17.005   8.348  13.755  0.2246 -0.0843 -0.0434
14335W        W24028   4.636   7.707   3.803 -0.0702 -0.0410  0.1133
14336W        W24029  12.641  12.917   0.521 -0.0627 -0.2226 -0.2156
14337W        W24030  11.357  10.167   2.044  0.1298 -0.2407  0.0583
14338W        W24031   0.552  14.130  12.928  0.1446 -0.0493 -0.0517
14339W        W24032   3.538   1.140  13.809  0.0457  0.0517 -0.0211
14340W        W24033   4.550   9.300  12.278 -0.0106 -0.0414  0.1728
14341W        W24034   4.159  15.059   2.584 -0.2839  0.2939 -0.0270
14342W        W24035   1.476  17.520  13.922  0.0962  0.2552  0.0020
14343W        W24036   1.243   1.527  15.012 -0.2273 -0.2137 -0.0352
14344W        W24037   7.162   2.449  13.110 -0.0114  0.1122  0.3265
14345W        W24038  17.483   2.405  16.110 -0.3436  0.2178  0.2190
14346W        W24039  11.950   8.736   2.406  0.2246 -0.0172  0.1183
14347W        W24040   7.635  14.684   3.940  0.0063  0.0006  0.2337
14348W        W24041  10.161   2.010   0.539 -0.0195 -0.2219 -0.0688
14349W        W24042   4.412  12.142   3.147 -0.1665  0.2964 -0.0748
14350W        W24043   6.582  10.362   6.432 -0.0166  0.0069 -0.1361
14351W        W24044  12.363  10.754  11.819  0.0445  0.3681  0.0615
14352W        W24045  11.143  14.280   5.296 -0.3757  0.0319 -0.2002
14353W        W24046  11.299  14.532   3.535  0.0652 -0.0421 -0.3046
14354W        W24047  11.550   8.886   6.459  0.0601  0.2690  0.2339
14355W        W24048   5.770  10.937   3.436 -0.1889  0.0082 -0.0369
14356W        W24049  17.826  17.140   2.104  0.0976 -0.0664 -0.1427
14357W        W24050   2.904   3.747   3.214  0.1273 -0.1078 -0.1641
14358W        W24051   8.763   3.042   4.223 -0.0710  0.1297  0.1519
14359W        W24052   0.838   4.559  15.879  0.0707 -0.0762 -0.1353
14360W        W24053   4.063  11.850  15.539 -0.0030  0.1432  0.0778
14361W        W24054   1.072   6.382   1.286  0.0476  0.1035  0.1259
14362W        W24055  10.535   2.147  16.614 -0.3850 -0.0452 -0.2738
14363W        W24056   2.050  12.699  12.484  0.3197  0.0916  0.2591
14364W        W24057  13.163   9.983   5.461  0.1393 -0.0731  0.0544
14365W        W24058   2.658   2.714   2.974  0.0454  0.0407 -0.0979
14366W        W24059   2.234  11.280  12.242 -0.1498  0.0088  0.3019
14367W        W24060  15.804  17.301   0.277 -0.0204  0.1984 -0.0175
14368W        W24061   9.279  14.072   5.731  0.3733  0.1104 -0.2047
14369W        W24062   7.799  15.312   0.472 -0.0280 -0.0034  0.3535
14370W        W24063   7.413  17.261   4.859 -0.0169 -0.0234 -0.1639
14371W        W24064   2.949  12.500  15.042  0.1787  0.0604 -0.0638
14372W        W24065   4.373   5.717   3.089  0.0158  0.1919  0.0790
14373W        W24066   7.330   7.405   3.556  0.1156  0.1305  0.1362
14374W        W24067   1.206   6.838   1.088  0.0456 -0.0605  0.0909
14375W        W24068  16.411  15.025   1.257  0.0071 -0.0273 -0.2942
14376W        W24069   6.346  11.746  13.158 -0.1154 -0.3071 -0.0524
14377W        W24070  16.871   1.263  13.165 -0.1064 -0.0892  0.1972
14378W        W24071  16.000   8.324  15.383  0.0517  0.1245  0.0541
14379W        W24072   2.198   3.453  13.528 -0.1363 -0.1270 -0.3364
14380W        W24073   4.077   4.429   3.034  0.0102 -0.0788  0.0329
14381W        W24074   0.924  13.689   4.552  0.2178  0.1368  0.2149
14382W        W24075   1.207   2.078  16.408 -0.0651 -0.2832 -0.2369
14383W        W24076  14.647   4.751  15.437 -0.0985  0.1794 -0.2583
14384W        W24077   5.813   7.901   0.955  0.0682  0.1031  0.1560
14385W        W24078   6.133   4.383   4.246  0.0219 -0.2461  0.0826
14386W        W24079   7.804   6.691   0.115 -0.2636 -0.2852  0.2099
14387W        W24080  17.742   7.851   2.580  0.0527 -0.2631 -0.0164
14388W        W24081   4.371  12.986  14.061  0.0713  0.0195 -0.0265
14389W        W24082  11.523  11.886   6.056 -0.0168  0.1203 -0.0305
14390W        W24083  12.239   7.476   2.091  0.1086 -0.1072 -0.2334
14391W        W24084   6.855  13.266  14.932 -0.1899  0.0942 -0.0224
14392W        W24085   8.877  13.345   1.594  0.1412  0.0669 -0.1563
14393W        W24086   0.794  13.118   1.820 -0.0710 -0.2636  0.1806
14394W        W24087   3.422   6.866   5.169  0.0881 -0.0199  0.0848
14395W        W24088   5.292   8.133   1.577  0.4818  0.2347  0.2939
14396W        W24089  15.982  10.187  15.562 -0.1097  0.1511 -0.3694
14397W        W24090  11.304   1.785  15.210  0.0806 -0.0393 -0.0061
14398W        W24091   6.292  12.557  14.527 -0.2902 -0.4096 -0.0231
14399W        W24092  15.187  12.022  14.391  0.0025  0.0215  0.0927
14400W        W24093   4.086  14.321  12.937 -0.0514  0.3240  0.1763
14401W        W24094  11.021   2.014  16.603  0.1541  0.0841 -0.0426
14402W        W24095   6.949   2.651  15.834 -0.0504 -0.4386  0.0928
14403W        W24096   8.229   5.649  13.952  0.1627  0.0297  0.0467
14404W        W24097   6.358  16.601   4.275  0.4936  0.1920 -0.0277
14405W        W24098   8.667   0.383   2.531 -0.1381 -0.2296 -0.2879
14406W        W24099  17.742   4.142   1.952  0.2736  0.1274  0.2976
14407W        W24100   2.234   9.585   6.646 -0.1733 -0.0190  0.0305
14408W        W24101  15.613  17.678  11.481  0.2267  0.2432 -0.2995
14409W        W24102   7.804   1.692  13.431  0.2960 -0.0752 -0.2486
14410W        W24103   5.912  17.609   2.176  0.0857  0.2325 -0.3713
14411W        W24104   7.646  15.336  17.019 -0.2596 -0.2508  0.0596
14412W        W24105   5.772   1.739  15.420 -0.2899 -0.2156  0.1107
14413W        W24106  10.045   9.775   5.314 -0.0647  0.0285  0.3399
14414W        W24107   3.023  11.363   0.478 -0.0938 -0.3031  0.1740
14415W        W24108   6.382   8.227   5.443 -0.1930  0.1678 -0.0504
14416W        W24109   0.443   7.571   4.100  0.1205  0.0273  0.0720
14417W        W24110   7.038  12.299  12.194  0.1325 -0.0238 -0.1585
14418W        W24111   7.070  10.392  13.276  0.2050 -0.0124  0.1656
14419W        W24112   3.866   0.905   0.951 -0.1989 -0.0268 -0.1667
14420W        W24113   1.351   2.464   0.267  0.2594 -0.1333  0.2341
14421W        W24114   5.259   1.459   3.955  0.0224 -0.1446  0.1025
14422W        W24115   5.118   5.087  12.359 -0.4149 -0.2692 -0.1757
14423W        W24116   4.079   2.107  13.934  0.0625  0.0647  0.0599
14424W        W24117   3.662   7.986   5.336 -0.0603  0.1981 -0.3301
14425W        W24118   1.926   3.068   6.377  0.0064  0.1778 -0.0845
14426W        W24119   1.301   3.672  13.511  0.3678  0.0997 -0.3052
14427W        W24120   5.732  11.013  16.303  0.3983 -0.1338  0.3039
14428W        W24121   5.202   5.135   6.312  0.2781  0.0412  0.0693
14429W        W24122   4.979  16.012   5.023 -0.0454 -0.2183  0.0643
14430W        W24123   2.670   7.186  14.516  0.0602  0.2004 -0.1198
14431W        W24124   9.227  10.297   0.816  0.0110 -0.1404  0.1616
14432W        W24125  15.244   6.909  13.855 -0.4032 -0.0367 -0.1257
14433W        W24126   9.010   4.472   0.638 -0.0506 -0.0700  0.1294
14434W        W24127   0.193  14.559  14.560  0.1076  0.1701 -0.0666
14435W        W24128   6.406   4.018   1.594  0.0230 -0.0024  0.2381
14436W        W24129   7.648  10.476  12.537 -0.2552  0.1190  0.1275
14437W        W24130   2.650   1.926   1.402 -0.0012 -0.2004  0.3070
14438W        W24131   7.507  14.855  13.270  0.2266  0.0924  0.0061
14439W        W24132  15.050   5.883   4.497 -0.4600 -0.0853 -0.0952
14440W        W24133   1.436   2.751  16.947 -0.1481  0.1190 -0.1773
14441W        W24134   2.853   9.140  14.384 -0.2063  0.1347 -0.2059
14442W        W24135   2.377   8.124   5.496 -0.3531  0.0198 -0.0956
14443W        W24136  13.764   2.107  16.206  0.1798 -0.1413  0.1518
14444W        W24137   5.533  16.737   5.514 -0.0215  0.2023  0.3203
14445W        W24138  12.507   6.060  12.473  0.1566  0.1562  0.0328
14446W        W24139  13.376   3.770   0.763  0.2340 -0.1273  0.0633
14447W        W24140   5.783   1.382  11.938  0.4092 -0.0075 -0.1621
14448W        W24141  12.014   6.963   1.946  0.0049 -0.0799 -0.0460
14449W        W24142   6.276  13.410  12.864 -0.2559  0.2556  0.0346
14450W        W24143   3.253  17.430   5.743 -0.1584 -0.0004 -0.0642
14451W        W24144  17.227  17.608   3.407  0.1038 -0.2509  0.1179
14452W        W24145   9.469  11.329   2.923 -0.0198  0.2194 -0.1809
14453W        W24146   1.599  15.441   3.388 -0.2645  0.4543 -0.0660
14454W        W24147   2.648   9.453   4.628 -0.1201  0.1103  0.1091
14455W        W24148   9.846  12.767   2.377  0.2288 -0.1888 -0.4798
14456W        W24149  10.871   2.634  12.450  0.0699  0.3377 -0.0919
14457W        W24150  11.241  15.200  16.282 -0.0238 -0.0053 -0.0613
14458W        W24151  10.742  13.902   4.528  0.3093  0.1714 -0.0923
14459W        W24152  14.546   9.566  11.230  0.0132 -0.2887 -0.0344
14460W        W24153   5.451  15.742   1.288 -0.0033 -0.0973 -0.2341
14461W        W24154   4.612  15.610   0.584  0.1727  0.0459 -0.0019
14462W        W24155   2.218   0.812   4.182  0.0033  0.1272  0.1553
14463W        W24156  13.475   6.114  12.306  0.0906  0.0959 -0.1436
14464W        W24157   4.263   1.090  14.211 -0.0814 -0.2122  0.2880
14465W        W24158   8.518   3.955   6.116 -0.1126 -0.1712  0.0081
14466W        W24159   8.650  14.610  12.390 -0.5448  0.0614  0.2298
14467W        W24160   5.490  10.299  12.389 -0.2473  0.2327 -0.1093
14468W        W24161  12.482   6.479  15.728  0.1572  0.2654  0.0660
14469W        W24162  16.133   9.292  15.030 -0.5105  0.1146 -0.2295
14470W        W24163   9.499   3.106   5.342 -0.1887  0.4470 -0.2265
14471W        W24164   6.824   1.312  15.734  0.2693 -0.3446  0.0868
14472W        W24165   5.517   6.274   3.676  0.1960 -0.0518  0.3645
14473W        W24166   0.051   5.375  11.749  0.3535 -0.0932 -0.0069
14474W        W24167   2.939   5.637   0.321 -0.2401  0.3325 -0.2232
14475W        W24168   4.352   4.327  12.963 -0.3545 -0.0922 -0.0625
14476W        W24169  16.726  10.613   5.428  0.1794 -0.1238 -0.1181
14477W        W24170   1.757   0.660   5.097 -0.1113 -0.0313  0.0060
14478W        W24171  13.726   8.672   1.905 -0.0167 -0.3627 -0.0798
14479W        W24172   4.961   8.936   5.060  0.3586  0.4119 -0.0742
14480W        W24173  15.479  11.554   1.741 -0.0692  0.1106 -0.2360
14481W        W24174   8.185   0.280  14.863  0.2552  0.1435 -0.1237
14482W        W24175   6.406  14.591   1.660  0.0246 -0.3086  0.1051
14483W        W24176   8.057  15.016  16.221 -0.1144 -0.1177  0.2805
14484W        W24177   3.747  15.891   3.454  0.1678  0.0731  0.0134
14485W        W24178   1.123   0.033   2.174  0.2905  0.0798 -0.1349
14486W        W24179   8.410   7.568   0.882 -0.4466  0.2130  0.4349
14487W        W24180   3.546  14.567  16.460  0.1700 -0.0259  0.3208
14488W        W24181   4.164  17.087  13.093  0.2633 -0.0921 -0.2572
14489W        W24182  12.071  17.911  12.819 -0.1769  0.2160 -0.0698
14490W        W24183   2.396  10.152  13.181  0.0076 -0.3303  0.0144
14491W        W24184   0.957  11.227   4.218 -0.1726  0.2220 -0.0771
14492W        W24185  15.378  13.406   2.554  0.3146 -0.0851 -0.2125
14493W        W24186  17.381   3.913   2.745  0.1660  0.0828 -0.0151
14494W        W24187  14.830  13.278   4.111 -0.0372 -0.5379 -0.1883
14495W        W24188   1.796  17.289   2.009  0.2624 -0.1325 -0.3382
14496W        W24189  11.211  14.490   5.768 -0.4224  0.0603  0.0670
14497W        W24190  17.831   5.734  11.503  0.1456 -0.1113 -0.0397
14498W        W24191   2.029   8.083   4.949  0.1291  0.2447 -0.1141
14499W        W24192   5.506   7.909   2.043 -0.1118 -0.1801  0.0445
14500W        W24193  10.836  14.098   5.786 -0.0689 -0.2705 -0.0100
14501W        W24194   8.829  12.025  13.431 -0.0631  0.0758  0.0897
14502W        W24195  17.459  15.728   1.311 -0.2727 -0.1024 -0.3130
14503W        W24196   2.032  13.272  13.130  0.1929 -0.0037  0.1294
14504W        W24197   6.826  11.959   1.701  0.3640 -0.1977 -0.0028
14505W        W24198  11.030  15.449   5.933 -0.0799 -0.0102 -0.1759
14506W        W24199   1.506  10.275  16.662  0.0782 -0.2037 -0.1633
14507W        W24200   6.695   3.065  13.934  0.0352  0.1435  0.1920
14508W        W24201  14.338   8.859  15.663  0.1780 -0.1093  0.0645
14509W        W24202  11.282   2.291  16.314  0.1758 -0.2872  0.2829
14510W        W24203   2.437   9.617   5.940  0.0051 -0.2579 -0.1423
14511W        W24204   4.241  13.549   5.978  0.0205  0.1400  0.0825
14512W        W24205   3.579   9.064   4.080 -0.2074 -0.0281 -0.0519
14513W        W24206   8.625   0.842  12.058  0.2132 -0.0359  0.1710
14514W        W24207   7.746  12.555   0.453  0.1694 -0.1312  0.0326
14515W        W24208  10.645   2.807  14.065 -0.1100  0.0759 -0.2635
14516W        W24209   6.309  15.328  13.716  0.4501 -0.1342 -0.1452
14517W        W24210   7.897  11.831  14.823 -0.0639 -0.0563 -0.0324
14518W        W24211  11.923  12.136  14.297 -0.0604 -0.1434 -0.3359
14519W        W24212   3.261   3.714  13.685 -0.0555 -0.0781  0.3158
14520W        W24213   6.936  14.082   0.629  0.1179  0.1044  0.2497
14521W        W24214  13.791  10.243  15.155  0.3332 -0.0649  0.1656
14522W        W24215   6.534   3.789  13.462  0.0183 -0.1441 -0.0424
14523W        W24216   3.975  17.328  14.647 -0.3479  0.0003  0.2702
14524W        W24217   9.895   6.266   0.440 -0.2364 -0.0983  0.3084
14525W        W24218   5.475   3.531  12.632 -0.1113  0.1008 -0.0007
14526W        W24219   4.582  17.860  13.673  0.1117  0.0783 -0.3772
14527W        W24220  10.700  13.340  16.621  0.3803 -0.0547  0.3311
14528W        W24221  13.781  13.703   1.547  0.0200 -0.1189  0.1660
14529W        W24222   1.428  17.242   0.135 -0.1582 -0.1658  0.3295
14530W        W24223   0.567  14.359   3.040  0.0114  0.1100 -0.0146
14531W        W24224  12.999   3.708   1.633 -0.3084 -0.1392  0.0119
14532W        W24225   6.704  15.243  16.554  0.0426  0.0738  0.0203
14533W        W24226  15.802   5.615   3.373 -0.0511  0.1842  0.1387
14534W        W24227   0.578  10.322   1.438 -0.0991  0.1842  0.2182
14535W        W24228   5.905   0.037   6.522  0.1624 -0.3114  0.2280
14536W        W24229   3.547  12.919   4.348 -0.4820  0.1500  0.1964
14537W        W24230   8.738  16.073  12.988 -0.1540 -0.2022 -0.1491
14538W        W24231  17.952  15.204  15.253 -0.1774 -0.1946  0.1067
14539W        W24232  11.226   8.402   4.165 -0.0920  0.2744  0.4320
14540W        W24233   9.524  10.320   4.048 -0.1580 -0.1135 -0.1208
14541W        W24234   8.048  11.185  12.277 -0.2931  0.3041 -0.0896
14542W        W24235   8.850   6.345   3.606  0.4425  0.2209  0.2432
14543W        W24236  14.487  10.309   0.699 -0.3165  0.1630 -0.2727
14544W        W24237   6.987  15.599   0.590 -0.1437 -0.0582 -0.1278
14545W        W24238   0.497   9.639  13.374  0.0613 -0.0662  0.0946
14546W        W24239   4.083  10.216   3.176  0.2254 -0.0222  0.1259
14547W        W24240   9.471   8.739   2.840  0.1608 -0.2677 -0.0294
14548W        W24241  15.949  14.560   6.425 -0.0079  0.0009 -0.4097
14549W        W24242   9.874   0.042   1.596  0.2431  0.0389 -0.0164
14550W        W24243   9.103  14.773  16.797 -0.1533  0.0861  0.0473
14551W        W24244   9.441   4.119  12.318  0.1265  0.0326 -0.0635
14552W        W24245   9.242  16.428   1.407  0.2602 -0.1117  0.0630
14553W        W24246  11.209  14.109  14.988 -0.1111 -0.1706  0.0453
14554W        W24247  10.005   1.658  15.335 -0.1136  0.1269 -0.0164
14555W        W24248   2.974  15.934   1.590  0.1029  0.2476  0.0861
14556W        W24249   8.427  11.298  11.937 -0.3899  0.2911 -0.1237
14557W        W24250  12.600   3.592   5.839 -0.3360  0.1697 -0.0385
14558W        W24251  16.184  10.300   3.898 -0.0407  0.1103 -0.2559
14559W        W24252  10.700  14.326   0.369 -0.0780 -0.0720 -0.3255
14560W        W24253  10.118  17.274  14.105  0.1542 -0.0373  0.0907
14561W        W24254   1.461   4.597   4.246  0.0928  0.1290  0.2153
14562W        W24255  17.785  15.466   3.433 -0.1623  0.3415  0.0520
14563W        W24256  11.843  11.154   5.881  0.3636  0.0058  0.1414
14564W        W24257  12.678  15.041  15.706 -0.0256 -0.1823 -0.1520
14565W        W24258  12.006   7.934   3.949  0.0192  0.3664  0.4911
14566W        W24259   7.668   8.042  14.298  0.2442 -0.2339  0.0005
14567W        W24260   6.748   3.196  12.365 -0.0253  0.3429 -0.0342
14568W        W24261  14.143   8.810   6.402 -0.1269 -0.1341 -0.2351
14569W        W24262   9.699  15.012   4.600  0.2222  0.0396  0.1000
14570W        W24263  15.955   0.126   2.725 -0.2505  0.1376 -0.1879
14571W        W24264   7.446   1.041   5.129  0.0576 -0.1716 -0.0037
14572W        W24265   6.531  12.885   4.727  0.0695  0.0223 -0.0470
14573W        W24266   7.181   4.295   5.309 -0.0417  0.0733 -0.0907
14574W        W24267  10.831  15.940  15.209  0.0961  0.0846 -0.1328
14575W        W24268   3.454   9.053   0.801  0.4363  0.0693 -0.0742
14576W        W24269   6.107  12.705  14.006 -0.0789 -0.3003  0.2426
14577W        W24270  16.176  17.493  12.770 -0.2467  0.2668 -0.2756
14578W        W24271   3.231   0.394   3.851 -0.1216 -0.2646 -0.0537
14579W        W24272  10.476   8.835   3.939  0.4362  0.0668  0.0277
14580W        W24273   6.860   9.129   0.875 -0.1026  0.1905  0.4250
14581W        W24274   5.760  13.937   1.475 -0.0872  0.2629  0.2073
14582W        W24275  14.064  11.384   1.532  0.0749  0.0356 -0.2089
14583W        W24276   0.871   2.494   5.289 -0.2296 -0.0667 -0.2763
14584W        W24277  17.528  16.413  15.385  0.0849  0.1998 -0.0930
14585W        W24278   3.494  12.187   1.319  0.3640  0.0553  0.0215
14586W        W24279   8.844  16.843  13.682 -0.0784 -0.1512  0.2929
14587W        W24280   9.601   6.759   2.051 -0.0056 -0.1700  0.1330
14588W        W24281  15.798   4.488   1.294 -0.1163  0.2534  0.0886
14589W        W24282   1.920   8.340  16.607  0.0689  0.2025  0.0088
14590W        W24283   2.150   3.270  12.423 -0.1228 -0.0565 -0.4591
14591W        W24284   3.355   9.812   6.223 -0.3156  0.1311 -0.2281
14592W        W24285   4.182  10.058   0.273  0.1630  0.2651 -0.0506
14593W        W24286   8.070   8.398  13.197  0.3108  0.0263 -0.0380
14594W        W24287  17.155   5.376   4.892 -0.2071 -0.0986 -0.1336
14595W        W24288   9.538   2.834   1.733 -0.0359  0.1892  0.2655
14596W        W24289   3.689   4.533   1.447 -0.1788 -0.2307 -0.1501
14597W        W24290   9.284  17.495   5.616 -0.0159 -0.0815 -0.0036
14598W        W24291  17.096  10.674   2.869  0.2875  0.2304 -0.0958
14599W        W24292   6.248  16.898   4.731 -0.0708  0.1664  0.1449
14600W        W24293  12.098   6.852  15.509 -0.0499  0.1516 -0.0993
14601W        W24294  11.193  14.410  15.944  0.0201  0.0646 -0.1375
14602W        W24295  16.168  15.352  13.845  0.0924 -0.2501  0.1220
14603W        W24296   4.585   0.599   5.258  0.1390 -0.0747  0.0847
14604W        W24297   4.557   2.716   4.024 -0.3600  0.0937  0.0587
14605W        W24298  17.304   4.242   3.500  0.2240 -0.1267  0.1661
14606W        W24299   7.172   1.543   2.343 -0.1755  0.2815 -0.1664
14607W        W24300   2.662   2.813  11.540 -0.0575  0.0548  0.1179
14608W        W24301   9.663  12.992   5.058  0.2882  0.3604  0.1684
14609W        W24302   1.807  13.796  11.567  0.1772 -0.0100 -0.0013
14610W        W24303  12.683  17.477  14.182 -0.1282  0.0343  0.2747
14611W        W24304   4.553  15.433  16.833  0.3361  0.1059 -0.0310
14612W        W24305  12.613  16.285   4.610  0.0541  0.0851 -0.2895
14613W        W24306   5.954  13.498  17.020  0.2522  0.0485 -0.0927
14614W        W24307  10.423  11.337  12.895  0.0533 -0.0622 -0.2602
14615W        W24308   6.905  14.972  16.052  0.0930  0.0668  0.2249
14616W        W24309   2.598   5.443   3.884 -0.3009  0.0084  0.0638
14617W        W24310  13.154   2.025  12.691  0.1074 -0.3722 -0.1510
14618W        W24311   1.896   1.759  16.994 -0.0924  0.3408  0.0804
14619W        W24312   1.627   5.311   4.770  0.0325 -0.1250  0.0688
14620W        W24313   5.756   6.187   2.721 -0.0436 -0.0005 -0.0242
14621W        W24314   8.375   1.348   0.187 -0.0214 -0.0347 -0.0319
14622W        W24315   8.920  17.233   3.844  0.0682 -0.0225  0.1593
14623W        W24316   5.495  17.273  13.559 -0.1630 -0.4083  0.2908
14624W        W24317   6.434   7.438  12.439  0.1571  0.2421  0.1994
14625W        W24318  15.260  17.792   3.637 -0.1189 -0.0247  0.0207
14626W        W24319   9.471   2.550   4.296  0.1152  0.1028  0.1890
14627W        W24320   4.213  11.004  15.268  0.0450  0.1456  0.5121
14628W        W24321   2.042   1.099  13.157 -0.0390 -0.1415  0.0058
14629W        W24322   5.487   2.181  13.224  0.3653 -0.2940 -0.3219
14630W        W24323   3.319  16.470   5.577  0.0029  0.0864  0.1968
14631W        W24324   7.755   5.244   0.917  0.0977 -0.1547 -0.0862
14632W        W24325   5.429  13.733  16.774  0.0414 -0.1564  0.0389
14633W        W24326   1.382  11.365  11.384  0.1914  0.1218 -0.2630
14634W        W24327   5.428  10.688  12.692 -0.2029 -0.1798  0.0323
14635W        W24328  10.101  16.857   3.490  0.1120 -0.1027  0.0875
14636W        W24329  13.677   9.914   1.575  0.0976  0.1554 -0.0487
14637W        W24330  17.458  14.896  16.775  0.1603  0.1191 -0.2641
14638W        W24331   0.993  11.482   6.006 -0.2404 -0.0260  0.1186
14639W        W24332   7.915   1.269  13.187  0.0362  0.0906  0.0277
14640W        W24333  16.119  16.677   0.427 -0.0425  0.0089 -0.0781
14641W        W24334   4.289  16.986  15.788  0.1329  0.2374  0.0570
14642W        W24335  10.911   4.689   2.399 -0.1276 -0.2451 -0.1926
14643W        W24336   3.624  13.277  14.959 -0.1195  0.0626 -0.0599
14644W        W24337   9.131  15.175   3.349  0.0536  0.1341  0.2502
14645W        W24338   4.618  11.048   1.936  0.0501 -0.0236  0.0739
14646W        W24339   1.344  12.989   4.078  0.4776  0.2505 -0.1558
14647W        W24340  10.882  13.094  14.196  0.1993  0.0341  0.0491
14648W        W24341   8.060   4.040   3.731 -0.1392 -0.0218  0.0940
14649W        W24342   5.531   7.864   3.566 -0.0856 -0.0896  0.4966
14650W        W24343   6.100  12.042   5.144  0.2286  0.0039 -0.2719
14651W        W24344   1.608  12.992  13.070  0.0704  0.1567 -0.1793
14652W        W24345   7.665   9.953  12.517 -0.3338  0.0920 -0.2775
14653W        W24346  14.447  15.888   0.758  0.1453 -0.3147  0.1413
14654W        W24347   5.993   4.311  13.728 -0.0810  0.3391 -0.0334
14655W        W24348  16.268  14.081  14.542 -0.0834  0.1030  0.0098
14656W        W24349   6.035   5.821   5.088 -0.1700 -0.2187  0.1252
14657W        W24350  10.819  11.102   5.119 -0.0788 -0.0820  0.1608
14658W        W24351  15.793  17.129  11.444 -0.0537 -0.2391  0.4156
14659W        W24352   3.495   6.309  14.848  0.0340  0.1349 -0.1680
14660W        W24353   9.886   2.843  13.423 -0.1861 -0.0095  0.1981
14661W        W24354   7.345  12.885  13.500 -0.1200  0.1606  0.0388
14662W        W24355  11.831   2.922  10.301 -0.0498 -0.1419  0.2221
14663W        W24356   2.744   0.076  14.485  0.1276 -0.3950 -0.0937
14664W        W24357   2.804   3.794   2.130  0.0917  0.2094  0.0013
14665W        W24358   4.222  16.755   0.632 -0.1260  0.0462 -0.1024
14666W        W24359   8.055  15.558   4.874  0.0904  0.4772  0.1969
14667W        W24360   7.915  10.261  16.420  0.0517 -0.2058  0.0533
14668W        W24361   6.633   1.723  11.761  0.2415 -0.0621 -0.2179
14669W        W24362  11.610  10.421   3.575  0.0521 -0.0729 -0.0894
14670W        W24363   3.762   4.607  13.873  0.1873  0.3549  0.2734
14671W        W24364   7.441  15.843  13.491  0.0021  0.1958  0.1506
14672W        W24365   0.360   9.931  14.289  0.0947 -0.0762 -0.0822
14673W        W24366  13.037  15.994  16.008 -0.2362 -0.3271  0.0869
14674W        W24367   7.048  17.372  11.778  0.3559  0.2789  0.1905
14675W        W24368  11.907  16.336   2.327  0.1176 -0.0766  0.0639
14676W        W24369  16.311   1.261  14.522 -0.0910 -0.1666  0.0891
14677W        W24370  16.349  12.952   2.256 -0.2336 -0.2770 -0.0210
14678W        W24371   7.814  12.392   5.641  0.0126 -0.2874 -0.1739
14679W        W24372  10.936  14.294   3.840  0.2058 -0.2963 -0.0659
14680W        W24373   1.727   4.354  16.218  0.0948 -0.0766  0.1492
14681W        W24374  17.419   8.840  12.813 -0.0313 -0.1361  0.1926
14682W        W24375   7.819  16.132   1.064 -0.3888  0.2750 -0.0527
14683W        W24376   0.240  15.590   2.986 -0.1179  0.0676  0.1649
14684W        W24377   2.680  15.858   2.000 -0.1276  0.0660  0.1130
14685W        W24378  11.862  16.979  14.264  0.2460 -0.0470  0.0695
14686W        W24379   7.891  14.923   0.038 -0.0385  0.0416  0.1006
14687W        W24380   2.489   0.574   4.566  0.0369 -0.0659 -0.0226
14688W        W24381   7.981   1.328  16.759 -0.2085  0.4051 -0.0685
14689W        W24382  11.746  10.784  11.356 -0.3414 -0.2379  0.0324
14690W        W24383   9.373  17.520  13.113 -0.2025 -0.0072  0.3155
14691W        W24384   9.137   3.159   1.702 -0.1342  0.4817 -0.3111
14692W        W24385   3.739  15.788  15.689 -0.0543 -0.0394  0.0865
14693W        W24386   5.379   1.826   5.050 -0.3761  0.0740  0.0154
14694W        W24387   3.690  11.058  15.220 -0.0501  0.0436 -0.1289
14695W        W24388  15.926  13.614  16.215  0.0620  0.0127 -0.1726
14696W        W24389   2.938   2.814   0.343  0.2167 -0.1422  0.0033
14697W        W24390  16.649  11.235  13.492  0.2864  0.2115  0.1892
14698W        W24391   3.428  15.532  16.697  0.0452 -0.1025  0.0227
14699W        W24392   5.894   4.273   3.797  0.1399 -0.1849  0.0697
14700W        W24393   4.379   9.010   4.956  0.1242 -0.1687 -0.0197
14701W        W24394   6.230   3.968   0.295  0.1693  0.2606 -0.2322
14702W        W24395   2.007   1.126  17.101  0.0044 -0.0148  0.1464
14703W        W24396   6.354   2.861  11.556 -0.4526 -0.1467  0.0598
14704W        W24397   4.325  17.875  16.985  0.0060  0.0898  0.1053
14705W        W24398   6.560   3.145   2.115  0.4183  0.0504 -0.0569
14706W        W24399  14.738  11.434  16.969  0.0881 -0.3391  0.1935
14707W        W24400  14.080   0.353   4.285 -0.1988  0.0888  0.0465
14708W        W24401   5.140   2.086   5.800  0.1679  0.2796  0.2127
14709W        W24402   3.106   0.695  12.521  0.1440 -0.1454  0.3019
14710W        W24403   6.105  14.505  13.469  0.0490 -0.6373  0.2533
14711W        W24404  16.560   2.837  15.396  0.1493  0.1165  0.1829
14712W        W24405   7.565  15.630   4.822 -0.2043  0.1751 -0.0053
14713W        W24406   2.766   2.511   4.699 -0.1245  0.1042 -0.4499
14714W        W24407   2.686  13.405   0.704  0.1368  0.1213 -0.0769
14715W        W24408  12.005   5.599  13.717 -0.0086 -0.0847  0.3526
14716W        W24409   4.620  16.844   4.635 -0.4224  0.2131  0.0113
14717W        W24410   6.142   2.442  15.793 -0.2866 -0.1428 -0.2332
14718W        W24411  10.137   4.255   0.976  0.0856 -0.0796  0.0301
14719W        W24412  17.290  11.536  12.222  0.0822 -0.1935  0.1557
14720W        W24413   2.493   3.839  14.754 -0.0832 -0.0282  0.0187
14721W        W24414  15.942   7.195  12.446 -0.2949 -0.1119  0.1236
14722W        W24415  15.450   0.922  13.471 -0.1104  0.2115  0.1652
14723W        W24416  10.973   0.747  13.123 -0.0233  0.2737  0.2890
14724W        W24417   0.229  14.580   0.280  0.0054  0.3066 -0.2522
14725W        W24418   7.646  15.066   2.907 -0.0643 -0.0230 -0.0193
14726W        W24419  15.339  17.893  11.008  0.0182 -0.1850 -0.1786
14727W        W24420   8.905   2.096   1.731 -0.0800 -0.0752 -0.0388
14728W        W24421   5.028   1.880   3.188  0.3148 -0.1380 -0.3694
14729W        W24422  16.253   4.285  15.083 -0.2024 -0.2056 -0.1198
14730W        W24423  13.432   6.719   3.755  0.2431  0.0818 -0.1960
14731W        W24424   9.972   1.764  16.480 -0.0173 -0.0812  0.0950
14732W        W24425   6.792  17.733  16.372  0.0571 -0.3109 -0.1351
14733W        W24426  11.348   9.585   4.607 -0.0804  0.0876  0.0435
14734W        W24427  13.881   3.403  15.790 -0.0023  0.0682 -0.2064
14735W        W24428   0.033   5.814   2.465  0.1486  0.2265  0.1602
14736W        W24429  13.878  13.553   2.585 -0.2285  0.1727  0.0760
14737W        W24430  12.072   0.942  13.860 -0.0090  0.0457  0.3432
14738W        W24431   0.501   2.438  16.360  0.0563  0.1462  0.0949
14739W        W24432   3.268  16.677   3.360 -0.2411  0.3446  0.1079
14740W        W24433   2.313   8.164  17.103 -0.0713  0.0282 -0.0220
14741W        W24434   6.306   5.955  14.982  0.0839  0.0352 -0.0535
14742W        W24435   1.701   6.993   5.829  0.0066  0.0191  0.3537
14743W        W24436   9.812  12.495  15.941 -0.2146  0.0060  0.0512
14744W        W24437  13.593  16.556   0.975 -0.1180  0.0493 -0.0365
14745W        W24438   9.454  17.562   5.148 -0.2389 -0.0167  0.0418
14746W        W24439   9.016   9.332   0.552 -0.1198 -0.3608  0.1177
14747W        W24440   8.725  17.625  15.217 -0.2477 -0.0558  0.1125
14748W        W24441   9.141  11.027   1.271  0.0656 -0.0140  0.0205
14749W        W24442  12.269   0.637   1.583  0.1461 -0.0973 -0.5012
14750W        W24443   8.764   3.145  15.394 -0.0870  0.1301 -0.1121
14751W        W24444   1.493   9.116   5.974  0.0729  0.0912  0.0451
14752W        W24445   3.272   6.176   6.036  0.1948 -0.1885 -0.2213
14753W        W24446   9.098  17.550  17.068 -0.0987 -0.2233 -0.0756
14754W        W24447   3.086  14.086  12.246  0.1580 -0.4556  0.1552
14755W        W24448  14.468   3.476  15.001  0.0551 -0.0395 -0.3340
14756W        W24449   8.374  16.460   2.382 -0.0283  0.0587 -0.0259
14757W        W24450   2.688  10.580   2.914  0.2574 -0.1993  0.0032
14758W        W24451   2.199  13.620  13.521  0.0449 -0.1383  0.0508
14759W        W24452   7.949   3.178  17.102 -0.2887  0.0527  0.0748
14760W        W24453  13.560   4.914  16.407 -0.0104  0.0418  0.1687
14761W        W24454  10.949   8.029   2.440 -0.0900 -0.0615  0.0639
14762W        W24455   9.345  12.392   0.205  0.0256 -0.0618  0.0569
14763W        W24456   5.306  10.017  16.944 -0.2158 -0.0002 -0.4165
14764W        W24457   9.460  15.656  16.758  0.6935  0.0758 -0.0360
14765W        W24458   5.443   7.037  13.398 -0.2433  0.0641  0.1113
14766W        W24459   0.771   1.268  15.104 -0.2634 -0.0377 -0.2305
14767W        W24460   6.497  12.772   2.045  0.2018 -0.4725  0.0234
14768W        W24461   0.136  16.342  12.924 -0.0387  0.4293 -0.0662
14769W        W24462  13.633   8.356  13.512  0.4365 -0.0465 -0.3232
14770W        W24463   1.054   4.056   3.712  0.5432  0.1963 -0.0138
14771W        W24464   3.463  14.031  11.348  0.1603 -0.0685  0.0329
14772W        W24465   5.720  12.939  12.626 -0.0118  0.0123 -0.1769
14773W        W24466   3.699  14.831  14.416  0.1531 -0.1000  0.0926
14774W        W24467  10.016   0.865  16.655  0.0785  0.1178 -0.2925
14775W        W24468   6.221  16.108  16.007 -0.0975  0.0301 -0.0513
14776W        W24469   9.682  11.170   4.843 -0.0381  0.2700  0.5042
14777W        W24470   2.297   5.115  12.264  0.4520  0.1392  0.1665
14778W        W24471   8.509  16.902  12.868 -0.1778 -0.2784 -0.3584
14779W        W24472  17.094  10.295  16.280 -0.1088  0.3046  0.2053
14780W        W24473   4.756  11.582  14.354  0.2888 -0.2112 -0.0664
14781W        W24474   6.322   8.969  13.513  0.0457  0.1599  0.0283
14782W        W24475   8.550   8.313  16.917  0.1220 -0.1668 -0.3074
14783W        W24476   9.630   8.343  16.761 -0.2034 -0.2094 -0.1962
14784W        W24477   8.274  10.161  16.783 -0.1517 -0.0618  0.1630
14785W        W24478   3.132  15.262  17.010  0.2297 -0.1815 -0.0786
14786W        W24479  12.458   2.088  16.984 -0.0866 -0.0837  0.0340
14787W        W24480   6.545   4.895   2.614  0.1601 -0.1079 -0.1409
14788W        W24481   6.276   7.060  14.771 -0.0579  0.0864 -0.0703
14789W        W24482   9.928   8.963   3.700 -0.2251 -0.1022  0.0283
14790W        W24483   4.434   6.615  15.002  0.4146  0.0584 -0.1278
14791W        W24484   4.577   8.902  14.847  0.0336 -0.0289 -0.0159
14792W        W24485  16.449   2.763   0.163  0.4911  0.1961  0.2332
14793W        W24486   1.879  12.059  16.473  0.1267  0.3906 -0.0350
14794W        W24487   7.185  13.636  17.061  0.1159  0.3009 -0.2660
14795W        W24488   8.727   7.199   4.954 -0.0205 -0.0321 -0.3225
14796W        W24489  10.228   1.602  16.050 -0.2096 -0.3039 -0.1331
14797W        W24490   1.859   3.309  10.960 -0.2137 -0.2925  0.2029
14798W        W24491   2.336   4.181  13.996  0.1456  0.1181  0.2246
14799W        W24492  10.522   0.688  14.330  0.0898 -0.1659 -0.1356
14800W        W24493  16.088   5.937   6.289  0.0481  0.0632  0.0383
14801W        W24494  16.544   6.736   1.492 -0.0360  0.1484  0.1968
14802W        W24495  15.960  10.176  10.321 -0.1069  0.0408 -0.2267
14803W        W24496   0.572   2.726   1.013  0.0756 -0.1644  0.0620
14804W        W24497  10.383   7.202   2.762  0.1416  0.2020  0.0348
14805W        W24498  10.273   2.051   4.482  0.0646 -0.0382 -0.2595
14806W        W24499   7.917   1.136   1.669  0.0709 -0.3932  0.3496
14807W        W24500   5.587   9.506   1.449 -0.0080 -0.2878  0.0591
14808W        W24501   5.573   7.152   4.952  0.1152  0.1823 -0.1690
14809W        W24502   7.531   5.699   2.759 -0.3797 -0.1302 -0.1643
14810W        W24503   4.039  11.719   4.580 -0.0905  0.1800 -0.2054
14811W        W24504  11.261   7.236   2.198 -0.0166 -0.0926 -0.1163
14812W        W24505   6.045  17.467  15.333 -0.1650  0.2789  0.0585
14813W        W24506   1.291   0.037   1.722 -0.0690 -0.0463  0.0334
14814W        W24507   9.172  13.207  15.132 -0.0535 -0.0506 -0.2479
14815W        W24508   9.945  14.961  15.417  0.2698  0.1512 -0.1313
14816W        W24509  17.695   5.378  15.188 -0.2091  0.0520  0.1427
14817W        W24510  14.386   5.978   2.121  0.0438 -0.0080 -0.2034
14818W        W24511  14.325  15.759  13.986 -0.0365  0.0871 -0.0640
14819W        W24512   9.239  16.746   0.405  0.0588 -0.2362 -0.2715
14820W        W24513   4.219  14.630   0.487  0.1036 -0.1962  0.0200
14821W        W24514   0.774   3.171  17.079  0.1516  0.0629  0.1554
14822W        W24515   8.853   8.820  14.335  0.1352  0.1135  0.0017
14823W        W24516   1.234   9.711   4.253  0.0299  0.1532  0.0326
14824W        W24517   6.039   0.878   3.600 -0.1531 -0.0112 -0.1305
14825W        W24518   0.215  12.455   5.583 -0.3167 -0.0915 -0.1208
14826W        W24519   5.381   6.474  16.511 -0.1898  0.1220  0.0388
14827W        W24520   7.335   3.491   2.566  0.2497  0.0695 -0.1739
14828W        W24521   4.163   4.863  13.522 -0.0381 -0.0957  0.2896
14829W        W24522   3.482  15.516   3.664 -0.0533 -0.1181 -0.2364
14830W        W24523   4.330   8.999  16.368 -0.1969  0.2479 -0.1945
14831W        W24524   4.984   9.455   0.724  0.1828  0.0640 -0.1631
14832W        W24525  12.854   1.553   3.113 -0.2183 -0.0044 -0.1849
14833W        W24526   6.542  17.886   0.916  0.0628 -0.0459  0.0334
14834W        W24527   3.669  14.346   1.513 -0.4941  0.0642 -0.1651
14835W        W24528   6.711   7.380   0.906  0.0800 -0.4398  0.2088
14836W        W24529   1.677   4.088  12.841  0.3871  0.1735  0.0732
14837W        W24530  11.938  13.819   3.015  0.0038 -0.0694  0.4000
14838W        W24531  12.063  14.903  12.307 -0.0309 -0.0987 -0.0078
14839W        W24532  14.350   0.255  11.561 -0.2586 -0.2000 -0.2195
14840W        W24533  10.886  13.890  16.123 -0.3836 -0.0853  0.2528
14841W        W24534   0.648   6.063  14.575 -0.0328 -0.1384 -0.2981
14842W        W24535  10.164  11.976  13.595 -0.1624  0.2914 -0.0853
14843W        W24536   4.063   2.879  13.068  0.4467  0.2021 -0.0822
14844W        W24537   5.201  11.917   1.804 -0.0076  0.3004 -0.1325
14845W        W24538   5.001   9.182  14.415  0.2072  0.0718 -0.0277
14846W        W24539  12.394   2.425  15.813 -0.1072 -0.0739 -0.0415
14847W        W24540   9.072  11.450   2.087 -0.3027 -0.1661  0.1429
14848W        W24541   8.041  13.697   2.987 -0.1584  0.1130 -0.1582
14849W        W24542   3.257   4.683   4.800  0.2003 -0.0370 -0.0435
14850W        W24543   5.141  16.003  14.552 -0.1098 -0.1348  0.0270
14851W        W24544  14.170   8.523   0.224  0.2374 -0.3268 -0.1901
14852W        W24545   4.090   2.363  11.444 -0.0115  0.2221  0.0004
14853W        W24546  17.935   8.995  15.236 -0.0312 -0.1207  0.2031
14854W        W24547   2.987  12.295   3.273  0.2125 -0.1101 -0.0602
14855W        W24548   5.972   6.400   4.410 -0.1319  0.1272  0.1422
14856W        W24549   2.118  10.149  16.006  0.0051 -0.1650  0.0873
14857W        W24550   6.010  14.088  13.246  0.0842  0.2343 -0.2400
14858W        W24551   1.320   5.505  12.286  0.3234 -0.0276  0.0102
14859W        W24552   2.399  15.768   3.802 -0.0712 -0.4311 -0.3272
14860W        W24553   1.666   2.960  15.371  0.1346 -0.0317  0.1196
14861W        W24554   7.259   0.171   1.993 -0.0631 -0.4376  0.0563
14862W        W24555   7.972  11.418  17.098  0.0474  0.2019 -0.2104
14863W        W24556   7.831   1.646   1.883 -0.1814 -0.3761  0.1474
14864W        W24557   5.911   1.582  12.358 -0.2281  0.0503  0.2783
14865W        W24558   2.069  16.481  13.016 -0.1806 -0.0946 -0.2051
14866W        W24559   7.399  17.781   0.854  0.1716  0.1431  0.1773
14867W        W24560   0.481  10.899  12.673  0.0688  0.1231 -0.2122
14868W        W24561  14.199   7.072   5.531  0.3202  0.0272  0.1030
14869W        W24562   4.845   2.917  16.959 -0.0902  0.0842 -0.0592
14870W        W24563  10.947  14.305  14.632 -0.3994 -0.2247  0.1421
14871W        W24564   2.519   6.188  16.650  0.0524  0.4640  0.3897
14872W        W24565   1.731  13.794   0.101 -0.0882 -0.1118 -0.1807
14873W        W24566  10.726   5.052  12.649  0.3060 -0.2112  0.2609
14874W        W24567  13.818   4.912   3.692  0.2576  0.1002 -0.0242
14875W        W24568  17.674  11.067   0.266 -0.1106 -0.0736  0.3941
14876W        W24569   2.292  15.720  16.148 -0.3796 -0.1716  0.1218
14877W        W24570  12.729   8.916   0.581 -0.0402 -0.2019  0.2145
14878W        W24571   3.304   4.271   1.298  0.2874 -0.1487 -0.0897
14879W        W24572   1.054  14.806  11.869  0.1553  0.1129  0.2636
14880W        W24573   6.358  13.243  14.833  0.0190  0.1689 -0.0807
14881W        W24574  14.589  15.513  12.689 -0.0062 -0.0227 -0.4208
14882W        W24575   2.461   9.271  13.681 -0.2801 -0.0352 -0.1913
14883W        W24576   2.612   9.646   3.327  0.1013 -0.0614  0.0734
14884W        W24577  13.617  16.969   5.085  0.3525  0.0047  0.0123
14885W        W24578   2.298  13.031  12.764 -0.0464 -0.0511  0.0693
14886W        W24579   7.886   2.409   3.527 -0.2838 -0.1570  0.0236
14887W        W24580   4.047   2.604   5.708 -0.0884 -0.1591 -0.0558
14888W        W24581  10.604  12.191   4.268  0.0270 -0.1769 -0.0886
14889W        W24582   0.283   2.150  11.987 -0.1023  0.0273  0.1569
14890W        W24583   2.242  17.509  12.606 -0.2866  0.1193 -0.0961
14891W        W24584   7.730  15.043  15.810 -0.2699 -0.0356  0.1885
14892W        W24585  14.225   0.008   2.855  0.0093 -0.2001 -0.2291
14893W        W24586   5.139  17.933  16.278 -0.3581  0.1394  0.3452
14894W        W24587   7.586   5.630  15.973 -0.2076 -0.1521 -0.2028
14895W        W24588  17.779  17.764  17.110  0.1191  0.1830  0.0188
14896W        W24589  12.346   2.861  11.918 -0.0417 -0.0767 -0.0452
14897W        W24590   8.873   5.820  13.419 -0.0233 -0.3051 -0.1611
14898W        W24591  14.832   8.283  17.051 -0.0269 -0.1195  0.0512
14899W        W24592   0.759   2.861   5.722 -0.1302 -0.2048  0.1443
14900W        W24593   0.466   1.922   4.684  0.2368 -0.1916 -0.0904
14901W        W24594   7.552  14.202  15.101  0.0473  0.1693  0.2117
14902W        W24595   2.211   2.996  11.487 -0.0237 -0.0787  0.0876
14903W        W24596   1.530   5.007   0.776 -0.0662 -0.1169 -0.1129
14904W        W24597   5.016   8.356   1.142  0.0802 -0.5166  0.0932
14905W        W24598  17.906  13.585   3.668  0.0764  0.1411 -0.0550
14906W        W24599   1.648   9.965   1.869  0.2248  0.2381  0.0696
14907W        W24600   6.489  10.380   5.632  0.2929  0.0380  0.1103
14908W        W24601   4.652   8.908   3.300 -0.1005 -0.0257  0.0977
14909W        W24602  12.040  17.450  11.903  0.0119 -0.4098 -0.3380
14910W        W24603   7.500   7.089   2.622 -0.1328  0.1502 -0.1264
14911W        W24604   0.921   2.753  14.924 -0.0969 -0.1269 -0.1285
14912W        W24605  12.331   4.792   2.992 -0.0834 -0.3348 -0.0469
14913W        W24606   5.394  14.674  11.490  0.3670  0.0301 -0.1006
14914W        W24607  13.992  17.532   0.535  0.0533  0.0283  0.0136
14915W        W24608   6.000   5.852  13.131  0.0241  0.0072 -0.0244
14916W        W24609   2.951   9.683  12.607  0.0091 -0.1191  0.4434
14917W        W24610   4.790  15.861   6.172 -0.0015  0.2291 -0.0243
14918W        W24611   1.461   5.776   4.500 -0.0861 -0.0298  0.1418
14919W        W24612  10.569   0.844  12.102 -0.4243 -0.2017  0.1174
14920W        W24613  17.840   8.688  16.700  0.2944  0.0976 -0.2927
14921W        W24614   7.556  17.296   2.402 -0.1236  0.1623  0.0653
14922W        W24615   2.715   3.091  15.188 -0.1304 -0.0839 -0.1853
14923W        W24616   8.711  16.920  15.892 -0.0016  0.0212 -0.1664
14924W        W24617  17.042  10.933   3.708  0.2666  0.0676 -0.1790
14925W        W24618   4.114   5.284   2.346  0.2140  0.2202 -0.1751
14926W        W24619   8.954   2.385  12.129 -0.0696 -0.4301  0.1222
14927W        W24620  15.667   5.688  12.720  0.2447  0.1529 -0.0955
14928W        W24621   2.400   8.170   4.558  0.2000  0.2614  0.2726
14929W        W24622   1.657   7.127   3.315 -0.1322  0.1846 -0.1247
14930W        W24623  14.752  16.604   3.274  0.1519  0.0986 -0.1241
14931W        W24624  16.996   6.217   0.765  0.0922  0.0167 -0.2985
14932W        W24625  11.386   8.130   5.530  0.2997  0.1607 -0.1452
14933W        W24626   3.368   3.756  15.045  0.2063  0.3211  0.0934
14934W        W24627   7.930  13.940   1.423  0.2133 -0.2219 -0.0936
14935W        W24628   4.403   1.050   4.039 -0.0743  0.1316 -0.1315
14936W        W24629   9.676  11.681   6.817 -0.1147  0.1917 -0.0811
14937W        W24630   7.905  10.278   3.602 -0.1489  0.1761 -0.2762
14938W        W24631   5.146   8.184  16.607 -0.6382 -0.0163 -0.0454
14939W        W24632   4.394   7.031   3.389 -0.1760  0.1203 -0.1369
14940W        W24633   3.503  16.203   3.127 -0.3594  0.2710  0.0973
14941W        W24634  16.853  13.933   1.521  0.0797 -0.0162  0.1881
14942W        W24635   5.597  13.150   0.946 -0.5403  0.3375  0.1364
14943W        W24636   2.294  10.388  15.565  0.0595 -0.0318  0.1015
14944W        W24637   0.598  11.646   1.285 -0.1867 -0.0602  0.0479
14945W        W24638  17.854   5.208   1.826  0.0714  0.1034  0.3615
14946W        W24639   3.355  16.556  15.940 -0.1221  0.0392  0.5277
14947W        W24640   3.209   1.815  13.896  0.1030  0.1471 -0.3950
14948W        W24641   0.301   7.115  13.536 -0.4883 -0.3416  0.4930
14949W        W24642   1.986  16.111   3.958 -0.0313  0.3768  0.1336
14950W        W24643  16.389  12.782  16.933  0.1447  0.1389 -0.0276
14951W        W24644  13.803   6.204  15.727  0.2219  0.0392 -0.0427
14952W        W24645   7.311  15.261  15.820  0.0984  0.1649  0.3022
14953W        W24646  12.911   9.150  10.458  0.1240  0.2079  0.2173
14954W        W24647   6.861   9.004   3.844  0.0189  0.0175  0.1295
14955W        W24648  10.020  12.202  14.602  0.0206 -0.2883 -0.3757
14956W        W24649   0.139   0.727   5.908 -0.0378  0.0307  0.0952
14957W        W24650  10.829  12.724   2.997  0.1300  0.2954 -0.0582
14958W        W24651   5.733   0.093   2.038  0.0938 -0.0169 -0.0720
14959W        W24652   3.023   4.651   3.416 -0.1626 -0.0784 -0.1993
14960W        W24653   5.091   0.186   6.526 -0.1493  0.0478 -0.1775
14961W        W24654   0.661  14.931   3.285 -0.1099  0.0502  0.0650
14962W        W24655   7.991  10.684  13.502  0.0355  0.2055 -0.0733
14963W        W24656   1.515   8.199  11.979 -0.1958  0.0791  0.1566
14964W        W24657  12.542   4.747  11.719  0.2126 -0.0145 -0.0962
14965W        W24658   2.068   5.001   4.645 -0.1101 -0.1535  0.0027
14966W        W24659   6.082  13.454   0.917  0.2666  0.1703  0.0781
14967W        W24660   4.518  16.522  16.498  0.1164 -0.1616  0.0598
14968W        W24661   1.391   3.780  12.657  0.0278 -0.1018  0.3758
14969W        W24662   2.692  12.355   2.854 -0.2169 -0.1166 -0.2318
14970W        W24663   1.556   2.303  15.479  0.1072 -0.0206  0.0533
14971W        W24664   6.122  12.264  16.742  0.2030  0.3548  0.4690
14972W        W24665   5.656  11.161  13.882  0.0740  0.3388  0.0557
14973W        W24666  13.582  16.783   2.881  0.2126  0.1908 -0.1443
14974W        W24667   0.088   4.494   2.854  0.0005 -0.0899  0.1116
14975W        W24668   6.414   3.506  12.535  0.1260 -0.1645 -0.4138
14976W        W24669  12.963  15.826  12.749  0.0220 -0.2755  0.0814
14977W        W24670   9.365   4.559  16.885  0.0682 -0.1174  0.2133
14978W        W24671   0.253   0.743  11.382 -0.0417 -0.1701  0.0878
14979W        W24672  11.073   2.540   2.941  0.0030 -0.0283  0.2041
14980W        W24673   8.922   1.055  16.816  0.0137  0.1203 -0.0698
14981W        W24674   4.677  11.842   3.429 -0.0676 -0.0843 -0.2428
14982W        W24675   4.513   0.576  15.344  0.1898  0.1055 -0.1128
14983W        W24676   7.389  12.019   1.750  0.0619  0.1002  0.2822
14984W        W24677  13.137  10.604   4.817 -0.4250 -0.0046  0.2040
14985W        W24678   8.477   5.370  14.395 -0.3288 -0.1081  0.1495
14986W        W24679   6.319  15.221  12.827  0.0554  0.0387  0.0769
14987W        W24680   5.665  17.975  16.477  0.4053  0.3121  0.0157
14988W        W24681  15.045  14.123  13.260  0.1836 -0.0958  0.1487
14989W        W24682   4.905  11.440   3.163  0.0439  0.0967  0.2393
14990W        W24683   5.291  10.692  12.197 -0.2356 -0.1173  0.1733
14991W        W24684   9.191   0.557   4.321 -0.0433 -0.0176 -0.0180
14992W        W24685  10.743   4.287  12.177  0.2740 -0.4464 -0.0861
14993W        W24686  13.115   1.716   6.397  0.1747 -0.1054  0.0050
14994W        W24687   5.268  17.292  11.374  0.0936  0.1123  0.1459
14995W        W24688   6.024  11.280  14.174 -0.1212  0.2106 -0.0203
14996W        W24689   8.718  12.206  16.469 -0.0677  0.0090  0.0011
14997W        W24690   9.193   8.229  12.701  0.1994 -0.1430 -0.3076
14998W        W24691   1.238   7.733  11.806 -0.2712 -0.0236  0.2220
14999W        W24692   9.932  11.565  15.797  0.1631  0.3320 -0.3721
15000W        W24693   7.471  15.250   2.199 -0.1413 -0.0569 -0.3012
15001W        W24694   2.404   5.655  16.718  0.1400  0.0107 -0.3161
15002W        W24695   3.156  13.573   6.066 -0.1922  0.1636  0.1378
15003W        W24696   4.099   0.596   2.942 -0.0441 -0.2292 -0.1320
15004W        W24697   3.777  13.259  16.551 -0.0552  0.1608  0.3839
15005W        W24698  16.670  14.621   1.418 -0.0295 -0.1205 -0.1087
15006W        W24699   8.619   9.247  12.905 -0.0640  0.1804  0.0340
15007W        W24700   8.209  17.048  16.624  0.3590  0.2515 -0.1554
15008W        W24701   7.775  14.406  12.287 -0.0355  0.0439  0.2710
15009W        W24702   8.720   3.983   3.233  0.1675  0.2522  0.1652
15010W        W24703   9.663   0.256  11.681 -0.0937 -0.2111 -0.0624
15011W        W24704   4.039   7.825   0.149  0.2438  0.0177  0.1943
15012W        W24705  15.658  14.834  16.230  0.2748  0.1241  0.2851
15013W        W24706   8.380   8.143   1.641  0.1225  0.2027 -0.0630
15014W        W24707   1.190   2.487   2.899  0.3053  0.1016 -0.0502
15015W        W24708   7.624   3.287   3.462 -0.0402  0.1786 -0.3877
15016W        W24709   2.972  15.658  10.986 -0.0319  0.0736 -0.2621
15017W        W24710   9.574  15.129  13.528  0.1698  0.0724 -0.0058
15018W        W24711   4.230   6.491   0.972  0.0088  0.1576  0.2103
15019W        W24712  11.182  10.900  13.199  0.2357  0.0553  0.0128
15020W        W24713   5.471   4.742   0.145 -0.1287 -0.0326 -0.0761
15021W        W24714   1.499   7.047  14.841  0.0575 -0.0423 -0.0399
15022W        W24715  16.705  14.729  15.046 -0.0998 -0.0709  0.0558
15023W        W24716  13.959  17.346  14.449 -0.3828  0.3064  0.3552
15024W        W24717   7.021   7.327  12.842 -0.3561  0.2973 -0.2711
15025W        W24718  11.272   2.473   2.468 -0.2610  0.0319  0.0345
15026W        W24719   9.096   3.375   4.431  0.0102  0.0198 -0.4598
15027W        W24720   3.229   4.922   2.129  0.3266  0.2344  0.2008
15028W        W24721   4.771  10.838   0.599 -0.5992 -0.2121 -0.2480
15029W        W24722   5.965  16.193   3.534 -0.2223 -0.0824 -0.1703
15030W        W24723   1.849   7.622   1.917  0.0294  0.1336  0.0003
15031W        W24724  15.925   3.535   1.556 -0.4008  0.0588  0.2123
15032W        W24725   7.718  12.568   3.847 -0.2762 -0.0595 -0.1222
15033W        W24726   9.259   8.488  16.381 -0.3788 -0.1894 -0.0128
15034W        W24727  10.871  12.206  11.739 -0.2556 -0.1705  0.0812
15035W        W24728  11.584  11.214   3.747 -0.3062 -0.0174  0.0333
15036W        W24729   3.624   0.100  14.583  0.1904 -0.0360  0.1496
15037W        W24730   0.106  14.836   4.853  0.2653 -0.3277  0.1603
15038W        W24731   5.916   8.945   2.689  0.0581  0.0230 -0.0174
15039W        W24732  14.142  17.546  15.901  0.0877 -0.0925  0.0679
15040W        W24733   3.009   9.699   3.637  0.1160  0.1850 -0.0507
15041W        W24734   7.441   9.032  12.294  0.3030  0.2740  0.2453
15042W        W24735   1.058  12.104  16.851  0.1802  0.1243  0.0609
15043W        W24736   2.777  17.592   3.513 -0.1995  0.0221  0.1494
15044W        W24737   6.980  16.860   0.042 -0.0415 -0.1590  0.1327
15045W        W24738  11.252   5.096   5.377 -0.2408 -0.0843  0.1434
15046W        W24739   3.247   1.314  12.633 -0.1739 -0.0815  0.3008
15047W        W24740   0.784  14.023  15.714  0.1414  0.3801 -0.2727
15048W        W24741  14.090   8.189  14.526 -0.1807 -0.0371  0.0178
15049W        W24742   7.297   7.976  16.692 -0.3194 -0.1639 -0.0911
15050W        W24743   1.664   2.365  12.198 -0.2951 -0.5249 -0.1725
15051W        W24744   0.298  11.825  16.393 -0.0433 -0.2151 -0.0111
15052W        W24745   5.212   2.568  16.816 -0.1287  0.1238  0.0379
15053W        W24746  11.773  14.155   0.655  0.1195  0.1954  0.1296
15054W        W24747   7.976   0.233  12.344 -0.0002 -0.1170  0.0907
15055W        W24748   8.784   6.165   0.472  0.1788  0.3929  0.1644
15056W        W24749   1.526   2.230   4.192 -0.4712 -0.2185  0.1518
15057W        W24750   1.363   1.348   1.646 -0.1154  0.2659  0.0861
15058W        W24751   8.537   6.706   4.112 -0.1840 -0.0107 -0.1874
15059W        W24752   9.072  13.924  15.337  0.1831 -0.2106 -0.0142
15060W        W24753   6.320  14.883   3.696  0.0599 -0.2780  0.1325
15061W        W24754   2.707   1.976   6.237 -0.0024 -0.1202  0.2428
15062W        W24755   6.420   8.462  17.018  0.0801 -0.1531  0.3513
15063W        W24756   7.533   6.006  17.014  0.1630 -0.1956 -0.1237
15064W        W24757   4.395   9.558  12.718 -0.0988 -0.1263  0.0272
15065W        W24758   3.688   0.718  11.837  0.4246 -0.2023 -0.0143
15066W        W24759   1.125  14.387  12.495  0.2007 -0.0821  0.3727
15067W        W24760  14.423   5.555  11.411  0.0472 -0.0861 -0.0237
15068W        W24761  17.134  11.058  11.727  0.0781  0.2591  0.1912
15069W        W24762  12.468   4.484   4.642  0.0645  0.0663 -0.2403
15070W        W24763   7.240  12.776   0.485  0.1474 -0.1095  0.0864
15071W        W24764  17.321   6.056   4.131 -0.3494 -0.0109 -0.5181
15072W        W24765  15.170   0.124   1.326  0.1435 -0.0368  0.0269
15073W        W24766   6.056  13.077   5.030 -0.1949 -0.1499  0.2311
15074W        W24767  16.629   5.566   4.871 -0.1053 -0.0547  0.2120
15075W        W24768  17.641   5.421   6.201 -0.0252  0.4022  0.0858
15076W        W24769   4.853   4.318   5.960  0.0894  0.2512  0.3488
15077W        W24770   6.472   5.409   3.828  0.3210 -0.2936  0.2613
15078W        W24771   1.424   6.032   5.942  0.0083  0.0090 -0.0266
15079W        W24772   3.890   5.491   4.882 -0.2049 -0.0195  0.0396
15080W        W24773  14.369  11.662  12.796  0.2034 -0.0600  0.1033
15081W        W24774   2.848   2.828  13.957  0.0869  0.1038 -0.0070
15082W        W24775   4.774   6.660  12.082 -0.2448 -0.0256  0.1618
15083W        W24776   3.909   9.206  14.386  0.1240 -0.1843  0.4840
15084W        W24777  10.793  15.954   5.754 -0.0141 -0.1492 -0.1417
15085W        W24778  17.361   9.423  14.548  0.1404  0.0078  0.3119
15086W        W24779  13.030   4.739   1.753 -0.0257 -0.0402 -0.0263
15087W        W24780   5.918  13.266   1.957 -0.0018  0.2703 -0.1038
15088W        W24781   1.535   8.492   4.130 -0.0048 -0.1116 -0.1195
15089W        W24782  17.173   0.669  16.482  0.5137  0.0709  0.1219
15090W        W24783  17.015  17.174   3.230  0.0978  0.2529  0.3295
15091W        W24784   3.562   0.399   3.437 -0.2314  0.2040  0.2711
15092W        W24785   3.929   1.054  16.540 -0.2046  0.2189 -0.0174
15093W        W24786   5.434   4.162  15.105 -0.2788  0.0070 -0.0899
15094W        W24787   3.597   4.148  12.609 -0.0685  0.0300  0.0569
15095W        W24788   3.583   6.229   1.573  0.1889  0.2559  0.0563
15096W        W24789  12.825   5.907   0.498 -0.4127 -0.2907 -0.0452
15097W        W24790   6.814   7.346  15.731  0.0850  0.0972 -0.0401
15098W        W24791  12.940   8.647  15.114 -0.0628 -0.1212 -0.2702
15099W        W24792   4.294   8.762   0.667 -0.0477 -0.0460  0.0865
15100W        W24793   6.051  12.577  15.330  0.2892 -0.0513  0.1705
15101W        W24794   7.280   9.186   0.553 -0.3846  0.0569 -0.0542
15102W        W24795  17.112   0.553  12.819  0.4691 -0.1411  0.0849
15103W        W24796  16.587   4.810  13.315  0.2014  0.0959 -0.0115
15104W        W24797   1.784  12.934   3.324  0.0515 -0.1710  0.0016
15105W        W24798   5.371   5.363   4.038  0.1766 -0.0846  0.2244
15106W        W24799  12.075   7.413   2.552 -0.1413  0.2217  0.1377
15107W        W24800   8.465   4.798  16.728  0.0483 -0.2990  0.0103
15108W        W24801  14.879   6.887   2.054  0.0094  0.3155 -0.2183
15109W        W24802   0.543   4.805  13.570  0.1499 -0.1376 -0.1314
15110W        W24803   1.967   0.299   0.343 -0.0752 -0.0400 -0.0371
15111W        W24804  16.328  11.138  11.880  0.3355  0.1902 -0.2039
15112W        W24805   7.255  16.114   3.037 -0.2590 -0.1089  0.3496
15113W        W24806   7.087   7.583   0.666 -0.0025 -0.0985  0.1800
15114W        W24807   3.685   7.350   0.754  0.1459  0.1543  0.0268
15115W        W24808   8.840   0.076  13.158  0.2865 -0.0683 -0.2098
15116W        W24809   8.551   1.267   2.385 -0.0399  0.0914 -0.1028
15117W        W24810   2.679   1.273  16.417  0.0164 -0.2605  0.1593
15118W        W24811   7.605  12.509  15.312 -0.0651  0.2536  0.0763
15119W        W24812   2.570   6.447  11.785  0.0993 -0.0033 -0.0074
15120W        W24813   4.822   1.427   1.816 -0.2025 -0.0089  0.0064
15121W        W24814   1.966  13.376   1.555  0.0832  0.0579  0.1410
15122W        W24815   3.511  15.149   6.127 -0.0285  0.2259 -0.1653
15123W        W24816  11.476   3.476   4.300 -0.0700 -0.2684  0.0620
15124W        W24817   5.651   7.977  12.961 -0.0631 -0.3002  0.2388
15125W        W24818   5.067   5.022  16.132 -0.0790 -0.1021 -0.0243
15126W        W24819   7.535  12.089   2.838  0.2011 -0.1596 -0.0367
15127W        W24820  14.038   7.450  14.826  0.1407  0.1387  0.2427
15128W        W24821  17.522   7.719   5.078 -0.0818 -0.0535  0.1613
15129W        W24822   4.124  15.918   1.337 -0.0738  0.0522 -0.2600
15130W        W24823   8.306   8.413  12.719  0.1293 -0.3478 -0.0379
15131W        W24824  14.724  12.697  12.126  0.1690  0.2054  0.1975
15132W        W24825  10.768  15.815   1.990 -0.0183  0.2539  0.0061
15133W        W24826  17.304   9.153  15.970  0.0120  0.1775 -0.1568
15134W        W24827   8.898  13.796   1.931  0.0776  0.1467 -0.0306
15135W        W24828  14.799   3.440  15.433  0.0007 -0.0295 -0.1273
15136W        W24829  16.033  15.398   0.811 -0.1463 -0.3311  0.2321
15137W        W24830  10.442   6.246   4.309  0.0081 -0.3474  0.0871
15138W        W24831   7.120  15.140  13.131 -0.0367 -0.0488 -0.0157
15139W        W24832  17.258  11.373   6.475 -0.1241  0.1035 -0.1942
15140W        W24833   3.263  11.874  13.371 -0.0444 -0.2304  0.0512
15141W        W24834  17.270   5.692   1.166  0.1504 -0.0957  0.0579
15142W        W24835   9.576   1.078   2.619  0.1299  0.0097 -0.0923
15143W        W24836   3.819   5.634  14.001  0.3260  0.0863  0.0785
15144W        W24837   6.632   9.651   2.624 -0.0023 -0.0084  0.2529
15145W        W24838   2.723   3.950  14.272  0.5019 -0.1100  0.0665
15146W        W24839   2.297   5.107   4.149 -0.3522 -0.1503 -0.0775
15147W        W24840   7.590   3.799   3.582 -0.0039 -0.1898 -0.2570
15148W        W24841   8.862  12.832  14.927 -0.2904  0.1627  0.0868
15149W        W24842   8.604  14.014  14.205 -0.0010  0.0688 -0.0247
15150W        W24843   2.719  16.171   4.029  0.2929 -0.0622 -0.0094
15151W        W24844   9.963   6.781   6.146 -0.1892 -0.1590  0.3188
15152W        W24845   6.103   2.949   4.933 -0.5489 -0.0971 -0.0339
15153W        W24846   1.313  13.942   3.306 -0.0439  0.0583 -0.1181
15154W        W24847   5.763  16.904   4.692 -0.2062  0.1330  0.0997
15155W        W24848  15.915  17.516  13.479  0.1329 -0.0839  0.3785
15156W        W24849   4.973   4.854   5.897 -0.0869  0.2811  0.1283
15157W        W24850   1.690   4.926   0.225 -0.0881 -0.0001 -0.0258
15158W        W24851   2.541  16.300  12.216  0.1146 -0.0401  0.1319
15159W        W24852   5.885  17.476   5.099  0.0780  0.1335  0.1098
15160W        W24853  13.795  16.871  15.190  0.4967  0.3227  0.2672
15161W        W24854   4.310  15.876  12.534  0.0233  0.4107  0.1320
15162W        W24855   7.631   1.226   2.760 -0.0816  0.5555  0.0559
15163W        W24856   2.026  10.605  16.787 -0.0049  0.1687 -0.2888
15164W        W24857  10.579   5.895   0.681 -0.0002  0.0138 -0.1590
15165W        W24858   9.555  13.557   0.060  0.1913  0.2116 -0.1308
15166W        W24859   0.374   9.668  15.087 -0.2381  0.0878 -0.1223
15167W        W24860   2.009   3.468  11.372  0.0791 -0.0470  0.0114
15168W        W24861   5.543   2.159   2.149 -0.0069 -0.2255 -0.1394
15169W        W24862  10.267   2.024  11.273  0.0379  0.1119 -0.1672
15170W        W24863  14.455   7.512  15.440 -0.1110  0.1617  0.1411
15171W        W24864  11.949  16.836   2.173 -0.1076  0.0244 -0.5153
15172W        W24865   6.324   4.466   6.167  0.2143  0.4974 -0.0845
15173W        W24866   5.981  10.212   4.134  0.0118 -0.0609 -0.0764
15174W        W24867   1.965  11.186   5.287  0.0953 -0.2983  0.1874
15175W        W24868   0.905   7.140  13.416 -0.0137 -0.0622  0.0088
15176W        W24869  16.380  15.219  12.055 -0.0704 -0.2884 -0.2196
15177W        W24870   7.516  12.836   0.865 -0.1013  0.2621  0.1700
15178W        W24871   2.568   2.433   0.267 -0.2653  0.0677  0.0628
15179W        W24872   4.560   4.013  16.389 -0.0401 -0.1913  0.0403
15180W        W24873  16.587  16.875   3.279 -0.0895  0.1128  0.1512
15181W        W24874   7.303   7.126   1.540  0.2013  0.0608 -0.3324
15182W        W24875   0.969  13.327  11.107  0.2365 -0.1908 -0.4798
15183W        W24876   6.669   8.577   0.751  0.1198 -0.2606 -0.1179
15184W        W24877   5.810   2.567  15.457 -0.2724  0.1149  0.1531
15185W        W24878   0.134   8.318   3.829  0.1935 -0.1506  0.1342
15186W        W24879  10.968  16.021   2.525 -0.1656  0.1601 -0.1292
15187W        W24880   8.333  15.060  13.027  0.1903  0.1925 -0.1761
15188W        W24881   1.482   2.150   2.570 -0.1136  0.0551 -0.0608
15189W        W24882   5.634   6.800   4.484 -0.0644 -0.2420  0.1767
15190W        W24883   6.023   3.512  12.939 -0.1611  0.0163 -0.1912
15191W        W24884   9.018   7.656   6.575  0.0472  0.1278 -0.2694
15192W        W24885   5.184   0.349  15.908  0.0022 -0.3226 -0.3887
15193W        W24886   9.010  15.707   6.067  0.0805  0.0631  0.1310
15194W        W24887  15.364  16.740   5.660  0.2345 -0.1047 -0.0492
15195W        W24888   4.615  16.020   6.682  0.0126 -0.1395 -0.0193
15196W        W24889  12.192   0.806   0.172  0.2700 -0.0177 -0.0854
15197W        W24890  12.460  12.854   1.897  0.1503 -0.2300  0.0520
15198W        W24891  14.190  13.935  15.558  0.3239  0.0573 -0.1615
15199W        W24892  13.991   7.684  16.317  0.0602 -0.1079 -0.0832
15200W        W24893   9.245   7.624   3.219  0.2066  0.0851 -0.0378
15201W        W24894  14.980  16.950  11.948 -0.1032  0.0929 -0.1214
15202W        W24895   0.859   1.153   6.086  0.2912 -0.1088  0.2824
15203W        W24896   1.669  11.676   3.536 -0.3493 -0.0635 -0.1918
15204W        W24897   4.601   4.040   4.910 -0.3272 -0.0131 -0.2714
15205W        W24898   8.255   1.080   4.361  0.2273  0.1761 -0.1017
15206W        W24899   3.517  13.404  13.753  0.0786 -0.0051 -0.1899
15207W        W24900   1.137   5.878  11.379 -0.1366 -0.3000 -0.0671
15208W        W24901   5.281   4.754   3.772  0.1704  0.1308 -0.2730
15209W        W24902  12.760  13.113  16.132  0.3327  0.0675  0.2452
15210W        W24903   8.963   6.296  13.398 -0.0355  0.1655 -0.2664
15211W        W24904   5.057   1.362  15.877 -0.0572  0.0048 -0.0025
15212W        W24905   1.474   9.022   4.413  0.0970  0.1724 -0.0828
15213W        W24906   7.765  15.588  13.738 -0.0690  0.0599 -0.0242
15214W        W24907   1.666  10.384   0.008  0.0080  0.3100  0.2576
15215W        W24908  11.916   2.459  11.090 -0.1453 -0.2675 -0.0747
15216W        W24909  11.507   1.697   3.037 -0.3631  0.2920 -0.5029
15217W        W24910   3.429   0.078   1.357  0.0365  0.0175 -0.1255
15218W        W24911   4.322   9.448  11.654 -0.0414  0.0034 -0.1444
15219W        W24912  10.701   1.030  15.646  0.1859 -0.1215 -0.3413
15220W        W24913   3.789   5.451  15.731  0.2696 -0.1352  0.2571
15221W        W24914   0.789  16.192   5.871 -0.2828 -0.2316 -0.2321
15222W        W24915  10.066  11.767  13.157  0.0577  0.1618  0.3551
15223W        W24916   3.599   8.076   3.159  0.1998 -0.1007 -0.1682
15224W        W24917   5.622  14.634  12.535 -0.1158 -0.0787  0.0296
15225W        W24918  17.220  11.836   5.179  0.2678 -0.1152 -0.1745
15226W        W24919   9.618   4.717  13.358  0.1026 -0.0855  0.0554
15227W        W24920   7.145  17.112  15.839 -0.0051  0.1022  0.0980
15228W        W24921  16.845  14.617   2.280  0.2428  0.1096 -0.0360
15229W        W24922   4.875   2.688   3.591 -0.0567  0.3178 -0.0126
15230W        W24923   4.122  15.763   4.345 -0.1178 -0.0471  0.3070
15231W        W24924   2.098   3.009   0.749  0.0218  0.1060 -0.2841
15232W        W24925   6.111   1.849   4.823  0.1989  0.1317  0.3885
15233W        W24926   6.076  13.199   3.732  0.0065  0.0438  0.0926
15234W        W24927  13.459   3.065   5.689 -0.1073 -0.0958 -0.0947
15235W        W24928   8.340  17.169   4.519  0.0606  0.0028  0.0998
15236W        W24929   6.158   9.410   5.648 -0.1078  0.1504  0.2383
15237W        W24930   1.122   3.692  11.867  0.1227 -0.2484 -0.2822
15238W        W24931   0.015   3.413   4.236  0.0273  0.1111 -0.4019
15239W        W24932   2.531   1.899  16.473 -0.0221 -0.1209  0.2332
15240W        W24933   5.088  14.496   2.390  0.2548 -0.0060 -0.0909
15241W        W24934   4.892   8.482  16.932  0.0324  0.1081 -0.1938
15242W        W24935  13.191   2.365   1.397  0.1466 -0.2438 -0.0175
15243W        W24936   4.441  11.336  14.798 -0.2902 -0.0894 -0.0308
15244W        W24937  17.036   7.206  16.990 -0.1409  0.1215  0.1412
15245W        W24938  14.727   9.088  13.552  0.0851 -0.0600 -0.2785
15246W        W24939   3.989   6.187  15.796  0.1894  0.2523  0.1274
15247W        W24940   8.538   9.846   1.019 -0.4160 -0.1355 -0.2117
15248W        W24941  13.413  16.148  14.484 -0.0005  0.1786 -0.1409
15249W        W24942   8.550   9.440   1.426 -0.1769  0.3176  0.1437
15250W        W24943   9.661  11.517   5.758 -0.1866 -0.1275 -0.2915
15251W        W24944   3.403  12.619   5.242  0.1893  0.1833 -0.1029
15252W        W24945   5.390   6.756  16.066  0.0455  0.1615 -0.0196
15253W        W24946   3.980   5.338  15.267  0.0594  0.1447 -0.1285
15254W        W24947   9.630   4.031  16.276  0.0817  0.0128  0.1909
15255W        W24948  16.392  13.886  16.942 -0.0564 -0.0512  0.1518
15256W        W24949   8.309   7.058   1.917 -0.1777 -0.1501  0.1866
15257W        W24950   2.533  11.567  11.935  0.0384  0.0812 -0.0396
15258W        W24951   5.947  12.126   6.011  0.3157  0.2010  0.1191
15259W        W24952   3.605  12.567   0.484 -0.0587  0.0200  0.2206
15260W        W24953   6.795  11.899  13.400  0.6525 -0.1040  0.0540
15261W        W24954  17.204   2.737   4.709 -0.1862 -0.0381 -0.0799
15262W        W24955   6.985  15.914  17.025 -0.1491 -0.1669 -0.0522
15263W        W24956  10.770   0.149   5.504  0.0200 -0.1012 -0.0058
15264W        W24957   0.725   8.988  16.950  0.0680  0.0067  0.2127
15265W        W24958   0.494   5.567  16.773 -0.0113 -0.3812 -0.2111
15266W        W24959   9.221  13.584   0.612  0.2467  0.0733  0.0047
15267W        W24960   6.099   6.360  15.104 -0.0056 -0.5335 -0.0391
15268W        W24961   4.788  11.609  16.376 -0.0227  0.1212  0.1253
15269W        W24962   8.692   9.270   4.036 -0.0999  0.0330  0.0835
15270W        W24963   6.625  15.406   0.881  0.1354 -0.0216  0.2316
15271W        W24964   7.581  15.040  14.490 -0.2437  0.1087 -0.0478
15272W        W24965   7.175  13.319   1.295 -0.1960  0.0753 -0.3123
15273W        W24966   0.371   4.004  12.760  0.1185  0.0569 -0.0017
15274W        W24967   4.798  11.312  15.889  0.0812  0.0844  0.2661
15275W        W24968  15.194   7.903  13.846 -0.0003 -0.0366  0.0826
15276W        W24969   1.149  17.495   1.821  0.1085 -0.0116  0.0070
15277W        W24970   8.543   5.623  15.031  0.0367  0.0900  0.1240
15278W        W24971   6.198   8.690   0.970  0.0373  0.0578  0.3105
15279W        W24972   3.191   4.754  12.096 -0.1647 -0.1165 -0.1904
15280W        W24973  12.852   7.855   5.655  0.0006 -0.2557  0.3355
15281W        W24974  16.891   8.903  16.593  0.2557 -0.0410 -0.2667
15282W        W24975   1.285  10.397   1.127 -0.0601  0.0281 -0.3692
15283W        W24976  17.220  14.615  16.304 -0.0285 -0.1915 -0.0976
15284W        W24977   8.091   1.041   5.459 -0.1583  0.0497  0.0811
15285W        W24978   8.392  14.118   1.760 -0.4228 -0.1202 -0.1959
15286W        W24979  17.827   3.093   1.563  0.1130  0.0533  0.0392
15287W        W24980  12.530  10.910   2.366  0.3214 -0.4171  0.3746
15288W        W24981   4.544  15.260   5.423  0.0126 -0.0565 -0.0859
15289W        W24982   2.494   8.340   1.148 -0.0249 -0.2034 -0.1067
15290W        W24983   4.051  15.505  12.924  0.3875 -0.2073  0.1721
15291W        W24984   0.715   2.096  11.668 -0.0581  0.0004  0.3752
15292W        W24985  17.964   3.687   2.809 -0.0593  0.0431  0.1178
15293W        W24986  16.737   7.068   2.394 -0.1085  0.1077 -0.0387
15294W        W24987  15.573   5.890   6.239 -0.1469  0.0085 -0.2369
15295W        W24988   1.767   5.235  13.130  0.4761 -0.0237  0.1494
15296W        W24989  15.670   8.665   0.090 -0.1369  0.1011 -0.1506
15297W        W24990   5.131   6.793   1.185  0.0385 -0.3871 -0.1278
15298W        W24991   8.184   7.954   6.648 -0.0278 -0.1157 -0.0953
15299W        W24992  15.264  16.649   3.360  0.0322 -0.2207  0.0078
15300W        W24993  11.664  17.255   4.850 -0.0327 -0.0217 -0.0806
15301W        W24994   6.573  14.338   5.604 -0.1619  0.0877  0.2597
15302W        W24995   8.823   7.329   3.148 -0.0851  0.1586 -0.2260
15303W        W24996   6.309   6.624  17.004  0.0564  0.0262 -0.0384
15304W        W24997   9.051   3.204   5.513  0.1758  0.1454 -0.0345
15305W        W24998   7.902   0.499  12.826  0.0101  0.1577 -0.5132
15306W        W24999  10.090  10.312   6.268  0.1573 -0.0135  0.0399
15307W        W25000  11.406   6.924  16.180  0.1772 -0.2884  0.0760
15308W        W25001   5.797  12.905  12.128  0.1055 -0.1812  0.0524
15309W        W25002   8.643   4.539   3.337  0.1421 -0.0094  0.0718
15310W        W25003   5.546   2.552  16.474  0.0570 -0.0451  0.1629
15311W        W25004  14.248  10.751  10.838 -0.1162  0.2792 -0.2030
15312W        W25005   6.223  13.775   1.307  0.0797  0.1808  0.0294
15313W        W25006   3.445  12.599  13.069 -0.0353 -0.0345  0.1798
15314W        W25007  17.189   5.354  14.262 -0.0677 -0.0072 -0.2245
15315W        W25008  12.507  16.617   1.599  0.1077  0.1706 -0.1216
15316W        W25009   2.567  15.760   1.307 -0.1428 -0.1450 -0.0163
15317W        W25010   4.892   8.672  15.687  0.5501 -0.2049 -0.0139
15318W        W25011   3.555  14.664  13.143  0.0169  0.1372  0.3816
15319W        W25012  14.458  15.473  15.911 -0.2119 -0.0937 -0.0096
15320W        W25013   8.152  15.521   5.398  0.1013 -0.1069  0.4432
15321W        W25014   3.933   7.370  15.089 -0.0574 -0.3863 -0.1721
15322W        W25015   7.538   0.445  12.479  0.1016 -0.1264 -0.1335
15323W        W25016   7.741  17.175  15.035  0.2389 -0.0796 -0.0713
15324W        W25017   8.827  16.977   0.642 -0.5885 -0.1590 -0.1538
15325W        W25018   1.824   6.808  16.436  0.0094  0.1787 -0.2141
15326W        W25019   5.172   9.359   4.281  0.0684 -0.0822 -0.3888
15327W        W25020  16.746  13.838  16.212  0.0886 -0.1329  0.2054
15328W        W25021   0.648  14.863  13.839 -0.2051  0.1247 -0.1963
15329W        W25022   7.965   1.092   0.107  0.1153 -0.1626 -0.2174
15330W        W25023   5.324   1.398  12.221 -0.0023  0.2667 -0.1970
15331W        W25024  17.785  13.311   4.403  0.0010 -0.2201  0.0234
15332W        W25025  10.919   3.915   1.792  0.1723  0.2118  0.0414
15333W        W25026   7.727   0.296   1.747  0.1096  0.0263  0.3375
15334W        W25027   6.331   0.726  16.726  0.2425 -0.2344  0.0033
15335W        W25028  16.806  14.005  10.246  0.1109  0.1483  0.0223
15336W        W25029  16.090  14.366   0.952  0.0104  0.0274  0.2246
15337W        W25030   2.166   3.344   0.407 -0.1394 -0.1348  0.1902
15338W        W25031   0.500   1.214   5.231 -0.0753 -0.2947 -0.1176
15339W        W25032   8.367  16.158  15.928  0.1109  0.1956  0.2330
15340W        W25033   0.535   0.125  10.886  0.0329  0.3755 -0.2385
15341W        W25034   7.420   1.885   2.026 -0.1590 -0.0037 -0.0667
15342W        W25035   1.350   4.246   2.364  0.0840 -0.2374 -0.1409
15343W        W25036  16.832   7.115   3.348  0.2625 -0.1879 -0.0702
15344W        W25037   3.894   7.948   2.176 -0.0849  0.1296  0.2512
15345W        W25038   1.782  13.544  13.775  0.1136  0.1522 -0.1780
15346W        W25039   7.410   4.329   1.129  0.1430  0.0158 -0.1583
15347W        W25040   2.189   0.581  17.107  0.1239 -0.0285  0.1838
15348W        W25041   5.155  10.133  15.345  0.0607 -0.1209 -0.3169
15349W        W25042  12.328   1.469   3.272  0.0014  0.0047 -0.3069
15350W        W25043   9.074  10.142   0.051  0.1408 -0.0845 -0.1309
15351W        W25044  17.793  16.300   5.552 -0.1389 -0.0157 -0.0602
15352W        W25045   8.680  15.694   2.701  0.1616  0.0382  0.0954
15353W        W25046   6.910   5.870  15.474 -0.0573  0.2600  0.0696
15354W        W25047   8.835   7.860  15.617  0.0261  0.0624  0.0386
15355W        W25048   6.851   1.832   1.105 -0.1748  0.1399 -0.0916
15356W        W25049   7.207  17.453   5.294 -0.2315 -0.2241 -0.1131
15357W        W25050   9.982   7.640   4.045  0.0757 -0.1307  0.1776
15358W        W25051   5.292  11.357  13.527  0.4935 -0.3042 -0.3689
15359W        W25052  15.844   1.774  12.102  0.0337  0.0091  0.1980
15360W        W25053   5.087  10.267   4.524 -0.2216  0.0305 -0.3015
15361W        W25054   2.857   3.398  15.544  0.0871  0.3805 -0.0903
15362W        W25055   7.515   1.628  15.902  0.0591 -0.1293 -0.0000
15363W        W25056   4.835   1.721   2.456  0.2111  0.2224 -0.1991
15364W        W25057   8.483   7.695   2.627 -0.1029 -0.0128 -0.0838
15365W        W25058   8.064   9.859   5.109 -0.4026 -0.0247  0.0236
15366W        W25059   6.638   9.732  13.323  0.1476 -0.0315  0.0083
15367W        W25060   3.524   8.696   6.161  0.3260  0.0796 -0.0575
15368W        W25061  13.481   6.974   4.204  0.1770 -0.0341  0.1232
15369W        W25062  15.905   4.958   0.006 -0.0075 -0.0518 -0.1550
15370W        W25063   7.598   3.856   1.304  0.2600 -0.2814 -0.3499
15371W        W25064   3.744   8.318  13.584 -0.0002  0.1364 -0.2268
15372W        W25065   8.435  12.190  14.204 -0.0698 -0.3914 -0.0437
15373W        W25066   5.008  16.634   0.218 -0.1345 -0.0437 -0.1289
15374W        W25067   4.685   0.616   5.840  0.3033 -0.1564  0.0910
15375W        W25068   1.686   5.052   2.697 -0.1024 -0.2232 -0.1994
15376W        W25069   2.318  13.653  16.535  0.5048  0.4665  0.5385
15377W        W25070  14.654  10.256   1.610 -0.3675 -0.0305  0.1287
15378W        W25071  16.784  14.233  13.024  0.1771 -0.1526  0.0050
15379W        W25072  17.495   1.959   4.714 -0.1042  0.2278  0.0112
15380W        W25073  16.956   9.933  15.338 -0.0399  0.1461 -0.1850
15381W        W25074  15.691   1.094   3.895  0.0750 -0.1352  0.1545
15382W        W25075   1.385  11.223   4.596  0.0937 -0.0254  0.2115
15383W        W25076   1.869   1.238   4.441 -0.1654  0.0292  0.0031
15384W        W25077  15.362   5.711  16.332 -0.0509  0.0929 -0.1048
15385W        W25078   0.215   8.917   4.735 -0.0163 -0.0090 -0.0855
15386W        W25079   3.484   5.240   0.524  0.1952  0.0644  0.2193
15387W        W25080  11.791  14.581  12.669 -0.2308 -0.1080  0.1956
15388W        W25081  15.288   3.371  14.019  0.2385 -0.2224  0.2202
15389W        W25082   9.514  13.007  13.527 -0.1958  0.2458  0.2022
15390W        W25083   4.878  17.869  13.050 -0.0891  0.2820  0.0791
15391W        W25084   5.439  12.271  15.022 -0.1764 -0.0274  0.1360
15392W        W25085   0.130   2.161  15.924  0.1478 -0.0469  0.0807
15393W        W25086   0.569  11.543  15.196  0.1080  0.1668  0.3534
15394W        W25087   1.503   1.548   1.215 -0.2076  0.1844  0.0497
15395W        W25088   6.711  12.000  12.905  0.0829 -0.0157 -0.1180
15396W        W25089   3.069   7.513   1.270 -0.3096 -0.0635 -0.0846
15397W        W25090   6.420  16.941  14.675  0.1370  0.1504 -0.1032
15398W        W25091  12.159  17.070   4.739  0.4431  0.0626  0.2964
15399W        W25092   6.780   1.439  12.396  0.3159 -0.1872 -0.1010
15400W        W25093  15.806   0.720  16.662 -0.2041 -0.3907 -0.0172
15401W        W25094   9.590   2.395   5.714  0.2703 -0.3209  0.1616
15402W        W25095   0.441   2.602  13.251 -0.1738  0.0417  0.1168
15403W        W25096   7.688  15.800   1.426  0.1075 -0.2345  0.0576
15404W        W25097   9.330   7.971  16.421 -0.2214 -0.0550 -0.2288
15405W        W25098  15.211   7.143   2.745  0.1623 -0.2592 -0.2310
15406W        W25099  11.626   4.976  15.007 -0.0753 -0.1242  0.0784
15407W        W25100   8.835   2.555  14.112 -0.3926  0.0998 -0.2231
15408W        W25101   4.855  12.979  13.383 -0.1889 -0.3457  0.1259
15409W        W25102  11.725  10.824  16.133  0.2221 -0.0856  0.1442
15410W        W25103   3.330   4.164  15.764 -0.0783 -0.0091 -0.0945
15411W        W25104   9.943  15.070  12.497  0.1925 -0.0126  0.0803
15412W        W25105   2.258   5.180  13.289 -0.0830 -0.1096 -0.0901
15413W        W25106   9.414   4.892   0.667  0.2377 -0.0053  0.1180
15414W        W25107   5.653  12.070   5.523 -0.1895 -0.0388  0.2345
15415W        W25108   5.881   6.954   0.570 -0.0618 -0.2735 -0.0685
15416W        W25109  14.911   4.182   0.329 -0.1646  0.0005 -0.0873
15417W        W25110  11.100   9.216   0.385  0.0572 -0.0061  0.0755
15418W        W25111   0.677   7.038   2.389 -0.0641  0.0792 -0.1044
15419W        W25112   1.683   3.852   2.444  0.0605  0.0652 -0.2188
15420W        W25113   8.285   5.301   3.681 -0.1903  0.0556 -0.3564
15421W        W25114   6.272   6.367  14.166 -0.1332  0.0440  0.0613
15422W        W25115  16.582   2.810   3.436 -0.1425 -0.0733  0.1561
15423W        W25116  16.586  14.268   5.238 -0.1552 -0.3363 -0.1578
15424W        W25117   0.598  12.569   5.863  0.3476  0.1176  0.2457
15425W        W25118  17.112  17.524   2.415  0.0456 -0.0473 -0.1845
15426W        W25119   6.799  17.476   1.296 -0.0374 -0.0799  0.0523
15427W        W25120   4.476   2.866   3.119  0.1070  0.1129 -0.0217
15428W        W25121   8.589  15.756   3.190  0.2206 -0.0289 -0.1345
15429W        W25122  13.613  10.721   1.222 -0.1646  0.1650 -0.1738
15430W        W25123   0.596  12.420  11.411  0.2452 -0.1815  0.1038
15431W        W25124   3.636  14.369   2.242  0.0526  0.3037 -0.0400
15432W        W25125   9.014   5.952   2.340 -0.0759  0.1258 -0.0989
15433W        W25126  14.243  15.456   2.634 -0.3122 -0.0861 -0.3284
15434W        W25127   0.627  14.859   0.164 -0.2166 -0.1576  0.1873
15435W        W25128   0.865   9.997   1.235 -0.3056 -0.1223  0.0864
15436W        W25129   0.784   7.764  12.011 -0.2836 -0.0080  0.0197
15437W        W25130   7.574  11.702   3.449  0.0334  0.3064 -0.2017
15438W        W25131   7.174   6.300   5.267 -0.1647 -0.0240  0.2096
15439W        W25132   5.918  16.529  13.263 -0.2692  0.1031  0.0211
15440W        W25133   6.065   9.158   3.837 -0.2321  0.0252 -0.1890
15441W        W25134   9.427   8.355   0.150  0.4956  0.1235 -0.2860
15442W        W25135   5.170   6.050  14.606 -0.1090 -0.0085 -0.1645
15443W        W25136   5.286  10.571   5.394 -0.1403 -0.1232  0.0437
15444W        W25137   2.992   4.354  16.736 -0.1073 -0.2080  0.0919
15445W        W25138   0.095   7.561  11.170 -0.3249 -0.4475 -0.0287
15446W        W25139   7.496  11.345  12.646 -0.0248 -0.0282 -0.0602
15447W        W25140  16.752   5.059   2.564 -0.0265  0.2104  0.3931
15448W        W25141   1.244   1.801  15.872  0.0024  0.1216  0.0297
15449W        W25142   5.724   6.185   0.542 -0.1195 -0.3874  0.2061
15450W        W25143   2.341  14.769  12.262 -0.4361 -0.0444  0.0469
15451W        W25144   4.248   0.537   1.623  0.0947  0.0066  0.0753
15452W        W25145   0.106   3.631  16.578 -0.0014  0.2117  0.1330
15453W        W25146   4.922   2.114  11.681  0.2361 -0.4045  0.1927
15454W        W25147   5.224   0.400  12.229 -0.2057 -0.3817  0.0415
15455W        W25148   1.652   4.155  13.327  0.0307 -0.2809 -0.3603
15456W        W25149   3.276  11.684  14.498 -0.1213 -0.1734  0.0383
15457W        W25150   9.138   2.319  14.531  0.1754  0.2511 -0.1182
15458W        W25151   8.171   9.269   5.900 -0.0891  0.2596  0.0863
15459W        W25152   5.051  10.771   1.970 -0.0935 -0.3208 -0.3303
15460W        W25153  10.566  13.338   5.480  0.0454 -0.0908 -0.0592
15461W        W25154  10.371   4.675   5.464  0.0073 -0.3307  0.0588
15462W        W25155  16.980   1.561  14.823 -0.0236 -0.0498  0.3654
15463W        W25156   9.301  17.444   3.012  0.1003 -0.0258  0.2053
15464W        W25157  10.310  15.003  16.915 -0.2997 -0.0241 -0.0751
15465W        W25158   0.057   2.095  15.272  0.0409  0.0416  0.0150
15466W        W25159  16.156   9.686  11.342 -0.1213 -0.1258 -0.1376
15467W        W25160   4.085  13.652  13.675 -0.1258  0.1017  0.1012
15468W        W25161  10.003   1.123   5.407 -0.0010 -0.1940 -0.2505
15469W        W25162  14.948   2.003  14.093 -0.1230  0.2166 -0.0436
15470W        W25163   0.010   5.632  16.566 -0.1321  0.0948 -0.0322
15471W        W25164   0.369   4.660  14.037  0.1648 -0.2006 -0.1300
15472W        W25165   0.354  10.461  14.853  0.0525 -0.0951 -0.3580
15473W        W25166   4.419   7.749   1.567  0.3788  0.0038  0.2063
15474W        W25167   7.513   9.650  11.240 -0.1247  0.1707  0.0165
15475W        W25168   7.808   3.788   5.868  0.0672 -0.0915 -0.2625
15476W        W25169  13.000   7.869  12.836 -0.3456  0.0209 -0.2316
15477W        W25170  16.945   8.517   5.036  0.0747 -0.1082  0.0201
15478W        W25171   5.102  11.847  15.317  0.0581  0.2945  0.1470
15479W        W25172   5.352   6.114  12.001 -0.1581  0.0613 -0.1990
15480W        W25173  10.687  15.480   1.637  0.2153 -0.2056  0.0933
15481W        W25174   5.877   5.368  15.280 -0.2255  0.0298  0.1164
15482W        W25175  13.549   6.395   4.625  0.0760  0.3269 -0.0637
15483W        W25176   4.955   7.391   2.863 -0.3836 -0.0594 -0.0553
15484W        W25177   8.457   2.062   2.319  0.0922 -0.1731  0.2611
15485W        W25178   3.474  15.597  10.996 -0.0468 -0.0995  0.2517
15486W        W25179  14.889   7.922  15.578  0.1240  0.1877 -0.0073
15487W        W25180   8.330   1.404   5.157  0.1159  0.0945 -0.3219
15488W        W25181   6.754   4.155   3.014  0.0636 -0.2118 -0.0179
15489W        W25182   8.572  11.400  14.238  0.1082 -0.4466  0.0989
15490W        W25183   8.699  14.404  16.628  0.0173 -0.3179 -0.0634
15491W        W25184   8.220   5.556   4.756  0.1585  0.0711  0.2206
15492W        W25185  15.477   2.311   4.100 -0.1004 -0.0336  0.2235
15493W        W25186   8.876   9.978   6.259  0.1900  0.2039 -0.0077
15494W        W25187  13.397  17.037  13.491  0.0439  0.3314  0.1854
15495W        W25188  14.244   6.826   2.354 -0.0583  0.1339 -0.0869
15496W        W25189   5.090  16.753  16.763 -0.3209  0.0333 -0.2291
15497W        W25190   7.194   3.514  16.978 -0.0574 -0.0316 -0.0956
15498W        W25191   0.740   3.956  15.977 -0.0689  0.1306  0.1167
15499W        W25192   8.149   4.145   5.753 -0.4200  0.1660 -0.4225
15500W        W25193   5.785  11.534   0.109  0.0488 -0.1334  0.1194
15501W        W25194   6.501   1.403   4.038 -0.1401 -0.3215  0.0037
15502W        W25195   7.302  17.797   4.341  0.0605 -0.1103  0.3880
15503W        W25196  14.509   3.356  12.201 -0.3751 -0.1786  0.1190
15504W        W25197   3.640   6.129  11.206 -0.3604 -0.1016  0.1754
15505W        W25198  10.497  16.661   1.437  0.1426  0.0703 -0.1925
15506W        W25199  10.026   8.465  16.349  0.0961 -0.3703  0.1257
15507W        W25200   2.430   4.233   4.665 -0.2083  0.2386 -0.0176
15508W        W25201  12.873   4.612   3.944  0.1438  0.2606  0.0510
15509W        W25202  13.160   2.388   0.310  0.3981  0.1618  0.1692
15510W        W25203   4.083   3.391   2.500  0.0051  0.2784 -0.3056
15511W        W25204   5.329  13.667  13.584  0.1738  0.1005  0.0403
15512W        W25205   7.609  16.616   1.770  0.0574 -0.4229 -0.2264
15513W        W25206   3.108  10.846  12.124  0.1560 -0.1584  0.0622
15514W        W25207   0.936   7.095  16.758  0.1436  0.2366 -0.3125
15515W        W25208   2.783  17.928  13.418 -0.1255  0.1179 -0.0878
15516W        W25209   6.669   1.873   4.311 -0.4830 -0.1962 -0.0525
15517W        W25210   9.049  16.204  13.317 -0.0966 -0.3779  0.0873
15518W        W25211   2.666   2.249  14.137 -0.2846  0.1711  0.0293
15519W        W25212   1.434   6.456  15.715  0.3445 -0.0286  0.0063
15520W        W25213   5.667   5.196  12.109  0.0348 -0.0213 -0.3170
15521W        W25214   5.102  17.566  13.439 -0.1178 -0.1298 -0.3476
15522W        W25215  12.251   8.931  12.623  0.0319  0.0885  0.0466
15523W        W25216  12.884   7.687   0.669 -0.0566 -0.1128  0.0157
15524W        W25217   2.256  14.799  14.015  0.2284 -0.0735 -0.0366
15525W        W25218  11.353  10.976   5.612  0.3458  0.0621  0.0945
15526W        W25219   8.359   5.436  12.630  0.2648 -0.1024 -0.0028
15527W        W25220  13.541  10.200   1.173  0.0217 -0.3091 -0.0319
15528W        W25221  14.905  10.430  13.299  0.2886 -0.2531 -0.0048
15529W        W25222   2.574  17.404  12.976 -0.2375  0.2744 -0.1116
15530W        W25223  12.717  13.938  12.839  0.1264 -0.1986  0.0417
15531W        W25224  11.452  13.230  15.013 -0.2072  0.2121 -0.1669
15532W        W25225   2.469  15.422  15.613  0.2160 -0.0346 -0.1728
15533W        W25226   6.514  13.178  12.506 -0.1538 -0.3041  0.2292
15534W        W25227  17.621   1.041   4.015 -0.0449  0.0132 -0.2034
15535W        W25228   3.562  12.453   4.164 -0.0376 -0.0759  0.1169
15536W        W25229  16.952   3.633   5.719 -0.1441 -0.0456 -0.0900
15537W        W25230   5.814   5.664  16.326 -0.0326  0.0300  0.0124
15538W        W25231  10.192  13.415  16.550 -0.1547 -0.2303  0.0132
15539W        W25232   6.656  13.737   0.291  0.0632 -0.2952 -0.1334
15540W        W25233   1.256   3.506   5.316  0.0674 -0.0503 -0.0023
15541W        W25234   8.142  10.206  12.743  0.0501 -0.0610  0.2823
15542W        W25235   5.234   7.045   3.098 -0.0081  0.1860 -0.2789
15543W        W25236  11.755   1.323   3.831 -0.1563  0.1373  0.1106
15544W        W25237   7.023   1.107   1.912 -0.1554  0.0239 -0.2907
15545W        W25238   1.744   7.192   6.288  0.0288  0.2450  0.0565
15546W        W25239   0.609  12.176   5.517 -0.2710  0.2107 -0.0279
15547W        W25240   5.464  11.833  14.300  0.1219  0.0010  0.0890
15548W        W25241   1.435   1.012   3.740  0.0600 -0.1781 -0.3110
15549W        W25242  16.008   8.646   3.695  0.4342  0.3320 -0.3112
15550W        W25243   2.425   2.076  15.137  0.1642  0.0161 -0.1404
15551W        W25244   8.669  16.317  11.929 -0.0970  0.1781 -0.0801
15552W        W25245  14.588   2.522   1.459 -0.2611  0.0841 -0.1487
15553W        W25246   3.681   1.863   5.260 -0.0112  0.1449 -0.1610
15554W        W25247   0.411  10.237  11.258 -0.0538  0.4710 -0.0068
15555W        W25248   2.056   6.339  12.880  0.3109  0.3188 -0.1591
15556W        W25249   0.862  15.709   5.056  0.1289 -0.0335  0.2678
15557W        W25250   2.052  16.843  14.446  0.1365  0.0498  0.2301
15558W        W25251   2.548   4.848  14.408 -0.1441 -0.1112 -0.0314
15559W        W25252  12.872  11.506  15.761  0.0530 -0.1577  0.1932
15560W        W25253  10.262  15.635   0.496 -0.1686  0.0487 -0.0220
15561W        W25254  11.045   4.812  12.220  0.3409  0.1652 -0.1715
15562W        W25255  14.744   3.533  13.896 -0.2414 -0.2149 -0.0054
15563W        W25256  12.770  15.245  16.698 -0.2990 -0.0818 -0.1600
15564W        W25257  13.113  15.464  16.344  0.1956 -0.2026  0.0270
15565W        W25258  16.761  12.649  14.713 -0.1089  0.2096  0.0393
15566W        W25259   1.990  13.682   2.085 -0.0065  0.0964  0.0206
15567W        W25260   3.385   0.621   1.698  0.0089 -0.0650 -0.0608
15568W        W25261   5.199  12.364  15.399  0.0369  0.0765  0.0632
15569W        W25262   7.848  16.112   5.618 -0.5268 -0.1436 -0.0849
15570W        W25263   7.551   2.374   5.722 -0.3434  0.1673 -0.2305
15571W        W25264  13.606   8.011   2.461 -0.0327  0.1163  0.1093
15572W        W25265  13.385  16.936  16.016 -0.0863 -0.0842 -0.0845
15573W        W25266   4.136   3.704  16.411  0.0917 -0.2082 -0.2312
15574W        W25267  14.468  16.545   4.268 -0.2494 -0.0290  0.3588
15575W        W25268   6.502  10.723   6.019 -0.1117  0.3704  0.0714
15576W        W25269   5.103  10.580  15.205  0.2393  0.1922 -0.0567
15577W        W25270   9.725  16.838   4.888 -0.2345  0.0076 -0.1927
15578W        W25271   7.616  12.476  14.550  0.2108 -0.1633 -0.3446
15579W        W25272  12.349   6.613   1.097 -0.3631 -0.0224 -0.3166
15580W        W25273   8.343  16.624   4.574 -0.0629  0.0454 -0.1521
15581W        W25274  11.066   6.438   5.022 -0.1818  0.1544  0.0726
15582W        W25275   2.052  16.187  16.969 -0.0712  0.1012 -0.2129
15583W        W25276   2.009  10.339   5.678 -0.5021  0.1121  0.0156
15584W        W25277   7.991  11.363  12.847 -0.1530  0.2480 -0.0016
15585W        W25278  10.491  15.878   2.384  0.0544 -0.1567 -0.0253
15586W        W25279   0.371  11.857   3.741  0.0012 -0.2547 -0.0403
15587W        W25280   6.862   7.205   5.136 -0.2241 -0.0572 -0.1253
15588W        W25281  11.309  14.922   4.344 -0.1346 -0.1705  0.0873
15589W        W25282   0.763   2.339  12.888  0.0681 -0.0072 -0.2713
15590W        W25283   1.730   2.745   2.690  0.1719 -0.1217  0.2938
15591W        W25284   6.879  11.315   5.756 -0.1867 -0.0796 -0.2465
15592W        W25285   3.405   8.371  12.137 -0.3902  0.1604 -0.2119
15593W        W25286   3.300  17.682   4.184  0.1368 -0.1046 -0.1591
15594W        W25287  11.700  14.859   5.273 -0.1572  0.0079 -0.4089
15595W        W25288   3.210   3.614   0.217  0.4083  0.0388 -0.0469
15596W        W25289  11.567   4.788  12.574 -0.0863  0.0882  0.5398
15597W        W25290   6.679  16.919  15.933 -0.0801 -0.1130 -0.1780
15598W        W25291  15.473  16.116  11.794 -0.0163  0.1788  0.1343
15599W        W25292   2.772   1.248  15.186 -0.2860 -0.1029  0.2246
15600W        W25293   6.416  11.423   5.372  0.0935  0.0879 -0.1436
15601W        W25294   2.434   7.248   5.094 -0.0537 -0.0760  0.1216
15602W        W25295   3.104   7.359   0.726 -0.0986 -0.2594 -0.1325
15603W        W25296   4.658   5.407  12.426 -0.2063 -0.0194  0.1710
15604W        W25297  10.538   3.288   5.780  0.0957 -0.1216  0.0263
15605W        W25298   8.063   0.131   2.049  0.2175  0.1924  0.2268
15606W        W25299  11.196  13.249   2.877 -0.2776 -0.1511 -0.0020
15607W        W25300   8.964  13.868  13.459  0.0099 -0.0059 -0.0413
15608W        W25301   6.977  12.693   2.049 -0.3547  0.1165 -0.3192
15609W        W25302  12.364  14.659   2.140  0.1237  0.1541  0.0177
15610W        W25303  11.332  15.917  15.152  0.0223 -0.0846 -0.2361
15611W        W25304   8.975  13.764  13.900 -0.1931  0.0202 -0.0105
15612W        W25305   7.819   0.089  14.051  0.1638 -0.1787  0.1075
15613W        W25306   3.981  13.075  13.778 -0.0199 -0.0765 -0.0298
15614W        W25307   6.489   8.255   4.817  0.2304 -0.0071 -0.2219
15615W        W25308   3.718   1.204   0.605  0.1069  0.2239 -0.2552
15616W        W25309   2.049  16.190  12.467  0.2168  0.2671 -0.2199
15617W        W25310   5.335  12.403   2.056  0.1442  0.2006 -0.1161
15618W        W25311   7.377   8.446  12.311  0.0454 -0.3236 -0.1767
15619W        W25312  17.495  10.701   1.829 -0.1269  0.0336 -0.0048
15620W        W25313   9.019   5.424  14.277 -0.0759 -0.1554  0.0383
15621W        W25314  12.464  10.674  16.909 -0.1387 -0.0500 -0.1251
15622W        W25315   3.982   3.910   2.501  0.0608 -0.0516  0.1251
15623W        W25316   7.749  17.728   4.639 -0.0784  0.1362 -0.1177
15624W        W25317  14.585  12.642  14.848  0.1325  0.2437 -0.3984
15625W        W25318  17.971  13.805  11.809  0.1908  0.1603  0.1822
15626W        W25319  15.484   6.472   6.417  0.0882  0.0641  0.1054
15627W        W25320   8.160   7.136   3.449 -0.2331  0.0764  0.0883
15628W        W25321   1.275   4.848   6.270 -0.1109 -0.1218 -0.0374
15629W        W25322  15.732  16.546  13.081  0.1711 -0.0041 -0.1139
15630W        W25323   5.399  17.642   5.355 -0.0552 -0.2671 -0.0942
15631W        W25324   7.395   3.623  13.898  0.4045 -0.1249  0.0785
15632W        W25325   8.606  14.897  15.164 -0.1178  0.0084 -0.0031
15633W        W25326  13.032  16.592  14.346 -0.0165 -0.2126  0.1678
15634W        W25327   3.282  12.814   1.734  0.1021  0.3180  0.0897
15635W        W25328  12.861  14.215  12.391  0.0202  0.3279 -0.0186
15636W        W25329   0.144   8.375   1.331  0.0202  0.0980 -0.1853
15637W        W25330  17.038   7.094   1.119 -0.2029 -0.0618  0.1611
15638W        W25331   0.294  13.394  16.567  0.0970 -0.0430  0.0434
15639W        W25332   5.654   1.029  12.333  0.0750  0.1214 -0.1339
15640W        W25333   9.914   8.990  14.358  0.2086 -0.5536  0.1923
15641W        W25334   0.846  17.387   3.163  0.1458 -0.2794 -0.0303
15642W        W25335  12.841   8.824  11.967  0.0857  0.0154 -0.1575
15643W        W25336  11.041  17.563   1.483  0.3211 -0.0024  0.2963
15644W        W25337   8.585  17.421   3.461  0.0335  0.0276 -0.2773
15645W        W25338  11.535   3.386   1.309 -0.0309 -0.3914 -0.2303
15646W        W25339   2.775   7.480  13.454  0.0911 -0.0939  0.1860
15647W        W25340  16.594   3.702  17.086 -0.0474 -0.2821  0.1192
15648W        W25341  12.823  16.289   3.530  0.0712 -0.0037 -0.0893
15649W        W25342   3.657   9.707   1.369 -0.0130  0.1880  0.0413
15650W        W25343   2.408  15.841  16.659  0.0013  0.0706 -0.0714
15651W        W25344   1.615   1.365  15.803  0.2398 -0.2810  0.2230
15652W        W25345   2.031  11.410  15.726 -0.0923  0.0309 -0.1035
15653W        W25346   9.225  12.914  12.499  0.3542  0.1946 -0.1217
15654W        W25347   6.898  17.353  14.790 -0.1297  0.0742 -0.0023
15655W        W25348   1.063  16.713   2.376 -0.0980  0.0101  0.1129
15656W        W25349  14.904   5.150  15.162 -0.1759 -0.1079  0.1134
15657W        W25350   7.932   7.998   3.799 -0.0564  0.0453  0.0686
15658W        W25351  11.189   5.684   2.687 -0.1753 -0.1351  0.0354
15659W        W25352   0.401   8.703  16.633  0.0984  0.1359 -0.0321
15660W        W25353   3.164  14.780  14.253 -0.4067  0.0408  0.1058
15661W        W25354   4.367   7.167   2.427  0.1379  0.0323  0.1400
15662W        W25355   3.838  15.696  12.275  0.0225  0.3389 -0.1382
15663W        W25356   6.614   6.880   4.222  0.0114  0.1660  0.0811
15664W        W25357   9.691   2.431   2.789 -0.0740  0.1263  0.4463
15665W        W25358   8.890  17.843  12.364  0.0033 -0.0502 -0.0246
15666W        W25359   5.771  17.261   0.690 -0.1066 -0.2888 -0.1396
15667W        W25360  17.346  11.534   1.239  0.1947 -0.2929  0.1483
15668W        W25361   5.803   4.441  15.411 -0.1342  0.1394  0.0418
15669W        W25362   3.736  15.993  16.908 -0.3427 -0.1594  0.0371
15670W        W25363  17.081   0.994  15.505 -0.1059  0.0583  0.3780
15671W        W25364   5.486  10.103   0.885 -0.0548 -0.3190  0.2637
15672W        W25365  15.679  13.817   3.078 -0.1953  0.1165  0.2535
15673W        W25366   2.447  16.011   0.875 -0.1693 -0.2353 -0.0760
15674W        W25367   1.237   8.133   2.459 -0.0899  0.0200 -0.0171
15675W        W25368   4.955   2.151  13.918  0.1208 -0.0669  0.4392
15676W        W25369   9.444  13.944  16.899 -0.0453 -0.0621 -0.3648
15677W        W25370   0.306  16.949   0.154  0.2439  0.1189 -0.0033
15678W        W25371   4.405  16.101  15.081  0.0878  0.0482  0.0773
15679W        W25372   6.003   6.521   1.417  0.0149  0.0315 -0.0987
15680W        W25373   9.047  15.360  12.102  0.1918  0.4284 -0.1794
15681W        W25374   3.005  15.407   0.952  0.1550 -0.2378 -0.0367
15682W        W25375   5.411  17.264   0.331 -0.1477 -0.3897 -0.0512
15683W        W25376   2.572   3.468   3.534  0.4043 -0.2464 -0.0973
15684W        W25377   4.011  12.784  15.731  0.1175  0.1752 -0.0435
15685W        W25378   6.545   5.675  12.296  0.0336  0.0504  0.0707
15686W        W25379   5.454   9.257  12.477 -0.3275  0.0884 -0.1570
15687W        W25380   9.375  11.561   3.504 -0.3801 -0.0537 -0.0730
15688W        W25381   7.559   7.559   2.424  0.2388  0.0274 -0.0438
15689W        W25382   8.731  17.430   0.372  0.2233  0.0432 -0.0021
15690W        W25383   4.310  17.902  12.868  0.1389 -0.1636 -0.3432
15691W        W25384   0.443  13.895   3.095  0.0232  0.0111  0.0455
15692W        W25385   3.797   0.474   1.349  0.1572 -0.0930 -0.0963
15693W        W25386  12.676   9.476   1.521 -0.0047  0.1533  0.0788
15694W        W25387   7.036  10.799   2.204 -0.2825 -0.2047  0.2420
15695W        W25388  17.572  13.481   0.354 -0.0046  0.1914  0.0268
15696W        W25389   4.556   0.339   3.554  0.0318 -0.1681 -0.0245
15697W        W25390   8.472  13.819  13.751  0.1325  0.0398 -0.0576
15698W        W25391   2.104   1.949  13.340 -0.2736 -0.0737  0.2344
15699W        W25392   8.769   4.217  16.780  0.1647  0.2245  0.0209
15700W        W25393  11.843   0.519   3.707  0.1342 -0.0940 -0.0094
15701W        W25394  16.762   2.372  17.109 -0.0387  0.0144  0.1522
15702W        W25395   2.424  11.668   3.502 -0.1692  0.2136 -0.1898
15703W        W25396   4.488  12.037  14.190  0.1059  0.3006  0.1115
15704W        W25397  15.928   3.513   1.047 -0.0405 -0.0686 -0.1921
15705W        W25398   4.355  17.379   0.033  0.0760  0.0597  0.1033
15706W        W25399   2.072   1.484   5.439  0.0061 -0.2653  0.1514
15707W        W25400  11.794  15.781  14.984  0.3277  0.0016 -0.2756
15708W        W25401  10.404  14.601  13.124 -0.1777  0.1220 -0.2306
15709W        W25402   4.459   2.043  14.214  0.0623 -0.1885 -0.2590
15710W        W25403   9.388   5.122   3.556  0.0190 -0.0853 -0.1713
15711W        W25404   6.176  15.457  16.514 -0.0413 -0.1707 -0.0983
15712W        W25405  14.613  14.989  15.233  0.0556  0.0278  0.5320
15713W        W25406   6.085   3.545  16.925 -0.2072 -0.3569 -0.0095
15714W        W25407   4.694   4.526   1.017 -0.3182 -0.0567  0.2048
15715W        W25408   9.224  13.205  16.228  0.2010  0.3459  0.0291
15716W        W25409   4.892  14.513  11.350 -0.3407  0.1453 -0.0152
15717W        W25410  17.802   5.261   2.382  0.1267  0.0596 -0.1474
15718W        W25411   1.045  17.466  15.297  0.2454 -0.0077 -0.1512
15719W        W25412   4.894   4.039   2.413 -0.1615  0.1837  0.1902
15720W        W25413   4.311  13.144   5.624 -0.1363  0.0963  0.0156
15721W        W25414   2.393  17.698  14.215 -0.1165  0.1835  0.2739
15722W        W25415   6.940   9.354   5.010  0.1607  0.1802 -0.2452
15723W        W25416   7.019  13.272   4.116  0.6191 -0.2446  0.3012
15724W        W25417   3.889  12.531  13.687 -0.0324 -0.0650  0.1919
15725W        W25418   0.882   1.001  15.566  0.0988 -0.3195 -0.1502
15726W        W25419   3.925  13.778  15.705 -0.0635 -0.2549  0.1613
15727W        W25420   1.323  13.913  13.160  0.2888 -0.0962 -0.1910
15728W        W25421  16.317  10.110   0.660 -0.0674  0.0543 -0.3083
15729W        W25422   9.407   7.261   1.268 -0.1403  0.0405  0.0552
15730W        W25423  17.751   0.635  12.072 -0.1931  0.0540  0.0835
15731W        W25424  16.767   6.894   0.212  0.1566 -0.0003  0.0954
15732W        W25425   2.167   4.069  12.678 -0.0095  0.0498  0.1438
15733W        W25426   0.222   2.081   1.718 -0.0408  0.0656  0.0931
15734W        W25427  17.613   6.719  16.738  0.2191  0.1945  0.0187
15735W        W25428   4.887   9.536  15.343  0.2220 -0.1980 -0.3001
15736W        W25429   3.677  13.242   0.498 -0.0515  0.2329  0.1336
15737W        W25430   7.777   9.051   6.120  0.1407  0.3089  0.1291
15738W        W25431  17.110   6.506  12.793 -0.3882 -0.0079 -0.1689
15739W        W25432   1.789   6.891  12.777  0.1442 -0.2680  0.1578
15740W        W25433  12.345   5.735   6.385 -0.1965 -0.0815  0.1063
15741W        W25434  14.755   1.972  11.799  0.3504 -0.0082  0.0680
15742W        W25435  16.793   8.599  12.452 -0.2888 -0.1529 -0.3024
15743W        W25436   8.664   5.948   1.996  0.0803 -0.2148 -0.0913
15744W        W25437  14.274   6.712   5.209 -0.1119  0.3823 -0.1338
15745W        W25438   3.633   7.187  16.654 -0.1474 -0.2575 -0.3664
15746W        W25439   5.321  11.130  15.962 -0.2477 -0.0492  0.1160
15747W        W25440   8.084   2.462   1.912  0.0209  0.0206 -0.1118
15748W        W25441   2.224   4.302  16.887 -0.0038  0.0596 -0.0777
15749W        W25442   5.711   6.980  12.547  0.1667 -0.0577  0.0592
15750W        W25443   7.112   5.936   2.632  0.1695  0.2103  0.1206
15751W        W25444   7.198   5.503   2.295  0.2028 -0.0566 -0.0523
15752W        W25445   2.518   0.437  11.622  0.0834  0.2369  0.0549
15753W        W25446   2.253   0.618  13.730 -0.1041 -0.0083  0.0454
15754W        W25447   5.230  16.498  15.976  0.1254 -0.2734 -0.0544
15755W        W25448  17.785  10.232   1.783  0.0823 -0.3305 -0.0356
15756W        W25449  15.265   8.390   5.631 -0.0573  0.1835 -0.1281
15757W        W25450   6.345   9.289  14.752 -0.0581 -0.0119  0.1529
15758W        W25451  16.856  15.393   2.008 -0.2041  0.3170 -0.1002
15759W        W25452   6.711   9.937   5.395 -0.0516  0.0436  0.0644
15760W        W25453   9.996   0.484   2.941  0.1295 -0.0718  0.2828
15761W        W25454   4.103   3.076  15.251 -0.1884  0.1641 -0.3940
15762W        W25455   7.811  12.827  13.112 -0.0887 -0.1573  0.0549
15763W        W25456   3.917  14.980   0.834  0.2025 -0.2029 -0.0901
15764W        W25457   6.470   1.006  14.498  0.0684 -0.1512  0.0920
15765W        W25458  15.600   2.881  14.220 -0.0381 -0.2501 -0.0832
15766W        W25459   7.394  16.332  14.608 -0.1856 -0.1306  0.2534
15767W        W25460  13.413  16.551  11.845 -0.0569 -0.0552 -0.1476
15768W        W25461  15.894   7.612   5.152  0.1231  0.1752  0.0186
15769W        W25462   7.954   1.268  12.612 -0.1094 -0.0921  0.1146
15770W        W25463  12.873   8.471  17.102  0.1470 -0.0464 -0.3228
15771W        W25464   8.200   0.252  13.786 -0.0362  0.1895 -0.2398
15772W        W25465   0.187   6.635  12.232 -0.0749  0.2653 -0.1342
15773W        W25466  12.428   7.327   3.382 -0.1420 -0.0390  0.2369
15774W        W25467   1.055   4.581   0.843  0.3884  0.1202  0.0647
15775W        W25468   9.262   8.713  16.841  0.2718  0.0719 -0.4294
15776W        W25469  10.248   4.650   2.357 -0.1709 -0.1261 -0.0265
15777W        W25470   0.966   0.092  12.214 -0.0072 -0.3195  0.0308
15778W        W25471   6.556   1.989   1.485 -0.2016  0.1966  0.1039
15779W        W25472   2.921   6.927   0.265 -0.0741 -0.1200  0.1570
15780W        W25473   6.406  16.996  12.652  0.1526  0.0297  0.0266
15781W        W25474   8.271  17.567   3.012 -0.2109  0.2896  0.1608
15782W        W25475   2.212  12.296  16.053 -0.3011  0.1381 -0.0695
15783W        W25476   0.957   2.855   0.440 -0.2910 -0.0009 -0.0364
15784W        W25477   9.403   9.851  14.283 -0.1618  0.3228  0.0980
15785W        W25478  12.416   1.604   5.095  0.0833  0.2184 -0.1443
15786W        W25479  11.757   9.799   0.723  0.0670 -0.4057 -0.0560
15787W        W25480   3.484  14.894   5.582  0.0012  0.3602 -0.1117
15788W        W25481   4.557   6.207   2.272  0.1439 -0.0505  0.0556
15789W        W25482  11.688  15.354   3.003 -0.1778  0.0419 -0.4944
15790W        W25483  13.689   2.316   5.696  0.0369 -0.3071 -0.0319
15791W        W25484   7.451   0.525  14.176  0.1687 -0.0572 -0.1119
15792W        W25485   5.854  11.563  13.468  0.0854 -0.3876  0.1517
15793W        W25486   2.055   6.951  11.521  0.0602  0.0263 -0.0831
15794W        W25487  14.026  11.896   1.945 -0.2391 -0.2431  0.0475
15795W        W25488   5.651  14.815   5.315 -0.0492  0.1079 -0.1106
15796W        W25489  13.598   9.279   2.879  0.1868 -0.3948  0.2863
15797W        W25490  11.554  17.373  10.454 -0.2569 -0.1299 -0.0470
15798W        W25491  14.233   5.391   0.843  0.0813  0.1503 -0.1607
15799W        W25492   5.412   4.206  14.282 -0.0950 -0.0009 -0.1565
15800W        W25493   1.071   8.402  16.039 -0.1431 -0.0689  0.0174
15801W        W25494   7.870  13.721   3.775 -0.0643 -0.1447  0.0245
15802W        W25495   7.079  14.718  12.855  0.4295 -0.0964  0.0950
15803W        W25496   9.731  13.579  11.999 -0.0100 -0.1854  0.1679
15804W        W25497   9.281   5.765   0.548 -0.1107 -0.2042  0.2905
15805W        W25498   4.400  10.082   5.426  0.0881  0.0168  0.0487
15806W        W25499   7.514   8.517  12.837 -0.1275  0.0619 -0.0314
15807W        W25500   4.240   3.097  14.681  0.1732 -0.1209 -0.1482
15808W        W25501   7.843   1.584  15.497 -0.0751 -0.0478 -0.0571
15809W        W25502  13.741   8.889  13.567  0.2087 -0.2292 -0.4290
15810W        W25503  11.766  11.699   5.185 -0.3131 -0.0364  0.0431
15811W        W25504   7.044  17.716   0.335  0.2946  0.0034  0.0703
15812W        W25505  11.277   8.617  11.194  0.0894  0.0284  0.0843
15813W        W25506  10.937  10.314   5.150  0.1795 -0.2917  0.1484
15814W        W25507   4.406  11.519   0.325 -0.3482 -0.0524 -0.0664
15815W        W25508   5.899  14.125  14.839 -0.1876 -0.1181 -0.2250
15816W        W25509   6.682   7.678  12.068  0.2130  0.1507  0.3633
15817W        W25510   8.214   5.512   5.858 -0.2376  0.3102  0.2004
15818W        W25511   3.991   8.825   4.258 -0.0280 -0.0354 -0.2995
15819W        W25512   7.854   2.663   1.536  0.0157  0.2576 -0.0184
15820W        W25513   3.530  11.605  15.772  0.1135 -0.0919  0.0429
15821W        W25514   3.010  17.434   0.947 -0.1375  0.2827 -0.0669
15822W        W25515   3.833   8.589  12.027 -0.0056  0.0162 -0.3743
15823W        W25516  12.668  13.642  12.367 -0.2493 -0.1342 -0.1475
15824W        W25517   2.263   5.533   3.569  0.0984  0.0296  0.2992
15825W        W25518   7.041   8.472   1.505 -0.0528 -0.2218  0.2595
15826W        W25519   6.065   7.641  12.796 -0.0362 -0.0448  0.0801
15827W        W25520  17.595   2.711   2.616 -0.0312  0.1467 -0.4016
15828W        W25521   6.986   1.909  14.527 -0.0447  0.1067 -0.1106
15829W        W25522   3.190  15.947   1.031 -0.3581  0.0617 -0.0806
15830W        W25523   5.215   4.094   5.694 -0.3256 -0.0345  0.1849
15831W        W25524   4.778   9.281   4.654  0.2193  0.3274  0.0990
15832W        W25525   8.731  10.170  13.993 -0.1682 -0.3008  0.2688
15833W        W25526  10.027   1.725   5.268 -0.1433  0.0698 -0.2092
15834W        W25527   2.800  12.102  13.136  0.2048  0.0778  0.1419
15835W        W25528   7.153   1.159  12.173 -0.1865 -0.1557  0.1223
15836W        W25529  10.270  12.720   3.375 -0.0754 -0.0882  0.0614
15837W        W25530   6.641   4.024  14.818  0.0227 -0.1950  0.2420
15838W        W25531   4.309   7.548  16.916 -0.0774 -0.2592 -0.0811
15839W        W25532   1.968   8.967   3.495  0.1022  0.0914  0.1212
15840W        W25533  11.512  12.718   6.257 -0.0090 -0.1388 -0.2759
15841W        W25534   4.265  10.553   0.141  0.1694  0.0951  0.2315
15842W        W25535  17.789   4.902  15.894  0.4320  0.0657  0.4504
15843W        W25536   6.785   4.241   1.866 -0.2467 -0.0058 -0.0735
15844W        W25537  15.954  12.368   4.304  0.0086  0.0211  0.0624
15845W        W25538   3.844  15.421  16.149 -0.1439  0.1884 -0.0212
15846W        W25539  16.104   7.486  13.895 -0.1354  0.0307  0.0755
15847W        W25540   4.226  16.102   0.110  0.1478  0.0001  0.1647
15848W        W25541   4.565   7.556  14.196 -0.0066  0.0915 -0.1096
15849W        W25542  10.196   6.078   6.603  0.0888 -0.0403 -0.1444
15850W        W25543   9.856   8.945   2.076 -0.2668 -0.1777 -0.2101
15851W        W25544   2.831   4.543   1.777  0.0281  0.1228  0.0482
15852W        W25545   6.567  11.797   5.061  0.1676 -0.0546 -0.1085
15853W        W25546  10.738  16.357  15.782 -0.2700 -0.0496 -0.2962
15854W        W25547   4.599  12.937  17.095  0.1480 -0.0501 -0.1628
15855W        W25548  16.017   3.742   2.190 -0.1399  0.0643  0.1861
15856W        W25549  16.061   5.594  13.437 -0.0220  0.2111  0.3052
15857W        W25550   6.442  11.184   1.535  0.1853 -0.1709 -0.0969
15858W        W25551   6.430  15.747   1.273 -0.1881  0.1189  0.0093
15859W        W25552   5.095   9.166  15.656 -0.1666 -0.1051  0.0320
15860W        W25553   2.732   5.510   2.767  0.0433  0.2457 -0.0898
15861W        W25554   4.163   7.273  14.309 -0.0237  0.1096  0.4209
15862W        W25555  10.618   8.957   6.507 -0.0907 -0.0837  0.2293
15863W        W25556   1.899  12.319   2.061 -0.0040 -0.1044  0.2828
15864W        W25557   1.346   8.385   2.025 -0.1167  0.1500  0.2806
15865W        W25558   1.168  16.171   2.245  0.3368  0.2105  0.0555
15866W        W25559  11.500  16.284  13.575  0.0284  0.1539  0.0254
15867W        W25560   2.721   6.517   2.573  0.0892  0.3532 -0.0993
15868W        W25561  17.662  14.442  13.337 -0.0786  0.0487 -0.1467
15869W        W25562  11.324  14.163   0.381  0.1250  0.1669 -0.0386
15870W        W25563   1.275   2.716   0.851 -0.0899 -0.4394  0.1122
15871W        W25564  16.818   7.913  15.721  0.0596  0.1059 -0.1412
15872W        W25565  17.260  14.845   0.636  0.0024 -0.2122  0.0934
15873W        W25566   5.099   6.785   0.664  0.0702 -0.2208  0.1000
15874W        W25567   7.203   4.854   5.470 -0.1149  0.2426 -0.2572
15875W        W25568   6.757   0.223   1.896  0.2306  0.2426  0.1880
15876W        W25569  16.720  11.017  17.026  0.1122  0.3564  0.1194
15877W        W25570   1.223   3.858   2.778 -0.2379 -0.0206 -0.0073
15878W        W25571   9.881  17.214   5.188  0.0261  0.0733 -0.1459
15879W        W25572   2.489  13.022  13.865  0.1004  0.0551 -0.1732
15880W        W25573   5.569   1.992   1.639 -0.1193 -0.1241 -0.0919
15881W        W25574   4.474   2.132  15.434 -0.1742  0.3446 -0.1325
15882W        W25575   0.435   1.745  11.162  0.2668  0.0191 -0.2340
15883W        W25576   0.336  15.977  12.595  0.2283 -0.0482  0.2827
15884W        W25577   6.023   1.409   4.984 -0.1663 -0.1789  0.0924
15885W        W25578   9.312  12.318   1.739 -0.2580  0.1056  0.0900
15886W        W25579  14.562  16.054   6.063  0.0232  0.0339  0.0559
15887W        W25580   0.393  14.919   3.785 -0.0914  0.0245 -0.1235
15888W        W25581  10.235   6.686   0.418  0.2243  0.1568 -0.1263
15889W        W25582   8.774   4.893   2.345  0.2812 -0.1296 -0.1960
15890W        W25583   6.947  11.370   3.484 -0.0578 -0.0215 -0.3673
15891W        W25584   0.833   0.334  13.922  0.0471  0.1165 -0.2213
15892W        W25585   1.680  17.860  15.148  0.3145 -0.0272  0.2275
15893W        W25586   5.768   9.725  14.328  0.6417 -0.1486 -0.3079
15894W        W25587  15.037   5.295  11.078 -0.1178 -0.0035  0.0967
15895W        W25588   8.851   9.099  13.917  0.2030 -0.1048 -0.0988
15896W        W25589  10.790  11.715  13.279 -0.2693 -0.1948 -0.3462
15897W        W25590   0.657   9.506  14.689  0.1751  0.0501 -0.3357
15898W        W25591   5.404   4.462  13.866  0.1286 -0.1617  0.0522
15899W        W25592  11.632   2.595  14.179 -0.0609 -0.5292 -0.3844
15900W        W25593   1.942   4.253  11.331  0.1788 -0.0769  0.0482
15901W        W25594   8.434  16.015   5.202 -0.1725  0.1891  0.0866
15902W        W25595  16.651   8.151  16.163 -0.0997  0.4065  0.0803
15903W        W25596   5.987  15.256  14.116 -0.0702 -0.2188 -0.0525
15904W        W25597  14.572  16.950  15.350  0.0353 -0.0838 -0.1546
15905W        W25598   9.385   5.856  14.223 -0.0357  0.0276  0.0928
15906W        W25599   7.817   9.961  13.017 -0.0129  0.1111 -0.0799
15907W        W25600   5.199   2.156  14.829  0.2555 -0.0345 -0.0835
15908W        W25601  17.538  15.523  12.957  0.2415 -0.1250 -0.2117
15909W        W25602   2.208   4.925   1.360 -0.2615 -0.1861  0.0639
15910W        W25603  17.254  13.220  11.887 -0.0399 -0.0165 -0.1861
15911W        W25604  15.281  17.661   3.132 -0.0786 -0.0507 -0.1344
15912W        W25605   5.844  12.465  14.751  0.0556 -0.2249  0.0999
15913W        W25606   7.445  16.974   5.616 -0.0547  0.3063  0.1262
15914W        W25607   4.056  14.217   0.785 -0.1268  0.0631  0.0136
15915W        W25608  15.401  14.517  13.322 -0.1356 -0.3408 -0.4926
15916W        W25609   3.929   0.255   0.223 -0.1870 -0.4830 -0.0782
15917W        W25610   1.174   6.015   3.743  0.1010  0.1030 -0.4738
15918W        W25611   3.472  11.972  15.450 -0.2907 -0.0922  0.1816
15919W        W25612   4.194   3.683   5.079  0.0809 -0.0001  0.0138
15920W        W25613  10.731  10.110   1.581 -0.0490  0.1450  0.2151
15921W        W25614   7.115   6.766  14.238  0.3760 -0.0146 -0.0201
15922W        W25615   9.708   2.695   5.057  0.1595 -0.1832  0.0550
15923W        W25616   9.291  12.137  15.178 -0.8118  0.1523 -0.0888
15924W        W25617   4.774   6.059  17.069 -0.1664 -0.2351  0.2107
15925W        W25618   0.219   2.654  15.971 -0.0833  0.0592  0.3269
15926W        W25619   1.303   7.246  10.984 -0.0974 -0.1539  0.0025
15927W        W25620   1.311   4.396  14.125  0.1541 -0.2591 -0.1685
15928W        W25621  13.932  11.970  12.879  0.3741 -0.2568  0.0944
15929W        W25622   4.294  14.304  13.685 -0.0325  0.1377  0.0534
15930W        W25623   1.835  12.884   0.839 -0.0055 -0.3809 -0.0212
15931W        W25624   5.596  11.952  15.835  0.1202 -0.3212 -0.1783
15932W        W25625  16.975   8.331  16.991  0.1258 -0.0543  0.0077
15933W        W25626   5.639  10.747  15.707 -0.1762  0.2576  0.0619
15934W        W25627  10.921   5.792   0.356  0.0347 -0.3250  0.0894
15935W        W25628   6.486   8.246   2.134 -0.0690 -0.2220  0.0308
15936W        W25629  10.729  15.740  14.652 -0.3381 -0.0665 -0.0815
15937W        W25630  16.825  11.084   0.815  0.0664 -0.0672 -0.0924
15938W        W25631   5.555   3.420   3.531 -0.0611  0.2599 -0.0703
15939W        W25632   1.328  15.113   5.499  0.0080 -0.1180  0.1117
15940W        W25633   4.621   3.774   3.210 -0.4198  0.3946  0.0181
15941W        W25634   8.482   1.326  16.791  0.1318  0.3329  0.1546
15942W        W25635   3.458  12.848  13.601 -0.0374 -0.0074 -0.2753
15943W        W25636  17.447  14.818  14.504  0.1053 -0.1900  0.0720
15944W        W25637  16.770  14.211   2.592 -0.0566  0.1589  0.1802
15945W        W25638   5.148   1.112   3.495 -0.3011  0.0583  0.2830
15946W        W25639   9.960  15.608  12.838 -0.0511  0.0924  0.1477
15947W        W25640   1.009   2.433   1.133  0.0277 -0.1068 -0.2961
15948W        W25641   1.489  16.189   3.817  0.1322 -0.2333  0.1815
15949W        W25642   8.017   0.033   0.966  0.0685  0.1321 -0.1056
15950W        W25643   4.733   1.905   2.011  0.0721  0.0067 -0.2792
15951W        W25644   5.817  13.356   1.425 -0.1356  0.0977 -0.0298
15952W        W25645   6.355   1.757  12.489 -0.1731  0.2831  0.0842
15953W        W25646   1.612   5.300  15.514 -0.0502  0.2586  0.0430
15954W        W25647  15.654   2.501   2.561 -0.1513 -0.0550 -0.0093
15955W        W25648  12.495   2.070   3.835 -0.1303  0.0801 -0.0382
15956W        W25649   5.956   2.841   1.346 -0.0022  0.1858 -0.1197
15957W        W25650  15.641   7.540  12.223 -0.0565 -0.1776 -0.1317
15958W        W25651   7.465   0.909   6.070  0.0534 -0.0963 -0.2145
15959W        W25652   3.835   3.188  12.187  0.1735 -0.1208 -0.1251
15960W        W25653   6.975   1.746   1.906 -0.1538  0.1282  0.0198
15961W        W25654  12.914  10.339   5.775 -0.3889  0.1020 -0.0058
15962W        W25655   8.393   8.945  13.677  0.0324  0.1348 -0.1572
15963W        W25656  14.260   3.440   5.913 -0.0714 -0.1671  0.4489
15964W        W25657   5.581   7.347   4.374 -0.2826 -0.0066  0.0701
15965W        W25658   5.018  17.189   4.229 -0.3100  0.0298 -0.1071
15966W        W25659   3.454   0.303  12.698 -0.0654 -0.1393 -0.0753
15967W        W25660   1.311   4.874  15.275 -0.4117  0.0262  0.0570
15968W        W25661  10.281   0.079  12.659 -0.1406 -0.0933 -0.0679
15969W        W25662   3.276   3.814  12.075 -0.0794  0.1685  0.3613
15970W        W25663   7.519  10.231   6.172  0.2647  0.0030  0.0452
15971W        W25664   9.980  13.016  15.967  0.0760  0.2521 -0.0259
15972W        W25665   3.096   8.399   1.731  0.3417 -0.1164 -0.3462
15973W        W25666   9.066   8.436   4.639  0.0052 -0.1997 -0.1380
15974W        W25667   0.982   8.062  10.583 -0.2859  0.4311 -0.1769
15975W        W25668   6.215  13.686   1.865  0.0504 -0.0120 -0.2176
15976W        W25669  15.248  11.654  12.758 -0.0823 -0.0403  0.0008
15977W        W25670   0.178   4.686  11.050  0.3326  0.1055 -0.2880
15978W        W25671   0.301  14.963  14.209  0.2561  0.2669 -0.0503
15979W        W25672   3.073   3.347   2.484 -0.1063  0.0010  0.4501
15980W        W25673   4.503  14.922  10.787 -0.0253  0.0874 -0.2514
15981W        W25674   1.030  16.224   3.655 -0.2471  0.1759 -0.3833
15982W        W25675  13.303  11.109  13.874  0.0724 -0.0551  0.1591
15983W        W25676   7.624   7.985  12.058  0.1938 -0.1334  0.2346
15984W        W25677  10.209  16.591  15.090  0.3350 -0.1165 -0.1686
15985W        W25678   7.471   1.045   0.144  0.0226  0.1286  0.0791
15986W        W25679   9.367   9.762  14.817 -0.2429  0.0589 -0.0121
15987W        W25680  12.544   5.686   4.026 -0.0098  0.2625 -0.0546
15988W        W25681   0.188  15.420   3.838  0.3903  0.0874  0.0848
15989W        W25682   5.841   4.197   2.721 -0.0171 -0.4487  0.1301
15990W        W25683   6.800  16.366   4.182 -0.1477 -0.0476 -0.0867
15991W        W25684   7.609  10.625   4.931  0.0643 -0.2193 -0.0589
15992W        W25685   4.138  17.894   3.151  0.0955  0.1434 -0.1293
15993W        W25686   6.971   6.294  13.847 -0.1724  0.1062 -0.1842
15994W        W25687   5.295  10.260   5.868 -0.0141 -0.2780  0.0695
15995W        W25688   4.095   6.779   0.201 -0.3020  0.2106 -0.3373
15996W        W25689   2.423   0.973   0.241  0.2213 -0.2237  0.0455
15997W        W25690  10.365   5.737   1.977 -0.1749  0.0819  0.1626
15998W        W25691   0.118   4.198   0.683 -0.3411  0.3091  0.1694
15999W        W25692   3.730  13.337   1.162  0.0756  0.0763  0.0919
16000W        W25693  17.433  12.163   1.769  0.3410 -0.0350 -0.0068
16001W        W25694   5.248  17.557  14.273  0.2640  0.1549  0.2177
16002W        W25695   0.836   3.294  12.013 -0.0213 -0.0031  0.0878
16003W        W25696   1.566   9.707  14.360  0.1748  0.0273 -0.2721
16004W        W25697   1.904  10.300   2.236 -0.0691  0.3909  0.0702
16005W        W25698   2.475  17.049  15.775  0.2464  0.3587  0.1289
16006W        W25699   7.419   2.003  15.448 -0.1442  0.0220 -0.1201
16007W        W25700   8.062  11.589  11.875 -0.0109  0.1874  0.0673
16008W        W25701   1.632   6.942  10.609  0.0122  0.1480 -0.0868
16009W        W25702   5.954   5.556   2.329  0.1187 -0.3053  0.1659
16010W        W25703   2.209  16.015   1.656 -0.0118 -0.0318  0.0817
16011W        W25704  11.215   3.318   4.734 -0.1286 -0.0007  0.0717
16012W        W25705   2.875  15.637   5.607 -0.0091  0.0953 -0.1586
16013W        W25706   4.927   3.345   3.037 -0.0211 -0.1809 -0.1306
16014W        W25707   5.101   2.499   1.209 -0.0002 -0.2384 -0.2427
16015W        W25708   1.258  15.317  15.428 -0.0921  0.4833 -0.2000
16016W        W25709   5.074  15.448   3.481 -0.0425 -0.2120 -0.0565
16017W        W25710  10.561   2.401   0.280 -0.0682 -0.0853 -0.1971
16018W        W25711   1.209   7.293   4.943 -0.0628  0.0909 -0.3032
16019W        W25712   8.180   3.925  15.563 -0.0097 -0.0896  0.1737
16020W        W25713   6.239   2.591  16.906  0.3225 -0.2887  0.3289
16021W        W25714  17.841  16.671   2.370  0.0239  0.1646  0.2012
16022W        W25715  12.310  17.451   4.440  0.2035 -0.2508 -0.3262
16023W        W25716  15.844   0.276  12.844 -0.0399 -0.0053  0.0881
16024W        W25717   5.652   1.409   4.260  0.0720 -0.0734  0.1610
16025W        W25718  11.120   6.051   3.110  0.0852  0.1401  0.3329
16026W        W25719   8.151   4.590   3.198  0.3699  0.0974 -0.0456
16027W        W25720   3.158   1.243   0.482  0.2642  0.0733  0.3523
16028W        W25721   6.776   6.702   3.721  0.4177 -0.2768 -0.2509
16029W        W25722   2.804   5.843  13.024 -0.0746  0.2767 -0.1266
16030W        W25723   3.631   3.139  13.222 -0.0609 -0.0574  0.1434
16031W        W25724   1.672  14.708   5.401 -0.3560 -0.0180  0.2900
16032W        W25725  13.415   0.441  11.051  0.2685  0.0781  0.1960
16033W        W25726   7.147  11.778   4.687 -0.1163 -0.1583 -0.1105
16034W        W25727   4.132  11.040   2.740 -0.0638  0.0065  0.0231
16035W        W25728   8.242   0.877  16.724 -0.2106 -0.2392  0.1656
16036W        W25729  16.168   9.822   4.395 -0.0081  0.1308  0.0138
16037W        W25730   9.673   5.262   4.977 -0.3645 -0.1136 -0.0610
16038W        W25731   4.297  16.977   2.658  0.1965  0.0464  0.0832
16039W        W25732   6.630   2.148   2.067  0.0154  0.3611 -0.0355
16040W        W25733   5.213  17.952  16.801  0.0847 -0.2409  0.0283
16041W        W25734  16.694  15.425   1.521  0.2496 -0.0615 -0.1327
16042W        W25735  13.814   8.483  13.060 -0.1134  0.1795 -0.0901
16043W        W25736   5.653  13.038   2.604  0.0976  0.3015  0.1624
16044W        W25737  17.306   2.016  11.242  0.2706  0.1219 -0.0850
16045W        W25738   4.928   8.874   1.276  0.0842  0.5851 -0.0471
16046W        W25739   3.738   9.928  13.806 -0.0510 -0.3290 -0.5283
16047W        W25740   5.357  13.673  16.273 -0.0837 -0.0516 -0.0664
16048W        W25741   7.719   7.421  14.258  0.1295 -0.1083 -0.2492
16049W        W25742   5.029   5.452   5.832  0.1231 -0.3573 -0.2094
16050W        W25743   7.640   2.726   6.487 -0.0908  0.1078 -0.0749
16051W        W25744   5.001  15.348   4.122  0.1436 -0.2368  0.0825
16052W        W25745   7.057   1.724  12.076  0.0953  0.1641 -0.0339
16053W        W25746   6.239  11.831   3.197 -0.0930  0.2119 -0.0548
16054W        W25747   3.018   0.449   5.489  0.1054 -0.4396  0.3368
16055W        W25748   4.890   6.417   0.332  0.2426 -0.0773 -0.0085
16056W        W25749   3.200   7.256   4.960 -0.0179  0.0153 -0.1830
16057W        W25750   7.529   5.921  16.405 -0.1220  0.2863 -0.2193
16058W        W25751  13.827   7.014  12.011 -0.0155  0.2554  0.0840
16059W        W25752  16.762   6.285   5.537 -0.3949  0.2003 -0.2157
16060W        W25753  17.066  13.907   1.967  0.0304 -0.0960 -0.1233
16061W        W25754   9.688   3.357   4.333  0.0697  0.0442 -0.0899
16062W        W25755  12.025   3.888   6.802  0.0217 -0.0478 -0.0777
16063W        W25756  11.371   0.600   4.201  0.3547  0.1597  0.4344
16064W        W25757   7.170   1.845  13.703 -0.1677 -0.2646 -0.0067
16065W        W25758  13.418  17.163  16.845 -0.0084 -0.4482 -0.0801
16066W        W25759   6.359  12.239  13.349 -0.2169  0.1167  0.3621
16067W        W25760   0.077   5.563   0.617  0.2425 -0.4922 -0.2729
16068W        W25761  10.912  14.960   6.322  0.1204  0.0071 -0.0237
16069W        W25762   5.774   1.893   2.520 -0.1572 -0.0878 -0.1453
16070W        W25763   0.257   1.465   2.527 -0.1100  0.1953  0.2134
16071W        W25764   4.284   6.929   6.314  0.1853  0.1821 -0.2073
16072W        W25765   5.922  10.352  12.745 -0.0882  0.2704  0.0546
16073W        W25766   5.126   1.317   2.282  0.2635  0.1799  0.2493
16074W        W25767   8.359  17.167   5.958 -0.1236  0.4241  0.1147
16075W        W25768   5.993   9.927   0.111  0.1745  0.2033 -0.2095
16076W        W25769   4.160   9.683  14.588  0.3145 -0.0087 -0.2075
16077W        W25770   3.967   4.460   0.089 -0.0682 -0.1935  0.0501
16078W        W25771   9.626  11.706  12.275 -0.2754  0.0161 -0.0131
16079W        W25772   9.548  15.517   1.260 -0.2088  0.0714  0.1758
16080W        W25773   3.857   6.094   4.819  0.0166 -0.1854  0.1668
16081W        W25774  10.409   5.387  15.537 -0.0976  0.3280 -0.1926
16082W        W25775   5.464  10.530   2.223  0.1519 -0.2233 -0.0140
16083W        W25776   6.799  14.745   2.778  0.3837 -0.0276 -0.1210
16084W        W25777  14.728  11.008  11.640  0.1329 -0.0797 -0.0257
16085W        W25778   9.833   3.274   2.968 -0.0554 -0.0350  0.3795
16086W        W25779   6.951  11.145  12.567 -0.0739  0.0936 -0.0491
16087W        W25780   3.269  17.546   3.664  0.0770  0.0855  0.2056
16088W        W25781   7.783   7.344   0.083  0.0534  0.1634 -0.0388
16089W        W25782   4.314   0.206   2.615  0.1909 -0.0585  0.0234
16090W        W25783   0.089  16.589  12.542 -0.1723 -0.1337  0.2183
16091W        W25784   0.752   4.276   5.048 -0.0992 -0.1471 -0.0134
16092W        W25785   0.207  14.684   3.084  0.1114 -0.2179  0.0148
16093W        W25786  10.871   7.436   0.408  0.0665  0.1679 -0.1422
16094W        W25787   3.012   3.991   4.250 -0.1566 -0.1783 -0.1595
16095W        W25788  11.169   9.271  13.520 -0.1304  0.2163  0.0312
16096W        W25789   3.229   1.764   2.250  0.4053  0.3540  0.2797
16097W        W25790  12.932   8.271  12.618 -0.1553  0.4986 -0.0259
16098W        W25791   5.129  13.259  14.559 -0.0845 -0.1788 -0.0060
16099W        W25792   7.405   2.592   3.516 -0.1428 -0.2186  0.0331
16100W        W25793   7.975  14.902   4.219 -0.0704  0.3356 -0.0166
16101W        W25794   0.968  16.488  13.092 -0.0212  0.0863 -0.0620
16102W        W25795  12.574  17.906   5.747 -0.1394 -0.0330 -0.1345
16103W        W25796   1.849  14.808  12.281  0.0553 -0.1670  0.0892
16104W        W25797   0.045  17.131   5.323  0.1071 -0.2275  0.1984
16105W        W25798   8.128  17.573  11.869 -0.1654 -0.1282  0.0965
16106W        W25799  16.138  10.193  12.081 -0.0060  0.1723  0.4222
16107W        W25800  10.519   3.027   1.494  0.1339  0.0973 -0.4280
16108W        W25801   5.260   5.141  14.309 -0.0193 -0.3552  0.0038
16109W        W25802   9.122   1.516   4.466 -0.0885  0.0095 -0.2971
16110W        W25803   1.969   9.430   4.696 -0.1122 -0.1727 -0.0710
16111W        W25804   3.578   9.468  13.116 -0.0655 -0.0636 -0.3207
16112W        W25805   4.930  13.518   4.067  0.0961  0.0924  0.0413
16113W        W25806   2.451  17.563  13.571  0.0468 -0.0462  0.0082
16114W        W25807   4.124   8.134   3.095 -0.3332  0.0707  0.0587
16115W        W25808   4.250   1.370  11.622 -0.1355 -0.4432  0.0727
16116W        W25809   5.338  10.024  16.144  0.2258  0.0863 -0.3480
16117W        W25810   2.863  14.313   2.319  0.0273 -0.1133  0.1338
16118W        W25811   5.880   2.366   2.714 -0.3762 -0.1043  0.0677
16119W        W25812   5.282  14.411   3.955 -0.2698 -0.1595  0.0941
16120W        W25813   6.547   2.633   4.440 -0.1651  0.0913 -0.0284
16121W        W25814  17.264   0.346  12.158 -0.0707 -0.0534  0.0941
16122W        W25815   4.489   0.706   4.781  0.0136 -0.0559  0.1103
16123W        W25816  14.352   5.089  10.565  0.0311  0.0239  0.0209
16124W        W25817  13.525   1.874  14.871  0.0679  0.1897 -0.1015
16125W        W25818   5.520  14.426   2.078  0.1715  0.1864  0.0604
16126W        W25819  17.265  13.266  15.195 -0.2163 -0.1853 -0.1450
16127W        W25820   8.612  14.731  13.316  0.0676  0.0522 -0.1414
16128W        W25821   6.328  16.880   2.490 -0.1404 -0.3105 -0.2220
16129W        W25822   8.733  11.403  12.329 -0.1267 -0.0487  0.1589
16130W        W25823  14.119  12.139   4.029 -0.0046  0.4365 -0.0930
16131W        W25824   4.086   9.941  15.436 -0.3124  0.2323  0.3007
16132W        W25825   0.500   7.247  16.889 -0.0212 -0.1347  0.1361
16133W        W25826  13.258   4.741   3.260 -0.2444  0.1696 -0.0160
16134W        W25827  11.542  17.248   0.172  0.1341 -0.0673 -0.0035
16135W        W25828  13.971   1.546  15.703  0.2537 -0.0651 -0.3358
16136W        W25829  16.167  17.172   6.199 -0.3349 -0.1335 -0.2392
16137W        W25830   4.509   7.115  15.150  0.0167 -0.3564  0.3029
16138W        W25831   2.176  15.258   4.924 -0.0093 -0.2134  0.3786
16139W        W25832   0.566  16.919   1.651 -0.0564 -0.0384 -0.0591
16140W        W25833  14.939   4.956  16.545 -0.0406 -0.2199 -0.1826
16141W        W25834   2.585   7.422  15.868 -0.0042 -0.0454 -0.2146
16142W        W25835  16.575   8.875   0.380  0.0498 -0.0560 -0.3990
16143W        W25836   8.726  12.136  14.975 -0.2461 -0.1898  0.0186
16144W        W25837  17.746   5.243  13.885  0.0482 -0.0547  0.0960
16145W        W25838   0.055   7.224  14.228 -0.0484  0.0436  0.1882
16146W        W25839   4.019   1.313   4.045  0.1534  0.2774  0.1205
16147W        W25840   9.534  11.883   2.749 -0.3018  0.1493  0.0983
16148W        W25841  17.874  12.640  13.438 -0.1673 -0.1668  0.0599
16149W        W25842   0.128   3.921   1.582  0.1623  0.2407 -0.0484
16150W        W25843   7.308   5.614  14.294 -0.2969  0.1929 -0.0259
16151W        W25844   2.475   9.521   2.832  0.1538  0.0019 -0.0405
16152W        W25845   3.650  15.894   0.293  0.0306  0.0002  0.0338
16153W        W25846   6.402   7.446   3.867 -0.2077 -0.0476  0.2149
16154W        W25847   0.937  16.550  12.267 -0.0735  0.3826  0.0213
16155W        W25848  16.375   3.429   1.861 -0.3393  0.0170 -0.2632
16156W        W25849  17.067   1.258   5.087 -0.0824 -0.2650 -0.1122
16157W        W25850   3.607   9.824   4.225  0.1199 -0.2218 -0.1475
16158W        W25851   0.795  17.248   2.659  0.3143  0.3237  0.2147
16159W        W25852  12.816   1.213  15.144  0.0564 -0.0211 -0.2403
16160W        W25853  10.686  13.965  14.362 -0.0574 -0.0596  0.0090
16161W        W25854  13.706  13.492  15.395 -0.4949  0.1144 -0.0436
16162W        W25855   9.908   7.186   3.027  0.2695 -0.0031 -0.0067
16163W        W25856   1.009   8.636   2.368 -0.0176  0.0190 -0.1991
16164W        W25857   0.354  17.299  16.434 -0.1191  0.1514 -0.0478
16165W        W25858   2.117   4.050  14.994 -0.0900  0.0631  0.1104
16166W        W25859   2.423   3.216   4.425 -0.1959 -0.1359  0.3078
16167W        W25860   9.039   6.711  14.498 -0.1442  0.2277  0.0307
16168W        W25861   9.091  15.938  13.756  0.1027  0.0377  0.1696
16169W        W25862  16.304   4.797   6.925  0.1026 -0.1847 -0.2918
16170W        W25863   3.578   3.114  16.098  0.0991 -0.1724  0.2682
16171W        W25864   5.090  12.580  13.542  0.2063 -0.0062 -0.2126
16172W        W25865  11.341  15.405   3.879 -0.0170  0.2859 -0.0668
16173W        W25866   8.764  14.033   1.451  0.2267  0.0121  0.1095
16174W        W25867  10.345  15.037  15.975  0.2103 -0.2437 -0.2452
16175W        W25868   6.612   5.501   6.233  0.1202 -0.0796  0.2251
16176W        W25869   8.907   0.703   0.217 -0.0395  0.3821 -0.2355
16177W        W25870  16.736  17.719   1.052 -0.0658  0.4270 -0.1091
16178W        W25871   3.756   2.103   3.065 -0.2886 -0.1138 -0.0013
16179W        W25872   2.531   5.032  13.690  0.3057 -0.4581  0.5554
16180W        W25873   0.674   2.448   4.491 -0.0213  0.2757  0.0995
16181W        W25874   8.935   5.282   1.413  0.2213 -0.2870 -0.0974
16182W        W25875   5.185   8.886   3.263 -0.1224 -0.0144  0.2803
16183W        W25876  15.210   0.320  16.934 -0.1264  0.2557  0.1416
16184W        W25877   8.256  17.489   0.195  0.0652 -0.2244 -0.1615
16185W        W25878   6.954  17.773   2.097 -0.1171 -0.0921  0.1121
16186W        W25879   6.230  11.599   0.972  0.2532  0.1416  0.0087
16187W        W25880   1.975   1.616  12.103  0.0041  0.1683 -0.1695
16188W        W25881  14.226   9.161  11.334  0.2543  0.0400 -0.2468
16189W        W25882   4.460  10.525  12.918 -0.2516  0.4247  0.0864
16190W        W25883  11.940   3.178   2.314  0.0036  0.3589  0.5728
16191W        W25884  11.069  16.865  16.238  0.2709  0.0713 -0.2614
16192W        W25885   2.405   4.234   6.061  0.3265 -0.0521  0.1671
16193W        W25886  11.187  14.367  11.396  0.3604 -0.0110 -0.0555
16194W        W25887   4.121   1.796  13.411 -0.1675 -0.0298 -0.2402
16195W        W25888   4.668   3.260   1.715 -0.1100 -0.0211 -0.1590
16196W        W25889   3.252  11.042   2.509 -0.3272  0.1437 -0.0358
16197W        W25890   5.944  17.547   3.629  0.0595  0.2432  0.1951
16198W        W25891   8.481   0.896   0.035  0.2456 -0.0467 -0.0089
16199W        W25892   9.971   8.063  13.921 -0.2257  0.1830 -0.1834
16200W        W25893  16.324   6.176   4.521 -0.4013  0.2154 -0.0477
16201W        W25894   1.536  16.371   2.494  0.0041  0.0978 -0.1201
16202W        W25895  16.752   1.713  10.092  0.0939 -0.2118  0.1347
16203W        W25896  14.525  11.190   1.671  0.0646  0.3290 -0.1421
16204W        W25897   8.242   4.451   4.023 -0.2660  0.1718  0.0566
16205W        W25898   8.766  16.123   5.989 -0.0789  0.0288 -0.0137
16206W        W25899   3.577  12.892  16.271 -0.0106 -0.0722  0.0873
16207W        W25900  17.350   9.183  13.290  0.3143 -0.2408  0.3079
16208W        W25901   7.513   4.190  14.742  0.1154  0.2158 -0.3363
16209W        W25902  10.399   3.378  13.918 -0.1445  0.2355  0.0249
16210W        W25903   7.670   2.998  14.744 -0.1047 -0.0565  0.1543
16211W        W25904   6.933  11.666   6.811 -0.0673  0.1963  0.2614
16212W        W25905  16.335   1.956   1.923  0.1610  0.0112 -0.1079
16213W        W25906  14.208  10.395  14.213 -0.0134 -0.0369  0.3271
16214W        W25907   3.954  13.062  12.207 -0.3538 -0.0058  0.1277
16215W        W25908  11.608   8.118   4.611  0.1107 -0.0954 -0.0910
16216W        W25909   8.540   7.628   4.670  0.1832  0.2868  0.1260
16217W        W25910   7.286  10.259   5.704 -0.1350 -0.0686  0.0562
16218W        W25911   3.775  10.276  12.932 -0.0217 -0.0711  0.0585
16219W        W25912   7.909  16.446  13.218  0.0327 -0.0305  0.0497
16220W        W25913   2.745  13.880  14.143 -0.1974 -0.0580  0.0530
16221W        W25914   5.155   7.172  11.230  0.3285  0.2798  0.0167
16222W        W25915   3.023  15.817  12.783 -0.0446 -0.0559  0.0292
16223W        W25916   6.958  17.501   0.780 -0.1868  0.2755  0.0007
16224W        W25917   1.515  14.349   1.827  0.0738  0.0147  0.0842
16225W        W25918   5.232   0.391  16.570 -0.0021 -0.5275 -0.2162
16226W        W25919  17.008   9.945   1.391 -0.1189  0.0685 -0.0273
16227W        W25920   1.248  12.923   2.153 -0.2295 -0.1198  0.3849
16228W        W25921   1.963  15.650  12.527 -0.0648  0.4778 -0.0396
16229W        W25922   4.792  11.519   2.177 -0.3185 -0.1414  0.0465
16230W        W25923   0.783  14.838   2.791 -0.1841  0.1503 -0.2178
16231W        W25924   1.405   0.947  16.796  0.2200 -0.0777  0.2089
16232W        W25925   8.715  15.937   4.773  0.1213 -0.2911  0.2263
16233W        W25926   5.546   7.816   6.170  0.0259  0.1132 -0.0177
16234W        W25927  10.884  16.197   4.737  0.4115  0.1735  0.2286
16235W        W25928   5.756  17.131   3.776 -0.0492  0.2233  0.1476
16236W        W25929  10.749   2.220  16.201  0.1170 -0.2131  0.3295
16237W        W25930  11.959   5.835  15.318 -0.1507 -0.0625  0.1110
16238W        W25931   2.572   0.849   5.283  0.1499  0.0777 -0.2184
16239W        W25932  11.962  10.415   2.797  0.2029  0.1560 -0.2178
16240W        W25933  16.034   8.792  15.065 -0.2759  0.3141  0.2340
16241W        W25934   4.792  11.263  13.946 -0.0167  0.1524 -0.1346
16242W        W25935   0.975  14.448   1.697  0.1657  0.0943  0.1804
16243W        W25936   5.412  12.866  13.261 -0.3233 -0.3487  0.0317
16244W        W25937   1.969   0.024  11.867 -0.2075 -0.1581  0.0119
16245W        W25938   7.239  10.624   5.346 -0.0867 -0.1160 -0.0140
16246W        W25939  10.748  13.052   2.648 -0.0087 -0.3620  0.3605
16247W        W25940   6.035  12.254   1.617 -0.1729 -0.0778  0.0419
16248W        W25941  11.052  13.215   6.139  0.0537  0.3274  0.0407
16249W        W25942  15.467   2.413   2.084  0.1710 -0.0388  0.1800
16250W        W25943  12.481  17.179  13.426 -0.1094  0.2298  0.0930
16251W        W25944  16.629  13.333   3.579 -0.0916  0.0063  0.2241
16252W        W25945   8.353  15.694   2.165  0.1397 -0.0971  0.1234
16253W        W25946   9.461  10.795   7.317  0.2834  0.0388 -0.2443
16254W        W25947  12.993  14.321  13.196 -0.1103 -0.0454  0.2073
16255W        W25948   2.992   2.032  11.888  0.1941  0.1995  0.3001
16256W        W25949   1.467  10.131   0.433  0.0158 -0.0138 -0.0696
16257W        W25950   9.432   7.902   6.480 -0.0429  0.0610 -0.1760
16258W        W25951   3.723   0.519  13.088  0.1311  0.1371 -0.3034
16259W        W25952   1.243  13.572  16.923  0.1550  0.0422 -0.1293
16260W        W25953   0.206  14.712  15.918 -0.4037 -0.0805 -0.0553
16261W        W25954  16.874   2.082  10.496  0.2856  0.1442  0.0826
16262W        W25955   8.358  17.182   0.599  0.2291 -0.1550  0.0427
16263W        W25956   6.074  10.658   7.328  0.1635 -0.0426  0.3779
16264W        W25957  16.658  10.708  13.439  0.0247 -0.2648  0.0837
16265W        W25958   7.836   2.980  13.492  0.1045 -0.0981  0.1682
16266W        W25959  16.911  12.057  11.012  0.1828 -0.3523  0.0254
16267W        W25960  13.789  14.896  16.480  0.0044  0.0159 -0.1376
16268W        W25961   5.126   1.413  13.677  0.2024 -0.0573  0.4479
16269W        W25962  12.569  12.559  13.914 -0.0017  0.0911  0.0633
16270W        W25963  17.349   4.148   2.354  0.0047  0.0987 -0.1562
16271W        W25964   8.848   2.294   3.780 -0.1337  0.0114 -0.1515
16272W        W25965   6.099  11.161   4.675 -0.1032 -0.0679  0.2042
16273W        W25966   2.233   6.916  15.972 -0.0985  0.0783 -0.3175
16274W        W25967   4.576   1.845   0.612 -0.1358 -0.3185  0.0222
16275W        W25968   5.415   8.068   2.565 -0.4301  0.0690 -0.0538
16276W        W25969  10.953   0.452   4.557  0.1696  0.1295  0.2877
16277W        W25970   6.534  17.376   5.976  0.0529  0.1356  0.4096
16278W        W25971   0.765  11.205  13.446 -0.0102  0.0742 -0.0224
16279W        W25972  12.456   7.169  16.913 -0.1773  0.0697  0.0651
16280W        W25973   8.284   9.919   3.395  0.3218  0.0418  0.0656
16281W        W25974   6.710   7.906   4.563 -0.1795  0.0584  0.3784
16282W        W25975   8.552   2.934  13.829  0.1850  0.3616  0.1851
16283W        W25976   0.503  16.356  14.174  0.2950 -0.2843 -0.0035
16284W        W25977  12.323  16.254  16.106  0.1642 -0.0453  0.0214
16285W        W25978   5.858   0.484  14.835 -0.1368 -0.0420 -0.2665
16286W        W25979   2.895  13.559  16.267 -0.3972  0.0947  0.1712
16287W        W25980   2.306  16.729   1.853  0.0096  0.3261 -0.0430
16288W        W25981   9.092   0.727  16.309 -0.1279  0.1392 -0.0365
16289W        W25982   1.028   8.344  11.840  0.1907 -0.1045 -0.0614
16290W        W25983   7.032   5.275  16.021  0.1053  0.0799 -0.1796
16291W        W25984   9.678   4.056   1.244  0.0293 -0.0878  0.1135
16292W        W25985  11.926  17.234   0.581 -0.2680  0.3959  0.0742
16293W        W25986  15.643   2.331   4.541  0.0641 -0.1644  0.0752
16294W        W25987  10.327  17.733   2.959 -0.0573  0.0215 -0.2321
16295W        W25988  10.889  17.167  14.744  0.1496  0.1141  0.0260
16296W        W25989   8.833  16.517   2.152  0.1262  0.0649 -0.1040
16297W        W25990  13.149   9.840   5.926  0.1496 -0.0501 -0.1890
16298W        W25991   6.582   1.645  15.431 -0.3189 -0.0955 -0.1023
16299W        W25992   1.507   6.315  15.185 -0.0193 -0.1949  0.2045
16300W        W25993   1.080   1.304  12.929 -0.2217  0.0914  0.2138
16301W        W25994   4.694   5.343   3.058 -0.0731 -0.2032 -0.3879
16302W        W25995  11.224   0.683   0.923  0.0548  0.1175 -0.0684
16303W        W25996  17.611   5.774  15.743 -0.0524  0.0440 -0.0129
16304W        W25997   7.458   6.557  13.231 -0.0708 -0.0926 -0.0425
16305W        W25998  14.862   4.194   5.727 -0.0949  0.1873  0.1560
16306W        W25999  10.776  14.563   6.055  0.1716 -0.1605  0.0451
16307W        W26000  11.248   0.192  13.075  0.1090  0.3294 -0.0882
16308W        W26001   5.741   5.782  15.824 -0.2697  0.0169 -0.3816
16309W        W26002  14.664  12.934   1.462 -0.0779 -0.0662  0.3103
16310W        W26003   7.893   8.314   5.655 -0.2464 -0.0225  0.1907
16311W        W26004   6.490   6.119  15.444 -0.1636 -0.1367 -0.0154
16312W        W26005   6.201  11.704  12.578 -0.5699 -0.1281  0.0082
16313W        W26006   0.385   2.458   2.826 -0.0354  0.0479  0.0100
16314W        W26007  10.824  10.670  16.760  0.1169  0.0426  0.0700
16315W        W26008  10.137   3.327   1.224  0.0479  0.0520  0.0975
16316W        W26009   5.826   9.380  16.371  0.0576 -0.0498 -0.0194
16317W        W26010   0.642  15.711  16.972  0.0908  0.0729  0.0489
16318W        W26011   2.791  13.856   3.873 -0.1280 -0.1041  0.0458
16319W        W26012   5.530  12.308  16.845  0.0754 -0.0541  0.1853
16320W        W26013   5.685   8.768   0.899 -0.2322  0.0035 -0.0497
16321W        W26014   1.373  17.374  12.943 -0.1195  0.3420 -0.2624
16322W        W26015   9.189   6.565  13.074 -0.1850 -0.0268  0.3289
16323W        W26016   4.442  14.180  15.886 -0.1946 -0.0373  0.2548
16324W        W26017   8.908  17.195  11.855  0.2779  0.0007 -0.0797
16325W        W26018   7.184  17.419  11.273 -0.1625  0.0312 -0.0892
16326W        W26019  14.483  15.413  15.007  0.0032  0.2673 -0.2015
16327W        W26020   6.563   5.460  14.741  0.3624 -0.1928 -0.3086
16328W        W26021   3.785   6.133   2.652  0.1772 -0.1233 -0.0425
16329W        W26022   6.040   8.525   5.090 -0.1608  0.2096  0.0410
16330W        W26023   9.404  14.058   0.297 -0.2942  0.0697 -0.0283
16331W        W26024   3.272  16.305  13.579  0.3408  0.1782  0.2253
16332W        W26025   0.629   9.848  16.459  0.0167  0.1853  0.3306
16333W        W26026   3.479   2.398  16.214  0.0157  0.2770 -0.2588
16334W        W26027   2.779  13.664   2.906  0.1960 -0.0956  0.3787
16335W        W26028  10.799   4.325  16.165  0.1221 -0.0046  0.1941
16336W        W26029   0.212   0.166  12.673 -0.0650  0.2050 -0.2364
16337W        W26030   6.661  17.407   0.295 -0.0599 -0.2053 -0.0649
16338W        W26031  14.010  17.907   5.661  0.1083 -0.2372 -0.1144
16339W        W26032   6.669  15.887   0.265  0.0975 -0.1484  0.2469
16340W        W26033   6.783  15.005   3.905 -0.0991  0.0373 -0.0716
16341W        W26034   3.393   0.488   0.263 -0.2394 -0.1869  0.1341
16342W        W26035  12.042  13.498  12.294  0.1937 -0.0492  0.3546
16343W        W26036   8.825  14.290  13.666 -0.0035 -0.1556 -0.2535
16344W        W26037  15.679  15.651  15.020 -0.1521 -0.0478 -0.1021
16345W        W26038  16.922  16.727   1.348  0.1411 -0.2762  0.1873
16346W        W26039  10.204   3.864  13.899  0.1681 -0.0019  0.0480
16347W        W26040   5.499   7.040  15.030  0.0425  0.0142 -0.0937
16348W        W26041   2.625  16.042   2.476  0.2203  0.0960  0.2534
16349W        W26042   7.288   9.826   5.915  0.1210 -0.1579  0.1021
16350W        W26043   1.895   1.247  12.471 -0.2570 -0.0175 -0.0569
16351W        W26044   5.386  17.610  11.993 -0.1355  0.1323 -0.0239
16352W        W26045   3.658  10.264   2.884 -0.0300 -0.3043  0.1237
16353W        W26046   9.171  14.202   1.208  0.0446 -0.2833 -0.3337
16354W        W26047   6.566   0.029  14.256 -0.1133 -0.1510  0.1780
16355W        W26048  11.599   4.403   5.545  0.2532  0.2302 -0.0572
16356W        W26049   4.743   2.813   4.593 -0.2078  0.3576  0.0271
16357W        W26050   7.589  10.861  14.584 -0.1261  0.3263  0.1257
16358W        W26051   4.706  13.594   5.598  0.2764 -0.0417 -0.1550
16359W        W26052   2.122  13.255   1.090  0.2981 -0.0101  0.0917
16360W        W26053   8.544   2.343   4.698  0.1645  0.1174 -0.3644
16361W        W26054  13.005   9.877   0.416 -0.0537  0.1993  0.4812
16362W        W26055  10.642  14.879   3.058 -0.1957  0.1709 -0.1524
16363W        W26056  13.275   0.392  15.599  0.0880  0.1702  0.2189
16364W        W26057   6.554  10.486  13.401 -0.1068 -0.1203 -0.1190
16365W        W26058   4.797  15.088  16.399 -0.0981  0.0706 -0.1786
16366W        W26059   0.742  11.531  14.288  0.2737 -0.1810 -0.0008
16367W        W26060   2.846   4.852  17.010  0.0466  0.0396 -0.0836
16368W        W26061  16.133  16.012   1.020 -0.0867  0.2062  0.3658
16369W        W26062   3.648  10.275   3.533  0.1546  0.2191  0.2354
16370W        W26063  11.232   7.986   3.344  0.0791  0.0624  0.0833
16371W        W26064   7.626   2.345  16.640  0.2563  0.0310 -0.1509
16372W        W26065   5.647   0.929   1.663 -0.0769 -0.1551 -0.0453
16373W        W26066   1.013  14.484  16.569  0.2444 -0.1107  0.0135
16374W        W26067  17.081  15.120  16.570 -0.0050 -0.1568 -0.1597
16375W        W26068   7.362  16.295   5.728  0.0444 -0.2377 -0.0604
16376W        W26069   5.932   1.653   1.005 -0.1993  0.2807 -0.1264
16377W        W26070   7.864   8.638   4.465  0.2397  0.1130 -0.6384
16378W        W26071  15.758   7.299   2.501  0.2817 -0.1909  0.3537
16379W        W26072   8.799  12.131   3.080  0.0402  0.0611  0.2588
16380W        W26073   8.562   6.160  14.894  0.1001  0.0103  0.0107
16381W        W26074  16.275  14.466  13.539  0.1198 -0.2186  0.3416
16382W        W26075   3.278   3.684   1.987  0.1625 -0.0086 -0.0574
16383W        W26076  16.981   2.509   2.189  0.3122  0.2155 -0.2038
16384W        W26077   5.386   5.493   4.918  0.1447 -0.0450 -0.1281
16385W        W26078   5.573  11.162  14.396  0.0587 -0.1393 -0.1251
16386W        W26079   2.188  10.849   4.067 -0.0028 -0.0650 -0.2214
16387W        W26080  15.362   7.964   3.507 -0.0748 -0.2480 -0.0568
16388W        W26081   4.659   1.046  16.002 -0.2540  0.0338 -0.3802
16389W        W26082  14.976   4.272   0.847 -0.0017  0.2897 -0.3172
16390W        W26083   2.137  11.965  16.882 -0.1698  0.0802 -0.1594
16391W        W26084  17.934   5.187   3.535 -0.0797  0.1347 -0.1308
16392W        W26085   9.590  16.529   1.038 -0.3754 -0.0655  0.1575
16393W        W26086   5.682   9.184  15.628  0.0440  0.1705 -0.2843
16394W        W26087   2.652   6.670  14.441 -0.1892 -0.1083 -0.1807
16395W        W26088   6.100  12.068  14.555 -0.0178  0.0735  0.3370
16396W        W26089   8.381   6.445   3.317  0.2559 -0.0253 -0.0146
16397W        W26090   9.868  16.356  12.912  0.0389  0.2637 -0.0291
16398W        W26091  16.750   7.633   6.122 -0.1372  0.0826  0.0861
16399W        W26092  10.162  13.496   3.157  0.2739  0.1740  0.0825
16400W        W26093   5.712  13.574   2.956 -0.1125  0.1188  0.2119
16401W        W26094   3.197  10.799   1.590  0.0139  0.0063  0.0371
16402W        W26095  17.610   5.262  13.323  0.1885  0.0861 -0.2250
16403W        W26096   1.034   5.455  11.781 -0.1131 -0.3332 -0.0734
16404W        W26097   1.337   7.355   1.190 -0.4040  0.2316 -0.2089
16405W        W26098   5.394  14.269  11.071 -0.2521 -0.0089 -0.0574
16406W        W26099   0.487   1.928   2.569  0.1331  0.0958 -0.1544
16407W        W26100   6.387  17.195  15.654  0.5525  0.2343 -0.1804
16408W        W26101   1.183  16.920  12.120 -0.0010 -0.0775 -0.1593
16409W        W26102  12.436   9.469   2.070 -0.0874  0.2953  0.0213
16410W        W26103   7.857  11.921   1.968  0.1837 -0.0609 -0.3841
16411W        W26104   1.531  17.272   1.568  0.2252 -0.0743  0.0129
16412W        W26105   0.568   7.088  11.447  0.0502 -0.0221 -0.1085
16413W        W26106   2.246   3.107  15.718  0.2045 -0.2674 -0.1026
16414W        W26107  15.527   1.966  16.640 -0.1243  0.3033  0.0159
16415W        W26108   4.447  11.040   0.214 -0.1676 -0.2334  0.3484
16416W        W26109  16.866   9.089   4.802 -0.0318 -0.1929 -0.0958
16417W        W26110  15.405  16.645  11.743  0.0067 -0.0555 -0.3174
16418W        W26111   7.716   1.722  14.981  0.0902 -0.3839  0.0772
16419W        W26112   5.360   4.177   2.568  0.2426  0.1704  0.3858
16420W        W26113   6.730   6.380  14.815  0.0742  0.1373  0.3223
16421W        W26114  14.715   2.317  12.644  0.0315  0.0063  0.1254
16422W        W26115   0.680  11.812  13.186  0.0547 -0.3091 -0.0809
16423W        W26116   6.627  11.314  12.952  0.1644  0.2322 -0.0663
16424W        W26117  11.950   5.568   6.145  0.0990 -0.2521 -0.0505
16425W        W26118  16.388   8.609  16.206  0.0530  0.2548 -0.1586
16426W        W26119   9.265   6.991   1.718 -0.1795 -0.1219 -0.1774
16427W        W26120   4.351   7.820   0.980  0.4001 -0.0212  0.1074
16428W        W26121   2.115  12.222  12.050 -0.0740 -0.0933  0.0757
16429W        W26122  16.969  11.844  15.511  0.1790  0.3669 -0.1779
16430W        W26123  15.253   4.733  12.368 -0.0263 -0.0328  0.1068
16431W        W26124  13.621  15.055  12.945 -0.3402  0.2232  0.0737
16432W        W26125  17.559   1.401   0.724  0.0476 -0.2392  0.0330
16433W        W26126   3.670  14.966  11.619 -0.3547  0.1775 -0.2572
16434W        W26127   6.298  16.209   1.535  0.0142  0.1642 -0.0540
16435W        W26128   4.780   6.878   3.029 -0.0037 -0.0947  0.0310
16436W        W26129   0.832   5.930  15.785  0.0752 -0.1250 -0.1399
16437W        W26130   8.375   6.338   1.876 -0.1250 -0.0397 -0.0106
16438W        W26131   7.346   3.907   0.855 -0.0544  0.1095  0.1873
16439W        W26132  17.454  11.806   6.175 -0.0144 -0.0917  0.1700
16440W        W26133   1.921  11.326  13.386 -0.1078 -0.3313 -0.1959
16441W        W26134   8.286   7.110   6.354  0.0681 -0.0319 -0.1947
16442W        W26135   9.392   3.407  15.930  0.1874  0.5697 -0.0710
16443W        W26136   7.895   4.120  13.760  0.1417 -0.0448 -0.2016
16444W        W26137   1.268  16.872  13.042  0.0803 -0.3891 -0.2192
16445W        W26138   7.412   8.058  12.653  0.1951 -0.0178 -0.1209
16446W        W26139   8.396   7.608  16.627 -0.2215  0.0388 -0.3422
16447W        W26140  13.324   0.965  10.630 -0.0478  0.1344  0.1963
16448W        W26141  15.027   7.635  15.236  0.0313 -0.0976  0.0140
16449W        W26142  14.712   8.830   1.678  0.1146  0.2454 -0.1606
16450W        W26143   9.369  12.497   4.116  0.1073  0.0842  0.1254
16451W        W26144   7.611   8.397   4.806 -0.0324  0.3401 -0.0073
16452W        W26145  17.904   5.786  14.862  0.0538  0.1539 -0.0209
16453W        W26146   3.344   1.474  16.084 -0.2501 -0.0718 -0.1281
16454W        W26147   3.611   6.285  12.281 -0.1587 -0.1445 -0.3563
16455W        W26148  15.025   4.252  12.865 -0.0127 -0.0487 -0.0366
16456W        W26149   8.155   4.831  13.182  0.0290  0.1077  0.0367
16457W        W26150   2.931   7.399  14.136  0.1537 -0.2233 -0.2019
16458W        W26151   2.625   5.667  14.803 -0.0819 -0.2235 -0.0818
16459W        W26152   5.230  12.853  14.186  0.0090  0.1704  0.1680
16460W        W26153   6.194   7.009  12.608 -0.1725 -0.2441  0.1164
16461W        W26154  13.647  17.928  14.945  0.0678 -0.0484 -0.1441
16462W        W26155   5.900   6.587   3.627 -0.3372 -0.2150 -0.3036
16463W        W26156   5.535  10.124  15.689 -0.0651  0.1068 -0.0136
16464W        W26157  10.988   1.541   6.919 -0.2459 -0.2431 -0.0556
16465W        W26158  16.601  13.208  10.404  0.1620  0.1034  0.2360
16466W        W26159  10.851   1.348   3.859  0.0199 -0.1235  0.0701
16467W        W26160  11.532   3.763   4.781  0.1575 -0.0153 -0.1392
16468W        W26161   1.012   8.809  16.480  0.1564 -0.4049  0.0129
16469W        W26162  15.105  15.145   0.698 -0.1251  0.0679 -0.0424
16470W        W26163   8.332  13.667  16.195  0.0108  0.0060  0.0830
16471W        W26164   1.560  15.249  13.081  0.3975  0.1255  0.0367
16472W        W26165   9.007   6.728   6.825  0.2763  0.0620 -0.0603
16473W        W26166   2.230   5.935   2.415  0.0809  0.0261 -0.1357
16474W        W26167   5.864  14.940   3.357 -0.2278  0.2902 -0.0154
16475W        W26168  16.660   0.839  12.893 -0.3074 -0.2834  0.1442
16476W        W26169   6.008  17.181   3.319 -0.2206 -0.1541 -0.1106
16477W        W26170   6.483   9.852   6.275 -0.2315 -0.1054  0.2283
16478W        W26171  11.453   1.828   1.318  0.2139 -0.1325  0.0845
16479W        W26172  10.496  13.677   3.508 -0.1753 -0.0879 -0.0579
16480W        W26173   3.739   8.421   3.869  0.2410  0.1691 -0.1505
16481W        W26174   8.946   9.960   0.558  0.0060  0.1793 -0.0961
16482W        W26175   1.755  15.844  16.058 -0.0886  0.0663 -0.1103
16483W        W26176  13.704  16.448  14.258 -0.3090  0.2476  0.2310
16484W        W26177   2.641   0.634  14.392  0.0161  0.0766  0.2643
16485W        W26178   5.480   3.332  11.529  0.3831 -0.2275 -0.1232
16486W        W26179   3.034   4.394  14.931  0.1473  0.0150 -0.0448
16487W        W26180   2.910   2.442  12.248 -0.1941  0.0046 -0.0774
16488W        W26181   0.841   9.819  15.609  0.0545  0.1216  0.0428
16489W        W26182   4.526   2.457  11.618  0.0063 -0.0285 -0.2318
16490W        W26183   8.794   6.246   2.730  0.0281 -0.0229  0.1268
16491W        W26184  11.424   1.233  13.818  0.1858 -0.0334  0.1584
16492W        W26185   2.734  11.034  14.700  0.0081  0.0254 -0.0469
16493W        W26186   5.006  15.649   4.655  0.1247  0.1714  0.1225
16494W        W26187   3.603  15.308  13.650  0.3041  0.1120 -0.0728
16495W        W26188  10.344  12.062   5.070  0.1736 -0.0037 -0.2117
16496W        W26189  12.462   8.560   0.268 -0.4336  0.1692 -0.0668
16497W        W26190  15.866   2.092  14.513  0.2629 -0.2720  0.0444
16498W        W26191   4.611   8.022   3.401 -0.3092  0.1851 -0.2252
16499W        W26192   5.604  15.342   3.322  0.2487  0.0546  0.0547
16500W        W26193   3.451  16.859  16.378  0.0400  0.2286 -0.2548
16501W        W26194   6.879   1.079  17.114 -0.2351 -0.0538  0.1518
16502W        W26195  15.137   4.927   3.620  0.0800 -0.0157  0.2100
16503W        W26196   8.822   7.409  11.233 -0.1995  0.2058 -0.3014
16504W        W26197   1.763   5.245  12.407  0.2258  0.1097 -0.1905
16505W        W26198   2.249   6.697  14.876 -0.0766  0.0389 -0.0462
16506W        W26199   6.730   6.525   5.524 -0.0388  0.2276  0.0893
16507W        W26200   5.126  16.375  15.459 -0.1604  0.0388  0.2032
16508W        W26201  10.623  14.785  14.439 -0.0935 -0.1942 -0.0477
16509W        W26202   6.634   1.404   6.183  0.1254 -0.3802 -0.0089
16510W        W26203   2.432   5.149   5.584  0.1727 -0.0985 -0.2076
16511W        W26204   8.839  10.043   4.798 -0.1748  0.0426 -0.0857
16512W        W26205   1.495  16.116   4.316  0.2742 -0.2940  0.2765
16513W        W26206   4.120  10.311   2.658 -0.0850 -0.1643 -0.1122
16514W        W26207   5.263  13.893  12.737  0.0310 -0.4388 -0.1788
16515W        W26208  16.770   7.989   0.945 -0.1054  0.4668  0.0282
16516W        W26209   2.230   0.205  16.399  0.0223  0.1921  0.0590
16517W        W26210  11.267   9.628   3.607 -0.1536  0.1303 -0.1573
16518W        W26211   9.074   1.488  16.146 -0.2006  0.0019  0.2974
16519W        W26212   1.604  16.218   4.912  0.0097  0.0065 -0.0615
16520W        W26213  10.326   7.643   6.125 -0.2507  0.0400  0.0036
16521W        W26214   6.074   7.781   6.957  0.1093 -0.0544 -0.1097
16522W        W26215   7.843   9.604  14.068  0.2513 -0.3423 -0.2205
16523W        W26216   7.176   8.965   2.475 -0.0769 -0.1139  0.1431
16524W        W26217   7.821   5.676  13.377  0.0498 -0.0084 -0.2581
16525W        W26218  10.001  16.087  13.328 -0.3148 -0.0492 -0.1614
16526W        W26219  12.251   9.118   4.736 -0.0029  0.2949 -0.0965
16527W        W26220   8.761  10.255   2.253 -0.0513  0.4094 -0.1584
16528W        W26221   1.503  13.540  15.955 -0.1466 -0.1455  0.0236
16529W        W26222   8.391   5.769  13.489 -0.3251  0.0096  0.2126
16530W        W26223   5.590  15.702   2.980 -0.0943  0.0641  0.1801
16531W        W26224   9.493   3.608  14.510  0.0892 -0.3660 -0.1031
16532W        W26225   3.975   2.597  15.336 -0.3581  0.0035 -0.1477
16533W        W26226   7.089  10.377   1.413 -0.1092 -0.1849 -0.1697
16534W        W26227   9.192  10.276   5.752 -0.0385 -0.1114 -0.0846
16535W        W26228   4.168   1.062   4.503 -0.2220 -0.0507  0.0014
16536W        W26229   6.658   6.753  16.707 -0.3090  0.1255  0.1697
16537W        W26230  10.234   9.997   5.877  0.1653 -0.2727 -0.0936
16538W        W26231   6.139  14.622  12.592 -0.0157  0.0850  0.1757
16539W        W26232  14.769   4.461  16.595  0.1236 -0.2295  0.0438
16540W        W26233  15.953   3.936   0.715  0.1880 -0.1506 -0.2083
16541W        W26234   6.917   5.363  16.721 -0.0529  0.1608 -0.3576
16542W        W26235   7.221  14.266  12.689  0.2444 -0.2403 -0.1133
16543W        W26236   4.092   3.304  13.444  0.3876 -0.2895  0.2557
16544W        W26237   6.755  15.070  14.740  0.1111 -0.0725  0.0398
16545W        W26238   7.269   5.729   4.443 -0.1844 -0.0749  0.1204
16546W        W26239   3.070   5.531   4.673 -0.0595 -0.0466  0.0085
16547W        W26240   2.124  10.105   3.372  0.1217  0.0739  0.1884
16548W        W26241   5.563   3.354  16.985 -0.2136 -0.0430  0.0721
16549W        W26242   1.852  11.555   6.069  0.1804  0.0324 -0.0685
16550W        W26243   0.347  14.405  10.661  0.1979  0.0123  0.0727
16551W        W26244   5.959   9.604   0.525  0.0874  0.0243  0.3131
16552W        W26245   8.436  10.117   0.534 -0.2027 -0.0273 -0.0199
16553W        W26246   3.079  15.450  14.964 -0.3786 -0.2545 -0.3008
16554W        W26247   1.771  14.737   2.854  0.1040 -0.0472 -0.3047
16555W        W26248  12.080  12.802  13.013  0.0973  0.2194  0.0381
16556W        W26249   3.482   3.565  16.947  0.1236  0.0179  0.0481
16557W        W26250   2.221  15.779  15.130  0.2873 -0.1899  0.0970
16558W        W26251   7.725  14.522   3.001 -0.1532 -0.3043  0.4415
16559W        W26252   7.700   6.835  13.972 -0.1123  0.0053  0.5043
16560W        W26253   8.698   1.142   5.452  0.0031 -0.0718  0.0184
16561W        W26254   2.586  15.163   1.255  0.1363  0.0278  0.1487
16562W        W26255   7.659  12.477  13.596  0.2807 -0.2353  0.0274
16563W        W26256  12.855  15.877   2.264 -0.2716 -0.0259  0.1700
16564W        W26257   3.846  16.463   4.743  0.3935 -0.2769  0.1577
16565W        W26258   7.289   0.856  16.371 -0.0062  0.2546  0.2318
16566W        W26259  17.553  17.308   0.181 -0.1771  0.1411 -0.1067
16567W        W26260   3.519  12.253   3.348  0.1012 -0.0202 -0.1590
16568W        W26261   0.684   0.712   1.417  0.2749 -0.1922 -0.1725
16569W        W26262   5.987  14.667   1.993 -0.0546 -0.5438  0.2395
16570W        W26263  16.391  16.519  11.884 -0.4086  0.0934  0.2405
16571W        W26264  16.266  14.511  12.946  0.3336 -0.0510 -0.0364
16572W        W26265   5.395  14.142  14.886 -0.0975 -0.0771 -0.2039
16573W        W26266   9.610   4.403  13.790  0.3378  0.1912  0.0466
16574W        W26267   6.553  16.412   4.746  0.1581 -0.1356  0.0621
16575W        W26268   4.886   4.102  15.246 -0.0361  0.5107 -0.2681
16576W        W26269   3.515   4.589  15.071 -0.2858 -0.1963 -0.2280
16577W        W26270  11.641  13.356  16.062 -0.0447 -0.0902 -0.0599
16578W        W26271   3.391   6.488   3.590  0.0560  0.0563  0.4530
16579W        W26272  15.902  10.367  13.952 -0.0750 -0.2565  0.3441
16580W        W26273   5.553   7.486  16.190 -0.0015 -0.3308  0.1243
16581W        W26274  12.201  16.038   4.729  0.2674  0.2506  0.1234
16582W        W26275   8.308  15.509  16.371 -0.0648  0.0187  0.0891
16583W        W26276   9.075  17.487   1.659  0.2386  0.1020  0.0352
16584W        W26277   2.696  16.629  14.706  0.0340  0.1643  0.1321
16585W        W26278  14.091   0.045  16.190 -0.2977  0.0588  0.3238
16586W        W26279   2.847  10.432   1.511 -0.3522  0.1820  0.0641
16587W        W26280   7.023  12.828  14.991  0.0241  0.2029  0.0189
16588W        W26281   5.124  15.606  15.580  0.0822  0.1465  0.0027
16589W        W26282   3.636  10.745  12.131  0.1558 -0.0837  0.0615
16590W        W26283   6.353   3.982   5.933  0.0670  0.1825 -0.1563
16591W        W26284   1.084   9.669   2.454 -0.0116 -0.0796  0.2488
16592W        W26285  11.658  15.998  13.104  0.1065 -0.1282  0.1554
16593W        W26286  15.414  15.401   3.289  0.1490 -0.1039  0.0583
16594W        W26287  10.801   3.873   3.628 -0.2361  0.1812 -0.1666
16595W        W26288  11.929  12.504   3.985 -0.2956  0.2207  0.0035
16596W        W26289   7.684   2.468  16.075  0.2607  0.0285  0.1669
16597W        W26290   5.610  14.776  16.442  0.4316 -0.1592 -0.1228
16598W        W26291   6.240   2.071   2.923 -0.0490  0.0220  0.0436
16599W        W26292  12.761  14.984  15.198 -0.3511  0.1834  0.1778
16600W        W26293   3.164  17.144   0.491  0.1664 -0.4145 -0.2722
16601W        W26294   8.111   9.671  13.578 -0.0633 -0.0740 -0.4054
16602W        W26295   1.570  10.925  13.453  0.1632 -0.0229  0.1926
16603W        W26296   3.100  13.844   2.073 -0.4820 -0.4392  0.0873
16604W        W26297   3.958   8.872  15.485  0.2176 -0.1302 -0.1044
16605W        W26298   9.047  10.073   5.315  0.0121  0.0578 -0.3629
16606W        W26299   1.557  10.996   5.017  0.0664  0.0902  0.0733
16607W        W26300  10.247  13.143  13.031  0.2205  0.1348  0.0636
16608W        W26301  13.389  13.848   1.277 -0.0091  0.1167  0.1129
16609W        W26302   4.444   6.296  16.136  0.0349  0.2018 -0.2141
16610W        W26303   8.707  15.460  15.781  0.0088 -0.1481 -0.0752
16611W        W26304   0.077   3.230  11.973  0.1170  0.0588 -0.1842
16612W        W26305   6.690  17.839  11.911 -0.3401 -0.3259  0.0438
16613W        W26306   7.402  10.735   5.801 -0.0493  0.1779 -0.0043
16614W        W26307  13.683  14.313   5.985  0.0656  0.0229 -0.0498
16615W        W26308   5.938   1.366   0.223  0.1464 -0.2352  0.0986
16616W        W26309   8.555   1.924   2.823 -0.2270  0.1707 -0.0884
16617W        W26310  16.206   7.960  16.042 -0.0913  0.0209  0.0851
16618W        W26311  17.973   6.098  12.317  0.2670  0.2745 -0.1959
16619W        W26312  12.663   2.509  16.320 -0.2147 -0.0621  0.0504
16620W        W26313   8.933   5.636  16.327  0.0055  0.2130  0.0262
16621W        W26314   0.894   5.360  12.357  0.1636 -0.2904 -0.0797
16622W        W26315  13.669   4.698   2.837  0.0202  0.0468  0.1883
16623W        W26316   3.701   1.562   2.114  0.0211 -0.2471  0.1114
16624W        W26317   4.872  16.774  14.844 -0.2322  0.0767 -0.2050
16625W        W26318  17.904   9.033   3.071 -0.1506  0.2295  0.1501
16626W        W26319   0.325  11.814   3.196  0.0346 -0.1586  0.0589
16627W        W26320   6.444   8.065   7.161 -0.3555 -0.2295 -0.0044
16628W        W26321   5.222  10.474  15.786  0.1801 -0.0268 -0.0627
16629W        W26322   2.953   1.328   2.448  0.0096  0.0164  0.2212
16630W        W26323  14.026  14.765  11.823 -0.2648  0.2846  0.1236
16631W        W26324   9.870  11.196  14.389 -0.3257 -0.0903 -0.1480
16632W        W26325  16.780  14.946  15.526  0.3780  0.1580  0.0430
16633W        W26326   8.582   6.617  15.584  0.5019  0.1717 -0.1027
16634W        W26327  11.468   3.547  14.863 -0.1092 -0.0356 -0.0269
16635W        W26328   8.155   8.018  16.335 -0.3968  0.5519  0.0390
16636W        W26329   6.800   7.361  14.415  0.2365 -0.0064 -0.0077
16637W        W26330   7.823  15.941  15.879 -0.1876 -0.1078 -0.1712
16638W        W26331   5.373  11.909   5.970  0.0700  0.0790 -0.1066
16639W        W26332   1.618   7.903  14.367  0.2471 -0.1422 -0.0515
16640W        W26333   0.688   8.699  13.003 -0.2210 -0.2067  0.0511
16641W        W26334   6.106   9.640   1.378  0.1343 -0.1323 -0.0330
16642W        W26335  14.611   5.244  10.097 -0.1400  0.3866 -0.1384
16643W        W26336   7.316  17.924  13.951  0.0481 -0.3931  0.0929
16644W        W26337   4.654   7.007  14.362  0.2706  0.1017  0.1492
16645W        W26338   2.455  13.511   1.400 -0.2606 -0.0575 -0.1010
16646W        W26339  12.362   5.738  16.630 -0.0159 -0.0446  0.1756
16647W        W26340  13.443   0.686  10.200 -0.1224  0.3592 -0.0515
16648W        W26341   7.387   5.413   5.670 -0.0174  0.1247 -0.1229
16649W        W26342   8.386  17.386  12.797  0.0536 -0.1322 -0.3935
16650W        W26343  11.699   9.857  13.981  0.1932 -0.1391 -0.1648
16651W        W26344   0.253  12.402   2.348 -0.3604 -0.1048  0.0444
16652W        W26345   5.206  10.458  13.818  0.0980 -0.0479  0.0407
16653W        W26346   2.908   0.226   2.611  0.0594 -0.0994  0.3832
16654W        W26347   5.734  14.842  15.468 -0.2090 -0.1608 -0.1759
16655W        W26348  12.406   6.788  13.377  0.3763 -0.1762 -0.2484
16656W        W26349   1.670  14.681   4.434  0.3484 -0.1042 -0.0016
16657W        W26350   8.358  17.509  14.617  0.0978 -0.0911 -0.2913
16658W        W26351   1.168  12.542  16.227 -0.0736 -0.1225  0.3123
16659W        W26352  11.188  15.127   0.155  0.0568 -0.0644 -0.1733
16660W        W26353   9.172  14.272  16.567  0.2123 -0.2056 -0.0302
16661W        W26354   1.559   4.977  16.796  0.3349 -0.0630  0.1180
16662W        W26355  13.579   9.548   4.065  0.1405  0.1306  0.1117
16663W        W26356   6.463   6.805   3.321  0.2575  0.0213  0.0361
16664W        W26357  15.704   0.582  15.500 -0.3783 -0.2123 -0.4082
16665W        W26358   9.506   1.467  12.571 -0.0424  0.0941  0.1533
16666W        W26359  10.783   1.809  13.114  0.1346 -0.0715 -0.0785
16667W        W26360  13.872  14.438   4.726 -0.1359 -0.1346  0.0933
16668W        W26361   6.916  13.332  13.022  0.0621  0.0107 -0.0658
16669W        W26362  16.570  16.533   2.180  0.1481 -0.1780  0.0517
16670W        W26363   5.335   2.537  13.813  0.1472 -0.1930 -0.0822
16671W        W26364  12.974  12.899   3.397 -0.1249 -0.1335  0.0113
16672W        W26365  11.651  16.251  14.841  0.0391 -0.1697 -0.0268
16673W        W26366   5.868   8.689   6.681 -0.1443 -0.2808  0.0095
16674W        W26367   2.401   4.331   5.450  0.1629 -0.0909  0.0119
16675W        W26368   7.848   3.379  13.755  0.0479  0.1394  0.1624
16676W        W26369  11.528  15.858  13.769  0.1736  0.3359 -0.0692
16677W        W26370   1.486  10.604   0.664 -0.0662  0.0641  0.1328
16678W        W26371   2.666  11.651  15.276 -0.2361 -0.3696  0.1779
16679W        W26372   5.375  15.180   5.185  0.1145  0.1091 -0.2036
16680W        W26373  16.023   7.216  12.953  0.1027 -0.1145 -0.0688
16681W        W26374  14.308  14.011  14.503  0.0073  0.1631  0.3150
16682W        W26375   9.003  10.518  13.716  0.1646  0.0796 -0.0511
16683W        W26376   1.314   6.880  14.314  0.3569 -0.5819  0.3336
16684W        W26377   3.519   0.521   2.820 -0.1691  0.0691 -0.1438
16685W        W26378   9.409   7.113   0.769 -0.1074  0.1968  0.0820
16686W        W26379   6.450  12.688   5.265 -0.1695 -0.2568  0.2524
16687W        W26380  12.513  11.744   5.617  0.1991  0.2714  0.1900
16688W        W26381   5.826   9.960  16.331  0.2135  0.1387 -0.0291
16689W        W26382   1.902   4.678  12.343  0.0672 -0.1761 -0.0744
16690W        W26383  11.911   3.460  16.672 -0.0014 -0.5696  0.1519
16691W        W26384   6.881  16.908  15.074  0.1120  0.1613 -0.2781
16692W        W26385   2.894  17.679  12.069 -0.0949 -0.1691 -0.0268
16693W        W26386   3.003   6.708   0.717  0.0513 -0.0983  0.1550
16694W        W26387   7.093  13.683   4.680 -0.0730  0.0003  0.0089
16695W        W26388   3.066   7.967   3.242 -0.0027 -0.4523  0.1015
16696W        W26389   7.874  12.051  15.789 -0.1333  0.4096  0.0008
16697W        W26390   4.751   0.330  12.903 -0.3461  0.1010 -0.1728
16698W        W26391   2.320  14.970  14.872  0.0017  0.2607 -0.0382
16699W        W26392   2.683   7.975  13.303  0.1205 -0.2134 -0.4133
16700W        W26393  16.480   5.574  11.011 -0.2113 -0.1420 -0.0035
16701W        W26394   5.729   1.303   0.673 -0.3433  0.5089 -0.1693
16702W        W26395   3.055  15.372   0.408 -0.0188  0.1819 -0.1928
16703W        W26396  16.426   2.173   1.423 -0.2670  0.3744 -0.1237
16704W        W26397   7.818   8.716  11.462 -0.2348 -0.0416  0.3137
16705W        W26398   6.010   3.825  11.069 -0.4226 -0.0873  0.3379
16706W        W26399   6.471  17.714  15.619  0.0320  0.2072  0.2377
16707W        W26400   8.720   3.400   2.768 -0.1075  0.3259 -0.2103
16708W        W26401   3.355   0.813  15.807  0.0288 -0.1350  0.1982
16709W        W26402  11.526  17.353   1.429 -0.2719  0.0339  0.2654
16710W        W26403  16.071   9.536   2.525 -0.0638 -0.0962  0.1255
16711W        W26404   2.374   3.973   0.994 -0.1073  0.0006  0.0218
16712W        W26405   3.902  12.477   0.908 -0.0783  0.0767  0.1331
16713W        W26406   5.023   3.786  12.542 -0.0066  0.3838  0.2831
16714W        W26407  12.656  16.563   2.794 -0.1064 -0.2686 -0.0557
16715W        W26408   9.473  12.971   4.097 -0.1672  0.0024 -0.2751
16716W        W26409   7.526   0.026   1.277  0.0360  0.0938  0.0682
16717W        W26410  15.742  13.273  15.220 -0.2280  0.0575 -0.1485
16718W        W26411   3.209   5.788  14.856 -0.0100  0.1046 -0.3824
16719W        W26412  12.522   4.725   1.822  0.0180  0.4121  0.1718
16720W        W26413  16.232   3.387   0.655 -0.0945  0.2271 -0.3808
16721W        W26414   4.398   4.405   4.574  0.1648 -0.2584  0.1583
16722W        W26415   5.483   8.399   3.513 -0.1455  0.2248  0.0930
16723W        W26416   4.861  16.284   4.003 -0.0742 -0.1155 -0.0382
16724W        W26417   1.567   1.057  13.822 -0.0296 -0.1157 -0.1463
16725W        W26418  14.716  15.569  15.440  0.0114 -0.1807 -0.3434
16726W        W26419   5.136  12.583  13.032  0.0400  0.0810  0.3467
16727W        W26420   8.789  11.108  16.628  0.1073 -0.0693  0.2270
16728W        W26421   2.331   2.137  13.736 -0.1080 -0.0649  0.1687
16729W        W26422   1.811  14.971  16.626  0.0176 -0.2633  0.0247
16730W        W26423   3.205  14.458   1.360  0.3838 -0.2553  0.2072
16731W        W26424  12.157   3.385   3.155 -0.0081 -0.1659 -0.1905
16732W        W26425   5.970  14.533   3.030 -0.0283  0.1298 -0.2617
16733W        W26426   8.172   2.361  16.018  0.1704 -0.0067  0.2129
16734W        W26427   4.551  16.215   5.325  0.0939  0.1009  0.3269
16735W        W26428   4.001  17.192   4.020  0.1936  0.2814 -0.1472
16736W        W26429  12.507  12.779  15.756 -0.0437  0.0126  0.4018
16737W        W26430   0.293  17.820  13.276 -0.0255  0.0364 -0.2475
16738W        W26431  11.208  12.194  16.962  0.3729  0.2851 -0.0600
16739W        W26432  11.044   5.663   3.622 -0.3614 -0.0449 -0.1855
16740W        W26433  14.253   4.158  14.898 -0.3554 -0.0146  0.0642
16741W        W26434   2.732  10.216   0.090 -0.1535 -0.2396  0.0592
16742W        W26435   0.717   2.729   3.999  0.2879  0.1972  0.2424
16743W        W26436   1.007  12.344   2.959 -0.0804  0.1969  0.0867
16744W        W26437   5.744   9.563   0.979 -0.2091  0.1339 -0.0400
16745W        W26438   1.384   7.273  11.943 -0.0825  0.1652 -0.0193
16746W        W26439   0.590  11.452  12.476 -0.0454 -0.1257  0.0194
16747W        W26440  17.979   6.412   4.643  0.1531 -0.2230  0.0130
16748W        W26441  16.071  12.360  14.012  0.1268 -0.1722  0.1661
16749W        W26442   1.826  10.871   0.249 -0.0686  0.2907  0.3311
16750W        W26443   9.907  10.857   0.847 -0.0991  0.1220  0.1210
16751W        W26444  16.076   1.374  14.064  0.0554 -0.0580  0.2548
16752W        W26445   3.928   6.825   5.216  0.0465  0.0004 -0.2273
16753W        W26446   4.318   8.501  16.937 -0.1257 -0.0197  0.0684
16754W        W26447  15.929  17.348  16.440 -0.2360 -0.2150 -0.1570
16755W        W26448  13.462   8.155   3.256  0.3338 -0.0066 -0.0177
16756W        W26449  17.527  14.583  15.306  0.0619 -0.0270  0.0547
16757W        W26450   0.745  11.281  15.910  0.1711 -0.2848  0.1601
16758W        W26451   4.858  13.977   2.408 -0.0636  0.0404 -0.4641
16759W        W26452   0.002   1.133   0.545 -0.0746 -0.1630  0.2191
16760W        W26453   9.588   6.736   0.235  0.0279 -0.0522  0.0285
16761W        W26454  12.330   8.083  12.217  0.0953  0.1530 -0.1873
16762W        W26455   2.003  11.640   1.902  0.2598  0.0332 -0.3369
16763W        W26456   3.771  14.175   5.983 -0.1286  0.1359  0.1905
16764W        W26457  11.844  14.753   2.031  0.0054 -0.1117  0.0853
16765W        W26458   8.387  12.864   3.347 -0.1843  0.1065 -0.0916
16766W        W26459  17.435   9.652  14.033 -0.2335 -0.1446  0.1562
16767W        W26460   8.880  10.827   0.879 -0.3505 -0.0304  0.0737
16768W        W26461   4.535   1.941   0.095 -0.1142 -0.0588  0.0289
16769W        W26462  11.281  10.156  12.598 -0.0179  0.2204  0.0519
16770W        W26463   0.172   5.079  13.240  0.2342 -0.1215  0.1053
16771W        W26464  13.439   8.254   0.458  0.0110 -0.1891 -0.1368
16772W        W26465  10.172   3.568   2.192  0.2501  0.1180 -0.0388
16773W        W26466  13.356   4.812   4.523  0.4661 -0.2639  0.0458
16774W        W26467   1.453   4.484  12.055 -0.0635  0.0560 -0.0638
16775W        W26468   0.123  13.551  15.685  0.3407 -0.1186  0.1247
16776W        W26469   6.955   9.927  16.197 -0.4570 -0.2143 -0.1744
16777W        W26470   3.578   0.336   5.353  0.2809  0.3063  0.0629
16778W        W26471  10.368   5.441  13.361 -0.0842 -0.3226  0.0485
16779W        W26472   3.736  12.943   0.060  0.1075 -0.1961  0.1849
16780W        W26473   3.633  14.204  15.019  0.0669 -0.1114 -0.2842
16781W        W26474   3.808  16.825  10.795 -0.0457 -0.3016 -0.0815
16782W        W26475   5.556  13.335  12.836  0.1312 -0.4439 -0.2081
16783W        W26476   9.088   1.244   5.079 -0.2024  0.1617  0.1208
16784W        W26477  14.077  11.623  12.272 -0.2494 -0.0846 -0.1859
16785W        W26478   1.864  16.517   3.653  0.0271 -0.3400 -0.2156
16786W        W26479   4.152  11.784   0.715  0.0928  0.2365  0.1410
16787W        W26480  10.221   0.607  14.938  0.2808 -0.2022  0.0594
16788W        W26481  10.580   5.253   5.958 -0.1758 -0.1486  0.1371
16789W        W26482   1.393  10.189  14.294  0.0840  0.2138 -0.1776
16790W        W26483  11.574   8.038   1.945 -0.0319 -0.2861  0.4173
16791W        W26484  13.452   7.555   2.507  0.0613 -0.1563 -0.0525
16792W        W26485  11.808  16.388   3.322 -0.0627  0.3905 -0.0971
16793W        W26486   9.187   2.381   0.867 -0.0599  0.3398  0.1616
16794W        W26487  12.830   8.005   6.141 -0.2065  0.3389 -0.0528
16795W        W26488  16.756   7.328  14.900  0.0916  0.0175 -0.3704
16796W        W26489   6.195  12.863  12.705  0.1921  0.2518 -0.1488
16797W        W26490   7.043   1.603   0.644 -0.1810  0.0763 -0.1854
16798W        W26491  13.377  17.073  11.571  0.1514  0.0324 -0.1059
16799W        W26492   4.360   3.203  12.013  0.2128 -0.0863 -0.1349
16800W        W26493   5.895   2.807  14.518  0.0449  0.1879 -0.5013
16801W        W26494   0.617   4.690   3.136 -0.2343 -0.0747  0.0247
16802W        W26495   7.419   5.364  13.525 -0.0888 -0.1341  0.0679
16803W        W26496   2.425  10.498   3.394 -0.0722 -0.0240  0.0517
16804W        W26497   0.063   5.219  16.833 -0.1310  0.0798 -0.1032
16805W        W26498   8.809   0.207  13.684 -0.0633  0.1135 -0.0404
16806W        W26499   5.251  15.035  16.740 -0.1566 -0.1051 -0.0165
16807W        W26500   4.111  12.837  16.818  0.2203 -0.0277  0.0356
16808W        W26501   4.269  10.749   1.178 -0.0452  0.1318 -0.0178
16809W        W26502   3.074   6.527   1.681  0.0471 -0.0971 -0.2673
16810W        W26503   6.853   6.224   1.802  0.1225 -0.3380  0.0874
16811W        W26504  10.513   9.446   3.360 -0.0165  0.0381 -0.1307
16812W        W26505  10.038  15.851  13.719  0.2058  0.1238  0.0188
16813W        W26506  10.449   9.986   3.568  0.3500 -0.1331  0.1648
16814W        W26507   5.544  12.077  12.857  0.0245 -0.2696 -0.0532
16815W        W26508   8.039   8.738   3.678 -0.1749  0.0443 -0.2419
16816W        W26509  13.128  15.070   3.433 -0.1439 -0.1567  0.1567
16817W        W26510  10.840   4.480  15.511 -0.0411 -0.3135 -0.3866
16818W        W26511   5.014   9.418   5.054  0.1910 -0.1235  0.0334
16819W        W26512   1.011   2.354  12.424 -0.0614  0.1520 -0.1554
16820W        W26513   8.615  11.629  14.926 -0.1112 -0.0925 -0.0317
16821W        W26514  11.899   3.567  15.136  0.4437  0.1915  0.1306
16822W        W26515   7.711   7.820   0.030  0.0713  0.1889 -0.0852
16823W        W26516   0.137   0.722  10.100  0.3385 -0.0177 -0.0442
16824W        W26517  11.682  14.090  12.448  0.0743  0.1174 -0.1883
16825W        W26518   6.447   9.000   3.510 -0.2004  0.4780 -0.1176
16826W        W26519   7.145  12.498  12.702 -0.0461 -0.0499 -0.1271
16827W        W26520   8.109  13.213   3.163 -0.2670 -0.1609  0.0956
16828W        W26521   9.770  13.355  13.787  0.0797  0.0009  0.0694
16829W        W26522  11.085   9.247   0.915 -0.0454 -0.0885  0.0216
16830W        W26523   9.251   7.916   6.918  0.0795  0.1157 -0.2028
16831W        W26524   2.836   8.029  15.133  0.4831  0.0840 -0.1726
16832W        W26525   4.078  15.148  14.260 -0.1936  0.1893  0.2550
16833W        W26526   8.137   4.696   5.029 -0.0201 -0.1653  0.0353
16834W        W26527   8.811   5.845   3.723  0.0986 -0.0191 -0.0335
16835W        W26528  13.698   0.649   2.641  0.1940 -0.0007 -0.0213
16836W        W26529   2.738   4.901   4.043 -0.0913 -0.2353 -0.0671
16837W        W26530  10.702  12.274   2.301 -0.4470 -0.1143 -0.1942
16838W        W26531   8.539  17.191   1.552 -0.0062 -0.1103 -0.1177
16839W        W26532   5.844  16.046  14.526 -0.1808 -0.1435  0.0162
16840W        W26533  12.343  16.122  14.220  0.6600  0.2869  0.3956
16841W        W26534   1.877   5.160   5.639 -0.0260  0.2110 -0.0117
16842W        W26535   6.815  14.610  16.884  0.2655 -0.2926 -0.1215
16843W        W26536   5.655   6.651  13.601 -0.0890  0.1825 -0.1011
16844W        W26537   7.808  11.549   1.483  0.3933 -0.1504 -0.2268
16845W        W26538   5.555  10.435   3.841  0.2774 -0.0695  0.1868
16846W        W26539  10.262   6.297  14.976  0.0479 -0.0672  0.1384
16847W        W26540   9.433  14.629   2.452 -0.2478  0.2284 -0.0755
16848W        W26541  16.910   0.198   4.544 -0.2685  0.0623  0.2773
16849W        W26542   3.858  13.310   5.664  0.0188  0.1285 -0.1757
16850W        W26543  15.529  11.493  16.006  0.3007  0.2305  0.3249
16851W        W26544   5.149  16.973   2.193  0.1892  0.0337 -0.0102
16852W        W26545   8.316  16.058  13.220  0.0423 -0.0253 -0.2198
16853W        W26546   6.190  10.424   5.224  0.1607 -0.0272 -0.0907
16854W        W26547   8.368   2.352  15.061  0.2037  0.1408  0.2378
16855W        W26548   0.607  10.628  11.609  0.0191  0.2769 -0.2589
16856W        W26549  13.630   8.072  15.230 -0.3497  0.1795 -0.0747
16857W        W26550  16.797   2.410  15.750  0.2825 -0.1919 -0.3555
16858W        W26551  16.569  10.615   3.881  0.2439  0.0584  0.0892
16859W        W26552  11.538   5.364   2.371 -0.0639 -0.4052  0.3730
16860W        W26553  12.916   4.312  16.746 -0.1550 -0.0280 -0.2024
16861W        W26554   6.169   9.637   3.084  0.2265  0.1651  0.1589
16862W        W26555   9.983   8.457  13.621 -0.0176  0.1971 -0.0439
16863W        W26556   3.729   0.810   3.210  0.0989  0.1538  0.1607
16864W        W26557  11.057  11.214   6.434  0.1366 -0.2883 -0.1235
16865W        W26558   3.858   9.799   2.830 -0.0454 -0.2044 -0.1216
16866W        W26559   8.808   5.069  16.275  0.2300 -0.0097  0.0394
16867W        W26560  11.894  12.048   4.747  0.1048  0.1809  0.0254
16868W        W26561  13.413  14.169   5.513 -0.0423  0.2975  0.0014
16869W        W26562  13.889  16.754  14.685 -0.0116 -0.1657 -0.2451
16870W        W26563   4.197  10.570   5.891 -0.2050 -0.0270  0.1357
16871W        W26564   4.497  12.660  16.437 -0.4088  0.1794  0.0924
16872W        W26565   7.151   2.728   5.607 -0.2289  0.1044 -0.1317
16873W        W26566  14.617   2.067  16.604 -0.3823  0.0883  0.0915
16874W        W26567   5.044   6.918  16.761 -0.3308  0.1528  0.1715
16875W        W26568   2.593  12.134   1.773 -0.1050  0.0767 -0.1067
16876W        W26569  17.113  17.178  13.599 -0.0118  0.0100  0.0954
16877W        W26570   9.778   4.652  14.755  0.2004  0.4657  0.0543
16878W        W26571   7.687   5.149  16.247 -0.1669 -0.1089 -0.2448
16879W        W26572   3.723  13.988  14.448 -0.1241  0.0861 -0.0147
16880W        W26573   3.109  13.464  13.416  0.1502  0.3730  0.0328
16881W        W26574   5.207   4.212   2.030  0.0338 -0.3090 -0.1174
16882W        W26575  13.146   2.718   5.307 -0.2154  0.2718 -0.1545
16883W        W26576   7.747   2.485  15.579 -0.1728 -0.1522 -0.1087
16884W        W26577   0.764  17.127  16.044  0.0809 -0.0780 -0.2008
16885W        W26578   5.747   3.009  16.285 -0.1155  0.0183 -0.3395
16886W        W26579   4.802   5.518   0.366 -0.0619  0.1331  0.0803
16887W        W26580   5.634  14.742  13.480 -0.1246 -0.1829 -0.0842
16888W        W26581   9.028   5.356   6.332 -0.0664 -0.3716 -0.0837
16889W        W26582  11.033   7.597  13.109  0.1505  0.3198  0.1837
16890W        W26583   1.873   5.454   4.358 -0.1142  0.0779  0.2505
16891W        W26584  11.415   4.402  16.138 -0.1199  0.2496  0.3022
16892W        W26585   8.247   6.722   4.568  0.0054  0.0749  0.2756
16893W        W26586   6.816   0.618  12.974 -0.0185  0.0040 -0.2656
16894W        W26587   0.531   7.632   3.591 -0.2372  0.1545  0.0903
16895W        W26588   2.682   6.731   2.064  0.1744  0.1317  0.4470
16896W        W26589  13.934   6.387  17.062 -0.0411  0.0134  0.2459
16897W        W26590   3.279   3.323  16.520  0.0706 -0.0141 -0.1135
16898W        W26591   2.656   5.774   0.710  0.0145  0.0098 -0.0342
16899W        W26592   9.213  16.250  12.832  0.1001  0.1834 -0.0594
16900W        W26593  10.662   0.167  11.905 -0.2740  0.0556 -0.0808
16901W        W26594   8.016  12.904  15.266  0.0054 -0.4628 -0.1738
16902W        W26595   0.225  10.934   4.930  0.0683  0.1150 -0.2395
16903W        W26596  10.128  12.015   1.242 -0.1124 -0.1439  0.4716
16904W        W26597   2.336   1.899  14.198  0.2278 -0.2006 -0.1425
16905W        W26598   3.611   2.085   1.845 -0.0428 -0.0077  0.2416
16906W        W26599   2.631   4.753   5.343  0.1645 -0.4314  0.0891
16907W        W26600  15.273   5.501  16.825  0.0497 -0.0146  0.4484
16908W        W26601   8.404  17.168  11.945  0.2870  0.0435 -0.0168
16909W        W26602  12.264   4.799  16.225  0.1080 -0.2692  0.0147
16910W        W26603   7.469   1.255  15.119  0.2183 -0.4539  0.0292
16911W        W26604   3.506  16.768  15.423 -0.0489  0.0864  0.0544
16912W        W26605   1.286   6.604  13.873  0.2347  0.0233 -0.0026
16913W        W26606   8.859  15.551   3.633  0.1497  0.1402 -0.0333
16914W        W26607   9.036   7.450   4.668  0.1185 -0.1938 -0.0651
16915W        W26608   3.595  11.193  13.108 -0.0212  0.0807 -0.0223
16916W        W26609   8.859   1.693  13.150  0.0240  0.1846  0.0478
16917W        W26610   3.603   3.407   5.868 -0.3972  0.3802 -0.1153
16918W        W26611   4.519   5.368  13.561  0.1718 -0.0271 -0.1317
16919W        W26612   2.727   1.679   4.452 -0.0685  0.3035 -0.2311
16920W        W26613   7.250  17.731  12.137 -0.1136 -0.0871 -0.0876
16921W        W26614   0.246   1.007   4.106 -0.1029  0.2881  0.0519
16922W        W26615   7.443   3.022  12.029  0.0151  0.2769  0.1352
16923W        W26616   7.621   3.424   2.000 -0.0251  0.0052  0.5127
16924W        W26617   6.858   7.551  13.277  0.1321 -0.1398 -0.0569
16925W        W26618   4.331   9.241   1.990  0.2165  0.0226  0.4947
16926W        W26619   5.618   1.456   5.312 -0.2500  0.1027 -0.4722
16927W        W26620   7.406   9.233   5.367 -0.0784  0.1067 -0.0108
16928W        W26621   4.940   5.291  13.974  0.0297  0.3004  0.0233
16929W        W26622   6.118  11.805   5.580 -0.1661  0.3066  0.0437
16930W        W26623   8.403   7.609  16.103  0.0551  0.0505 -0.0196
16931W        W26624  15.642  10.053   0.148 -0.0293 -0.1071  0.1742
16932W        W26625   6.476   5.055   4.498 -0.3042  0.0063 -0.1635
16933W        W26626   1.661   9.508  12.863 -0.1579  0.3180  0.2064
16934W        W26627  16.632  10.554   2.869  0.0206  0.2266 -0.0557
16935W        W26628  16.537   0.419  13.623 -0.0406  0.1559  0.2551
16936W        W26629   9.262  12.713   5.036  0.0621 -0.0305  0.0253
16937W        W26630  17.691   4.867  14.584 -0.2500  0.0140  0.2525
16938W        W26631  17.445   0.135  15.730  0.2253  0.2376  0.1609
16939W        W26632   2.559  17.632  14.721  0.2592 -0.1284  0.0489
16940W        W26633   7.568   2.179   3.817 -0.2022  0.0803  0.3896
16941W        W26634  10.375   5.166  17.094 -0.0217  0.5513  0.0876
16942W        W26635   3.294  17.884  12.287  0.2777  0.0696 -0.0404
16943W        W26636   2.923   6.239   3.512  0.1006  0.0455  0.0873
16944W        W26637   8.924   3.415   3.378  0.0804 -0.2109 -0.2222
16945W        W26638   8.900   8.546   1.589 -0.2458 -0.2217  0.0184
16946W        W26639   1.054   4.153  16.819  0.0483  0.1066  0.4448
16947W        W26640  14.754   9.842  16.019 -0.1212 -0.0744 -0.0704
16948W        W26641   4.880   5.059   0.531 -0.4703  0.2804 -0.0123
16949W        W26642   8.753  10.663  15.885 -0.0076 -0.1720  0.0747
16950W        W26643   1.079   4.363   4.577  0.1247 -0.2111 -0.3427
16951W        W26644  17.759  16.614   4.211  0.0617 -0.0169 -0.3579
16952W        W26645   6.906  14.323   1.978 -0.3038 -0.0446 -0.0242
16953W        W26646   1.533   3.597  10.531  0.0465 -0.3822 -0.1110
16954W        W26647   3.155   0.515  14.472  0.1398 -0.1501 -0.2365
16955W        W26648   8.235  12.575  13.899 -0.1552  0.2506  0.0616
16956W        W26649   7.977   0.776  12.412  0.1396 -0.1342 -0.2591
16957W        W26650   1.674  13.637   2.480 -0.0885 -0.0336  0.1671
16958W        W26651   2.513   4.272   0.577  0.1346 -0.1544 -0.2196
16959W        W26652   8.873  16.752   1.210 -0.1761  0.1112 -0.1100
16960W        W26653   6.408  12.307   1.936  0.1487  0.1842 -0.2340
16961W        W26654   5.994  17.219   1.803  0.0672  0.1704  0.1658
16962W        W26655   0.953  10.307  15.603 -0.3272 -0.0557 -0.0574
16963W        W26656  17.636   9.069   2.356  0.3233 -0.2147 -0.1661
16964W        W26657  17.814   4.193  13.599  0.1267 -0.1438  0.0208
16965W        W26658  17.143   1.474   2.233 -0.0660 -0.1840 -0.1904
16966W        W26659   6.549  11.715   7.132 -0.2892 -0.2395 -0.1316
16967W        W26660   0.881  17.019  14.969  0.0074  0.1240  0.1126
16968W        W26661   1.322  15.543   2.959 -0.1957  0.1847  0.0352
16969W        W26662   7.718  15.659   5.644 -0.0536 -0.2397 -0.2449
16970W        W26663   6.909  11.388  16.400  0.0725  0.2396 -0.1424
16971W        W26664   6.734   3.661   4.036 -0.0685 -0.0195  0.0953
16972W        W26665   4.966   6.573   2.244  0.0599  0.2708  0.1189
16973W        W26666  15.852   5.510   6.386  0.1062 -0.1324 -0.2566
16974W        W26667   3.903  16.501  12.164 -0.1295 -0.0311  0.1546
16975W        W26668  17.374  16.936   4.515 -0.4109 -0.0127  0.2309
16976W        W26669  10.112  11.021   2.178  0.1569 -0.0723 -0.0264
16977W        W26670   7.306  16.837   2.415 -0.2082 -0.2866  0.0442
16978W        W26671   5.486  13.823   3.780 -0.0436  0.0555 -0.1646
16979W        W26672   4.605   1.071  15.491 -0.0451  0.0398 -0.1272
16980W        W26673   9.115   5.242  17.075 -0.2754  0.0505 -0.1043
16981W        W26674   7.886  12.947  11.393  0.1107 -0.0419  0.1838
16982W        W26675  12.536  11.410  11.801 -0.0880  0.2743 -0.0364
16983W        W26676   0.787  13.524  16.416 -0.1686 -0.0211  0.2906
16984W        W26677  13.741   7.919   1.566  0.1836 -0.0871  0.1029
16985W        W26678   7.592  10.112   4.866 -0.1095 -0.0548  0.0763
16986W        W26679  15.174   5.619   2.047  0.0350 -0.0362  0.1115
16987W        W26680   0.236  12.946   2.972  0.1914  0.1159 -0.5129
16988W        W26681   7.324   8.160  13.715  0.2990 -0.1246  0.1143
16989W        W26682  13.711  10.017   4.103 -0.1434 -0.1440  0.0917
16990W        W26683   4.699   8.433  14.641 -0.3205 -0.2594  0.0655
16991W        W26684  15.454  12.020  16.789  0.1116  0.0195 -0.0020
16992W        W26685   3.288   7.603  13.541  0.0495  0.3116  0.0823
16993W        W26686   3.205  17.709   0.535  0.0181  0.0965  0.3806
16994W        W26687   6.565   9.337  16.842 -0.0248 -0.0566 -0.2589
16995W        W26688   1.698   8.090  16.966  0.2872 -0.0886  0.2137
16996W        W26689  17.420   1.363  14.614  0.0034 -0.0966  0.0971
16997W        W26690   9.322   2.337   3.355  0.2226  0.1605  0.1750
16998W        W26691   5.094  15.748   2.907 -0.0315  0.0724 -0.0471
16999W        W26692   4.808   3.401  12.916  0.0069 -0.1038  0.2057
17000W        W26693   9.791  11.931  11.870  0.0212  0.2141  0.1107
17001W        W26694   7.117   9.873  12.475  0.1362  0.1574  0.0792
17002W        W26695   3.941   4.354   5.697 -0.0684 -0.1596 -0.3548
17003W        W26696   5.782   0.742   0.775 -0.0960  0.0319 -0.2983
17004W        W26697  11.323   8.899  16.768 -0.1789  0.1327  0.2141
17005W        W26698   0.333   2.155   5.294 -0.0942 -0.0435 -0.1373
17006W        W26699  17.065   7.517   5.137  0.1423  0.0645  0.0444
17007W        W26700   7.370   1.032  11.720  0.1985  0.3072 -0.2455
17008W        W26701   6.956  14.437   3.484 -0.1888 -0.2502  0.0485
17009W        W26702   0.207   7.357  15.331 -0.3714 -0.1430  0.0500
17010W        W26703   7.876  16.143  14.622  0.3572 -0.1653 -0.0372
17011W        W26704   1.799  10.527  13.714  0.1257 -0.2093 -0.0651
17012W        W26705  11.831   6.487  14.548 -0.1461 -0.2272 -0.0071
17013W        W26706   8.267   7.615  17.108 -0.0484 -0.0388 -0.0748
17014W        W26707   0.377   5.039   5.137  0.0964 -0.1128 -0.1596
17015W        W26708  12.502   0.605   3.073 -0.2463  0.0276 -0.4132
17016W        W26709   3.818   7.066  13.016 -0.2032 -0.1815  0.0024
17017W        W26710  12.965   2.150  16.561 -0.1005 -0.3046  0.2658
17018W        W26711   0.655   4.529   1.158 -0.0314  0.1259  0.1656
17019W        W26712   5.739   3.458   2.128  0.1414 -0.0831 -0.1058
17020W        W26713  17.960  16.762  13.454  0.2883 -0.0017  0.0261
17021W        W26714  16.684   8.794  11.942  0.2735  0.2603  0.0315
17022W        W26715   7.169   7.739   5.412  0.0078  0.2147 -0.1810
17023W        W26716  14.159  14.893  12.246 -0.1062 -0.0674  0.0806
17024W        W26717   9.239   7.952  14.916  0.2980  0.1526  0.2638
17025W        W26718   2.723  14.038  16.247  0.0655  0.1176 -0.3306
17026W        W26719  13.195   0.745   2.320 -0.0153  0.0219  0.3627
17027W        W26720   3.850   3.434  14.465  0.0954 -0.2697  0.0703
17028W        W26721   3.560   1.933  16.088 -0.0481 -0.0801 -0.1740
17029W        W26722   7.861   3.797  16.289 -0.1009 -0.0825  0.1029
17030W        W26723   5.854  17.035  13.291  0.0796  0.3003 -0.0241
17031W        W26724   3.561   4.656   0.405  0.1758 -0.0920  0.0350
17032W        W26725   1.913  14.382   4.753 -0.1106 -0.0981 -0.2712
17033W        W26726  14.529   1.676   4.873  0.2347  0.3902  0.0298
17034W        W26727  11.218   6.105   3.667  0.0798  0.2094  0.0194
17035W        W26728  13.896  14.039   2.413 -0.0513 -0.1485  0.2883
17036W        W26729   7.812   6.478   4.515  0.0621  0.3482  0.0150
17037W        W26730   7.239  17.697   4.815 -0.1531 -0.1785  0.0063
17038W        W26731   6.538   3.738   1.205 -0.2946  0.2067  0.1122
17039W        W26732  13.826  17.633  11.187 -0.2868 -0.1660 -0.0015
17040W        W26733  13.278  17.386   5.819  0.1815 -0.1141 -0.0036
17041W        W26734  11.968   5.112   5.151 -0.1191 -0.0082 -0.1260
17042W        W26735   6.848   7.009   1.212  0.0075 -0.0446 -0.0654
17043W        W26736  11.216   0.056   4.851 -0.0606  0.0288 -0.0052
17044W        W26737  15.303  14.953   5.641 -0.3420  0.0304 -0.0740
17045W        W26738   4.051  14.492  15.805  0.2657  0.3561 -0.1736
17046W        W26739   6.254   9.994   4.935  0.0558 -0.4001  0.0079
17047W        W26740   5.826  12.215  14.180  0.0892  0.0735  0.3061
17048W        W26741   4.314  12.832   3.192 -0.1225  0.2282 -0.2456
17049W        W26742   3.428   3.475  11.710 -0.1571  0.0831 -0.0591
17050W        W26743   6.555  17.297   2.833 -0.0749 -0.0632  0.2109
17051W        W26744   7.175   5.687   0.432 -0.0587  0.0429  0.1348
17052W        W26745  11.182  13.625   3.211 -0.0908 -0.0274  0.2111
17053W        W26746   6.040  14.181   4.746  0.1244  0.4709 -0.1052
17054W        W26747   7.005   9.524   5.517  0.1561 -0.0013 -0.2532
17055W        W26748   4.880   8.645  13.046  0.1389  0.4363 -0.1675
17056W        W26749   1.069   0.810   0.602 -0.1754  0.2310 -0.1080
17057W        W26750  17.742   4.859   2.777  0.0133  0.0708 -0.1558
17058W        W26751   7.846   1.902  12.323 -0.1533  0.1996  0.2294
17059W        W26752  14.411   2.402   2.606 -0.0024  0.0231 -0.1929
17060W        W26753   6.465  16.571  13.222 -0.3207 -0.0825 -0.0173
17061W        W26754   3.083   2.693  15.394 -0.1387  0.2433  0.3684
17062W        W26755  10.584  16.989  14.309  0.1341 -0.0743 -0.0526
17063W        W26756   4.560   4.911  13.805  0.1668  0.0267 -0.1364
17064W        W26757   2.089   4.093   2.156 -0.2019  0.1890  0.2040
17065W        W26758  10.940   6.654   1.009 -0.1407  0.3282 -0.2649
17066W        W26759  15.303   2.815  14.750 -0.1352  0.1222 -0.0872
17067W        W26760  17.454   1.051  11.471  0.0043 -0.0782 -0.0408
17068W        W26761  10.674  17.210  13.914 -0.2511 -0.0421  0.1532
17069W        W26762   5.241   5.799  13.285  0.0355  0.2935  0.1189
17070W        W26763   6.719   4.306  15.892 -0.1180 -0.1455 -0.2609
17071W        W26764   2.339   4.552   0.979 -0.0650  0.2337  0.1994
17072W        W26765   8.160   7.581   5.062  0.1339 -0.2140  0.2274
17073W        W26766   2.894   0.452   3.446  0.2234 -0.0970 -0.0285
17074W        W26767  17.141  17.582   2.910  0.1699 -0.1281  0.0034
17075W        W26768  10.507  17.774  15.851  0.2196  0.0625 -0.0017
17076W        W26769   5.998   8.546  12.188  0.1213  0.0034  0.0454
17077W        W26770   7.669  16.735  11.769 -0.3821  0.0586  0.0110
17078W        W26771   4.305   7.257   0.272 -0.0347  0.0498  0.3393
17079W        W26772  10.008   0.603   5.512  0.1992  0.1160 -0.1704
17080W        W26773  11.028   0.829  15.376 -0.0131 -0.0074  0.1549
17081W        W26774  11.054   7.705   4.285 -0.0109  0.0226 -0.0189
17082W        W26775   0.844   1.619   9.881 -0.1896 -0.0463  0.0027
17083W        W26776   5.452   0.105  11.824  0.1233  0.1586  0.0222
17084W        W26777  10.116  12.919  11.952 -0.0836 -0.0221  0.2249
17085W        W26778   5.161  11.458  15.630  0.1040 -0.0376  0.0130
17086W        W26779   1.425  13.129  16.707 -0.0368  0.1290 -0.2429
17087W        W26780   0.887  12.856  12.601 -0.1877 -0.1203  0.1510
17088W        W26781   5.193  12.556   0.589  0.1567 -0.1734 -0.0919
17089W        W26782  16.664   7.169   5.350  0.0203 -0.2183 -0.0330
17090W        W26783   3.891  14.846   0.151 -0.0897  0.2724 -0.0031
17091W        W26784  10.107   0.887  11.300 -0.0163 -0.0301  0.1874
17092W        W26785  13.513  15.194  16.265  0.2881 -0.1982 -0.4424
17093W        W26786   7.827  14.302  13.354 -0.2137 -0.1574  0.0307
17094W        W26787   8.902   2.144   3.087 -0.1180 -0.3987  0.0558
17095W        W26788   1.397   3.165   4.945 -0.1267 -0.0597  0.2910
17096W        W26789  10.239   1.639   0.877 -0.0042 -0.1695  0.0690
17097W        W26790   0.469   1.548   6.016  0.1314  0.0661  0.0570
17098W        W26791   9.456  11.350   5.267 -0.2116  0.0050  0.1507
17099W        W26792   4.761   0.637   0.428  0.0122 -0.0750 -0.1735
17100W        W26793   5.327  16.750  13.517  0.1378 -0.1972  0.0650
17101W        W26794   3.060  17.141   2.841 -0.0667  0.2467 -0.3020
17102W        W26795   4.121  16.003  12.054  0.0119 -0.2213 -0.2143
17103W        W26796   7.354   8.227   6.600 -0.1598 -0.2375  0.1940
17104W        W26797  10.331   3.672  14.533 -0.4573  0.1253  0.1713
17105W        W26798   3.732   2.133  11.806 -0.1241 -0.4339  0.2582
17106W        W26799   1.742  13.498  16.756  0.0355  0.1150 -0.1595
17107W        W26800   9.222  16.898   4.682  0.2338  0.2958  0.0782
17108W        W26801   3.578  17.104   5.479 -0.1988 -0.0530 -0.1162
17109W        W26802   0.639   0.518   5.218 -0.0379  0.1454  0.1716
17110W        W26803   7.688   8.124   2.630  0.0808 -0.0970  0.0314
17111W        W26804   4.354   4.002   2.811  0.1008 -0.0177  0.1938
17112W        W26805   4.583  13.534  13.187 -0.0005 -0.0804 -0.1649
17113W        W26806   5.655   9.116   4.414 -0.3424  0.2283  0.2131
17114W        W26807   2.850   8.635   3.826  0.1014  0.1326  0.1837
17115W        W26808   4.709   1.107  12.931 -0.2028 -0.0252  0.0601
17116W        W26809   6.868   5.116   2.127 -0.0594 -0.0847  0.0398
17117W        W26810   6.327  16.655  14.068 -0.1297 -0.0069 -0.1408
17118W        W26811   3.988  13.919   5.043 -0.4635  0.0184  0.2476
17119W        W26812   0.189  13.436  13.159  0.2208  0.0112 -0.0493
17120W        W26813  16.417   8.018  14.462  0.1954 -0.1006 -0.0098
17121W        W26814   6.402   7.236   1.265  0.2275 -0.3440 -0.3731
17122W        W26815  13.456   3.472   5.948  0.1216 -0.1294 -0.1122
17123W        W26816  11.137  13.949   4.217  0.0910 -0.2417 -0.1652
17124W        W26817  14.909   3.332  12.476 -0.1058  0.1635 -0.1185
17125W        W26818   5.678   2.735   0.462 -0.3322  0.0585  0.1197
17126W        W26819   1.956   8.890   0.844 -0.0345  0.0823 -0.1696
17127W        W26820  16.669  17.107   0.476  0.1360  0.3244  0.0474
17128W        W26821   6.446  13.805   4.925  0.1067  0.0617 -0.3948
17129W        W26822   0.912   6.084   2.536  0.4154 -0.0245  0.0738
17130W        W26823   7.893  11.127  13.765 -0.0571 -0.1984 -0.3164
17131W        W26824  11.765  15.389  14.063 -0.0661 -0.1343 -0.1450
17132W        W26825  12.947  11.929   4.810 -0.1080  0.0590 -0.3357
17133W        W26826   8.077   4.629   2.438  0.1028 -0.0017  0.1955
17134W        W26827   7.585   2.046  11.850  0.2628 -0.1384 -0.1524
17135W        W26828   7.075   3.104  16.048  0.0382 -0.1717  0.1853
17136W        W26829  14.021   9.269   1.060 -0.2792  0.2721  0.4148
17137W        W26830  13.311   6.835  16.880  0.0799  0.5469  0.0928
17138W        W26831   1.753  15.393  16.878  0.2352 -0.0061  0.0925
17139W        W26832   6.803   3.417   4.972 -0.2067  0.2643  0.0954
17140W        W26833   6.461  14.248  15.638 -0.1968  0.4526  0.1754
17141W        W26834   5.146  17.454   4.929  0.2657 -0.3264  0.1359
17142W        W26835   5.935   7.411  12.344 -0.2603  0.0836 -0.0018
17143W        W26836  15.317  16.390   2.427  0.0277 -0.0877 -0.0325
17144W        W26837  17.671  10.765  12.434  0.0347  0.0348  0.1519
17145W        W26838   3.467   4.575   1.897 -0.0606  0.3220 -0.2904
17146W        W26839   7.586   0.170   6.559 -0.0558 -0.2603 -0.2069
17147W        W26840  11.858  10.208   5.598  0.1205 -0.2022  0.0455
17148W        W26841   6.886  13.094  12.125  0.0792  0.0909  0.0926
17149W        W26842   4.359   2.253   4.027  0.1558 -0.1142 -0.0776
17150W        W26843  10.191  13.376  12.144  0.1926 -0.0200 -0.0160
17151W        W26844   8.013   5.343   2.709  0.0166  0.2949  0.1306
17152W        W26845   2.697   6.951  13.955 -0.0441 -0.2040 -0.0499
17153W        W26846  17.606  11.539   4.398  0.3724 -0.1882  0.1064
17154W        W26847   3.002  16.155   3.118 -0.1136 -0.3865  0.2114
17155W        W26848   3.233   5.440   2.979  0.0661  0.0324  0.0215
17156W        W26849   5.006   2.968   6.398 -0.2710 -0.0497  0.1001
17157W        W26850  13.647   1.793   0.678  0.1507 -0.1330  0.0786
17158W        W26851  17.931   3.424   6.438  0.1799  0.2778  0.1005
17159W        W26852   6.652  13.242   5.057  0.0761  0.1159 -0.0309
17160W        W26853  10.688   5.722  17.014  0.2412 -0.3032  0.0843
17161W        W26854   0.962   0.785  11.707  0.0418  0.1098 -0.1816
17162W        W26855   4.124   1.678   0.739 -0.0412  0.0166  0.2299
17163W        W26856  17.100  17.533   0.060  0.0709 -0.1468  0.0583
17164W        W26857   7.587  17.167  16.690 -0.0029  0.2962  0.0359
17165W        W26858  12.356   7.954   2.313  0.1758  0.0905 -0.1894
17166W        W26859   8.447  12.176  11.154 -0.0267 -0.1610  0.0084
17167W        W26860   4.276   7.052  14.729  0.0834  0.1860 -0.2198
17168W        W26861   4.040   9.929   6.864 -0.1628  0.0791 -0.0969
17169W        W26862   5.903   4.078  16.466  0.2967  0.0537  0.1925
17170W        W26863   8.932   5.144   0.512  0.4546 -0.0047  0.1208
17171W        W26864  16.904  17.226   4.391  0.1361  0.2681  0.1811
17172W        W26865   8.936   3.810   1.194  0.1477  0.3564 -0.1572
17173W        W26866   0.356   0.672  16.939 -0.0367  0.0966 -0.0198
17174W        W26867   7.770   3.732   0.725 -0.3986 -0.2804 -0.2042
17175W        W26868  17.701  12.767   3.035 -0.1584  0.2055  0.1272
17176W        W26869   2.607  12.399  12.520 -0.1820 -0.0713 -0.1728
17177W        W26870  14.564  15.517  11.420  0.1696 -0.1419 -0.1363
17178W        W26871   3.650  17.870   3.328 -0.0667 -0.2761  0.0751
17179W        W26872  11.121  10.943  16.367 -0.2261 -0.1522  0.0755
17180W        W26873   8.748  16.449  15.905 -0.0258 -0.1093 -0.2398
17181W        W26874  17.863  13.065  16.469  0.0535 -0.0594 -0.2272
17182W        W26875  16.375  14.878  12.380  0.0959  0.1116 -0.1894
17183W        W26876   8.125  12.474   6.523 -0.0222 -0.0361 -0.1239
17184W        W26877   6.655   6.340  12.915  0.2355  0.0347 -0.0300
17185W        W26878   3.364   8.336   5.136  0.2496 -0.1067 -0.1009
17186W        W26879   2.157  11.430   0.861 -0.0828 -0.1647  0.1072
17187W        W26880   0.062   7.263   1.872  0.1055  0.0667 -0.1279
17188W        W26881  15.964   9.389   3.919  0.2112  0.2716  0.0339
17189W        W26882   8.137  13.892  14.261 -0.4313  0.1058 -0.2560
17190W        W26883   2.554   6.681   0.992  0.0807  0.0742 -0.0790
17191W        W26884   7.091  11.993  14.740 -0.5388 -0.0108 -0.0047
17192W        W26885   5.593  14.550   2.614 -0.1130 -0.3210 -0.2560
17193W        W26886   1.612   0.447  11.989  0.0632  0.0282 -0.1997
17194W        W26887   0.430  13.161  15.762  0.1553  0.0133 -0.1208
17195W        W26888   6.803   5.941   2.228 -0.2534 -0.0030  0.3228
17196W        W26889   1.515  15.776  10.298 -0.0391  0.1670  0.1272
17197W        W26890   9.786   0.110  14.092 -0.1125  0.3612 -0.0203
17198W        W26891  10.415  15.553   6.015 -0.1927 -0.1030 -0.0537
17199W        W26892   3.946   3.430  16.051 -0.0920 -0.1005  0.0138
17200W        W26893   9.744  13.842  14.157  0.0842  0.2135  0.4841
17201W        W26894   5.216  11.072   2.934 -0.0554  0.1158 -0.1699
17202W        W26895   1.028  10.817  14.210 -0.0204 -0.0470 -0.1983
17203W        W26896   3.874  17.974   1.120 -0.1541 -0.2076  0.0433
17204W        W26897   5.509   8.968  16.558  0.1006 -0.0043 -0.3885
17205W        W26898   7.135   8.440   2.196 -0.0401 -0.3423  0.1266
17206W        W26899   0.373   6.860  14.043  0.0378  0.1076  0.0462
17207W        W26900   5.580   1.809   5.701 -0.1147  0.2201  0.0938
17208W        W26901   1.627   2.462  11.684  0.0995  0.0613 -0.4352
17209W        W26902   8.037   1.823   3.586  0.2561 -0.1000 -0.0894
17210W        W26903  16.889  13.729  15.028  0.4112  0.0444  0.0795
17211W        W26904  16.547  10.704   5.905 -0.3660 -0.0884 -0.0860
17212W        W26905   4.167   3.589  13.866  0.1177  0.0479  0.0294
17213W        W26906   9.759   8.385  13.040  0.1168 -0.0124  0.1356
17214W        W26907   7.523   0.294   4.424  0.0852 -0.1661  0.1547
17215W        W26908   1.146  16.276   1.546 -0.1040 -0.0089  0.0306
17216W        W26909   6.936  11.606  14.330 -0.3867  0.0849 -0.0421
17217W        W26910  12.647  12.078   5.199 -0.0726  0.0602 -0.0808
17218W        W26911   1.643  11.500  13.058  0.2303 -0.1478  0.2356
17219W        W26912   3.161   9.836  13.238 -0.0767  0.0445  0.2425
17220W        W26913  10.459  11.505  16.536  0.1605 -0.1399  0.2311
17221W        W26914   0.166   9.263  11.338  0.2089 -0.0526 -0.0388
17222W        W26915  16.448  14.021  10.847 -0.3279 -0.0640  0.0252
17223W        W26916   9.857   8.519  15.115  0.1513 -0.0887  0.1184
17224W        W26917  11.734   2.948  15.836  0.2511 -0.1096  0.1958
17225W        W26918   6.047  13.800   2.307  0.0064  0.0953 -0.0221
17226W        W26919   7.713   7.115   3.322  0.0703  0.2071 -0.0368
17227W        W26920   5.353  14.215  11.558 -0.1400 -0.1201 -0.2727
17228W        W26921  13.931  10.082   0.736 -0.0937 -0.1400 -0.0669
17229W        W26922  17.643   8.281   1.099  0.0521  0.0619 -0.2455
17230W        W26923   8.344  17.001   3.280 -0.2203  0.2534 -0.0043
17231W        W26924   4.721   2.076   2.769  0.3900 -0.0298  0.0565
17232W        W26925  15.458  14.369   2.240 -0.2340 -0.0346  0.0221
17233W        W26926  11.837  15.232   4.240  0.0246  0.1488 -0.0825
17234W        W26927   2.304  12.188   0.857  0.3130  0.1621  0.0976
17235W        W26928   7.986  12.636   5.240  0.1318  0.1278 -0.4573
17236W        W26929   8.716  12.720   6.801  0.2412 -0.2423  0.1690
17237W        W26930  10.766   6.259  15.124  0.0983 -0.1573  0.0908
17238W        W26931   8.284   5.545   5.261 -0.1340  0.3920 -0.1648
17239W        W26932  15.214   2.595   4.428 -0.0699  0.0217 -0.0482
17240W        W26933  12.876   0.844  10.283 -0.0213  0.0415  0.3137
17241W        W26934   0.827   3.281   4.917 -0.1881  0.0122  0.0566
17242W        W26935   4.475   3.769  12.837  0.0657  0.0181 -0.1641
17243W        W26936   7.946   9.635  15.901  0.0869 -0.1169  0.1214
17244W        W26937   6.261  17.847   5.025  0.0970  0.1287 -0.3695
17245W        W26938  16.778  10.789  12.008 -0.1756  0.0269 -0.4721
17246W        W26939   4.435  12.666   0.968  0.1337  0.0350 -0.1341
17247W        W26940  12.189  10.878   5.500 -0.0714 -0.1009 -0.2371
17248W        W26941  14.043   9.484   3.058  0.1867 -0.0367  0.0353
17249W        W26942   8.354   9.562  14.773  0.0998  0.2025  0.0060
17250W        W26943  17.935  12.450   1.204  0.0347  0.1081 -0.0606
17251W        W26944   8.779  10.785   3.967 -0.0512  0.2961  0.0392
17252W        W26945  10.334   8.717   1.723 -0.1342 -0.1798  0.2909
17253W        W26946   8.075  16.587   1.983 -0.1078 -0.1326 -0.2401
17254W        W26947   6.933  14.153   5.295  0.1922 -0.0653  0.0018
17255W        W26948   3.708   2.483   1.505  0.1171  0.2695  0.2372
17256W        W26949   2.539   9.245  13.178  0.1860  0.1075  0.1005
17257W        W26950   3.050   2.567   3.220  0.0846 -0.0539 -0.1916
17258W        W26951   2.517   5.104  12.733  0.3613 -0.1159 -0.0379
17259W        W26952   0.590   7.405  12.288  0.4078  0.1364 -0.3704
17260W        W26953  12.365  12.244   3.124  0.1104  0.0702 -0.0936
17261W        W26954   1.436   5.789  15.324  0.1127 -0.0242 -0.0254
17262W        W26955   1.040   6.488   3.848  0.1487  0.0973  0.1078
17263W        W26956   2.750   5.985   2.562 -0.0832  0.1308 -0.1193
17264W        W26957  16.005   3.745   3.451  0.0261 -0.0981  0.0251
17265W        W26958  16.867  12.063   4.771  0.0246  0.0794  0.1501
17266W        W26959   6.609  17.594  13.117 -0.2230  0.5631 -0.1483
17267W        W26960   4.319  14.900   5.058 -0.0467 -0.2874 -0.0771
17268W        W26961  14.602   2.159  14.454  0.1534  0.3123 -0.1218
17269W        W26962   1.000  14.129   2.908  0.0587 -0.3584  0.0083
17270W        W26963   4.565  11.553   2.623 -0.0815 -0.1137 -0.1497
17271W        W26964   7.087   6.772  12.945  0.0235 -0.0734 -0.1961
17272W        W26965   4.366  14.972  12.136 -0.0864  0.1428 -0.1833
17273W        W26966  13.436  17.909  13.987 -0.3581 -0.3349  0.1459
17274W        W26967  11.272  16.115   3.438 -0.2817 -0.0352  0.1421
17275W        W26968   1.150   9.337  13.046 -0.0182  0.0850  0.1487
17276W        W26969   0.504   0.552  13.004  0.1569 -0.0846 -0.3051
17277W        W26970   7.573  12.553   2.987 -0.3329 -0.1763  0.0151
17278W        W26971   0.055   5.896  11.053 -0.2219  0.0794 -0.4968
17279W        W26972   8.096  10.193   0.096  0.2901  0.4130 -0.1441
17280W        W26973   8.005   5.914  15.751 -0.0435 -0.1380 -0.0010
17281W        W26974   9.580   7.870   0.371 -0.2623  0.0353  0.0643
17282W        W26975   3.896  17.383   5.172  0.0822  0.0318  0.0883
17283W        W26976   7.577   7.619   0.465 -0.0689  0.2199  0.1058
17284W        W26977   5.112  17.376   0.801  0.0839  0.1589  0.0541
17285W        W26978   9.039  11.433   1.533 -0.0206  0.2160 -0.2061
17286W        W26979   5.526   0.934  13.081  0.1964  0.0038  0.2143
17287W        W26980   7.428  13.425   4.975  0.1617 -0.0228 -0.1217
17288W        W26981   7.102   0.457   3.755 -0.2129  0.3297 -0.0387
17289W        W26982   5.849   5.375   0.391 -0.4563  0.0542  0.1074
17290W        W26983   1.547  11.771  12.164 -0.0772 -0.1044 -0.1665
17291W        W26984  14.871   2.452  12.138 -0.1615  0.2545  0.0668
17292W        W26985   1.736   6.314  16.608 -0.1148 -0.3311  0.2023
17293W        W26986   0.209   0.445   5.026  0.0661  0.0076  0.0840
17294W        W26987   8.457   0.619   1.244  0.0986  0.1267 -0.1864
17295W        W26988   5.860  11.661  12.963  0.0913 -0.1798 -0.1202
17296W        W26989  11.434  14.499  16.806  0.2396  0.1568 -0.3899
17297W        W26990  11.014   2.181   4.815  0.1024 -0.2063 -0.0108
17298W        W26991  13.603  11.096  13.065 -0.2128  0.3840 -0.0682
17299W        W26992   1.228   2.322  13.651  0.2513 -0.5256  0.0283
17300W        W26993   9.006   0.155   4.562  0.1179 -0.0490 -0.0388
17301W        W26994   5.721   6.712   2.911  0.1244  0.2388 -0.0724
17302W        W26995  10.592   8.950   2.980 -0.0125  0.1880 -0.0465
17303W        W26996   4.372   8.208   1.388 -0.3198  0.0447 -0.1967
17304W        W26997  17.932   8.811   0.167 -0.0949  0.1312  0.3340
17305W        W26998   4.105   9.777   1.188  0.3315 -0.3791  0.2710
17306W        W26999   0.354   6.633   6.037  0.0787 -0.0360 -0.3915
17307W        W27000   0.120  13.710  14.977 -0.0379  0.0982  0.0298
17308W        W27001   8.727  16.289  13.785  0.0998 -0.1063  0.0556
17309W        W27002   7.166  13.400   3.035 -0.4579  0.0134 -0.1568
17310W        W27003   7.253   3.419   1.051  0.1210  0.0533 -0.0223
17311W        W27004   0.760   9.990   5.574  0.2096 -0.0376  0.2520
17312W        W27005  10.209   6.946   6.963  0.0841 -0.0104  0.0823
17313W        W27006   0.982  17.977  14.330 -0.1051 -0.0519  0.0980
17314W        W27007   2.620   7.356   0.194 -0.3291  0.1361  0.0881
17315W        W27008   6.447  17.564   4.436  0.1164  0.0093  0.1047
17316W        W27009  12.777   3.235   1.809 -0.1573  0.2798 -0.0697
17317W        W27010   0.842   4.884  15.493 -0.0049  0.2114  0.0430
17318W        W27011  11.365   2.133  16.901 -0.1030  0.3593 -0.2099
17319W        W27012   4.971   0.682  11.797 -0.0112 -0.1174 -0.1087
17320W        W27013  15.766  14.224   3.688 -0.1202  0.0585 -0.0269
17321W        W27014  10.577   8.688  17.023  0.2333  0.0797 -0.0471
17322W        W27015   6.475   0.171  15.848  0.0332 -0.3183 -0.4013
17323W        W27016   5.496  17.553  16.576 -0.3162  0.2716 -0.2200
17324W        W27017   6.023  15.894   0.065  0.2057  0.0974  0.0998
17325W        W27018   9.633   2.497  13.048 -0.2479  0.3623 -0.1750
17326W        W27019  13.636   7.118  15.616  0.0251 -0.0095  0.1183
17327W        W27020   8.534  11.892  16.148 -0.1397 -0.1035  0.1126
17328W        W27021  16.400  11.887  16.224 -0.4046  0.2970 -0.0307
17329W        W27022  13.009   9.653  14.830  0.0205  0.0968 -0.1379
17330W        W27023  10.633   3.488   1.958 -0.3173 -0.0119 -0.1516
17331W        W27024   3.909  17.626  12.804 -0.2479  0.0451  0.3149
17332W        W27025  12.414   3.347   1.291 -0.0112 -0.2171  0.5542
17333W        W27026   7.465  11.836  12.095 -0.1422  0.1060  0.0160
17334W        W27027   3.473   2.847   4.713  0.0175  0.2039 -0.0555
17335W        W27028   0.567   6.729   6.584  0.0519 -0.0019  0.1348
17336W        W27029   5.205   8.937  16.953 -0.3963  0.1404  0.0507
17337W        W27030   1.563  13.441  13.324 -0.1000 -0.4610  0.1871
17338W        W27031   0.839  13.606   2.987 -0.0266  0.3866  0.1060
17339W        W27032   7.922  15.767  13.255  0.0680 -0.0822 -0.0214
17340W        W27033   2.003   8.520   1.385 -0.1796 -0.0743  0.0506
17341W        W27034   7.357   0.574   1.077 -0.2656 -0.1947 -0.3356
17342W        W27035  12.148   2.602  12.396  0.0885  0.1575  0.1243
17343W        W27036   1.676   7.488   2.374  0.1218  0.0371 -0.2280
17344W        W27037   6.106  12.381   5.547 -0.0648  0.1565  0.0368
17345W        W27038  17.924   9.242   0.497 -0.0112 -0.1885 -0.1913
17346W        W27039   8.578   2.473   1.791  0.0259  0.1275  0.1006
17347W        W27040   1.538  13.144  13.993  0.0823  0.1682 -0.2483
17348W        W27041   1.315  17.001  15.197  0.3718 -0.1065  0.0623
17349W        W27042   0.612  10.599  15.396  0.0180  0.0021  0.1224
17350W        W27043  17.575  14.952  15.001 -0.1752 -0.1221  0.1082
17351W        W27044   3.347   2.908   2.334 -0.0685  0.0005 -0.3690
17352W        W27045   5.006  11.831  13.567 -0.2251  0.1662  0.0708
17353W        W27046   3.779  11.209   2.450 -0.0761  0.1659  0.0195
17354W        W27047   4.519   2.514   2.709 -0.1893 -0.0642  0.0460
17355W        W27048   2.232   5.970   5.153  0.0980 -0.1100 -0.0061
17356W        W27049   8.141   6.375   0.725 -0.0491  0.0812 -0.0311
17357W        W27050   3.974   0.256  16.765  0.1594 -0.0972 -0.0873
17358W        W27051   5.576  11.139   5.216  0.0828  0.3287 -0.2526
17359W        W27052  15.203  15.188   2.694 -0.1691  0.2401 -0.0509
17360W        W27053   7.692  14.227  16.488  0.1487 -0.0388  0.2490
17361W        W27054   4.846   8.956   5.943 -0.0003 -0.0019  0.2255
17362W        W27055   9.935   9.510  15.690  0.3320  0.1699 -0.1998
17363W        W27056   0.776  12.738   2.151  0.3688  0.0544 -0.2563
17364W        W27057  11.570   0.765  15.901  0.1853 -0.2397  0.0590
17365W        W27058   0.150  11.412  16.690  0.0449  0.0013  0.0987
17366W        W27059  13.219   0.870  11.098 -0.1301 -0.1151 -0.1102
17367W        W27060   8.622   0.800  14.424 -0.2270 -0.1303 -0.1266
17368W        W27061   7.286  16.536  15.125  0.0309 -0.1142 -0.2404
17369W        W27062   0.612  15.337  12.253 -0.1481 -0.1339 -0.1070
17370W        W27063  13.799  12.005   0.875  0.0807 -0.1538 -0.0428
17371W        W27064   2.013   9.555  12.517  0.3994  0.1668 -0.4100
17372W        W27065  12.537   3.193   6.191 -0.1161 -0.4734 -0.1738
17373W        W27066   4.748  14.586   5.708  0.0020 -0.0770 -0.2828
17374W        W27067  16.491   9.337   4.999  0.0752 -0.1463  0.1273
17375W        W27068   4.185   8.986   5.541 -0.2678 -0.5091  0.0087
17376W        W27069   7.542   4.450   2.968  0.0253  0.2249 -0.1386
17377W        W27070   7.658   4.362   5.502 -0.0702  0.4171  0.0621
17378W        W27071   8.189   1.684  12.994  0.4342 -0.0109 -0.1275
17379W        W27072  16.778   0.680  16.219 -0.1950  0.1688 -0.3300
17380W        W27073   1.418  16.738   1.608  0.0022  0.0755 -0.0340
17381W        W27074   1.928  15.574   4.555 -0.2809  0.1860  0.0539
17382W        W27075   6.788   9.646   3.082 -0.1886  0.0618 -0.0113
17383W        W27076  15.897  12.845   1.382 -0.1132 -0.4322 -0.1393
17384W        W27077   3.999  12.770   5.876 -0.1740 -0.1425 -0.3317
17385W        W27078   3.056  17.899   2.231 -0.3909  0.0624  0.2210
17386W        W27079   5.900   0.578   5.510  0.1490 -0.2226 -0.0323
17387W        W27080   0.968   7.743   2.069  0.1900 -0.1790  0.1459
17388W        W27081  16.453  12.938   5.934  0.1030 -0.1476  0.3317
17389W        W27082   5.958  12.213  13.708 -0.1113 -0.3986 -0.1873
17390W        W27083   1.446  12.712  12.387 -0.0828  0.0441 -0.1076
17391W        W27084  10.642  13.004  11.990  0.3072 -0.2047 -0.1025
17392W        W27085   5.537  16.295  14.243  0.5862 -0.2240  0.0358
17393W        W27086   6.659   3.714  16.883 -0.0076  0.0037  0.3606
17394W        W27087  14.737  11.876   2.346  0.0657 -0.0889 -0.2260
17395W        W27088   9.631   9.473   3.550 -0.1637 -0.5321 -0.0257
17396W        W27089   4.539  14.981   0.693  0.0965 -0.2160  0.0420
17397W        W27090   4.044   7.093   4.047  0.2132  0.1800  0.2935
17398W        W27091  16.882  13.032   1.618 -0.0726 -0.0538 -0.1331
17399W        W27092  10.158  15.042   3.368  0.2941  0.2686 -0.0707
17400W        W27093  11.546   2.998   0.966  0.2148  0.1003 -0.3331
17401W        W27094  17.180  14.064  16.361  0.4457  0.4802 -0.0564
17402W        W27095   0.951   3.263  14.725  0.0041  0.1566  0.0221
17403W        W27096  11.141   8.883   6.132  0.3537  0.5894  0.1636
17404W        W27097   2.648   5.214  15.189 -0.0658  0.0404 -0.0895
17405W        W27098  17.813  15.860   2.232  0.4963 -0.1241 -0.0921
17406W        W27099   7.439  12.020  14.238  0.1338 -0.0578  0.1023
17407W        W27100  12.510   0.235  14.534  0.0373  0.0059  0.0513
17408W        W27101   2.461   0.517   1.638 -0.1257  0.1804  0.0728
17409W        W27102   5.960  10.229  12.195  0.2307 -0.1045 -0.0383
17410W        W27103  17.207   6.893   4.543 -0.0907 -0.0657 -0.1247
17411W        W27104  13.367  15.782   1.087  0.3409 -0.1756 -0.0174
17412W        W27105   0.934   4.865   4.527 -0.0136  0.0791  0.4773
17413W        W27106   4.595  13.495   0.686 -0.2970 -0.3975 -0.1597
17414W        W27107   6.531  15.370  14.480  0.0371  0.0065 -0.0206
17415W        W27108  17.470  12.683  13.031 -0.2598 -0.0003  0.0823
17416W        W27109   1.361   7.399  13.549 -0.1607 -0.2735 -0.0045
17417W        W27110   5.271   4.167  16.025 -0.0995 -0.1256  0.0370
17418W        W27111  12.692   1.186   5.235 -0.1391 -0.0475 -0.1358
17419W        W27112  15.763   9.506   4.416 -0.2852  0.3407  0.1441
17420W        W27113   9.814   2.619   3.672  0.0958  0.0584 -0.0159
17421W        W27114   6.717  10.100  12.284 -0.0414 -0.1498  0.2150
17422W        W27115   7.299  14.781   3.139  0.2648 -0.0639 -0.1654
17423W        W27116   3.790  13.686  12.857 -0.5212  0.3307 -0.0025
17424W        W27117   7.461  12.111   3.744  0.1467  0.0934  0.3702
17425W        W27118  13.030  10.159   4.996 -0.1970  0.1439 -0.0485
17426W        W27119   6.568   3.866   2.127  0.2176  0.0647 -0.1285
17427W        W27120   0.489   5.468  12.014 -0.1916  0.4084 -0.2955
17428W        W27121   7.993   5.201   5.062 -0.0665 -0.1196  0.1032
17429W        W27122   2.508  16.740   3.425  0.0969  0.1276  0.1995
17430W        W27123   2.046   3.907   3.287 -0.3460  0.4793  0.0881
17431W        W27124   3.367   2.051  12.207 -0.0588 -0.1326  0.0419
17432W        W27125   5.131   4.586   5.461  0.3521 -0.2703  0.1908
17433W        W27126   3.020  14.048  15.636 -0.1254 -0.2171  0.0592
17434W        W27127   1.709  10.609  16.328 -0.4005  0.0322  0.1921
17435W        W27128   2.553  11.372   1.216 -0.3171 -0.1201 -0.0419
17436W        W27129  11.361  15.026  14.776 -0.0235 -0.0272 -0.0436
17437W        W27130   0.725   1.124  16.429 -0.2753  0.1218 -0.4301
17438W        W27131   9.434   5.959   5.720 -0.2432 -0.3547 -0.0407
17439W        W27132  11.356  11.901  13.507 -0.0497 -0.0562  0.2462
17440W        W27133  17.077   7.810  11.827 -0.0276  0.0947  0.1056
17441W        W27134   5.002   3.442  16.758 -0.0472  0.3368 -0.1769
17442W        W27135   0.399  12.710  15.912  0.2681 -0.0612 -0.0349
17443W        W27136  17.161  10.239   5.436  0.4775 -0.3995 -0.1426
17444W        W27137   8.241   8.958  15.944 -0.0671  0.0375  0.0456
17445W        W27138   2.218  10.375   3.829 -0.2355  0.1482 -0.1249
17446W        W27139   1.158  11.521  16.036 -0.0267  0.0770 -0.1307
17447W        W27140   1.874   2.429  15.799 -0.3639 -0.0034  0.1215
17448W        W27141   3.520  16.541   1.063  0.3400  0.0472 -0.2059
17449W        W27142   7.652  10.862   2.105  0.3782  0.0850 -0.4522
17450W        W27143   3.883  12.995   4.011  0.0365  0.0870 -0.1807
17451W        W27144   4.378   3.403   2.979 -0.0317  0.0775  0.2881
17452W        W27145  14.759  16.956   1.765 -0.2633  0.2115 -0.2102
17453W        W27146   3.438   4.058  16.952 -0.0336 -0.2040  0.0077
17454W        W27147  10.057  11.805   5.884  0.5397  0.1588  0.4053
17455W        W27148  12.691   2.284   2.496  0.2164  0.4259 -0.3450
17456W        W27149   8.259  12.208   5.024  0.1055 -0.1589  0.0056
17457W        W27150   6.459   2.318   0.574  0.0067 -0.0217 -0.0611
17458W        W27151  17.329   3.806  15.947 -0.0517 -0.1177  0.1176
17459W        W27152   0.342  16.112   5.682 -0.1709 -0.2121 -0.2682
17460W        W27153  15.783  12.211  13.346  0.1982 -0.0138 -0.1009
17461W        W27154   2.728  14.657   1.353 -0.1439 -0.1943 -0.4482
17462W        W27155   8.603   1.967  12.768  0.0948  0.1411  0.1646
17463W        W27156   3.816  12.495   5.041  0.1449  0.3257 -0.0849
17464W        W27157  12.289   3.833  16.120 -0.5515  0.1720 -0.1685
17465W        W27158   5.249   0.333   2.296 -0.0206  0.1592  0.0327
17466W        W27159  15.963   1.735   3.872 -0.1115 -0.1701 -0.3054
17467W        W27160   6.060   7.401   0.822  0.0227  0.0648  0.3012
17468W        W27161  17.660   4.325  13.077 -0.0150 -0.2606 -0.1830
17469W        W27162   8.605  17.660  11.943  0.1745 -0.0797  0.1425
17470W        W27163  11.913  16.922  15.936  0.0570  0.2459 -0.0025
17471W        W27164  14.323   8.074   1.985  0.1362 -0.0318  0.2514
17472W        W27165   8.706   8.119   1.187  0.4383 -0.3410  0.0392
17473W        W27166   3.777  14.720   1.931  0.1891 -0.0362  0.0955
17474W        W27167   0.622   0.983  11.046  0.1178 -0.1306  0.2923
17475W        W27168  12.488   6.761   3.698  0.4235 -0.0949 -0.0873
17476W        W27169  13.027   8.049   4.111 -0.1168 -0.0813  0.0834
17477W        W27170  11.425   2.818  16.310  0.1782  0.2296  0.1904
17478W        W27171  17.049   1.777  13.412  0.0355  0.0484  0.1963
17479W        W27172   7.987   6.619   5.041  0.0337  0.2339 -0.0760
17480W        W27173  10.671   7.564   5.145  0.2385 -0.0319  0.2223
17481W        W27174  11.420   5.562  14.433  0.0611  0.0244  0.1269
17482W        W27175  10.300   1.164  14.296  0.2623  0.0618  0.1820
17483W        W27176   6.493  10.392  13.935 -0.1633  0.3085 -0.2254
17484W        W27177   8.966   5.882  15.224  0.4285  0.0937  0.3984
17485W        W27178   5.915  12.678  13.403  0.3410 -0.5932  0.0363
17486W        W27179   3.312   1.439  14.282  0.1523 -0.0104  0.1505
17487W        W27180  15.778  10.603  16.620  0.1256 -0.0615 -0.0667
17488W        W27181   2.463  13.633   3.576 -0.0150  0.1064 -0.1172
17489W        W27182   6.308   5.460   0.066 -0.3385  0.0460 -0.0431
17490W        W27183  10.165   0.750  16.217 -0.0093 -0.0803  0.0766
17491W        W27184   8.816  17.405  15.639  0.3418 -0.1517  0.1030
17492W        W27185   7.127   0.259  15.226  0.0454  0.3923 -0.0728
17493W        W27186   7.725   3.412   5.227 -0.3552  0.1355  0.1512
17494W        W27187   9.921  10.757  12.243  0.1756  0.2630  0.3005
17495W        W27188  16.350  13.054  16.304 -0.0619  0.2926  0.0422
17496W        W27189  16.096   5.743   0.761  0.3140  0.0344 -0.1252
17497W        W27190   9.944  12.251  12.862 -0.0431 -0.1923  0.2028
17498W        W27191  16.751   4.369  13.620  0.1115  0.0536 -0.3323
17499W        W27192   5.892  14.856  15.978 -0.2708  0.1120 -0.0169
17500W        W27193   4.851  11.123   5.972  0.0892  0.1547 -0.0161
17501W        W27194   2.460   1.743  13.051  0.0099 -0.1328  0.1868
17502W        W27195  10.103   9.446  13.883  0.2186  0.4185 -0.1744
17503W        W27196   5.831  13.400   5.843  0.1375 -0.0636 -0.3272
17504W        W27197   5.109  16.490   2.360 -0.3002 -0.0675  0.1042
17505W        W27198  11.567  15.682   1.624 -0.0892 -0.1123  0.1882
17506W        W27199  17.676  15.613  14.382  0.0663 -0.0708 -0.0769
17507W        W27200   5.709   2.731   4.612 -0.1625 -0.3195  0.1982
17508W        W27201  12.573   3.399   2.626  0.2734  0.0954 -0.3412
17509W        W27202   4.296   1.782   2.329  0.1099  0.2541  0.0049
17510W        W27203   2.010  17.649  13.829 -0.5470  0.0553 -0.1289
17511W        W27204   5.886  16.837  12.749  0.0056  0.2376 -0.2097
17512W        W27205   0.838   5.559  12.803 -0.0569  0.0774 -0.0851
17513W        W27206  13.736   0.349   3.939  0.2702  0.2067 -0.2085
17514W        W27207  10.186  17.165   4.820  0.0948  0.1460  0.2562
17515W        W27208  12.766   3.853  15.943 -0.1053 -0.1024  0.2407
17516W        W27209  11.786   9.210  12.720  0.0590 -0.2242  0.2851
17517W        W27210   7.190   1.747  15.069 -0.0163 -0.2738 -0.0868
17518W        W27211   8.285  16.342   5.860 -0.2388  0.2250 -0.0179
17519W        W27212   2.703   4.867  13.122  0.0121 -0.0242 -0.0795
17520W        W27213  14.447   7.014  15.340 -0.5333  0.1587 -0.2714
17521W        W27214  17.173  13.855   3.841  0.0180 -0.0174  0.2612
17522W        W27215   3.480   9.530  10.683 -0.1509  0.1529  0.2982
17523W        W27216  12.227  15.777  11.372  0.1887  0.1708  0.0432
17524W        W27217   7.538   2.774   6.011 -0.0116 -0.1337 -0.1142
17525W        W27218   3.386  13.417  12.982  0.0513 -0.2246  0.1194
17526W        W27219  10.114  16.571   4.877  0.3825  0.0772 -0.1338
17527W        W27220  11.203   9.859   4.086  0.1978  0.1445 -0.0815
17528W        W27221  10.818   8.116   3.484  0.1665 -0.1628  0.0173
17529W        W27222  12.465  14.286  11.169 -0.1951 -0.0430 -0.0739
17530W        W27223  16.585   5.080  16.215 -0.0511  0.1458  0.1020
17531W        W27224   0.576   8.324  14.279 -0.2178 -0.1066  0.0549
17532W        W27225   2.619  11.239   2.124 -0.0450 -0.1202 -0.3959
17533W        W27226   7.583  17.230   1.575 -0.1350  0.0887 -0.1298
17534W        W27227   1.309   2.127  12.706 -0.2253  0.0385 -0.3573
17535W        W27228   0.954   1.733  14.249  0.2472  0.1019  0.1603
17536W        W27229   2.214   4.196  14.466 -0.0798 -0.0835 -0.4906
17537W        W27230  14.613  12.309  13.700 -0.2509  0.0064 -0.0278
17538W        W27231  15.938  12.685   2.868  0.2003  0.1307 -0.1760
17539W        W27232  17.566  12.416   3.359  0.0842 -0.2427  0.1671
17540W        W27233   4.920  13.970   6.865  0.0662  0.1173 -0.1682
17541W        W27234   6.221   9.479   0.125 -0.1906  0.2000 -0.1505
17542W        W27235   4.082   9.535  16.845 -0.0132 -0.1526  0.1720
17543W        W27236   6.471  16.914   3.354  0.0203 -0.1325  0.2109
17544W        W27237   1.211   9.980   4.691  0.0986  0.1163 -0.1235
17545W        W27238  13.221  14.874  13.883  0.3090 -0.1032 -0.1879
17546W        W27239   4.637   3.605   0.738  0.0373 -0.0058 -0.0623
17547W        W27240   6.791  14.333  14.901 -0.1003 -0.1230 -0.1480
17548W        W27241   9.955  16.325   0.245 -0.0807 -0.1151  0.2282
17549W        W27242  14.795   3.543  13.361  0.1788  0.0729 -0.0714
17550W        W27243   7.571   7.407   4.406 -0.0377 -0.0449  0.1675
17551W        W27244   4.021  16.603  15.439  0.0609  0.1263  0.1743
17552W        W27245  17.350   2.623   0.451 -0.0678 -0.0125 -0.0780
17553W        W27246   6.893  14.237  13.032  0.0542 -0.0950 -0.0484
17554W        W27247   5.135   1.373   5.110 -0.1010  0.0423  0.0900
17555W        W27248  12.202  12.987  13.513  0.1825 -0.0429 -0.0090
17556W        W27249   9.195  15.919   2.643 -0.0689 -0.1352  0.1468
17557W        W27250   7.725   4.524   4.658 -0.1882  0.1261 -0.3961
17558W        W27251  16.200   6.295  17.080 -0.0475 -0.1326 -0.0052
17559W        W27252   0.549  12.403   3.364  0.0949  0.4141 -0.1641
17560W        W27253   8.216   0.830  14.687 -0.0162  0.0523  0.2806
17561W        W27254  10.534   7.646   5.602 -0.1664  0.0151  0.0121
17562W        W27255  17.057  16.642   5.790 -0.1292  0.1519  0.1048
17563W        W27256   7.519   0.830   1.507  0.1488 -0.0731 -0.0154
17564W        W27257  12.229  11.799   5.158 -0.0008 -0.0995  0.0859
17565W        W27258  16.580   9.207   0.046  0.1542  0.0809  0.1319
17566W        W27259   3.941   6.732  14.534 -0.0086 -0.0266  0.6457
17567W        W27260  17.737  17.099  14.327 -0.3237  0.2299  0.1552
17568W        W27261  16.521  13.392   1.417 -0.3614 -0.0529  0.0033
17569W        W27262   8.264  10.515   0.844  0.0139  0.0099  0.0749
17570W        W27263   3.100   9.386  14.733  0.0488  0.1309 -0.0707
17571W        W27264   4.887  15.531   2.473  0.0693 -0.1161 -0.1079
17572W        W27265   7.053  14.946  11.759 -0.1945  0.1002  0.1854
17573W        W27266   4.263   1.006   5.196 -0.3996 -0.2384  0.1536
17574W        W27267   2.744  14.786  15.815 -0.0565 -0.2322 -0.0449
17575W        W27268  14.817  16.475   3.917  0.0655 -0.2379 -0.0939
17576W        W27269  10.283   9.915  13.830  0.1384  0.1657 -0.0834
17577W        W27270  14.429   4.170  11.914  0.2348 -0.4022 -0.1524
17578W        W27271   9.355  10.642   0.249  0.0867  0.1230 -0.0947
17579W        W27272   2.418   7.230  12.068  0.0325 -0.0948 -0.2303
17580W        W27273   6.323  10.806  16.961 -0.1589 -0.1777 -0.1177
17581W        W27274  16.384   9.434  14.564 -0.2224 -0.1487  0.2681
17582W        W27275  10.573   5.054  13.163  0.1275 -0.0341  0.1586
17583W        W27276   6.513   6.357   4.562  0.0292 -0.0055 -0.0138
17584W        W27277   4.301  16.671   5.022  0.2068 -0.0322 -0.0697
17585W        W27278  12.410   4.355   5.119  0.1231  0.0337  0.2539
17586W        W27279   6.635  16.133  13.519  0.0777  0.1492  0.1323
17587W        W27280   2.182   1.125  16.322  0.1736 -0.1341  0.0055
17588W        W27281  17.455  15.861   4.664  0.2800  0.0582  0.1466
17589W        W27282   3.134   3.470   1.565  0.1111 -0.4620  0.0102
17590W        W27283   9.621  11.555   1.310 -0.1082 -0.2885 -0.1273
17591W        W27284   9.965  10.786   6.119  0.3348 -0.1702  0.1472
17592W        W27285   5.505  12.751  16.535 -0.0976 -0.2991 -0.1794
17593W        W27286   7.577   0.305  13.651  0.0583  0.1708  0.0976
17594W        W27287   4.431   3.045   4.844 -0.1623 -0.0442  0.3099
17595W        W27288   7.084   7.112   4.416 -0.2352  0.0499 -0.0928
17596W        W27289   5.814   7.506  13.345  0.1665  0.0371  0.3919
17597W        W27290   2.942   3.697  16.361 -0.0860 -0.1554 -0.1642
17598W        W27291   6.791  14.757  14.101  0.0891  0.1129  0.0797
17599W        W27292   7.869  17.252   0.079  0.1378 -0.3396  0.1085
17600W        W27293   6.618  15.214  13.243 -0.1481  0.0177  0.0484
17601W        W27294  12.635  15.747  13.918 -0.0935 -0.0991 -0.2862
17602W        W27295   6.784   0.673   4.443  0.3041  0.0605 -0.0824
17603W        W27296  12.059   0.532   4.408  0.3454  0.1490 -0.2749
17604W        W27297   0.282  15.805  16.214  0.0403 -0.0191 -0.2645
17605W        W27298  10.241  16.565  16.060  0.2191 -0.0724 -0.1080
17606W        W27299   8.476   9.488   3.079  0.0579  0.2849 -0.0354
17607W        W27300  17.273  16.450   4.224 -0.2354 -0.0138 -0.0877
17608W        W27301  11.260   1.403   0.951  0.0057 -0.2661  0.0136
17609W        W27302  12.331  14.001   0.522  0.1563 -0.1405  0.1349
17610W        W27303   2.113   7.461   1.507  0.0144  0.1887 -0.1754
17611W        W27304   6.262  11.814   1.487 -0.0516  0.0192  0.1546
17612W        W27305  17.599   0.352  15.267 -0.0617  0.2913  0.0430
17613W        W27306  11.595  14.418  15.368  0.0000 -0.3387  0.0898
17614W        W27307  17.133   5.874  15.940  0.0182 -0.0955 -0.1785
17615W        W27308   0.497   5.743   6.557  0.0276 -0.1667 -0.0605
17616W        W27309  11.499  12.020  16.003  0.1342  0.2248 -0.0254
17617W        W27310   8.823  15.745   5.600  0.1265  0.1602  0.0930
17618W        W27311   9.440   8.801   5.820 -0.0673  0.2701  0.3307
17619W        W27312   3.665   7.331   5.152  0.0183 -0.0691 -0.1711
17620W        W27313   0.811   6.878  13.011 -0.0176 -0.0605 -0.0344
17621W        W27314   9.150   9.201   5.404  0.1153  0.4761 -0.1175
17622W        W27315   1.361  10.422   2.047  0.3869  0.1639  0.0704
17623W        W27316   2.135   2.025  16.067 -0.0648  0.1162 -0.0121
17624W        W27317   5.273   6.633   2.649 -0.2994 -0.2974 -0.0923
17625W        W27318   4.435  14.939  11.249 -0.0487 -0.2044 -0.0238
17626W        W27319   2.377   7.754   4.816 -0.2842 -0.2506 -0.0945
17627W        W27320   3.630   7.869  13.760 -0.0510 -0.2907 -0.1949
17628W        W27321  11.707  12.409  12.874 -0.2638 -0.1880 -0.3357
17629W        W27322  17.085   7.331  12.733 -0.2314  0.0583 -0.1785
17630W        W27323   5.248   2.537   0.711  0.2073 -0.0850 -0.0328
17631W        W27324   6.493   0.307  16.878 -0.2385 -0.1702  0.0688
17632W        W27325   4.648  15.251   2.820 -0.1817 -0.0589  0.3748
17633W        W27326   7.948   6.395   2.454  0.0096  0.1568  0.1507
17634W        W27327   1.534   6.770  15.315 -0.0762 -0.2743  0.0637
17635W        W27328   2.126   5.392  15.444 -0.0394  0.0476 -0.2861
17636W        W27329   7.018   2.945   4.549  0.1437  0.0758  0.1981
17637W        W27330   9.301   4.401  14.935  0.2107 -0.6004 -0.0225
17638W        W27331   9.871  15.356  17.000  0.1413 -0.0132 -0.1734
17639W        W27332  11.581   7.786   3.725 -0.1992 -0.1779  0.1955
17640W        W27333  14.496   4.936   5.985 -0.1651  0.3182 -0.1978
17641W        W27334   8.785  14.959   5.790 -0.0541  0.0109 -0.1574
17642W        W27335  16.486  16.469  16.863 -0.3101 -0.0382 -0.0168
17643W        W27336   7.254   4.086   3.288 -0.3459  0.1131 -0.1098
17644W        W27337   2.392   2.956  10.387  0.2441  0.0344 -0.1802
17645W        W27338   5.277   0.859   4.781  0.1048  0.0450  0.1029
17646W        W27339  11.603  12.331   2.061  0.0584 -0.1115 -0.0222
17647W        W27340   9.784  17.504  11.532  0.3397  0.2010 -0.1758
17648W        W27341   5.808  14.420  11.664 -0.0909 -0.1549  0.1451
17649W        W27342  17.460  17.805  16.135  0.1318  0.0794  0.2200
17650W        W27343   7.135  12.108   5.544 -0.0283  0.3228 -0.1797
17651W        W27344  17.168  10.903  13.488  0.2880  0.0177  0.2005
17652W        W27345   9.268  10.550   4.457 -0.0330  0.0202 -0.0623
17653W        W27346   2.408  11.035   1.612  0.0987  0.0675  0.0941
17654W        W27347   9.092   9.695   0.976  0.0389  0.1802  0.1280
17655W        W27348   3.038  10.234  10.918 -0.0255  0.2483  0.2922
17656W        W27349   1.622  11.041  12.762 -0.1049  0.4302 -0.2090
17657W        W27350   2.690  15.297   5.042 -0.2088 -0.0001 -0.0176
17658W        W27351   2.099  12.841  16.228  0.2151  0.0186 -0.1843
17659W        W27352  17.059  13.057   3.689  0.2160  0.0079 -0.0158
17660W        W27353  17.887  14.984   3.493  0.0403  0.1690 -0.0459
17661W        W27354  13.859  12.695   0.055 -0.2421  0.0833  0.2695
17662W        W27355   1.755   3.554   4.729  0.5509 -0.1448 -0.0880
17663W        W27356   5.066   9.388  14.867  0.2775 -0.1339  0.1832
17664W        W27357   7.688  10.041   0.335 -0.1275 -0.1834 -0.2464
17665W        W27358   5.016   3.978  16.769  0.1570  0.0237 -0.0300
17666W        W27359   6.611   4.378  12.264 -0.2720  0.2627 -0.0447
17667W        W27360  17.552  10.795  15.175  0.1243 -0.0179  0.2002
17668W        W27361  16.065   3.203   4.626 -0.0255  0.1848  0.1973
17669W        W27362   4.666  16.734   5.325  0.1967  0.0039 -0.3647
17670W        W27363  15.696  13.791   5.879  0.2191 -0.3122  0.1078
17671W        W27364   8.221   7.346  15.694  0.2585  0.1568  0.1430
17672W        W27365   1.409   9.841  15.829  0.5027  0.0684 -0.0991
17673W        W27366   2.361  17.254  16.225 -0.1613  0.0913  0.0488
17674W        W27367   4.715   5.405   3.899  0.2432 -0.0210  0.0487
17675W        W27368   7.582  13.991  12.708  0.0197 -0.0348  0.1238
17676W        W27369   2.647  11.715   0.847 -0.0996 -0.3943 -0.1971
17677W        W27370   8.829  17.755  11.251 -0.2904 -0.2040 -0.2157
17678W        W27371   4.065   8.936  16.814 -0.2019  0.0752  0.1153
17679W        W27372  10.327  12.357   3.038  0.0453  0.0331  0.2543
17680W        W27373  10.291  14.559   5.734 -0.3258  0.1780 -0.1362
17681W        W27374   4.976   2.306   3.988 -0.0114 -0.0016 -0.0481
17682W        W27375   5.124  11.878   2.345  0.0942  0.1084  0.2856
17683W        W27376   1.942   0.645   1.873 -0.1120  0.2323 -0.4842
17684W        W27377  15.925  14.814  13.804 -0.0741 -0.1037  0.0957
17685W        W27378   8.629  13.046   2.922 -0.1750  0.1652 -0.0898
17686W        W27379  10.819   2.681   6.199 -0.5536  0.2127  0.4579
17687W        W27380  16.786   0.911  13.623  0.4162  0.1802 -0.0208
17688W        W27381   4.646   2.206  12.178 -0.0393 -0.0435  0.0490
17689W        W27382   6.218  11.735   4.683 -0.1678  0.2405 -0.0840
17690W        W27383   7.038   0.068   1.159  0.3478  0.1304  0.3985
17691W        W27384   7.706   9.226  12.718  0.0225 -0.1801 -0.2178
17692W        W27385  15.075   4.297  15.560 -0.1857  0.0898  0.1210
17693W        W27386   2.545   3.767   0.378  0.1904 -0.1593  0.2636
17694W        W27387   3.154  14.141   3.552  0.2335 -0.0600 -0.0261
17695W        W27388  13.267  13.981  13.497 -0.0591  0.1416 -0.0383
17696W        W27389  17.420  16.360  12.645  0.1691  0.3218  0.0417
17697W        W27390   6.773   5.536   2.522  0.1662  0.1807 -0.1649
17698W        W27391  13.882   5.479   3.518 -0.2117  0.0142  0.0818
17699W        W27392   2.640   0.905   3.396 -0.2242 -0.1099 -0.3620
17700W        W27393   5.067   2.314  13.439 -0.0934  0.2201  0.2198
17701W        W27394  15.945  10.098   1.366  0.0813 -0.2502 -0.2002
17702W        W27395   2.941  10.362  16.606  0.0203  0.1326  0.1983
17703W        W27396   4.308   1.208  12.103 -0.3456 -0.2057  0.0325
17704W        W27397   7.353  10.483  13.786  0.2557 -0.2255  0.1356
17705W        W27398  14.710  17.640  16.052  0.2127 -0.0339  0.0419
17706W        W27399   5.805  16.867   0.401  0.0778  0.1012 -0.1422
17707W        W27400   2.219  17.496   2.382 -0.2266  0.2598  0.0413
17708W        W27401   5.675  15.810  15.541  0.1770  0.0589 -0.0147
17709W        W27402   1.950  13.080   0.255 -0.2077  0.1216 -0.2640
17710W        W27403   1.882   1.994   2.227  0.4152 -0.2311  0.3214
17711W        W27404   8.523   0.693  13.828  0.1398 -0.3089  0.1583
17712W        W27405  11.986   1.497   1.810 -0.0422 -0.0393  0.1096
17713W        W27406  11.946  15.168   0.293 -0.0951  0.1612 -0.0353
17714W        W27407  15.194   0.510   4.788 -0.0850 -0.0673  0.0355
17715W        W27408   6.587  14.088   3.551 -0.1824  0.3979  0.2274
17716W        W27409   4.246   2.138   1.950  0.0005  0.1355 -0.1367
17717W        W27410   3.016  15.358   3.776 -0.1058 -0.1481  0.1428
17718W        W27411  13.857  12.326   1.350 -0.1762 -0.0462 -0.1540
17719W        W27412   6.443   8.372  14.477 -0.3763 -0.0213 -0.3270
17720W        W27413  12.297  12.033  16.466  0.5614 -0.0241 -0.0884
17721W        W27414   0.288  13.360   2.696 -0.2037 -0.0701  0.1211
17722W        W27415  14.337  13.055  14.190 -0.0100  0.0493 -0.1515
17723W        W27416   0.905   0.772  14.470 -0.1515 -0.2106  0.0558
17724W        W27417  11.301  12.670  14.703  0.0356  0.0368  0.1125
17725W        W27418   7.609   8.556   6.015 -0.1173 -0.1253  0.0382
17726W        W27419  16.030  10.337  16.199 -0.1327  0.0069  0.4415
17727W        W27420   1.630  17.480   4.808  0.0424  0.2053 -0.1720
17728W        W27421  10.483   3.181  12.005 -0.0556  0.1707  0.0013
17729W        W27422   6.888   3.734   1.776  0.0768 -0.0838 -0.2235
17730W        W27423   2.240   5.245   2.910 -0.2149  0.3073  0.0512
17731W        W27424   4.128   4.710   3.717 -0.2028 -0.0396  0.0814
17732W        W27425  13.522  11.711  16.887 -0.0336  0.2396  0.0538
17733W        W27426   2.955   3.869  15.362  0.0528 -0.1437  0.0491
17734W        W27427   9.016   5.739   4.173 -0.0636 -0.1843  0.1850
17735W        W27428   0.803  17.223  11.878 -0.0242  0.1352  0.0159
17736W        W27429   2.039   2.347   2.585  0.0200  0.0029  0.1227
17737W        W27430   3.138  12.113   2.569 -0.0255  0.1239  0.0462
17738W        W27431   7.976  14.614   2.530 -0.1373 -0.1965 -0.1625
17739W        W27432   6.355  17.855   5.871 -0.1395 -0.1578  0.0358
17740W        W27433  10.447  12.772   2.195 -0.0056  0.0123 -0.1912
17741W        W27434   7.537  13.991  17.056  0.1631  0.0417  0.1002
17742W        W27435  17.806  13.626  16.579 -0.0738  0.0321 -0.1083
17743W        W27436   5.808   9.248   6.653 -0.0355 -0.3001  0.0476
17744W        W27437  10.148   7.911   2.839  0.0521 -0.3166  0.1243
17745W        W27438  13.195   6.344   0.959  0.1175  0.0009 -0.3015
17746W        W27439   3.011   6.719   3.776 -0.2358 -0.1851 -0.1710
17747W        W27440   3.792  10.917   3.411  0.0333  0.0657  0.0659
17748W        W27441   8.084  16.628  10.680  0.0539  0.0498  0.1455
17749W        W27442  15.386  14.588   3.757  0.0571  0.0146 -0.1064
17750W        W27443   9.113   8.713   3.305  0.2334 -0.0884  0.2702
17751W        W27444   5.759   8.773   3.927  0.1570 -0.4123 -0.0176
17752W        W27445  14.823   8.580  14.391 -0.4305 -0.0310 -0.0620
17753W        W27446   7.410  11.129   0.502 -0.0444  0.1028  0.0929
17754W        W27447  17.101  10.467   3.819  0.2070  0.0086  0.1960
17755W        W27448   3.252   8.120   0.556 -0.0032  0.2443 -0.0447
17756W        W27449  16.046   5.257  12.002  0.1470 -0.0090  0.1361
17757W        W27450   7.512   6.312   5.645 -0.0352 -0.1273  0.0766
17758W        W27451   3.790   3.612  11.297 -0.0753  0.1304  0.0155
17759W        W27452   0.902  14.616   4.914 -0.3033  0.2367 -0.0863
17760W        W27453  14.176   9.538   0.215 -0.0402  0.2233  0.0829
17761W        W27454  11.162  10.412   0.334  0.2071 -0.0372  0.1406
17762W        W27455   3.603  11.700   4.241  0.1814 -0.0720  0.1091
17763W        W27456  12.958   0.292   3.226  0.2229 -0.0359 -0.0975
17764W        W27457   3.607  11.043   2.001  0.1427 -0.0386  0.0360
17765W        W27458   6.349   7.373  16.770  0.0423  0.0509 -0.1200
17766W        W27459  12.029   3.643   2.172 -0.0466  0.1656  0.2850
17767W        W27460   5.617   1.188   3.182 -0.2162  0.1963  0.1170
17768W        W27461   9.241  16.804   2.693  0.0584  0.0656 -0.0429
17769W        W27462   9.705  13.527  16.719  0.1849 -0.1734  0.1259
17770W        W27463   8.803   5.928   5.126 -0.0899  0.0104 -0.0757
17771W        W27464   7.260   8.645   0.538 -0.1982 -0.0440 -0.2726
17772W        W27465   3.048   4.681  13.603 -0.2835 -0.1457  0.1124
17773W        W27466  11.244   5.982   5.325  0.2584 -0.1547 -0.1018
17774W        W27467  17.338   9.215   0.775 -0.0710  0.1776 -0.0163
17775W        W27468  15.424   0.070  12.689 -0.1411 -0.0320 -0.2121
17776W        W27469   6.161  13.098  15.855 -0.2031  0.2025 -0.4983
17777W        W27470   3.496   6.640   1.341  0.2517 -0.0445 -0.2273
17778W        W27471  11.556   8.821  12.227  0.1478  0.1335  0.4142
17779W        W27472   9.615  10.663   5.831 -0.1890  0.0593 -0.0127
17780W        W27473   4.813  17.411   3.449  0.0931  0.0478 -0.0810
17781W        W27474   4.428   6.547   3.519  0.2498  0.1966 -0.1956
17782W        W27475   8.774  11.432   6.226  0.0694 -0.2038  0.0486
17783W        W27476  17.585  16.502  14.874  0.0997  0.0905 -0.1755
17784W        W27477   0.544  10.352  14.322  0.2362 -0.0649 -0.0066
17785W        W27478   9.318   4.999  12.806 -0.1328  0.2844 -0.0248
17786W        W27479   2.550  12.942   3.747  0.1140 -0.0927  0.2364
17787W        W27480   2.206  16.710  15.457  0.0611  0.2858 -0.1430
17788W        W27481   0.396   8.332  12.640  0.1162  0.0501  0.2613
17789W        W27482   4.292  15.080  16.437 -0.2238 -0.0794  0.1091
17790W        W27483   8.313  17.035   2.777  0.0515  0.0350 -0.0809
17791W        W27484  17.680   0.905  13.179  0.1030  0.4129  0.1412
17792W        W27485  16.867  10.980   5.066 -0.0076  0.1527  0.0711
17793W        W27486   5.454  14.526   0.334 -0.2090 -0.1642 -0.3732
17794W        W27487   4.811  14.938   1.099 -0.1527 -0.1842 -0.4113
17795W        W27488   1.201   1.107   2.153  0.0056  0.3403  0.0421
17796W        W27489  17.830  10.533  14.843  0.1181  0.2501 -0.1463
17797W        W27490   9.574  11.922   1.807  0.3085 -0.2121 -0.2277
17798W        W27491   0.566   0.117   2.386 -0.0507  0.3660  0.2798
17799W        W27492  14.584   7.539   5.363 -0.0681  0.3676  0.0272
17800W        W27493  10.968   9.238   3.178 -0.0823 -0.1087 -0.0734
17801W        W27494   5.470   2.119  16.788 -0.0897 -0.1832  0.0680
17802W        W27495   0.892   3.940   4.385 -0.1761  0.1593  0.1588
17803W        W27496   5.273   3.244   5.854 -0.1369  0.0057  0.1139
17804W        W27497   6.725   7.890   3.075  0.0997 -0.0830  0.0172
17805W        W27498   7.253   4.108  12.458 -0.1473  0.0591  0.2258
17806W        W27499   7.893   8.757  12.679 -0.0184  0.1125 -0.0541
17807W        W27500   8.555   2.647  15.816  0.0646  0.0527 -0.0788
17808W        W27501   5.671   8.289   3.968  0.0623  0.0024  0.1388
17809W        W27502   9.158  10.694   6.010  0.0050  0.0359  0.1345
17810W        W27503   5.946  17.811   4.576  0.2129 -0.3675 -0.3699
17811W        W27504   7.008   7.574  14.832 -0.2359 -0.0767 -0.0144
17812W        W27505   6.650   7.637   6.226 -0.2204  0.1462 -0.0221
17813W        W27506   3.619   8.196   0.245 -0.2763 -0.0694 -0.0279
17814W        W27507  12.981   0.172  10.967 -0.0392 -0.1534  0.0788
17815W        W27508   6.096   2.609  16.413  0.0031  0.1598 -0.1302
17816W        W27509   6.963   5.014  12.557 -0.0890  0.0325 -0.0782
17817W        W27510   2.650   2.042  15.939 -0.1078  0.1089  0.1925
17818W        W27511   5.924   5.670  14.849 -0.0431  0.2068 -0.0459
17819W        W27512   1.231   8.336  16.709  0.2418 -0.2096 -0.0397
17820W        W27513   2.398   2.019   2.396 -0.0846  0.3190  0.2995
17821W        W27514  10.112  12.682  13.700 -0.3320  0.3344  0.0814
17822W        W27515  17.593   1.633   1.983  0.2427  0.1180  0.0823
17823W        W27516   6.280   6.650  13.345  0.1296  0.1396  0.0730
17824W        W27517   0.402  16.604  13.701 -0.1020 -0.1631 -0.2541
17825W        W27518   1.917   8.026  12.987 -0.1751  0.3193 -0.3665
17826W        W27519   8.236  13.676  12.749  0.0597  0.4131 -0.2422
17827W        W27520   8.347  14.277  11.939 -0.0912 -0.2180 -0.1710
17828W        W27521   2.645   1.990  14.640  0.0928  0.0068  0.0449
17829W        W27522   6.737   6.992  12.516 -0.1179  0.1205 -0.1837
17830W        W27523   0.897   2.918  11.255  0.0984  0.0159 -0.0308
17831W        W27524   3.220  14.205  16.671 -0.0369  0.1718  0.0345
17832W        W27525  12.941   9.595   2.155 -0.4501 -0.3362  0.2287
17833W        W27526   3.012  14.859   2.059 -0.4453 -0.1299 -0.3048
17834W        W27527  11.126  11.825   2.991  0.0044  0.0762  0.1307
17835W        W27528   8.458  15.231   2.447  0.0645 -0.1784 -0.1533
17836W        W27529  12.418   1.861   0.946  0.0848  0.0148 -0.0052
17837W        W27530  15.826   2.442  15.586 -0.0058  0.1126 -0.2055
17838W        W27531   3.311  10.610  14.187  0.0014 -0.0770 -0.2091
17839W        W27532   5.411   6.758   3.553  0.0348  0.0656  0.1241
17840W        W27533  12.830  16.769  14.769  0.0720 -0.0640 -0.4590
17841W        W27534   5.009   7.902   2.804  0.0191  0.0998  0.1535
17842W        W27535   6.822  10.321  14.721 -0.0322 -0.0659 -0.0498
17843W        W27536   6.576   0.915  12.457  0.1629 -0.1166 -0.0838
17844W        W27537   4.629  14.281  16.339 -0.0860  0.0123 -0.2600
17845W        W27538   1.823   0.350  12.513 -0.1395  0.3695  0.0155
17846W        W27539   4.336  12.695  14.439 -0.0256  0.4949 -0.3453
17847W        W27540   1.830   3.230  14.956 -0.2819 -0.1964  0.1222
17848W        W27541   4.222  16.932  16.843 -0.2463  0.2165  0.1512
17849W        W27542  16.129  17.251   2.010 -0.0712 -0.0173  0.0821
17850W        W27543  13.297  16.545   2.554 -0.1953 -0.1024  0.3745
17851W        W27544  14.048  12.861  13.202  0.1752  0.1234  0.0463
17852W        W27545  11.251   1.542  13.053 -0.0764 -0.2923 -0.2843
17853W        W27546   8.262  11.624  14.561 -0.3639 -0.0768 -0.1557
17854W        W27547   9.949  14.845  13.356  0.0730  0.0048  0.0874
17855W        W27548  11.048   5.288  14.340  0.0303 -0.4059  0.1990
17856W        W27549  13.537   3.211  11.952  0.0702 -0.2191  0.3793
17857W        W27550   6.586   0.644   2.620 -0.2096 -0.0451 -0.1458
17858W        W27551   3.525   4.822  13.513 -0.2805  0.1511 -0.1573
17859W        W27552   4.004  10.993  16.517 -0.3035  0.0415  0.0969
17860W        W27553   5.607   8.108   3.138 -0.0542  0.1857  0.3378
17861W        W27554   8.642   9.093   0.195  0.2861  0.1262  0.0597
17862W        W27555  16.382  15.679   0.532  0.1801 -0.2229 -0.0215
17863W        W27556  10.883  10.029   1.105  0.2687 -0.4647 -0.1474
17864W        W27557   8.971   9.429   6.191 -0.0445  0.0840 -0.1540
17865W        W27558   8.807  11.842   2.267 -0.3352  0.1273 -0.1379
17866W        W27559   7.246   8.314   2.748 -0.0162 -0.1856  0.0266
17867W        W27560  12.954   4.330   0.653 -0.0781 -0.2107  0.2009
17868W        W27561  12.922   5.586  12.906  0.0052  0.1560 -0.1695
17869W        W27562   3.652  12.339  11.530  0.3175 -0.0392  0.2376
17870W        W27563  17.044  13.438   4.012 -0.1509  0.1079 -0.1100
17871W        W27564   6.189   6.412   2.627  0.0697 -0.0907  0.1310
17872W        W27565   7.104  16.501   1.086  0.0368 -0.2345  0.1425
17873W        W27566   6.550   4.913   6.215  0.0590 -0.0039  0.1260
17874W        W27567   7.810  10.801  14.143  0.0088 -0.1706  0.1274
17875W        W27568   6.542   7.046   0.048 -0.2250  0.2124  0.0531
17876W        W27569   4.282   5.640  12.688 -0.1263  0.0840 -0.1600
17877W        W27570  10.595  11.773  13.775 -0.0355  0.0746 -0.0041
17878W        W27571   8.218   9.066   0.669  0.2769 -0.2550  0.5537
17879W        W27572   3.863   6.687   6.577  0.1770 -0.0286  0.0289
17880W        W27573   2.972  10.426   4.521 -0.0171 -0.2623 -0.0960
17881W        W27574  10.888   2.503  16.564 -0.2435 -0.3052  0.2543
17882W        W27575  10.556  11.914   3.129  0.1491  0.1454 -0.0545
17883W        W27576  11.746  11.279  11.382  0.1635 -0.0076 -0.0083
17884W        W27577   7.799   6.860  14.471  0.1115 -0.2661  0.0340
17885W        W27578   3.518   3.939   5.584 -0.3111 -0.2357 -0.2070
17886W        W27579   1.886   4.975  11.933  0.0103 -0.0180 -0.1450
17887W        W27580  10.912   3.186   0.751  0.3051  0.0467  0.4254
17888W        W27581   3.622  17.862   4.603 -0.2314 -0.1782 -0.1238
17889W        W27582   6.148   2.608   0.891  0.1397  0.1391 -0.1144
17890W        W27583   5.436   4.966  13.883 -0.1644 -0.0767  0.0831
17891W        W27584  14.554   2.870   2.448 -0.2593  0.1590 -0.1477
17892W        W27585  16.628  16.999  13.466 -0.1108  0.2074 -0.0259
17893W        W27586   6.651  15.637  12.987  0.0435 -0.0624  0.0665
17894W        W27587   9.448  17.808  11.909  0.0936 -0.0017  0.0516
17895W        W27588   6.779  11.028   6.313  0.1183  0.0150  0.1781
17896W        W27589   8.562  13.673   0.599  0.1019  0.0924  0.2736
17897W        W27590  16.511   3.921  16.493 -0.0690 -0.2369 -0.1395
17898W        W27591   8.497  13.984   6.212  0.0982  0.3328 -0.0909
17899W        W27592   3.365   3.858  16.489 -0.0761 -0.2149 -0.1313
17900W        W27593   6.690   3.121  14.970  0.1152 -0.0244  0.0244
17901W        W27594   6.459   9.095   5.045  0.0325  0.0904 -0.1832
17902W        W27595  13.446  11.786   4.688 -0.0951 -0.0816  0.0153
17903W        W27596   2.010   3.422  16.070 -0.2589  0.0233 -0.0434
17904W        W27597   5.870   0.354   4.301 -0.1574 -0.1263  0.1098
17905W        W27598   6.962   6.881  15.547 -0.2638 -0.1347  0.0716
17906W        W27599   9.679   1.464   5.690 -0.1051 -0.3009 -0.0129
17907W        W27600   5.920  16.565  14.782  0.2209  0.0894 -0.0035
17908W        W27601   1.003  16.207  16.205 -0.2087 -0.4737 -0.1780
17909W        W27602   7.810   0.682   4.547  0.0115  0.2563  0.1541
17910W        W27603   3.894   8.412   1.484 -0.2540 -0.0877 -0.2125
17911W        W27604   3.418   7.607   2.935 -0.0709 -0.2427  0.1506
17912W        W27605   1.028  11.196  11.814  0.1477  0.0204  0.0615
17913W        W27606  10.577  12.844   0.225  0.0337 -0.0256 -0.0508
17914W        W27607   3.031  16.772   1.124  0.1118 -0.1519 -0.2206
17915W        W27608   0.206  14.953  13.204  0.1204  0.0774  0.2006
17916W        W27609  16.196  12.747   0.511 -0.1213  0.1481  0.1923
17917W        W27610  14.374   2.121   1.077 -0.0798 -0.1127 -0.2198
17918W        W27611   0.575   5.795   0.567  0.1258  0.2168  0.0641
17919W        W27612  14.376   0.483   0.061 -0.1627 -0.2752 -0.0543
17920W        W27613   4.205   5.243   2.948  0.3241 -0.0857 -0.1383
17921W        W27614  12.316  15.067  15.363  0.3465  0.1567 -0.0047
17922W        W27615  11.765   3.170   0.541  0.1541 -0.0289 -0.0966
17923W        W27616   5.768  17.769  16.950  0.1810  0.1887 -0.3270
17924W        W27617   8.830  14.222  14.992 -0.3553  0.2311  0.1866
17925W        W27618   3.951  13.754  16.718  0.0582 -0.0995  0.0275
17926W        W27619  11.124   9.958  11.482  0.1422 -0.1710 -0.2474
17927W        W27620   1.359  11.840   4.490  0.4860  0.0939  0.3935
17928W        W27621  16.192  10.690   1.811  0.0724 -0.1282  0.3019
17929W        W27622   1.727  16.178  13.627  0.1842 -0.3176  0.0604
17930W        W27623  11.550  11.738  12.891 -0.0778  0.3066 -0.0907
17931W        W27624  16.751  12.638   1.336 -0.4043 -0.0571  0.0520
17932W        W27625  13.546   6.115   5.633  0.0427 -0.2639 -0.0489
17933W        W27626  16.058  13.369  11.416 -0.0556 -0.0111 -0.0926
17934W        W27627   2.395   1.942   3.488  0.1130 -0.0760  0.1825
17935W        W27628   8.561   8.012   6.151 -0.5943  0.2760 -0.0608
17936W        W27629   4.621   1.590  15.613 -0.0962 -0.0407  0.0169
17937W        W27630   4.502  13.719  15.960 -0.2152  0.0151  0.1038
17938W        W27631   4.358  11.569   1.836 -0.2157 -0.1672  0.2781
17939W        W27632   7.976  14.087  16.112 -0.0971 -0.2144  0.2341
17940W        W27633   6.515  16.272  16.436  0.0255  0.0574  0.0924
17941W        W27634   7.420  10.289   2.485  0.0067 -0.0975 -0.0571
17942W        W27635   8.151  10.476  11.922  0.2747 -0.0990 -0.0990
17943W        W27636   0.217  13.310  11.631 -0.3601  0.1618 -0.0888
17944W        W27637  12.060  15.309   2.333  0.0778  0.2764  0.1689
17945W        W27638  12.399   9.943   3.649  0.0731 -0.1314  0.1937
17946W        W27639   6.418  17.164  15.109 -0.0907  0.0679 -0.5055
17947W        W27640  17.641   6.628   0.145 -0.1115  0.2733  0.2834
17948W        W27641  11.625   3.639   2.985 -0.1877  0.3101 -0.0831
17949W        W27642   2.513   5.915   3.373  0.2162  0.3780 -0.1558
17950W        W27643   5.004  12.472   2.386 -0.1517 -0.1957 -0.2836
17951W        W27644   8.589  16.180  16.723 -0.0805  0.1158 -0.2497
17952W        W27645   7.365   5.873  15.250 -0.1047 -0.3358 -0.0580
17953W        W27646  15.170  16.552  12.766 -0.0073  0.1960 -0.2580
17954W        W27647   0.088  11.551  14.665  0.1859  0.1741  0.0537
17955W        W27648   7.467   7.977   2.199  0.0307 -0.2730  0.0055
17956W        W27649  10.912  17.151   4.768  0.1843  0.0134 -0.1404
17957W        W27650  10.493   3.717  15.086  0.2590  0.0552 -0.0102
17958W        W27651  16.441  11.690   2.193  0.0491  0.0278 -0.0928
17959W        W27652   6.934  15.072   4.953 -0.0103 -0.1348  0.1527
17960W        W27653  12.943   9.276   0.945 -0.0771 -0.1525 -0.0470
17961W        W27654   6.442  17.315  16.570  0.2023 -0.1295  0.2495
17962W        W27655   0.372   8.836   0.629 -0.2465 -0.2793 -0.0198
17963W        W27656   3.946   7.427  12.150 -0.0456  0.3334 -0.3311
17964W        W27657  15.879  11.843  16.212 -0.1021 -0.2644 -0.2472
17965W        W27658   3.613   1.529  12.289 -0.3267  0.0278  0.1546
17966W        W27659   6.951   2.648  13.985 -0.0566  0.0188 -0.1355
17967W        W27660   5.268   4.264  12.963 -0.0343  0.0757  0.4449
17968W        W27661   1.693  12.169  14.467  0.0271 -0.0963 -0.0720
17969W        W27662   1.699  17.032  12.184  0.0352  0.4368 -0.0293
17970W        W27663   1.501   8.304   0.620  0.1288 -0.2404  0.0845
17971W        W27664   4.555   1.109  11.203 -0.0450  0.1893  0.0103
17972W        W27665   2.629  10.843   1.200  0.1281 -0.0049 -0.1037
17973W        W27666   0.719   4.050  11.807 -0.0135 -0.0078 -0.0468
17974W        W27667   4.201   1.496  13.041  0.1181  0.0024  0.2839
17975W        W27668   1.999  14.850  14.466  0.1427  0.2001  0.1732
17976W        W27669   5.308   3.546   4.974  0.3625 -0.3822 -0.0396
17977W        W27670   1.130  10.994  13.751 -0.2802  0.1078 -0.3843
17978W        W27671   8.672  16.131  12.486  0.3151  0.0522  0.1162
17979W        W27672  17.441   3.200   3.584 -0.0922 -0.1024  0.0376
17980W        W27673   4.393  11.076   5.144  0.2923  0.0237 -0.0048
17981W        W27674   6.398   7.965  12.407  0.3286  0.1577 -0.1013
17982W        W27675   8.937   6.963  16.044 -0.0700  0.2104 -0.0985
17983W        W27676   5.293   1.077   0.640  0.3054  0.1712 -0.0251
17984W        W27677  16.633   2.719  16.837 -0.1285  0.0115 -0.0523
17985W        W27678   9.263  11.968  11.905 -0.2382  0.0315 -0.1522
17986W        W27679   6.481   4.911   4.005 -0.1474  0.0774 -0.1573
17987W        W27680   3.280   8.805   3.687  0.1653  0.2522 -0.0740
17988W        W27681  12.957   8.734  15.983 -0.0840  0.0451 -0.4315
17989W        W27682   7.762  14.546   1.124 -0.2641  0.1063 -0.0897
17990W        W27683   6.455   5.624   5.357 -0.1143 -0.0181  0.1062
17991W        W27684   6.241  16.845   6.604 -0.0117 -0.2352  0.2665
17992W        W27685   9.348   1.894  15.900  0.0945  0.2101 -0.1938
17993W        W27686   2.120   3.201   1.752  0.1292  0.0587 -0.0674
17994W        W27687  16.495   9.785  14.079 -0.0183 -0.0427  0.2168
17995W        W27688   9.084  15.814  12.517 -0.0423  0.3129  0.2760
17996W        W27689  13.902   4.075   2.054  0.0792  0.2381 -0.1475
17997W        W27690   8.940   1.012  15.720  0.1525 -0.0243  0.1107
17998W        W27691  14.458   9.058   1.213  0.0038  0.0967 -0.0426
17999W        W27692   9.766   1.438  15.740 -0.0890  0.1331 -0.0443
18000W        W27693   5.730  13.765   4.566  0.2667 -0.0050  0.1670
18001W        W27694   4.705   2.923  14.825  0.2293  0.0782  0.1383
18002W        W27695   6.832   6.338  15.809  0.0199 -0.0321  0.0003
18003W        W27696   2.723  17.655  11.555 -0.0636 -0.0424 -0.0102
18004W        W27697   4.817  13.998   3.986 -0.1044 -0.3433  0.1961
18005W        W27698   5.201   0.865   3.889 -0.0522  0.1554  0.2760
18006W        W27699   4.941   9.728  16.787 -0.3218  0.1765  0.0500
18007W        W27700   9.551   3.409  12.697 -0.1424 -0.0766  0.0852
18008W        W27701   4.213   8.275   0.301  0.0012 -0.3127  0.2338
18009W        W27702   8.333   2.938  15.417  0.2813  0.2828 -0.0745
18010W        W27703   6.453  14.293  16.351 -0.0236 -0.2734 -0.1155
18011W        W27704  12.357  17.661   1.780  0.2009 -0.5157 -0.0702
18012W        W27705   5.816  14.827   3.833  0.0329  0.0220 -0.0077
18013W        W27706   6.508   9.302   4.044 -0.0272 -0.0271  0.1901
18014W        W27707   3.567  17.472   2.273 -0.0915  0.1383 -0.1952
18015W        W27708  13.931  13.423  13.555  0.2646  0.1437  0.0685
18016W        W27709   7.310   7.313   0.211  0.0058  0.0048  0.0138
18017W        W27710   4.515  12.750  14.949 -0.0165  0.0285  0.0789
18018W        W27711  10.435  15.460   3.219  0.0674 -0.1063  0.2035
18019W        W27712   6.525   2.208   2.553 -0.4326 -0.3389 -0.0087
18020W        W27713   7.061   0.666   5.756 -0.0755  0.0658  0.1896
18021W        W27714  11.142   3.442   1.741  0.0167  0.0692 -0.1540
18022W        W27715   8.369   6.487   2.705 -0.2500 -0.0030  0.0765
18023W        W27716  13.459  11.605  11.377  0.2377 -0.0588 -0.1621
18024W        W27717  17.142   5.385   3.551  0.1160  0.1992 -0.2489
18025W        W27718  14.575   8.841   0.202 -0.1395 -0.0029  0.0196
18026W        W27719   6.712  12.985  14.542  0.2209  0.0390  0.0367
18027W        W27720   4.623  13.909   6.075  0.4017 -0.0657 -0.1249
18028W        W27721   4.592  11.320   5.549  0.1570 -0.1230 -0.0274
18029W        W27722  16.401   3.440   4.935 -0.0701 -0.0466 -0.2585
18030W        W27723   0.056  14.742  15.050 -0.1296  0.1310 -0.0259
18031W        W27724   9.912  15.058   6.725  0.0302 -0.1587 -0.2315
18032W        W27725   0.745   9.915  17.021  0.1489 -0.1750  0.2868
18033W        W27726   5.474   1.439  14.516  0.1045 -0.0262 -0.1749
18034W        W27727  16.542   5.255  14.573  0.2759 -0.1609  0.2406
18035W        W27728  11.817  15.500  13.555  0.4086 -0.0178 -0.0629
18036W        W27729   9.483  15.398  16.321 -0.1882  0.2470  0.2297
18037W        W27730   6.312   7.534  13.316 -0.2161  0.1152  0.0225
18038W        W27731  14.176  14.649  14.366 -0.1094 -0.3288  0.1775
18039W        W27732   3.354   1.885  12.747 -0.0055 -0.2063 -0.1343
18040W        W27733   5.427  15.117  14.774 -0.2512 -0.0742 -0.0434
18041W        W27734  11.301   0.731  16.894 -0.0880 -0.1504  0.1896
18042W        W27735  17.793  11.860  16.163  0.3146  0.1086 -0.0150
18043W        W27736   4.067   7.181   4.873 -0.0192  0.0626  0.1220
18044W        W27737   6.325  12.720  13.161 -0.3863 -0.2083  0.3047
18045W        W27738   9.192  11.763  14.174 -0.1271 -0.3619 -0.0146
18046W        W27739  14.330  12.562   2.962 -0.4261 -0.0820 -0.0966
18047W        W27740  16.957   8.791  16.143  0.2517  0.1687 -0.1854
18048W        W27741   7.162   7.030  15.960  0.1016  0.0859 -0.0558
18049W        W27742  13.151  11.426   4.827  0.1271 -0.1079 -0.1704
18050W        W27743   9.489  17.906  13.713  0.0565  0.3115  0.2546
18051W        W27744   7.932   2.483   4.006  0.1339 -0.1066  0.2276
18052W        W27745   1.193   6.373  12.971 -0.0133 -0.0770  0.0665
18053W        W27746   7.767   9.242   3.643  0.2407  0.2610  0.1696
18054W        W27747   6.836   9.083  15.533 -0.0534  0.0452 -0.0596
18055W        W27748  12.981   8.995   3.944  0.0799  0.1012 -0.2921
18056W        W27749   6.081  16.782  15.257 -0.0847  0.0295 -0.0275
18057W        W27750   4.600  14.732  11.719 -0.1549  0.4478  0.1380
18058W        W27751   5.306   1.602  11.721  0.0184 -0.2591  0.1323
18059W        W27752   2.967   2.805   1.640 -0.1459  0.3042  0.2584
18060W        W27753   5.062  13.000   4.175  0.1268  0.1131  0.0405
18061W        W27754   9.115   8.996  16.468 -0.0842 -0.1460 -0.1247
18062W        W27755  16.300   2.884  11.437  0.1471  0.0612 -0.1003
18063W        W27756   3.349   7.541  15.308  0.1847 -0.2754  0.0807
18064W        W27757  11.624  15.552  12.938  0.0536  0.3924 -0.0227
18065W        W27758   4.497  12.071  16.561 -0.0131 -0.0456 -0.0000
18066W        W27759   0.692   0.039   4.989  0.2034  0.0021 -0.0682
18067W        W27760   1.596   2.437   3.725  0.1581 -0.3579 -0.1932
18068W        W27761   5.366   2.311  16.093  0.0073 -0.1673 -0.0486
18069W        W27762   1.262  14.812  13.740 -0.3132 -0.1472 -0.0817
18070W        W27763   9.229  15.720  15.028  0.2294  0.1220  0.0373
18071W        W27764   1.280   0.335   3.110 -0.2431  0.1594 -0.2495
18072W        W27765   1.650   8.765   0.283 -0.1666 -0.1224  0.1116
18073W        W27766  10.190   8.508  14.060 -0.2668  0.0104 -0.0573
18074W        W27767   6.866  10.088  13.633  0.1700  0.2520  0.0893
18075W        W27768   9.408   9.126   3.188 -0.2024 -0.4921 -0.0298
18076W        W27769   6.803   5.292  11.990  0.1279 -0.0148 -0.0146
18077W        W27770   9.715  16.331   1.498  0.1561 -0.1925 -0.0783
18078W        W27771  12.816   5.766  15.819 -0.1297 -0.0724 -0.1585
18079W        W27772   3.841   2.155  16.582  0.2768  0.2158  0.1289
18080W        W27773   0.031   0.359  14.431  0.0590  0.0348 -0.0377
18081W        W27774   2.006   8.833  16.635 -0.1888  0.0940 -0.1448
18082W        W27775   7.913  17.745  12.663  0.2441 -0.1070  0.0956
18083W        W27776   0.345   0.455  16.054  0.2025  0.1515  0.1626
18084W        W27777  14.180  10.838  11.694  0.0109 -0.1874 -0.2976
18085W        W27778   8.217   7.293  12.529  0.1139 -0.0343  0.2821
18086W        W27779   0.915  12.578  12.181  0.3189  0.0208 -0.1162
18087W        W27780  10.350  11.925   2.651 -0.0162  0.0689 -0.0028
18088W        W27781  10.078   4.253   2.098 -0.1605 -0.1599 -0.0044
18089W        W27782   0.531   3.258   1.170 -0.3814  0.1644  0.1574
18090W        W27783  12.084   2.887  14.162 -0.3928 -0.0353 -0.1406
18091W        W27784   8.997   1.693   4.027 -0.0269  0.2015  0.2299
18092W        W27785   6.197   9.991   3.488 -0.1266  0.1043 -0.0419
18093W        W27786   7.148   0.177   5.715 -0.3848 -0.3809 -0.0260
18094W        W27787  17.974  13.042   4.793  0.0267 -0.2205 -0.1175
18095W        W27788   7.955  13.871  13.636 -0.2081 -0.2976 -0.1347
18096W        W27789   1.638  16.986   3.849 -0.1668 -0.0878 -0.0772
18097W        W27790   4.047  17.852  14.782  0.0606  0.0430 -0.2240
18098W        W27791  17.018   3.003  15.569  0.1547 -0.2936 -0.2507
18099W        W27792   6.834  16.415   0.220 -0.0870 -0.0096 -0.0218
18100W        W27793   4.646   9.339   2.368  0.1099  0.1797  0.1332
18101W        W27794   0.393   3.418  13.067  0.0662  0.1647  0.0436
18102W        W27795  17.504  14.142   4.333 -0.2247  0.1164 -0.0100
18103W        W27796  14.805  10.049  11.304  0.2098 -0.1075 -0.2101
18104W        W27797   6.813   5.378   0.653 -0.0972 -0.1112  0.0826
18105W        W27798   3.079   7.393   3.189  0.2928  0.1967 -0.0240
18106W        W27799   9.629   6.341   1.602  0.1423  0.0042  0.1480
18107W        W27800  12.401   2.143   5.046  0.1149 -0.0160 -0.0053
18108W        W27801   8.143  12.715   5.810 -0.1161  0.1342  0.0675
18109W        W27802   5.713   6.807  13.042  0.2085 -0.1618 -0.1524
18110W        W27803  14.679  14.637  14.369 -0.0437  0.1600  0.0127
18111W        W27804  11.246   4.505  13.540 -0.1572 -0.2096 -0.0020
18112W        W27805   0.491   4.808   4.093 -0.0209  0.2527 -0.0611
18113W        W27806   1.060  14.543   0.525 -0.4937 -0.1087 -0.1685
18114W        W27807   4.804   4.532   4.233 -0.0769  0.0532 -0.0157
18115W        W27808   1.055   1.342   1.240 -0.0064  0.2325  0.1319
18116W        W27809   7.127  14.534   0.250 -0.1507 -0.1208  0.0604
18117W        W27810  16.304   3.881  14.811 -0.1672  0.0203  0.2816
18118W        W27811   6.067   8.748   4.342  0.0024 -0.0858 -0.1778
18119W        W27812   8.008  12.139   3.697 -0.0568  0.0546  0.0368
18120W        W27813   6.656   7.804   5.433  0.0264 -0.2072 -0.2982
18121W        W27814   6.943  10.948   1.368  0.3191 -0.0203 -0.3518
18122W        W27815  15.464   4.074   4.307 -0.2351 -0.1407 -0.0958
18123W        W27816   7.017  15.754  15.415  0.0639  0.2217  0.2415
18124W        W27817  16.005   4.353   2.121  0.2037 -0.4256 -0.1318
18125W        W27818  14.714  13.669   0.705 -0.2736  0.1576  0.4064
18126W        W27819   3.774   2.883  14.418 -0.1565 -0.0940  0.0163
18127W        W27820  17.895   8.730   5.205 -0.3651  0.3072 -0.0701
18128W        W27821  16.922  13.488  11.588  0.2091 -0.1418  0.1609
18129W        W27822  12.192   8.546   0.715  0.0872  0.0573  0.0533
18130W        W27823   4.464   8.560  15.301  0.2143  0.1207  0.1309
18131W        W27824   6.565  11.178  14.328  0.0875 -0.1357 -0.1162
18132W        W27825   2.628  17.227   0.612  0.2807  0.0980  0.1057
18133W        W27826   0.009  15.204   0.466  0.1825 -0.3426 -0.2183
18134W        W27827  10.595  17.650   2.317  0.0442  0.0507 -0.2210
18135W        W27828   6.352   6.945   5.662  0.2197  0.0224 -0.1374
18136W        W27829   1.062  15.649   1.358 -0.0418  0.1888 -0.2333
18137W        W27830  10.701  15.123  16.316  0.1522  0.3675 -0.0860
18138W        W27831  10.497   1.931   3.644 -0.1474 -0.0774 -0.2469
18139W        W27832   0.455   1.730   2.082 -0.0450 -0.0453 -0.3737
18140W        W27833   0.937  13.101   1.261  0.1598  0.0814 -0.2294
18141W        W27834   1.944  17.479   5.205 -0.0213  0.0217 -0.1830
18142W        W27835  12.881   6.361  11.526 -0.1542  0.0035 -0.2335
18143W        W27836   3.424  16.580   2.809  0.3955 -0.2147 -0.0524
18144W        W27837   0.201   7.926  13.511 -0.0888  0.0937  0.0939
18145W        W27838   8.505  15.636  16.850  0.1999 -0.1667 -0.0687
18146W        W27839   7.051   8.114   4.142  0.0462 -0.0130  0.0663
18147W        W27840   3.405   4.629  15.639 -0.0884 -0.4684  0.1570
18148W        W27841   7.453  17.455  12.477  0.1460  0.1664  0.0355
18149W        W27842   1.713   3.406  13.689 -0.1078  0.3689  0.2733
18150W        W27843  13.328  13.922  14.477  0.0642 -0.0620  0.2194
18151W        W27844  11.583  17.708  17.097 -0.0655  0.1504  0.3400
18152W        W27845  11.716  14.703   6.096 -0.2254 -0.1899 -0.0258
18153W        W27846  16.522   2.764   1.179 -0.0591 -0.2067 -0.1878
18154W        W27847   5.738  13.509  11.445  0.1314 -0.0008 -0.0399
18155W        W27848   6.581   8.263   6.303 -0.0603  0.1843  0.0552
18156W        W27849   2.468   0.025  11.935  0.2801  0.1163  0.0272
18157W        W27850   3.748  15.463   2.511  0.0724  0.2481 -0.0282
18158W        W27851   4.429   8.893   2.491  0.0494 -0.1497  0.2325
18159W        W27852   8.926   5.737  14.676  0.2662  0.2337 -0.2627
18160W        W27853   7.406   9.157   4.878 -0.0681  0.1174  0.1119
18161W        W27854  10.771   2.261   2.654  0.1349 -0.0557  0.1088
18162W        W27855  14.748   2.290  16.042 -0.0762  0.0070  0.2579
18163W        W27856  14.589  17.345  15.710  0.2076  0.0541  0.0092
18164W        W27857   3.277  11.116   3.389 -0.1024 -0.0292 -0.2700
18165W        W27858  14.832  10.281   6.348  0.1584 -0.0640 -0.0160
18166W        W27859  10.358   1.587  11.559  0.0838 -0.0510  0.1661
18167W        W27860   7.763   4.327   4.081 -0.0655 -0.1475  0.0436
18168W        W27861  17.013   7.358  13.727 -0.0325 -0.0638 -0.1283
18169W        W27862   5.855   0.842  11.936 -0.0039  0.2828 -0.0852
18170W        W27863   6.829   5.450   0.119  0.0921  0.0164 -0.3983
18171W        W27864  11.167  12.001  13.035 -0.2445 -0.1928  0.0356
18172W        W27865   5.787  12.349  12.104  0.0165  0.2465 -0.0620
18173W        W27866  11.061   8.812   2.205 -0.1016  0.1477 -0.1754
18174W        W27867   6.369  17.195  17.063  0.1783 -0.0557  0.3228
18175W        W27868  15.564   9.892  15.402  0.0012  0.1891 -0.4005
18176W        W27869   0.838  14.194   3.400  0.0804  0.0321 -0.4451
18177W        W27870  12.664   3.204   3.152 -0.0285  0.0753  0.1669
18178W        W27871  10.489  12.376  14.416  0.0779 -0.0755  0.2370
18179W        W27872  10.535   6.716   6.105  0.2443 -0.0368  0.0152
18180W        W27873  12.623  15.784  15.939 -0.1595  0.0080  0.2248
18181W        W27874  13.148   5.474   0.630  0.0979  0.1454  0.0905
18182W        W27875   8.143   4.637   1.246 -0.0867  0.1106 -0.0342
18183W        W27876   0.150  11.074   0.013  0.0225 -0.3344  0.2190
18184W        W27877   5.192   3.680  13.896  0.3172 -0.0694  0.0067
18185W        W27878   7.184   1.375   6.048  0.1868  0.2423  0.3056
18186W        W27879   4.132  15.057  10.427  0.0859  0.2856  0.0702
18187W        W27880   9.909   1.234   4.360  0.1656 -0.4571 -0.2833
18188W        W27881  12.652  17.636  10.969  0.0150  0.3041 -0.0283
18189W        W27882   3.879  14.418  14.625  0.1899  0.0818  0.0761
18190W        W27883   3.204   5.997  13.936  0.0298 -0.1214 -0.2692
18191W        W27884   7.546   2.229  12.863 -0.0712  0.1588 -0.0066
18192W        W27885   8.895  14.116   2.791 -0.2283 -0.1236 -0.1426
18193W        W27886   5.074   5.811  13.784  0.3866  0.1378  0.3996
18194W        W27887   9.387   5.526   3.246 -0.2273  0.0192 -0.1887
18195W        W27888  17.570  16.509   5.961  0.0621  0.2640 -0.1058
18196W        W27889   6.502  11.571   1.865  0.1872  0.1349 -0.0314
18197W        W27890   1.234   8.735   6.072  0.2166 -0.0332  0.1887
18198W        W27891   6.385  10.926  15.259  0.0686 -0.1865 -0.0807
18199W        W27892   3.781   0.472   3.913 -0.3942 -0.0251 -0.5347
18200W        W27893   6.119   0.243   1.702 -0.2810  0.1452  0.1270
18201W        W27894   6.002   4.757   3.844  0.1685 -0.2292  0.0755
18202W        W27895   4.008   5.313  12.354 -0.1841  0.0944 -0.1783
18203W        W27896   2.652   0.682   1.169  0.0287 -0.1254 -0.0137
18204W        W27897   3.558  13.868  13.897 -0.1549 -0.1324 -0.1611
18205W        W27898   4.886   7.824   1.388  0.0705 -0.1727 -0.1472
18206W        W27899  11.065   5.506   6.094 -0.1439  0.0354  0.2819
18207W        W27900   2.538   3.131  11.948  0.0444 -0.0778 -0.2421
18208W        W27901   1.919   4.535  12.924 -0.1519  0.4037  0.0804
18209W        W27902   1.580  14.646  15.619 -0.0719  0.0409 -0.0254
18210W        W27903   7.674   1.655   0.897  0.1274 -0.0125  0.1156
18211W        W27904   7.558   6.094  13.431 -0.0686  0.0962  0.1029
18212W        W27905   3.901   4.820   2.790  0.1727 -0.0125  0.0357
18213W        W27906   3.224   5.236   3.435  0.1433  0.0166 -0.2503
18214W        W27907   3.812   3.291  12.697 -0.3104 -0.1925 -0.1190
18215W        W27908   2.370  14.092   0.429  0.0327  0.4598  0.3383
18216W        W27909  17.844   5.743   1.967 -0.0679 -0.1775 -0.0125
18217W        W27910   8.001   4.313   2.795 -0.0955  0.0248 -0.2165
18218W        W27911   4.299   6.446   6.138  0.0447  0.0755  0.1152
18219W        W27912   1.733  12.343   2.587  0.0604  0.0063  0.0941
18220W        W27913   4.200  13.834   3.027 -0.0962  0.2007 -0.1603
18221W        W27914   3.633   6.976  14.197 -0.1909  0.0752  0.2862
18222W        W27915   5.683   1.855  14.412  0.0688  0.0420  0.3329
18223W        W27916  11.279  16.165   2.885 -0.2715  0.2514  0.2849
18224W        W27917  14.885   5.538  16.422 -0.0946 -0.0635 -0.0666
18225W        W27918  14.139  12.498  12.815 -0.1179  0.1967 -0.2371
18226W        W27919  11.772   7.127  15.205  0.0289 -0.0252 -0.3020
18227W        W27920   7.506   5.481   1.365  0.2018 -0.1782 -0.1028
18228W        W27921   7.845   0.899   1.085 -0.2312 -0.0239 -0.3291
18229W        W27922   6.115  15.662   5.662 -0.0811  0.2665 -0.2471
18230W        W27923   5.485  13.434   6.213  0.1102  0.0906 -0.2778
18231W        W27924  13.561   6.019  13.931 -0.0346  0.1763  0.1907
18232W        W27925  10.502  17.703  14.017  0.2259 -0.1079  0.1096
18233W        W27926  16.216  13.990   3.914  0.1498  0.0272 -0.2024
18234W        W27927  16.436   0.001  15.105 -0.0243 -0.1227  0.0230
18235W        W27928   1.970   2.221  14.329 -0.1587 -0.0884 -0.2253
18236W        W27929  12.092   2.063  14.820 -0.0444 -0.1482  0.3927
18237W        W27930   5.775  15.583   6.233 -0.2963  0.2274 -0.0346
18238W        W27931   2.832   0.866  15.519  0.0722 -0.0242  0.0502
18239W        W27932   0.799  13.596   1.758  0.4147 -0.0223 -0.0835
18240W        W27933   2.879   2.536  14.500 -0.1515 -0.1594  0.0772
18241W        W27934  11.745   3.789   1.019 -0.6488  0.1413 -0.3633
18242W        W27935  11.944  17.508  13.420  0.2634 -0.1104 -0.2282
18243W        W27936   5.439   7.881  14.381  0.1167  0.1220 -0.0547
18244W        W27937   9.912  17.675  13.878 -0.2504 -0.0295  0.0869
18245W        W27938   3.521   5.409  12.645 -0.2612 -0.0787 -0.2780
18246W        W27939   5.463  14.225  17.065 -0.3294  0.2785  0.1366
18247W        W27940   3.355  12.577   0.062 -0.0305 -0.2057  0.1346
18248W        W27941   4.658   1.965  14.704 -0.0931  0.2791  0.1312
18249W        W27942   9.708  17.561   0.821  0.1192  0.2702 -0.2467
18250W        W27943   4.784  17.968  16.610 -0.0473  0.0690 -0.3797
18251W        W27944  10.480   6.195   5.806 -0.1676 -0.2216  0.1673
18252W        W27945  12.958   0.277   5.778  0.0286 -0.0153  0.0809
18253W        W27946   8.065   7.835   0.420  0.0717 -0.0935 -0.0807
18254W        W27947   7.030   3.673   4.517 -0.0161  0.2752  0.0827
18255W        W27948   4.093  15.839   0.565 -0.0993 -0.0310 -0.0176
18256W        W27949   3.362  10.653  10.967 -0.2065  0.0159 -0.0297
18257W        W27950   7.530  13.255   1.747  0.1443 -0.0108 -0.4372
18258W        W27951   2.363  17.084  13.463  0.3847  0.1673 -0.2090
18259W        W27952   7.108   0.614  13.822  0.2550 -0.1817  0.2111
18260W        W27953  10.745  11.484  14.162 -0.0762 -0.3987 -0.1047
18261W        W27954   2.400   1.928   1.859 -0.3058 -0.1213 -0.2752
18262W        W27955  14.139   3.360  15.379 -0.3884 -0.0404  0.3491
18263W        W27956   7.071   4.163  11.993 -0.1393 -0.1958 -0.3061
18264W        W27957   3.945  11.494   5.638  0.1361 -0.2969 -0.0456
18265W        W27958   2.224   3.511   3.043 -0.5058  0.2233  0.1537
18266W        W27959  13.115  11.264  12.844  0.2797  0.0010  0.0173
18267W        W27960   6.128   4.819  15.293  0.1972 -0.2108  0.0614
18268W        W27961   5.622   4.563   1.903 -0.2118  0.0132 -0.0221
18269W        W27962   5.357  17.017  11.939  0.0009  0.3085  0.3449
18270W        W27963  14.286   2.572  12.604  0.2041 -0.1406 -0.3289
18271W        W27964   7.218   8.603   4.236  0.1534 -0.1713 -0.1358
18272W        W27965  11.781  14.376   3.512 -0.1361  0.2606 -0.0909
18273W        W27966  14.447  11.999  10.595  0.1694 -0.1659 -0.1486
18274W        W27967   0.851   6.084  14.007  0.3157 -0.2976  0.1448
18275W        W27968   2.106  12.609   0.489  0.0554 -0.2710  0.0261
18276W        W27969  11.064  16.904  14.201  0.1417  0.1871  0.1815
18277W        W27970  10.087  16.410   0.757  0.1457 -0.1270 -0.3420
18278W        W27971   9.864  17.830  15.481 -0.1798  0.0677 -0.1331
18279W        W27972   2.974  15.371  15.996 -0.0137  0.0302 -0.0150
18280W        W27973   8.078   6.171   4.850 -0.1996  0.0679  0.2762
18281W        W27974   3.585   0.176  11.154  0.1778  0.1150 -0.1333
18282W        W27975   2.257  11.525  16.156  0.1500  0.1595  0.1897
18283W        W27976  16.477  11.763   4.739  0.0233  0.2806  0.1005
18284W        W27977  10.693  16.681  12.454 -0.0074  0.2861 -0.2404
18285W        W27978   4.316  14.632  17.093  0.3006 -0.1472  0.0420
18286W        W27979   2.849  17.038  17.103 -0.3437 -0.2397  0.1844
18287W        W27980  11.457  11.121   2.412  0.0214 -0.3061 -0.1609
18288W        W27981   4.841  17.096   5.036  0.3255  0.1637  0.0640
18289W        W27982   5.101  14.590  15.507  0.0454  0.1016  0.0695
18290W        W27983   4.565   0.250   4.915 -0.3670  0.2681  0.2708
18291W        W27984  15.394   2.902   0.395 -0.1544 -0.1764  0.0592
18292W        W27985   5.024  13.119   6.242  0.2028 -0.2764  0.0761
18293W        W27986   6.055   7.058   0.127 -0.0590  0.2605  0.0187
18294W        W27987   4.291  10.072  12.713 -0.0409  0.1579 -0.1235
18295W        W27988  16.012   1.942   0.274 -0.1964  0.1717  0.0711
18296W        W27989   8.942   0.219   0.559  0.1640 -0.0089  0.4367
18297W        W27990   3.081   6.507   5.121  0.1133 -0.1231  0.0888
18298W        W27991  10.699  12.101   0.576 -0.2478 -0.1594  0.1652
18299W        W27992  14.885  12.506   0.404 -0.0906  0.1153 -0.1105
18300W        W27993   6.250   0.412  12.863  0.1644 -0.1164  0.2823
18301W        W27994   7.491  15.874  17.101  0.1474  0.1160  0.1467
18302W        W27995   6.036  10.657  16.552  0.2744  0.0174 -0.0428
18303W        W27996   2.691   7.563   6.120  0.0268  0.0935  0.0390
18304W        W27997  14.469  13.845   3.180  0.0375  0.1377  0.0185
18305W        W27998   0.462   9.327   3.889 -0.3684 -0.0029 -0.0495
18306W        W27999   0.050   3.060  15.546 -0.0108 -0.0032 -0.3120
18307W        W28000  15.274  16.203  14.573  0.0561  0.3325  0.0801
18308W        W28001  12.905   4.375   3.251  0.1108 -0.1765  0.0093
18309W        W28002   5.458  11.752  13.248  0.1060 -0.0919 -0.2332
18310W        W28003   0.468  12.288  16.730  0.2639  0.0206 -0.0725
18311W        W28004   9.228   7.726   2.437 -0.0226  0.2446 -0.3695
18312W        W28005  17.491   4.712  16.284 -0.0115  0.0560  0.0997
18313W        W28006   6.516   3.718  12.954  0.2930  0.2304  0.0625
18314W        W28007  11.630  13.937   4.244  0.3521  0.1957 -0.1177
18315W        W28008   8.876   8.443   6.003 -0.0899 -0.0816  0.0087
18316W        W28009   6.585  11.813   3.665 -0.0288 -0.2628 -0.0238
18317W        W28010  17.572  11.923   2.579 -0.2328  0.1161 -0.0138
18318W        W28011   8.082  12.271   2.973 -0.4076  0.1850 -0.1733
18319W        W28012   1.488  16.370   1.956  0.3822  0.1455 -0.0886
18320W        W28013  15.049  17.162  15.499  0.2505 -0.0372  0.1712
18321W        W28014   3.596   1.257  15.607 -0.1699 -0.1657 -0.0596
18322W        W28015   6.043   3.995   1.140 -0.5000  0.0396  0.0389
18323W        W28016   9.112  17.479   3.453  0.5128 -0.1218  0.0618
18324W        W28017   4.558  15.034  14.414  0.0516 -0.2623 -0.0356
18325W        W28018   4.770  11.636  12.113  0.2610 -0.2624  0.0497
18326W        W28019   2.592  12.730  13.492 -0.3070 -0.2031 -0.0649
18327W        W28020  11.590  11.118   4.383 -0.1460  0.1075  0.1778
18328W        W28021  13.400  13.178  12.745  0.2733  0.1942 -0.0495
18329W        W28022  10.872  14.657  16.386 -0.0173  0.2086  0.0339
18330W        W28023   2.987  16.931  15.531  0.0426  0.0029  0.0288
18331W        W28024   8.894  17.846   5.751 -0.1204 -0.0996  0.0455
18332W        W28025   3.478  14.349  14.081 -0.1960  0.0558  0.1769
18333W        W28026  11.357  10.619   0.845  0.2025  0.2607  0.2644
18334W        W28027   1.267   9.667   3.344 -0.1503  0.0117 -0.1150
18335W        W28028   5.626  17.763  15.451  0.0684 -0.0412  0.1133
18336W        W28029   9.985  14.142   5.707 -0.2487  0.2470  0.1104
18337W        W28030   3.435   4.039   3.914 -0.0434 -0.1348  0.0411
18338W        W28031   2.690  17.072   6.701  0.3297  0.4531 -0.1249
18339W        W28032   1.312  12.510  12.888 -0.1899 -0.0842 -0.1229
18340W        W28033   8.897  14.396   4.487  0.2884 -0.1022 -0.1585
18341W        W28034  12.606   1.564   5.632  0.1103  0.0397  0.1974
18342W        W28035  10.011   2.428   4.111 -0.1260  0.1697  0.0288
18343W        W28036   5.351   9.612  15.583 -0.0875 -0.0324  0.2666
18344W        W28037  16.284   7.947   3.095 -0.1313  0.0190 -0.0319
18345W        W28038   2.771   8.993  14.927 -0.0424 -0.1431 -0.1932
18346W        W28039  14.881   2.526  17.109 -0.0074  0.0385 -0.2757
18347W        W28040   1.031   1.095   2.703  0.0988  0.0305  0.1020
18348W        W28041   4.050  16.733   3.799 -0.3085 -0.2318 -0.3473
18349W        W28042   7.676  14.005  13.978  0.1246 -0.0328 -0.1331
18350W        W28043  14.308  15.138   0.546  0.3102 -0.1745  0.1520
18351W        W28044   5.408   0.105   0.115 -0.0916  0.4387  0.0848
18352W        W28045   3.731  12.165  14.016  0.2042  0.1697  0.1867
18353W        W28046   9.611   9.981  11.660  0.1161 -0.0372 -0.1235
18354W        W28047  14.542   7.584   0.159  0.3194  0.1330  0.2455
18355W        W28048  10.675  13.252  13.312  0.0267 -0.2457  0.0521
18356W        W28049   7.057   8.338   4.680 -0.1310 -0.0644 -0.5659
18357W        W28050  13.017   6.441  15.446 -0.0546 -0.0844 -0.0741
18358W        W28051  15.475  12.427   2.867  0.0763 -0.1690  0.1298
18359W        W28052   8.614   4.136  15.692 -0.0300  0.0584  0.2733
18360W        W28053  15.748   2.474  12.527  0.0572  0.2108 -0.0539
18361W        W28054  12.635  13.456   4.347  0.0996 -0.2043  0.0716
18362W        W28055   9.073  15.514   2.922 -0.2839 -0.1349 -0.1170
18363W        W28056  15.136   3.281   0.994 -0.0370 -0.3822  0.0157
18364W        W28057   1.888   6.549  13.644 -0.0452  0.2558  0.1794
18365W        W28058   7.881   3.232  12.165  0.0882 -0.0078 -0.0330
18366W        W28059  12.609   8.720  14.258  0.1809 -0.3458 -0.2035
18367W        W28060  13.497  12.897   2.889  0.4419  0.1257  0.0647
18368W        W28061  10.051   1.611   6.668  0.3042 -0.0519  0.1148
18369W        W28062   3.157   1.730   3.712 -0.2529  0.1377 -0.2537
18370W        W28063   2.748  14.788  17.008 -0.1570  0.0207 -0.1028
18371W        W28064   5.046   2.879   4.108 -0.2381  0.0881 -0.1303
18372W        W28065  10.944   5.772  14.525  0.1669  0.1432 -0.0382
18373W        W28066  11.354   4.366   0.359 -0.1195 -0.1599 -0.0127
18374W        W28067  13.766  12.396  11.144 -0.2797 -0.2506  0.2383
18375W        W28068   2.230  11.174   0.419 -0.2925  0.1832 -0.1647
18376W        W28069   4.811   7.678   4.796  0.0400 -0.0467 -0.2304
18377W        W28070  12.139  14.377  15.170  0.2827 -0.1706 -0.0928
18378W        W28071   4.799   1.690  14.032 -0.1925  0.1750 -0.0132
18379W        W28072   0.292   4.533   0.355 -0.3246 -0.1128 -0.1856
18380W        W28073   1.447  15.239  13.964  0.2074 -0.0942 -0.0496
18381W        W28074   4.723   8.608   4.791 -0.1317 -0.1095 -0.0423
18382W        W28075   9.194   3.728  12.446  0.0854 -0.0807 -0.1758
18383W        W28076   6.953  10.147   0.419  0.0289  0.0246 -0.2585
18384W        W28077   1.582   3.872  16.077  0.0243  0.1628 -0.2652
18385W        W28078   0.143   7.767   1.814 -0.2080  0.4002 -0.1710
18386W        W28079  10.382  13.226  16.999 -0.1095 -0.0178 -0.1699
18387W        W28080   6.700  13.329  16.333  0.0755  0.1050  0.1860
18388W        W28081  13.402  17.369  12.331  0.0212  0.1416  0.2588
18389W        W28082   1.376   0.728  10.800 -0.0135 -0.0313  0.1359
18390W        W28083   1.304  14.809   1.834  0.1881 -0.0572  0.1212
18391W        W28084  11.415  14.061  15.663  0.2606 -0.1806  0.1184
18392W        W28085  10.013  13.595  17.100 -0.0439  0.0565 -0.0688
18393W        W28086   1.719   0.698  17.112  0.3005  0.0558  0.2673
18394W        W28087   6.745  17.169  12.236  0.0282 -0.1546  0.1030
18395W        W28088  17.675  16.021  15.813 -0.1000 -0.1980 -0.0801
18396W        W28089  11.451   2.368  13.647 -0.2705 -0.2329 -0.1712
18397W        W28090   0.407  12.746  12.502 -0.3482  0.1974 -0.3671
18398W        W28091  16.254  14.423  12.143  0.0494 -0.1756 -0.1833
18399W        W28092  10.216   6.602  12.807 -0.3108  0.0552 -0.1211
18400W        W28093   8.093  15.642   2.585  0.0702  0.4078 -0.0524
18401W        W28094   8.233   7.341  14.260 -0.2220 -0.0719 -0.1098
18402W        W28095   6.766  13.651  16.665  0.1778 -0.1856  0.1052
18403W        W28096   2.499   1.808   5.456  0.3913 -0.0582  0.0513
18404W        W28097  12.941  17.497   0.572 -0.1391 -0.1395 -0.1569
18405W        W28098   7.256   8.922  14.814 -0.0432 -0.1920  0.2112
18406W        W28099   6.490   5.556   4.350  0.0535  0.0408 -0.0179
18407W        W28100   0.476   8.131   4.178  0.0182 -0.0856  0.0444
18408W        W28101   2.425  10.068   1.494 -0.0243 -0.2267  0.1247
18409W        W28102  12.637   7.973  13.736 -0.5040 -0.0904 -0.0220
18410W        W28103  12.507   1.404   1.840  0.0087 -0.1266 -0.1023
18411W        W28104   8.817   0.282  16.096 -0.1144  0.0279  0.0328
18412W        W28105  12.655   6.955   1.312 -0.1056  0.0754 -0.0384
18413W        W28106  10.025   1.110  10.300 -0.3187  0.0104  0.1015
18414W        W28107   0.461  17.402  12.992 -0.0090 -0.1008  0.3226
18415W        W28108   5.837   1.500  14.093 -0.1126  0.0961  0.1206
18416W        W28109   3.875  14.552   5.698 -0.2512 -0.2406  0.1150
18417W        W28110  16.720   2.275   5.305  0.2774 -0.1026 -0.0957
18418W        W28111   8.311   0.040  11.108  0.0434 -0.0619  0.0998
18419W        W28112   6.565  13.874   5.435 -0.0195 -0.1299 -0.0453
18420W        W28113  16.091   1.952  14.963  0.0576  0.1920 -0.2764
18421W        W28114   5.109  11.504  16.778  0.0574  0.0452 -0.1440
18422W        W28115   4.595  16.042  11.884  0.2585 -0.0033  0.1101
18423W        W28116   6.157   3.264   3.637  0.2568  0.3181 -0.1733
18424W        W28117   7.328   5.064  12.220  0.1085 -0.1196 -0.0188
18425W        W28118   2.897   4.025   2.784  0.0155  0.2502  0.2795
18426W        W28119  14.189  14.439   2.229  0.0193  0.0188  0.2556
18427W        W28120  15.822   9.877   0.994 -0.2574 -0.0367  0.0850
18428W        W28121   9.254  11.874   1.346 -0.2555  0.1398 -0.3396
18429W        W28122  17.730  13.860   0.716 -0.2077  0.1361 -0.0614
18430W        W28123   1.405   9.578   5.892 -0.2179  0.0253 -0.0072
18431W        W28124   6.226  15.831  13.686 -0.2162  0.0967 -0.2200
18432W        W28125   8.120  10.147  13.771  0.0443  0.0592  0.0059
18433W        W28126   4.168   4.776  12.347 -0.0170  0.0983 -0.2628
18434W        W28127   5.581   2.682   4.103 -0.1099 -0.2009 -0.2309
18435W        W28128   4.618   7.632   5.245  0.2175  0.1820 -0.2852
18436W        W28129   7.421   6.916  16.952 -0.1516 -0.3952 -0.0822
18437W        W28130   2.556  16.553  15.767 -0.0982  0.1084  0.1612
18438W        W28131  12.182   4.383  13.325  0.2252  0.0933 -0.1175
18439W        W28132   3.941   1.300   4.882  0.1898 -0.0928 -0.4342
18440W        W28133  10.100  14.689   4.198  0.1088  0.1615  0.1969
18441W        W28134   5.879  13.255   6.390 -0.2456 -0.0037  0.1421
18442W        W28135   9.181   2.144  13.047  0.1410 -0.0145  0.1066
18443W        W28136   5.489   4.871   5.776 -0.1023 -0.0902  0.0501
18444W        W28137   5.491   0.310   4.645  0.0878  0.2766  0.0374
18445W        W28138   3.221   9.219  11.992 -0.1509  0.1245  0.1960
18446W        W28139   1.677  13.983  12.027  0.0115  0.1291  0.0111
18447W        W28140   8.541  12.240   0.723 -0.1657 -0.2231  0.1449
18448W        W28141  10.800  12.599   6.785 -0.1437 -0.1534  0.2895
18449W        W28142   5.350   0.411   1.686 -0.0153  0.2297 -0.0535
18450W        W28143  13.154  10.144  16.022  0.1002 -0.1618  0.1186
18451W        W28144   6.827   8.973   1.362  0.1545 -0.2232 -0.2348
18452W        W28145  11.001   6.215   0.606  0.1178  0.0140  0.2864
18453W        W28146  17.374  11.922   3.320  0.2282  0.1439  0.4018
18454W        W28147  10.214   1.920  14.719  0.0259 -0.0776  0.1439
18455W        W28148  15.402  14.174  16.820 -0.2960  0.2650  0.0918
18456W        W28149  14.878  13.332   0.047  0.3198 -0.1448 -0.0281
18457W        W28150   7.149  10.752  14.775  0.1986 -0.1558 -0.2767
18458W        W28151  11.560   9.292   1.149  0.1490  0.0247  0.1155
18459W        W28152  15.340  11.462  13.590  0.1918  0.0200 -0.1407
18460W        W28153   6.122   5.356  12.270 -0.1602 -0.1056  0.1982
18461W        W28154  10.393  16.125   0.475 -0.3201 -0.1819 -0.1539
18462W        W28155   5.628   6.384   1.750  0.1673  0.1149 -0.0302
18463W        W28156  15.081   5.045   1.236 -0.1352 -0.0628 -0.0608
18464W        W28157   3.524   6.352  13.534 -0.0453 -0.1960  0.3955
18465W        W28158  11.598   8.201   2.476 -0.3614 -0.2994 -0.2259
18466W        W28159   0.363   7.835  15.576  0.2806 -0.2381 -0.1168
18467W        W28160   4.875   0.382   1.740 -0.0635  0.1947 -0.0816
18468W        W28161   4.352   9.748   6.073 -0.0733  0.1370 -0.1004
18469W        W28162   3.736   2.866  13.586 -0.2943  0.1830  0.0681
18470W        W28163   8.146   2.698   3.132  0.0116 -0.0021 -0.0104
18471W        W28164   6.297  12.222  14.090  0.2643 -0.2995 -0.2069
18472W        W28165  11.765   4.257  13.552  0.3358 -0.1011 -0.0526
18473W        W28166   1.174  16.449   5.569  0.0904 -0.1604  0.2263
18474W        W28167  13.874  15.823   0.851 -0.0379  0.0471 -0.2072
18475W        W28168   7.523  13.889  16.087  0.1048 -0.3220  0.0388
18476W        W28169   8.329   8.446   4.173  0.2404  0.0446  0.2673
18477W        W28170   3.208   3.440   0.964  0.2786  0.1489  0.1174
18478W        W28171  13.573  10.474  17.084  0.1128 -0.0233  0.2912
18479W        W28172   4.270  17.536  15.995 -0.4063  0.1219 -0.2258
18480W        W28173   2.810  16.408   2.240 -0.2245  0.1422  0.0358
18481W        W28174  17.406   6.317  11.791 -0.2260 -0.0546 -0.1505
18482W        W28175   7.861  16.392  12.118  0.0018  0.2793  0.2069
18483W        W28176   7.438   4.668   2.490 -0.0068 -0.2107 -0.1645
18484W        W28177   6.823  11.888  12.056 -0.2876  0.0708 -0.0650
18485W        W28178   9.861   2.138   2.392  0.0466  0.0893 -0.0821
18486W        W28179   5.567   3.324  15.139  0.1811 -0.1753 -0.0638
18487W        W28180  10.456  14.466   4.679 -0.1410 -0.0706  0.3754
18488W        W28181   2.745  15.111   4.387 -0.1107  0.1917  0.1849
18489W        W28182  11.499  14.902   3.881  0.0535 -0.1575  0.5584
18490W        W28183   0.470   3.203  11.685 -0.0771 -0.3964 -0.1335
18491W        W28184   3.627  14.144  13.069 -0.0032 -0.0750  0.3286
18492W        W28185  17.635  16.478   4.666 -0.0278  0.1955  0.2475
18493W        W28186   7.695  16.251  15.066 -0.1428  0.2613 -0.0022
18494W        W28187  13.623  17.711  16.113  0.1219 -0.0120 -0.0673
18495W        W28188   9.159   5.989  13.795 -0.2360  0.0832 -0.1084
18496W        W28189  16.021   4.129  14.416 -0.1448  0.1310 -0.1070
18497W        W28190   3.486  15.356  11.965  0.2340  0.1587  0.1989
18498W        W28191   7.034   0.233  12.319 -0.0519  0.3089  0.1223
18499W        W28192   9.914   3.203  13.737 -0.2030 -0.0077 -0.0142
18500W        W28193   3.925  16.513   1.663 -0.1026  0.1998  0.0358
18501W        W28194   6.108  17.517   2.592  0.0324  0.0464  0.2932
18502W        W28195   3.597  13.783  12.047 -0.0792 -0.0759  0.1823
18503W        W28196   3.185   1.496  12.122  0.1971  0.1042 -0.0057
18504W        W28197   6.283   8.540   0.418  0.1152 -0.0234  0.0973
18505W        W28198   8.055   7.971   6.137  0.3266  0.2887  0.2976
18506W        W28199  10.190   7.099  13.020  0.0360 -0.0013 -0.1074
18507W        W28200   4.649  17.477  16.759  0.3397 -0.0410 -0.1681
18508W        W28201   7.880   8.003   0.843  0.0488 -0.0357  0.1428
18509W        W28202   9.148   9.289   1.323 -0.2598 -0.2432 -0.0951
18510W        W28203  10.336   4.006   3.542  0.2482 -0.1327  0.2244
18511W        W28204   2.517  14.505   3.138  0.0279 -0.1832  0.0981
18512W        W28205   6.741   2.551  15.361  0.1148  0.0870 -0.0927
18513W        W28206   7.348  15.129   4.251 -0.0246 -0.0905 -0.3146
18514W        W28207  10.413  14.115  13.347 -0.3436 -0.2614  0.1321
18515W        W28208   4.537   1.723   1.577  0.3741  0.0955 -0.0449
18516W        W28209   9.302   0.949  15.420  0.2127  0.1959  0.0895
18517W        W28210  17.524   9.552   1.255  0.1908  0.0711 -0.0807
18518W        W28211   6.609   4.220   6.550 -0.0766 -0.2200 -0.0513
18519W        W28212   6.977   1.094   4.835 -0.0114 -0.0184 -0.0177
18520W        W28213  12.230   3.098   3.569  0.2228 -0.1907  0.0084
18521W        W28214  15.862   7.390  15.605 -0.3901 -0.0734  0.2405
18522W        W28215   8.075   1.173  15.850 -0.1867 -0.0762 -0.0659
18523W        W28216  11.073  10.521  14.809 -0.2544 -0.2210  0.1331
18524W        W28217   2.646  13.211   3.353  0.1087 -0.0656 -0.2235
18525W        W28218   3.883   5.336  14.394 -0.1018 -0.2147 -0.1843
18526W        W28219   6.869   7.371   5.650 -0.0246 -0.1686  0.1027
18527W        W28220   9.110   3.860   5.980 -0.0432 -0.1317  0.1602
18528W        W28221   5.121   1.988  15.731 -0.0246  0.2155  0.0032
18529W        W28222   9.490  15.836   0.248 -0.1144 -0.0071  0.0757
18530W        W28223   7.642   3.642   0.062 -0.0778 -0.1471 -0.1988
18531W        W28224   6.872   2.815   4.053  0.4943 -0.0289 -0.2009
18532W        W28225   6.583   6.210   3.217  0.3020  0.0765 -0.2523
18533W        W28226   2.783   6.618  16.686  0.0656  0.0530 -0.1095
18534W        W28227   2.886   3.096  13.066  0.1985  0.0443  0.0983
18535W        W28228   8.812   3.785   4.159 -0.1087  0.2277  0.0520
18536W        W28229  12.549  17.333   4.907 -0.2208 -0.0091  0.2752
18537W        W28230   3.704  16.024   3.942 -0.3218 -0.1109  0.2375
18538W        W28231   7.936  14.746   1.606  0.0296 -0.0866  0.1116
18539W        W28232  14.943   3.719   0.727 -0.0350 -0.0406  0.3389
18540W        W28233  16.133  10.455   2.879 -0.2224  0.1782  0.1523
18541W        W28234  12.723  17.070   0.029 -0.1554  0.2050 -0.0520
18542W        W28235   3.466   8.703  15.316  0.0563 -0.0296 -0.6630
18543W        W28236   5.074   0.132   4.223  0.0289  0.2016  0.0442
18544W        W28237  10.443  12.730   5.467 -0.1895 -0.0740 -0.1503
18545W        W28238  16.169   0.034   1.816  0.2919  0.1776  0.0996
18546W        W28239   2.503   2.762  12.301  0.3471 -0.0364  0.2094
18547W        W28240   9.486   1.893  14.532 -0.1619 -0.0736 -0.0950
18548W        W28241  17.199   8.328   0.866 -0.0595 -0.3929 -0.3485
18549W        W28242  14.270  15.545  12.264  0.1625 -0.2083  0.1628
18550W        W28243   2.644  16.114   6.457 -0.1457  0.0153  0.1298
18551W        W28244  15.663  17.090   6.031 -0.0053 -0.1381  0.0271
18552W        W28245   5.427  17.707   2.361  0.1712 -0.0093 -0.2425
18553W        W28246   1.946  17.390  11.109  0.0636 -0.1281 -0.1042
18554W        W28247   3.033   6.017   5.004 -0.2174 -0.0831 -0.0745
18555W        W28248   5.907  12.088   0.080 -0.1805  0.1279 -0.0775
18556W        W28249  12.364   6.061  11.430  0.0939  0.3405 -0.2039
18557W        W28250   1.410  12.915   5.540  0.2248 -0.0744  0.0374
18558W        W28251   5.883   0.948  15.792  0.0209  0.1860  0.0361
18559W        W28252   2.460   9.926   4.711  0.1113 -0.0896  0.1240
18560W        W28253   9.814   6.249   3.497 -0.3057 -0.2098 -0.0497
18561W        W28254   7.565   3.790  15.859  0.0107  0.1408  0.0210
18562W        W28255   0.660   3.876   1.950  0.1329  0.2041  0.3364
18563W        W28256   7.157  12.310   1.335  0.0863 -0.0078  0.0891
18564W        W28257  17.524   5.268  16.078 -0.3372 -0.2057  0.0373
18565W        W28258   3.111   3.029   3.022 -0.4208  0.0385 -0.4599
18566W        W28259  17.020   9.282   0.329  0.0006  0.0955 -0.0813
18567W        W28260   8.227   9.737   2.714 -0.0406 -0.1097 -0.2595
18568W        W28261  15.966  12.186   3.752 -0.0733 -0.0093 -0.3048
18569W        W28262  10.899   6.423  12.962 -0.0728 -0.1286 -0.2132
18570W        W28263   4.367  11.758   4.004 -0.5599  0.0695 -0.4098
18571W        W28264  10.259  11.993   0.706  0.0129  0.0386 -0.2836
18572W        W28265   0.242  15.899  15.697 -0.0075  0.2830  0.2222
18573W        W28266   8.755  10.815  15.071 -0.1135  0.3104  0.0531
18574W        W28267   3.509  17.680   1.015 -0.0800 -0.0501 -0.0024
18575W        W28268  13.319  17.285   5.328 -0.1062  0.0365 -0.4224
18576W        W28269   2.468   4.599   2.735  0.0097 -0.0076  0.3018
18577W        W28270  11.948   2.039  16.996 -0.0011 -0.2356  0.0665
18578W        W28271   4.173  11.191  16.937  0.0403  0.0306 -0.1171
18579W        W28272   3.466  15.102   4.023  0.0177  0.0885  0.1732
18580W        W28273   0.427   9.739  12.131  0.0707 -0.1638 -0.1939
18581W        W28274  16.006  13.964  15.827  0.0334 -0.4924 -0.2977
18582W        W28275   5.562  11.887  14.764  0.2062  0.1018 -0.1642
18583W        W28276   5.072  16.106  11.929 -0.0147  0.3135 -0.1727
18584W        W28277  10.356  17.831  14.937 -0.0117 -0.2303 -0.0285
18585W        W28278   6.380   1.086  15.993  0.0540  0.1234 -0.2317
18586W        W28279  15.835   0.299   1.469  0.0377 -0.1335 -0.1468
18587W        W28280   6.027   5.195   1.389  0.0426  0.0424 -0.0196
18588W        W28281   3.479  10.229   5.950  0.2070 -0.0923  0.1215
18589W        W28282  13.512   3.113   5.028  0.0237  0.3189  0.0994
18590W        W28283   5.709   2.464   1.633 -0.1127  0.1843  0.1719
18591W        W28284   3.666  11.723  13.005  0.1297 -0.2057 -0.2012
18592W        W28285  13.260  13.036  13.571  0.0712 -0.2662  0.0170
18593W        W28286   8.390  13.589  16.694  0.0275  0.2693  0.1975
18594W        W28287   9.906  14.197   4.896  0.1903  0.2184 -0.0894
18595W        W28288   3.167   7.894   3.788  0.2220 -0.1322  0.2408
18596W        W28289   4.274   3.687   0.166 -0.0227  0.1564 -0.1810
18597W        W28290  12.479   0.515  16.286 -0.2377 -0.1931 -0.0480
18598W        W28291  16.859   3.759  10.773  0.0137  0.0282  0.2359
18599W        W28292   3.510   3.770  14.562  0.0395  0.0747 -0.0540
18600W        W28293   6.469  12.867  16.174 -0.0498 -0.1378 -0.2126
18601W        W28294   0.470   8.695   5.077 -0.2257 -0.2344 -0.2570
18602W        W28295  17.514   5.624  13.668  0.0582 -0.0638 -0.3111
18603W        W28296  17.608   0.058  11.917 -0.2546 -0.1477  0.1068
18604W        W28297   4.942  14.163  15.922 -0.1419  0.2259  0.3854
18605W        W28298  15.207   1.581   1.281  0.2927 -0.1755 -0.3200
18606W        W28299   9.371  15.705  14.508 -0.1952 -0.2473  0.1305
18607W        W28300   3.408   5.832  15.774  0.1294  0.0102 -0.0272
18608W        W28301  12.558   4.620  13.122 -0.1351 -0.0786  0.0025
18609W        W28302   5.526   9.825  12.207 -0.0863  0.0139 -0.0204
18610W        W28303   9.411  16.474   1.880  0.1831  0.1806 -0.3499
18611W        W28304   6.312  14.662  11.835 -0.2413  0.0320 -0.3627
18612W        W28305   7.194   6.751  13.727 -0.0295 -0.1678 -0.3533
18613W        W28306   9.806   1.208   0.060  0.1896  0.1829 -0.1277
18614W        W28307   5.599  10.025   0.393  0.0696 -0.3425 -0.3843
18615W        W28308   5.936  14.354  12.145  0.0218  0.0058  0.1598
18616W        W28309  12.021   0.450   0.521  0.2086 -0.2194  0.5714
18617W        W28310   9.503  10.251  14.575 -0.0009  0.0546  0.0432
18618W        W28311   3.641   0.630  14.349 -0.0373  0.1915 -0.1417
18619W        W28312   1.993  13.288  16.372  0.0722 -0.1202  0.0445
18620W        W28313   7.299   6.575  15.822 -0.1607 -0.2575  0.2184
18621W        W28314  16.063  11.509   1.915 -0.3361  0.1532  0.0048
18622W        W28315  12.259  17.088  13.855 -0.0233 -0.0751 -0.1402
18623W        W28316  12.433  10.959  10.961  0.0451  0.1476 -0.1387
18624W        W28317  16.157  10.907   3.088  0.1343  0.0378  0.0704
18625W        W28318  12.095  15.796   0.215 -0.0295 -0.0505 -0.0850
18626W        W28319  12.188   2.548  10.009  0.1987 -0.0476  0.1966
18627W        W28320  15.976   2.576  14.747 -0.0371 -0.0441 -0.2136
18628W        W28321   6.276   9.812   3.931  0.1265 -0.1851  0.0953
18629W        W28322   3.031   3.922  14.647 -0.0025  0.3485 -0.0744
18630W        W28323   9.121  16.156  16.914  0.1382 -0.0027 -0.3550
18631W        W28324  14.598   0.548  10.854 -0.1176 -0.2203  0.0060
18632W        W28325   6.167  13.075  15.302 -0.3797  0.3210  0.1453
18633W        W28326   6.864   8.888   3.239 -0.2241 -0.0041  0.0426
18634W        W28327  13.644  13.691  16.291 -0.1611  0.1248  0.4310
18635W        W28328   1.637   9.864   2.349  0.0448 -0.0145 -0.0588
18636W        W28329   0.434  12.330  15.061 -0.0149  0.3366  0.0578
18637W        W28330   5.642   6.564   0.936 -0.1351 -0.0846 -0.1961
18638W        W28331   5.117  17.502  15.505  0.2109  0.0653 -0.2536
18639W        W28332  12.013   4.624   2.063  0.2245  0.2267 -0.0870
18640W        W28333   0.401   7.059  11.926 -0.0651 -0.2346 -0.0275
18641W        W28334  16.469   3.585   3.771 -0.0445 -0.4209 -0.1604
18642W        W28335  12.257  16.028  11.801  0.0532  0.1258 -0.0270
18643W        W28336  17.336   8.855  11.183  0.0967  0.0296  0.3255
18644W        W28337   3.643   9.495  12.514 -0.2378 -0.0014  0.1754
18645W        W28338   3.390   4.819  16.143 -0.0951 -0.2005  0.1249
18646W        W28339   2.807   3.578  15.011  0.0005  0.2375 -0.0237
18647W        W28340   0.107  10.277  14.034 -0.0991  0.1825  0.2668
18648W        W28341   9.655  16.840   1.527  0.2084  0.0930 -0.1551
18649W        W28342   1.545  15.016   0.469 -0.1457 -0.0364  0.2091
18650W        W28343  14.169   2.812  16.465 -0.2310  0.0327 -0.0477
18651W        W28344   5.524  11.862  13.738 -0.0407 -0.0252  0.2358
18652W        W28345  12.553   1.484  13.240 -0.2633  0.0666 -0.0292
18653W        W28346  14.220   5.438  12.936  0.1146 -0.1902 -0.1724
18654W        W28347  16.388  14.100   0.272  0.1439  0.2832  0.5599
18655W        W28348   5.950  17.553  16.318  0.0729 -0.2761 -0.0262
18656W        W28349  17.457   9.306  15.162 -0.0645 -0.1397  0.0132
18657W        W28350   9.609  15.353  15.574  0.0048  0.0434 -0.0714
18658W        W28351   6.544   9.223  14.278 -0.0147 -0.1165 -0.1809
18659W        W28352   6.905   3.441   2.830  0.3723  0.1311 -0.0604
18660W        W28353   7.335  15.068  12.126 -0.1443  0.0685 -0.0435
18661W        W28354   3.403  13.836  14.777  0.0531  0.3397  0.1818
18662W        W28355   7.557   5.199   2.512 -0.0492  0.1320  0.1180
18663W        W28356   7.797   0.753  13.322 -0.2179  0.0583  0.2074
18664W        W28357   4.361   3.638   3.623  0.0186 -0.1577  0.0193
18665W        W28358   6.468  12.800  14.993 -0.2168  0.0719  0.0846
18666W        W28359  16.964  13.173  10.790  0.0010  0.0383 -0.2445
18667W        W28360   3.569  17.740  13.381 -0.2028  0.3851 -0.3633
18668W        W28361   5.916  16.108  12.438 -0.2330  0.3078 -0.1858
18669W        W28362  16.791   1.143  14.525  0.1708 -0.0849  0.1668
18670W        W28363   4.096  11.512  13.291 -0.3203 -0.1108  0.2582
18671W        W28364   5.949   7.716   3.276 -0.0204  0.2102 -0.3528
18672W        W28365  10.560   2.698   3.114  0.0825 -0.1817  0.0108
18673W        W28366  17.964  13.704   2.450  0.2180  0.2142 -0.2693
18674W        W28367  15.096  13.612  15.018 -0.3765 -0.1448 -0.0459
18675W        W28368   0.790  16.744  11.813 -0.1264  0.1087 -0.0765
18676W        W28369  17.352   3.979  15.208  0.3947 -0.2094 -0.2352
18677W        W28370   6.117  13.958  11.740 -0.2146 -0.0904  0.1151
18678W        W28371   2.098   5.427  11.840 -0.0114 -0.0273 -0.2883
18679W        W28372  17.852  14.794   0.680 -0.0298 -0.0463  0.0762
18680W        W28373   2.042   9.293  13.950 -0.3515  0.1563  0.1634
18681W        W28374   5.984  15.692   3.369 -0.1242 -0.2139 -0.1140
18682W        W28375  12.149  12.708   2.246 -0.0332 -0.0082 -0.1949
18683W        W28376  10.972   3.750   0.924  0.1881 -0.0332 -0.1384
18684W        W28377  11.101   3.501   3.915  0.1683 -0.0388  0.2554
18685W        W28378  15.524  17.089  16.086 -0.1734  0.3068 -0.1130
18686W        W28379   3.070   1.005  16.176  0.0093 -0.1075  0.1743
18687W        W28380  14.193   0.060  13.323 -0.0079  0.1499 -0.2118
18688W        W28381   3.473   0.540  13.676  0.0367  0.2299 -0.0421
18689W        W28382   6.418   7.297  13.807 -0.1163  0.0768  0.0299
18690W        W28383   0.024  14.506   4.364 -0.2126  0.0584 -0.1614
18691W        W28384   0.693  14.676  14.462 -0.5013 -0.2377  0.1510
18692W        W28385  14.989  10.362  13.854 -0.1181  0.1151  0.1570
18693W        W28386   7.851   1.761  13.974  0.0421 -0.2015 -0.3752
18694W        W28387   1.931  11.801   5.643  0.0104 -0.0676 -0.1500
18695W        W28388  11.179  17.809  16.281  0.1584 -0.0546  0.0406
18696W        W28389  14.941  15.671   3.194 -0.1126  0.0411  0.0980
18697W        W28390   5.254   4.679   4.455 -0.1604  0.1447  0.3882
18698W        W28391  13.623  13.375  15.882  0.0692 -0.1731 -0.2984
18699W        W28392  14.747   8.458   4.846 -0.1108 -0.0660  0.0311
18700W        W28393  13.550  14.172   4.389 -0.2437 -0.1025 -0.0625
18701W        W28394   7.089   3.333   1.950  0.1002  0.0710  0.2750
18702W        W28395  13.777  16.402  16.568 -0.1297  0.0088 -0.2924
18703W        W28396   9.476  17.872  16.913 -0.0342  0.2811  0.0480
18704W        W28397   8.037  13.598   1.002  0.1902 -0.0929 -0.1231
18705W        W28398  11.180   5.437  15.833  0.1197 -0.0563  0.0204
18706W        W28399   7.043  10.057  15.677 -0.0933 -0.2664 -0.0744
18707W        W28400   5.991  15.311   3.712 -0.1295  0.0960  0.1092
18708W        W28401   8.977   9.596   5.692  0.0514 -0.2193  0.2855
18709W        W28402   5.830   0.088   3.754 -0.0764  0.0594  0.1931
18710W        W28403  17.500   1.200  12.167  0.1493  0.0300 -0.4885
18711W        W28404  15.665  15.581  14.469 -0.0519  0.0573  0.4259
18712W        W28405  10.572   2.888   1.004 -0.0193  0.0882 -0.0133
18713W        W28406  11.621  13.230  11.874  0.0556 -0.2324  0.0726
18714W        W28407   9.791   0.178  13.422 -0.1187  0.3652 -0.1742
18715W        W28408   5.096   9.947  11.049 -0.1481  0.0279  0.0099
18716W        W28409   1.627   5.648   1.862  0.1592  0.2399 -0.2008
18717W        W28410   5.679   8.772  14.072 -0.3182  0.0859 -0.1077
18718W        W28411   0.279  10.995   5.453  0.0700  0.2029  0.6029
18719W        W28412   3.448  17.492  16.267  0.1943  0.1374 -0.0682
18720W        W28413   3.226   6.183   2.557 -0.0673 -0.0763  0.0004
18721W        W28414   2.166  16.636   4.102  0.0274 -0.0318  0.0933
18722W        W28415   2.701  10.720  15.151 -0.0436  0.1004 -0.3349
18723W        W28416   4.607   0.118  12.464 -0.1699  0.2075  0.1843
18724W        W28417  10.413  12.599  12.796 -0.3113 -0.1686 -0.0186
18725W        W28418   4.535   1.367   0.895  0.0158  0.0188  0.3040
18726W        W28419   7.780  10.616   1.741 -0.2297  0.1015  0.0331
18727W        W28420  15.536   1.881  16.166 -0.0409 -0.2848  0.0369
18728W        W28421   9.179   8.612  13.941 -0.2304  0.0127  0.3025
18729W        W28422   8.477  14.722   2.447 -0.0670 -0.1535 -0.0153
18730W        W28423   2.407   8.094   3.245  0.4444  0.3285 -0.2127
18731W        W28424   5.280  14.770  14.227  0.0434 -0.2552  0.1641
18732W        W28425   1.864  15.127  11.569 -0.1806  0.1642  0.1518
18733W        W28426  16.268   5.320   0.037  0.1853 -0.2200 -0.1942
18734W        W28427   7.201  11.611   0.391 -0.1000 -0.0250 -0.0372
18735W        W28428   6.919  12.265  15.750 -0.1360  0.5514 -0.0516
18736W        W28429  11.969   9.912   2.667  0.0111 -0.0166  0.1712
18737W        W28430  11.684  13.252   1.523  0.1218 -0.0569  0.0252
18738W        W28431   0.209  16.559   2.951 -0.0924  0.1880  0.3500
18739W        W28432   4.221  13.772   0.584 -0.1260  0.2401  0.0564
18740W        W28433   5.369   8.695   1.336  0.1019  0.1751 -0.4837
18741W        W28434  12.580  17.687   0.886 -0.2643  0.0380  0.3311
18742W        W28435   1.692   6.220   1.940  0.2504 -0.0309  0.1909
18743W        W28436   3.580   6.864   3.864  0.1839  0.3500 -0.1288
18744W        W28437   4.295   9.194   5.971  0.1482  0.1758  0.2059
18745W        W28438   0.197  16.340   0.557  0.2169 -0.0468  0.0084
18746W        W28439   5.434  10.092   1.829 -0.2834  0.1416  0.0448
18747W        W28440   3.180   2.720   0.794  0.0239 -0.1520  0.1905
18748W        W28441   2.883   5.045   1.744  0.0628 -0.1309 -0.2944
18749W        W28442   1.233   6.830   2.584 -0.1549  0.0463  0.1187
18750W        W28443   7.066   4.470   2.800  0.0819 -0.1849 -0.0592
18751W        W28444  13.741   7.948  13.154 -0.3702 -0.2031 -0.1278
18752W        W28445   0.005   4.567  13.350  0.2326  0.2309 -0.1362
18753W        W28446   2.181   9.874  16.793 -0.0372 -0.0798  0.2132
18754W        W28447  15.296  15.553   0.960 -0.2200 -0.1031 -0.2194
18755W        W28448  16.575  13.168  11.391 -0.2565  0.1441 -0.1757
18756W        W28449   6.382   4.434   3.848 -0.0645  0.1124 -0.0177
18757W        W28450   9.149  16.699  15.071  0.0153  0.2817  0.3761
18758W        W28451   5.619  12.026  11.747  0.1256  0.2770  0.1642
18759W        W28452   6.799  15.622   6.025  0.0503  0.1529  0.3283
18760W        W28453  10.016   4.925   4.731  0.2494 -0.0710  0.1754
18761W        W28454  17.630  10.066   5.264 -0.0848  0.1185 -0.2742
18762W        W28455   2.427  10.445  11.427 -0.0518 -0.0253 -0.0406
18763W        W28456   5.537   3.796   1.195  0.0139  0.2175  0.1454
18764W        W28457   2.616  12.625   1.458  0.3766 -0.0906 -0.1480
18765W        W28458  10.416  10.030   2.225 -0.1032  0.1619  0.3401
18766W        W28459   3.242   3.484  13.177 -0.1528 -0.0042  0.0828
18767W        W28460   8.038  11.285  14.225 -0.1508  0.0091  0.0177
18768W        W28461  16.233   5.698  12.197  0.1731 -0.1647  0.2892
18769W        W28462   8.808   6.374  15.256  0.1864  0.2553  0.1225
18770W        W28463   5.343   2.672  12.850  0.0385  0.3376 -0.0680
18771W        W28464   9.833   1.434   1.323  0.3502  0.4483  0.1591
18772W        W28465   6.207   2.382   6.048  0.0964 -0.0062 -0.1867
18773W        W28466   8.826   2.314   5.058 -0.1771 -0.0342 -0.1000
18774W        W28467   8.910  16.363   2.729 -0.0077 -0.0668  0.2017
18775W        W28468   0.484  15.490   1.646 -0.0403  0.0291  0.4678
18776W        W28469   2.691   8.695   1.447  0.0417 -0.1614  0.3829
18777W        W28470   6.311   8.796  16.059 -0.0954 -0.0203  0.2372
18778W        W28471   0.647  15.786  15.396  0.3575  0.1970  0.1475
18779W        W28472  17.271   1.773  10.351  0.2961  0.0456 -0.0915
18780W        W28473   2.845  16.439  11.735 -0.2037 -0.3048  0.3007
18781W        W28474   8.056  12.057  12.424  0.0582 -0.0411  0.0932
18782W        W28475   6.553   9.944  16.518  0.0427  0.0639  0.2889
18783W        W28476  17.364  13.102   3.187  0.1614 -0.1770  0.1104
18784W        W28477   5.880   3.445  14.797 -0.1761 -0.0450  0.1894
18785W        W28478   2.551  13.739   1.987  0.0911 -0.1974  0.1286
18786W        W28479   8.652  10.372  15.344 -0.2620 -0.1490  0.0144
18787W        W28480   2.313  13.656  12.904 -0.0670 -0.1370  0.1864
18788W        W28481  12.772  13.726  11.680 -0.2225 -0.2808 -0.1005
18789W        W28482   4.057   0.147  16.013  0.1936 -0.1216 -0.0388
18790W        W28483   5.243   6.006   1.767  0.0889  0.3457 -0.3245
18791W        W28484   2.805  10.877   4.328 -0.1732  0.0737  0.1168
18792W        W28485  10.719  13.837   3.093 -0.1599  0.1622 -0.0095
18793W        W28486  17.890  10.426   0.841 -0.0443  0.0026  0.1288
18794W        W28487   8.077   8.177   4.573  0.1613 -0.0682  0.0402
18795W        W28488  10.541  11.821  15.454  0.2061  0.0054  0.2343
18796W        W28489   2.297  12.520  11.650  0.0586 -0.0403 -0.0565
18797W        W28490   0.239  12.904  13.168  0.1786 -0.1983 -0.0137
18798W        W28491   3.182   0.265   3.092 -0.1316  0.1343  0.1814
18799W        W28492  10.900  11.224  16.854 -0.4068 -0.0048 -0.1336
18800W        W28493   3.163   3.198  16.999 -0.0190  0.3090  0.2685
18801W        W28494   6.038   6.993  16.735 -0.0285 -0.3161  0.2312
18802W        W28495   0.092  11.604  12.403 -0.1075  0.0858 -0.2516
18803W        W28496   7.862   3.092  15.562 -0.0509  0.1865  0.1474
18804W        W28497   9.880   9.103   5.804 -0.0098 -0.4311 -0.1261
18805W        W28498   4.617  16.494   5.806 -0.0409 -0.1057  0.1912
18806W        W28499  15.055   9.335  14.015 -0.0509  0.0923  0.0840
18807W        W28500  14.003   1.125  12.655  0.1637 -0.0398  0.3518
18808W        W28501   2.241   4.686  13.235 -0.0984 -0.2069  0.2449
18809W        W28502  10.044   5.072   5.286  0.1007 -0.2736 -0.1901
18810W        W28503  12.588  16.158   3.071 -0.0573 -0.2083  0.0783
18811W        W28504  12.962  15.231  14.748  0.5184 -0.0855 -0.1969
18812W        W28505   1.236   5.921   1.185 -0.5187  0.0748  0.3361
18813W        W28506   9.265  12.868  17.091  0.1131  0.1571 -0.0508
18814W        W28507   7.411  13.644  15.639 -0.1453 -0.0715 -0.0416
18815W        W28508   2.625   1.060   6.159 -0.0550 -0.0432 -0.1364
18816W        W28509  14.894   3.793   1.616 -0.0869 -0.0617 -0.0721
18817W        W28510  12.708   7.851  12.402 -0.0177  0.0448 -0.3981
18818W        W28511   2.524  12.328  14.109 -0.0152 -0.2052 -0.2797
18819W        W28512   6.543   4.261  16.559 -0.0239  0.0368  0.1910
18820W        W28513  10.311   2.101   3.238 -0.0226  0.0064 -0.1119
18821W        W28514   3.986  14.060   2.578  0.0099  0.2087  0.0735
18822W        W28515   0.955  11.641  15.627 -0.0111 -0.0994 -0.2142
18823W        W28516  12.056  10.222   1.298  0.0240  0.0400 -0.1910
18824W        W28517   8.020  13.307  12.282  0.0713 -0.2045 -0.2296
18825W        W28518   8.540   1.098   0.979  0.2731 -0.1325 -0.1662
18826W        W28519  10.213  15.169   3.934 -0.0306 -0.0464 -0.0813
18827W        W28520   3.222   0.152  14.816 -0.1049  0.0468 -0.2060
18828W        W28521   4.753  17.539  14.009  0.2365  0.1058 -0.0064
18829W        W28522   4.079   0.903   3.626 -0.2783 -0.0179  0.2046
18830W        W28523   8.220  17.527  15.100 -0.2345 -0.1540 -0.3610
18831W        W28524   6.522   9.473   5.344  0.1169  0.3624 -0.0105
18832W        W28525   1.417  17.085  14.608  0.3466 -0.0656 -0.2104
18833W        W28526   6.565  10.924  12.178  0.0467 -0.3057 -0.1187
18834W        W28527   7.882   9.439  13.117  0.2833  0.2044 -0.0398
18835W        W28528   6.611  10.941   0.286 -0.1792  0.0353  0.1819
18836W        W28529   5.933  16.492   4.510 -0.3287 -0.1274  0.0315
18837W        W28530  13.305   6.067  15.591  0.0018 -0.0863 -0.1275
18838W        W28531   6.027  14.130  13.852  0.1911  0.0936 -0.2646
18839W        W28532  10.645   5.031  14.132 -0.2653 -0.0307  0.0818
18840W        W28533   4.139  11.968   2.486 -0.1039 -0.0093 -0.0221
18841W        W28534  14.581   6.090   4.567 -0.1880  0.3495  0.0709
18842W        W28535   3.346  16.313   4.718  0.0597 -0.1363  0.1320
18843W        W28536   9.157  15.460   5.236 -0.0080 -0.0117 -0.1152
18844W        W28537  12.707   2.879   1.492 -0.0500  0.4590  0.1171
18845W        W28538   7.911   9.278   4.593  0.2335 -0.1653  0.1169
18846W        W28539  10.683   7.145   0.902 -0.3179  0.0127 -0.4057
18847W        W28540  15.425  14.999  15.197  0.1223 -0.1035  0.1566
18848W        W28541   0.470  17.073   3.840 -0.2240 -0.3427  0.1275
18849W        W28542   6.511  13.585  11.052  0.0542 -0.1470  0.2128
18850W        W28543  14.208  17.032   0.122  0.2035 -0.0269 -0.2155
18851W        W28544  17.220   7.700   4.652 -0.2916  0.3140 -0.3856
18852W        W28545  10.704  13.547   6.314 -0.1141  0.0076  0.0539
18853W        W28546   6.772   5.577  16.284  0.0291 -0.1968  0.0279
18854W        W28547   2.008   1.274   2.884 -0.2432  0.2285 -0.0778
18855W        W28548  14.362  16.575   2.523  0.0144 -0.1939 -0.0105
18856W        W28549   5.902  11.549  16.130 -0.0295  0.0697 -0.0068
18857W        W28550   6.575   8.878  13.111  0.0202 -0.1216 -0.1737
18858W        W28551   5.144   7.528  16.519 -0.2882  0.0759 -0.0864
18859W        W28552  12.595   8.142  16.587  0.1060 -0.0620  0.0131
18860W        W28553  17.438   2.966  16.369 -0.1507 -0.0933  0.1121
18861W        W28554  10.670  10.355   5.786  0.0777  0.2501  0.2241
18862W        W28555   8.315  13.064  11.011 -0.0102  0.1900 -0.2290
18863W        W28556   7.368   9.760  16.926 -0.0769 -0.1210  0.0697
18864W        W28557   7.049  14.124   3.836 -0.0003 -0.0715 -0.3471
18865W        W28558  11.768  12.231   5.756 -0.2181 -0.1683 -0.0648
18866W        W28559  16.280   1.223  13.101 -0.1540  0.1106 -0.4677
18867W        W28560   6.542  14.310  13.370 -0.0938 -0.1028 -0.0640
18868W        W28561   5.722   8.341  12.600 -0.0106  0.1159  0.3447
18869W        W28562   8.452  11.564  16.959 -0.2531  0.0412 -0.3102
18870W        W28563   6.710  16.078   5.154  0.1143  0.0301  0.1102
18871W        W28564  13.332  10.236   0.271  0.0361  0.2256  0.0736
18872W        W28565  11.413   4.567  15.639 -0.0214 -0.0344  0.5371
18873W        W28566  14.248  11.170  16.211  0.2759 -0.1663  0.1809
18874W        W28567   6.555   4.556  13.181 -0.1696 -0.2531  0.0951
18875W        W28568   2.421  14.779  13.041 -0.0546  0.2656 -0.1910
18876W        W28569  12.034  13.367   5.718 -0.2653  0.2918  0.2260
18877W        W28570   5.866  15.197   2.092 -0.0656  0.2420  0.2021
18878W        W28571   8.900  14.622   3.589  0.1463  0.1698 -0.0657
18879W        W28572   8.654   0.899  12.630 -0.0877 -0.2142  0.0959
18880W        W28573  17.930  12.251   0.748 -0.2128 -0.1221 -0.1918
18881W        W28574  10.899   9.468   5.351 -0.2445  0.0252 -0.2276
18882W        W28575   2.769  10.754   6.262  0.0572 -0.2399  0.0161
18883W        W28576   0.505   4.291  14.364  0.1423 -0.1284 -0.0490
18884W        W28577   2.160  15.325  16.593 -0.1171  0.2290  0.2609
18885W        W28578   7.903   7.507  16.694 -0.0286 -0.0147 -0.0193
18886W        W28579  16.228  11.928   4.100  0.0809  0.1740  0.1677
18887W        W28580  15.372   3.318  10.621  0.1211  0.1957  0.0391
18888W        W28581   4.868   2.418   5.664  0.0489  0.1776  0.3354
18889W        W28582  16.077  12.582   3.400 -0.0233 -0.0505  0.2409
18890W        W28583   1.594  11.689   2.845 -0.2369  0.1743  0.0848
18891W        W28584   1.872   0.302   0.850  0.1348 -0.0405  0.0663
18892W        W28585   6.814  15.180  12.699  0.0137  0.2575  0.0418
18893W        W28586   3.107   9.826   2.039  0.1244 -0.2665  0.0832
18894W        W28587   8.665  11.272   1.099  0.0116  0.0038 -0.0371
18895W        W28588   8.215  15.129   3.802 -0.1488 -0.0268  0.2249
18896W        W28589   5.648   6.343  15.363 -0.0590 -0.1431  0.1420
18897W        W28590   6.164  15.052  13.285  0.2083 -0.1816  0.1709
18898W        W28591   8.700   1.578   1.583  0.4114  0.1116  0.0520
18899W        W28592  10.753  16.915   5.385  0.0611  0.0638 -0.3754
18900W        W28593   8.629   9.736   5.304  0.2093  0.0302 -0.0716
18901W        W28594  15.255   8.822   4.066  0.1120  0.0126  0.1663
18902W        W28595  10.802   6.971   2.113 -0.2826  0.1988 -0.0191
18903W        W28596   4.195   7.068   5.804  0.2658 -0.1725 -0.0284
18904W        W28597  10.897  11.332   3.025 -0.3516  0.2049 -0.0342
18905W        W28598   0.481  13.764  11.678 -0.1274  0.2721 -0.3450
18906W        W28599   2.630  14.965  15.261  0.1389 -0.0936 -0.1136
18907W        W28600  15.951  12.787  15.196  0.0232 -0.0419 -0.0746
18908W        W28601   0.276   4.471   5.027 -0.0073  0.1278  0.1132
18909W        W28602   4.335   9.282   3.376  0.1779  0.2873 -0.1001
18910W        W28603   9.669   9.420   6.248 -0.0160 -0.0365 -0.0420
18911W        W28604   0.171  14.377  16.536 -0.0732 -0.5079  0.0146
18912W        W28605   2.753   2.943  10.742 -0.0690 -0.0740 -0.2562
18913W        W28606   6.921  17.960  15.953 -0.0595  0.0420  0.3503
18914W        W28607   2.093   8.878   5.850 -0.2705  0.0699 -0.0939
18915W        W28608   2.766   3.271  12.396 -0.3250 -0.0950  0.1229
18916W        W28609   9.265  15.223  14.613  0.2822 -0.0089 -0.0138
18917W        W28610   5.514  13.626  12.340  0.0075  0.2301 -0.4624
18918W        W28611   6.617   6.341   0.775  0.0261 -0.0443 -0.0142
18919W        W28612   7.643  11.631  13.596  0.1745  0.0113 -0.1982
18920W        W28613  10.221   9.469   5.930 -0.1450  0.0883  0.1377
18921W        W28614   6.435  10.037  17.025 -0.2980 -0.2607 -0.1082
18922W        W28615  17.760   7.896   5.529 -0.0474  0.0436 -0.3509
18923W        W28616   3.697  12.767   2.104  0.0272 -0.1560 -0.2482
18924W        W28617   6.627   4.042  15.343 -0.4347  0.2282 -0.2305
18925W        W28618   2.616  13.762  15.801 -0.0062 -0.0005  0.3674
18926W        W28619  13.606   1.212   4.759  0.1899  0.2147 -0.2431
18927W        W28620   9.891   6.113   1.236 -0.1061  0.0457  0.3534
18928W        W28621   4.365  10.526  15.378 -0.0251 -0.3144  0.0936
18929W        W28622  16.032   5.186   3.151 -0.1573  0.2825  0.0412
18930W        W28623   8.291   5.105   2.362  0.3683  0.1973  0.0729
18931W        W28624   9.203  10.027  13.439  0.0771 -0.0513  0.2078
18932W        W28625   2.017   7.041  15.146  0.1007  0.0883 -0.3086
18933W        W28626  11.393  14.719  13.998 -0.0200  0.2308  0.0115
18934W        W28627   1.121   3.825  16.282 -0.0603 -0.1039 -0.0701
18935W        W28628  12.747   4.555  14.357  0.0840  0.1425 -0.1869
18936W        W28629  13.688  17.278  13.164  0.0834 -0.0790  0.0129
18937W        W28630   0.923   9.719   3.797 -0.0938 -0.0012  0.1769
18938W        W28631   3.759  10.891  11.670  0.1266 -0.0752 -0.2401
18939W        W28632   8.490  12.042   2.620  0.0432 -0.1840  0.1023
18940W        W28633  17.174   4.496   5.326 -0.0583 -0.0968 -0.0900
18941W        W28634   1.911  12.727   5.548  0.0288 -0.3346  0.0326
18942W        W28635   6.575  12.114  16.731 -0.1553 -0.1223 -0.0925
18943W        W28636   3.477   7.263   1.828  0.0750  0.0444 -0.0669
18944W        W28637   8.370   6.062  17.068 -0.1011 -0.2684  0.4220
18945W        W28638  10.275   8.600  15.367  0.0646  0.2080 -0.2416
18946W        W28639   8.647  12.027  16.948  0.0853  0.1015  0.3738
18947W        W28640  10.415  13.054   3.015 -0.0916  0.0493  0.1872
18948W        W28641   3.373   2.261  15.448 -0.1016 -0.1631 -0.1636
18949W        W28642   8.193   6.392  15.862  0.1754 -0.0244 -0.2046
18950W        W28643  14.199   1.881   3.437 -0.1886  0.0763  0.0141
18951W        W28644   9.339   5.932   5.229  0.2408 -0.1197  0.0501
18952W        W28645   3.678   4.019  16.146  0.3307  0.1487 -0.4520
18953W        W28646   8.345  17.177  15.419  0.1204 -0.1929 -0.0172
18954W        W28647   8.537   4.629  14.097  0.3539 -0.2803 -0.1680
18955W        W28648   8.887   1.058   3.213 -0.0923 -0.0573 -0.0248
18956W        W28649   1.318  13.758  11.774 -0.0669  0.0298  0.0515
18957W        W28650   7.804  13.262   2.526 -0.1809  0.2068 -0.2106
18958W        W28651   6.731   0.597   4.909 -0.0472  0.2361 -0.1500
18959W        W28652   0.817   6.677  13.803  0.0158 -0.3675  0.0648
18960W        W28653   2.512   5.384   0.502  0.0720 -0.1128 -0.0301
18961W        W28654   1.528  10.096   3.219 -0.2440  0.0334  0.2720
18962W        W28655   1.441   5.371  13.714 -0.0184 -0.1819 -0.0091
18963W        W28656   9.100  15.358   5.719 -0.0816  0.1667 -0.0502
18964W        W28657   5.585  16.752  15.604  0.0745  0.2501 -0.0903
18965W        W28658  16.526   4.493   0.190  0.0256  0.1756 -0.1192
18966W        W28659  17.157   3.258   1.349 -0.0071  0.0896 -0.1124
18967W        W28660   0.136   7.689  14.498 -0.1119  0.2053 -0.0812
18968W        W28661  10.470   2.070  15.187 -0.0864  0.3637  0.1730
18969W        W28662   2.978  16.070  12.388  0.2337 -0.0396 -0.0282
18970W        W28663   5.371  10.678   4.333 -0.0386 -0.0534  0.0923
18971W        W28664  17.975  16.044  10.688 -0.3835 -0.0021  0.1697
18972W        W28665  13.897  15.240   0.236 -0.0876 -0.0494 -0.4305
18973W        W28666   3.885  14.342   0.241  0.2736  0.2354 -0.2300
18974W        W28667   6.763   6.391  14.311  0.1217 -0.0602  0.2737
18975W        W28668   1.850  16.645  13.983 -0.0321  0.0614 -0.1766
18976W        W28669   6.265  17.591   1.303 -0.1073 -0.0240  0.2037
18977W        W28670   7.137   9.963   4.594  0.4012  0.2659 -0.0096
18978W        W28671   6.102   2.101   0.912  0.2318  0.2921  0.2326
18979W        W28672   2.837   1.174  13.006 -0.0980 -0.1820 -0.1692
18980W        W28673   2.661  15.407   5.965  0.1967 -0.0906  0.1279
18981W        W28674   7.445   8.966  13.821 -0.0079 -0.3166  0.0064
18982W        W28675   7.716   0.668  11.823 -0.2155 -0.0027 -0.0138
18983W        W28676   5.792  15.486   5.274 -0.2485 -0.0861 -0.0393
18984W        W28677   5.871  14.802  14.295 -0.3612 -0.0266  0.3441
18985W        W28678  12.197  16.679   5.454  0.1446 -0.0718 -0.0330
18986W        W28679  10.914  14.284  13.169  0.1100 -0.1215 -0.0485
18987W        W28680  11.555   3.038  14.449  0.1471  0.3105 -0.1170
18988W        W28681   9.334   9.809   3.335  0.3299  0.3169 -0.0116
18989W        W28682  10.811   4.359  10.794 -0.3008  0.1063  0.1176
18990W        W28683   2.734   8.929   4.215 -0.0979 -0.0346 -0.0824
18991W        W28684   5.144  13.657   2.182 -0.0303 -0.0404  0.1242
18992W        W28685   3.821   3.063   1.736  0.0893  0.0500 -0.0259
18993W        W28686   6.747   4.132  13.187 -0.1654  0.1402  0.0600
18994W        W28687   5.089  16.525  12.282  0.2009 -0.0868 -0.0359
18995W        W28688   5.819   6.030   1.008  0.3448 -0.2459  0.2283
18996W        W28689   4.801  15.206  12.109 -0.2774 -0.2257  0.2082
18997W        W28690   8.565   0.735  16.005 -0.2837 -0.2743  0.0161
18998W        W28691   8.295  15.418   0.765  0.0923 -0.2350  0.2936
18999W        W28692   2.250  14.793   1.203  0.3282  0.2523 -0.1960
19000W        W28693   6.694   9.582  12.319  0.1139 -0.1137  0.0468
19001W        W28694   3.920   1.463   5.406  0.1465  0.1680  0.0341
19002W        W28695   1.061   9.596  16.789  0.2330 -0.2517  0.0863
19003W        W28696  12.683  16.402  15.086 -0.0451  0.2863 -0.1459
19004W        W28697   9.480   0.899  16.871  0.0762 -0.2705 -0.0927
19005W        W28698  17.405   6.137  13.187 -0.1842  0.0404 -0.0303
19006W        W28699   2.210  16.426   0.624 -0.0349  0.0210 -0.3456
19007W        W28700   3.035   4.011  13.285  0.0393  0.0556 -0.1116
19008W        W28701   7.207  11.689   5.914 -0.0347  0.1309  0.1654
19009W        W28702  14.751  13.295   2.307  0.2510 -0.0178  0.2655
19010W        W28703   5.912  17.095   2.297  0.0999  0.2206 -0.0392
19011W        W28704   6.190  14.334  15.209 -0.3013  0.2821 -0.3998
19012W        W28705   7.755  17.756   1.640 -0.0019  0.4193  0.3068
19013W        W28706   7.640  13.539   5.830  0.0580  0.0263  0.0280
19014W        W28707   9.141   6.026   1.721 -0.1104  0.1096 -0.1567
19015W        W28708   2.340   5.854  11.641  0.1169 -0.2700  0.1906
19016W        W28709   7.397   2.315  11.446  0.0471 -0.2279  0.0953
19017W        W28710   4.714   2.251   4.454  0.1404 -0.0254 -0.0878
19018W        W28711  13.361   7.195   2.116  0.1635  0.4224 -0.0182
19019W        W28712  11.986  15.609   1.027  0.3918 -0.0608 -0.1041
19020W        W28713   3.901  11.947   1.144 -0.0841 -0.0071 -0.1238
19021W        W28714   5.708  11.872   4.418  0.1154  0.0312  0.1023
19022W        W28715   6.801  15.463   6.502  0.5077  0.1326  0.0857
19023W        W28716  11.962  17.630   0.262 -0.2498  0.2117  0.0100
19024W        W28717   8.561   3.481   1.082 -0.1642  0.2180 -0.0223
19025W        W28718   3.378  15.362  15.753 -0.0699  0.0274  0.2617
19026W        W28719   9.215  15.143  13.148 -0.0389  0.4405 -0.1191
19027W        W28720  11.163  15.688  16.563 -0.0549  0.1634  0.3973
19028W        W28721   8.658  17.354  12.405  0.0303  0.1062 -0.0486
19029W        W28722   2.988   0.507   0.848  0.1387  0.0995 -0.0197
19030W        W28723  17.013   7.496   1.387 -0.1402 -0.2108 -0.0721
19031W        W28724   2.193   1.602   3.768  0.1566  0.1317 -0.2547
19032W        W28725   0.228  10.195  16.535 -0.0729  0.0128 -0.1012
19033W        W28726  17.802   1.922   5.477  0.2138  0.3109 -0.1183
19034W        W28727  17.603   2.008  15.854  0.0752  0.2068  0.4298
19035W        W28728  10.972   3.658  11.348 -0.0790 -0.1409  0.1503
19036W        W28729   7.327  14.356  13.180  0.0684  0.2927  0.0962
19037W        W28730   4.644  15.809   0.036  0.0369 -0.2747  0.2182
19038W        W28731   4.399   6.075   1.321  0.3161 -0.0308  0.0022
19039W        W28732   6.412   7.859   3.517  0.2854  0.2056 -0.0621
19040W        W28733   3.007  16.124   5.772 -0.2023  0.0051 -0.3619
19041W        W28734   6.270  12.599   0.847  0.1039 -0.1729  0.0660
19042W        W28735   8.610   1.868   3.335 -0.0813 -0.2618 -0.1877
19043W        W28736  10.044   6.239  15.458  0.1179  0.1988  0.2035
19044W        W28737   2.922   7.381  11.385 -0.1105  0.0662  0.2118
19045W        W28738   1.130   4.063   0.788 -0.2204 -0.0163 -0.0709
19046W        W28739  10.025   8.898   4.232 -0.0039 -0.2754  0.1129
19047W        W28740   1.637   1.133   3.305  0.3567 -0.0528 -0.0015
19048W        W28741   7.509   2.273   4.323  0.2142 -0.0347 -0.5800
19049W        W28742   9.545  15.808  14.031 -0.2127 -0.1049 -0.0575
19050W        W28743   3.173  15.625   1.893  0.0774  0.1200 -0.5080
19051W        W28744  16.645  13.715   5.208 -0.1113  0.3675  0.2176
19052W        W28745   2.557  10.836  13.899  0.1194 -0.1684 -0.2133
19053W        W28746   2.145   7.307   2.142 -0.1706 -0.0072  0.0273
19054W        W28747   2.181   2.589  12.883 -0.0741  0.0005 -0.3076
19055W        W28748   8.929  17.166   2.055 -0.1586  0.1953 -0.0681
19056W        W28749  16.401   3.361   4.256 -0.0605  0.1001  0.1142
19057W        W28750  11.543   9.409  13.953  0.0997  0.0295 -0.0810
19058W        W28751  15.525   5.300   1.378  0.4850  0.1156 -0.0754
19059W        W28752   8.937   7.822   2.895  0.2827 -0.2019  0.0768
19060W        W28753   5.076  11.668   6.713 -0.1952 -0.1888  0.0272
19061W        W28754   2.927   5.043   3.072 -0.1812 -0.2723  0.1316
19062W        W28755  11.403   0.647  11.391 -0.0297  0.0607 -0.2692
19063W        W28756   3.647  14.088  16.503  0.0999  0.0370 -0.0436
19064W        W28757  14.879   4.094  13.844  0.0316  0.1092 -0.1145
19065W        W28758   3.111   4.080  12.787  0.0946  0.0843 -0.0561
19066W        W28759   4.614   3.217  15.193  0.2186 -0.0298  0.0540
19067W        W28760  10.257  14.492   0.559 -0.1067  0.3378  0.3251
19068W        W28761   0.648  16.602   0.314 -0.1952 -0.0700 -0.0024
19069W        W28762   8.737   1.637   2.148 -0.1248  0.2335 -0.1674
19070W        W28763  13.536   0.751   3.660  0.1352  0.1085 -0.0309
19071W        W28764   7.050  13.795  11.853 -0.0925  0.2560 -0.0522
19072W        W28765   4.520  12.260  14.647  0.3700  0.1525 -0.0435
19073W        W28766  11.104   9.853   5.070 -0.0796 -0.0537  0.1717
19074W        W28767  17.950  14.527  11.925  0.0306  0.0550  0.1456
19075W        W28768   5.427   9.016  13.724  0.0964  0.1615  0.0155
19076W        W28769   0.370   5.376   0.172  0.0630  0.0288 -0.2104
19077W        W28770   7.195   3.475   5.299 -0.0384 -0.1575  0.4558
19078W        W28771   1.900   8.845  13.729  0.2584  0.0354 -0.3058
19079W        W28772  14.524  17.041  14.905 -0.0884 -0.1550  0.2818
19080W        W28773  10.199  16.099  15.852 -0.2190 -0.1877 -0.4023
19081W        W28774   6.828  13.124   3.279 -0.1377 -0.1359 -0.2241
19082W        W28775   1.518  13.763  15.499 -0.2442  0.4045 -0.0539
19083W        W28776   9.864   0.123   0.077 -0.2503  0.0979  0.0578
19084W        W28777   6.111   1.390   2.329 -0.0588  0.0884 -0.0400
19085W        W28778  12.366   3.681   0.902  0.3831  0.3490  0.1497
19086W        W28779  17.205   7.047  10.585 -0.1268  0.2669  0.0958
19087W        W28780   7.810   5.044   1.430  0.0283  0.1175  0.1739
19088W        W28781  12.292  13.989  14.516 -0.0241  0.0165  0.0248
19089W        W28782  15.612  17.120  10.706 -0.0525 -0.1606  0.0234
19090W        W28783   2.739   9.177  12.237  0.0472 -0.1602  0.1737
19091W        W28784  13.026  10.471   2.475 -0.0978 -0.3652 -0.0427
19092W        W28785  10.233   4.418  16.283 -0.1741  0.1186  0.0067
19093W        W28786   0.907   7.041   0.171  0.0637 -0.2216 -0.1398
19094W        W28787   8.166  13.363  13.655 -0.1281  0.1929 -0.0578
19095W        W28788   1.531  13.506  12.820 -0.0109  0.0036 -0.1267
19096W        W28789   2.987  16.961  16.142  0.0554  0.2867  0.1112
19097W        W28790   7.818   9.754   2.408  0.0197  0.1635  0.0972
19098W        W28791   5.653   3.234   0.346  0.0730 -0.1934  0.0722
19099W        W28792  10.669   9.218  16.189  0.1052  0.1493 -0.3107
19100W        W28793  11.943  10.300  16.986  0.1297  0.1557 -0.1483
19101W        W28794   4.967   9.847   3.225  0.0181  0.1251 -0.2217
19102W        W28795   0.794   6.147   4.366 -0.0678  0.2067  0.0373
19103W        W28796   7.136   0.077  16.530  0.0579 -0.0843  0.0044
19104W        W28797   3.232   0.184   4.703 -0.2449  0.1563  0.1525
19105W        W28798   6.078   0.832   2.363 -0.1496  0.1107 -0.0893
19106W        W28799   1.739  12.287  12.341 -0.2045  0.0937 -0.2534
19107W        W28800  11.600   3.671  13.265 -0.2690 -0.2995  0.2848
19108W        W28801   9.346   0.287   4.977 -0.1756 -0.0301  0.0720
19109W        W28802   8.762   9.296   5.112 -0.0359  0.0412  0.2548
19110W        W28803  13.990   0.244  15.171  0.0581  0.3740  0.1431
19111W        W28804   9.103   5.057  12.282 -0.1258 -0.1320 -0.0924
19112W        W28805   6.902  14.693   2.289 -0.1818 -0.0561  0.0069
19113W        W28806  15.680   9.473  10.409 -0.0721 -0.1213 -0.5077
19114W        W28807   9.003  15.293  15.329  0.0953  0.3214  0.0641
19115W        W28808   9.427   7.243   4.856 -0.0471  0.3217  0.3128
19116W        W28809   1.079   3.728   1.698 -0.1229 -0.0831  0.1970
19117W        W28810   8.828   6.052   3.186 -0.2206 -0.0868 -0.1747
19118W        W28811  14.127   4.512   1.954 -0.0588  0.1867  0.0614
19119W        W28812   6.591   0.380   0.696  0.3141 -0.1692  0.0060
19120W        W28813   9.782   6.202  14.121 -0.0323 -0.1585 -0.1453
19121W        W28814   5.641  11.466   4.704  0.1981  0.3224 -0.0345
19122W        W28815   3.040  11.629  12.726 -0.0380 -0.1030 -0.3793
19123W        W28816   3.492   9.079  13.858  0.0742 -0.0287  0.2063
19124W        W28817  13.590   7.561  16.074 -0.4142 -0.1325  0.2223
19125W        W28818   2.796   8.251   2.963  0.2481 -0.1093 -0.0018
19126W        W28819   4.763  13.078   2.927 -0.0385  0.2408 -0.2486
19127W        W28820  17.198  11.777  10.435  0.0181 -0.0047  0.1609
19128W        W28821  13.816  12.176   0.230  0.2982 -0.1792  0.0818
19129W        W28822  13.704  12.158   2.260  0.0232  0.1983  0.1677
19130W        W28823   5.962   6.063   2.287  0.0033  0.0722  0.1879
19131W        W28824   4.485   5.225   5.301  0.2960 -0.1420 -0.0591
19132W        W28825   6.932   1.775   6.044 -0.2601 -0.2361 -0.0822
19133W        W28826   4.916  10.561   3.070  0.2163  0.0670  0.1044
19134W        W28827  11.226   3.112  12.496 -0.0798 -0.1191 -0.2491
19135W        W28828   4.976  14.047   6.362 -0.1939 -0.1779  0.0921
19136W        W28829   4.856  12.251   1.969  0.3854  0.3516 -0.2479
19137W        W28830   6.960   3.543  13.228  0.0876 -0.0369  0.0251
19138W        W28831   1.647   9.516   4.146 -0.0801 -0.0529 -0.1116
19139W        W28832   2.188  13.038   5.027  0.0305  0.1913 -0.1086
19140W        W28833   6.169   7.650  11.997 -0.0400 -0.0947  0.1063
19141W        W28834   1.336   1.910   3.861 -0.0093 -0.0351 -0.2244
19142W        W28835   0.869  11.917   0.849  0.2439 -0.1304 -0.4324
19143W        W28836   7.311  15.765   1.713  0.0517  0.0575  0.2473
19144W        W28837   9.576   9.890   3.869  0.0207 -0.0744 -0.1032
19145W        W28838  11.405   9.472   1.543  0.0821 -0.0418 -0.0117
19146W        W28839   4.325   3.355  14.287  0.1687 -0.3247 -0.1868
19147W        W28840  17.258  14.135  12.214  0.0219  0.2923 -0.3605
19148W        W28841   3.040  13.038  12.065  0.1196 -0.3183 -0.0466
19149W        W28842   3.768   7.832   6.034 -0.2093 -0.1781  0.3773
19150W        W28843   8.445   7.014  15.985 -0.0841  0.0678  0.2221
19151W        W28844  13.817   6.945   5.152  0.2369 -0.2132  0.0724
19152W        W28845  13.099   0.053   0.221 -0.1674 -0.1384  0.0570
19153W        W28846   4.062   4.014   1.950 -0.1181  0.1403  0.1409
19154W        W28847   5.670   4.958   4.769  0.3362 -0.4929  0.0843
19155W        W28848   6.112  11.160  15.743  0.0135 -0.1602 -0.0343
19156W        W28849   3.466   8.641   1.394  0.0575 -0.0644 -0.1609
19157W        W28850  10.425   0.021   2.010  0.1007 -0.0869 -0.1350
19158W        W28851   8.830   3.605  15.224  0.0673  0.2428  0.2724
19159W        W28852   1.917  16.418   1.668 -0.0255 -0.1982  0.0731
19160W        W28853   3.919   6.474   1.923  0.2479  0.1478 -0.1359
19161W        W28854   8.957  13.311   6.147  0.0456  0.2739 -0.0844
19162W        W28855   6.814   8.399   3.161 -0.1159  0.0939 -0.1370
19163W        W28856  11.074   0.505   5.073 -0.0977  0.0401  0.0426
19164W        W28857  10.219   4.067  12.286 -0.0727 -0.1758 -0.0673
19165W        W28858   1.829  13.123  12.614  0.2200 -0.0967  0.2149
19166W        W28859  16.484   8.067   5.484  0.3647  0.0698 -0.0723
19167W        W28860   4.475  12.433   2.388  0.0750 -0.3112  0.3437
19168W        W28861  10.163   0.436   4.734  0.2136 -0.1900 -0.1775
19169W        W28862   5.965   3.079   5.383  0.0264 -0.1428 -0.0520
19170W        W28863  11.552  11.190  16.639  0.2867 -0.2389 -0.0417
19171W        W28864   1.238   7.893  16.941  0.1148 -0.3255  0.2112
19172W        W28865  16.388  16.762  11.384  0.2745 -0.2475  0.0083
19173W        W28866   2.048  13.136  14.562  0.0180 -0.0829  0.0477
19174W        W28867   4.203   9.779   4.452 -0.1629  0.0699 -0.0199
19175W        W28868  17.786   1.271  16.836 -0.1600  0.1565 -0.3379
19176W        W28869   6.019   4.491  14.923  0.0208 -0.0076 -0.0124
19177W        W28870  17.679   7.802  15.025  0.0819  0.0427 -0.0988
19178W        W28871  14.860  12.206  11.961 -0.2113 -0.1373 -0.2443
19179W        W28872   7.768  11.574   0.404 -0.0578 -0.0532 -0.1239
19180W        W28873   5.870  13.134   3.092  0.2709  0.1005 -0.0771
19181W        W28874  13.414   6.496  11.864 -0.0582  0.3927 -0.0148
19182W        W28875   4.864   7.992  14.257 -0.1225  0.0290 -0.1617
19183W        W28876   2.878  11.402  14.343  0.5125 -0.0094  0.0162
19184W        W28877   5.426  16.584   6.020  0.0567  0.0972  0.2869
19185W        W28878   2.374  12.566   1.899  0.4001  0.4582  0.2171
19186W        W28879   1.900   5.572  16.645 -0.0037 -0.0449 -0.0959
19187W        W28880   4.690   3.594   1.315  0.2492  0.0425 -0.2108
19188W        W28881   3.768   0.735   2.025  0.1821 -0.0544 -0.1991
19189W        W28882   9.915   3.659   4.741  0.0412 -0.1704  0.0245
19190W        W28883   5.022  17.890  15.803  0.2069  0.0752 -0.3385
19191W        W28884   7.298   3.120  16.535  0.0722  0.1728 -0.1785
19192W        W28885  11.311   8.730  15.461  0.0462 -0.1232  0.1036
19193W        W28886  11.052   5.494   4.108  0.1615  0.1701  0.0192
19194W        W28887   6.592   9.605   5.834  0.1703 -0.1071 -0.0381
19195W        W28888  11.014   0.959   4.617 -0.2441 -0.1844  0.0933
19196W        W28889   8.498  14.410  15.337 -0.0679  0.1627 -0.1510
19197W        W28890   6.040   6.016   5.989 -0.3482 -0.2342  0.1479
19198W        W28891   0.435  13.258   3.738  0.2720 -0.0209  0.0587
19199W        W28892   8.611  10.429   5.514 -0.0694 -0.2104  0.0053
19200W        W28893  17.034  12.019  16.783  0.0007  0.1122 -0.1748
19201W        W28894   3.674  14.602   0.655  0.3761  0.0463  0.0333
19202W        W28895   9.021   7.896   4.377 -0.0488 -0.0160  0.1000
19203W        W28896   4.928   9.651  16.265 -0.0981  0.0482  0.0809
19204W        W28897   6.301  10.804   1.161 -0.1907  0.0245  0.2612
19205W        W28898  13.493  16.532   1.500 -0.0582  0.1809 -0.2186
19206W        W28899  16.370  10.491   3.368  0.0046 -0.2793 -0.0222
19207W        W28900   7.110   7.099  13.349 -0.3962 -0.2923  0.3182
19208W        W28901   0.925  17.434  12.784  0.2033  0.1748  0.0042
19209W        W28902   2.331   5.885   6.049  0.1191  0.2093  0.1587
19210W        W28903   1.579  10.512  15.281  0.2545  0.0443 -0.0011
19211W        W28904   1.565   0.646   6.362 -0.3157  0.0396  0.1168
19212W        W28905   6.658   3.323   1.615  0.1772 -0.0218  0.0541
19213W        W28906   6.040  14.677   4.523 -0.2475 -0.0584  0.0521
19214W        W28907   3.396  16.449  16.831 -0.0514 -0.0961 -0.0300
19215W        W28908  17.433   7.203   4.878  0.1598 -0.0462  0.1835
19216W        W28909   2.831  17.886   5.608  0.1407  0.2213  0.0275
19217W        W28910  13.246   1.140   3.247  0.0851  0.0379 -0.0146
19218W        W28911   8.813   4.207  11.822  0.0770 -0.1307  0.0134
19219W        W28912  16.740  14.614   3.496 -0.0861 -0.0477  0.0057
19220W        W28913   3.119  16.211   0.238 -0.2892 -0.0384  0.2635
19221W        W28914  13.701   0.012  17.030  0.2586 -0.3045  0.0654
19222W        W28915   8.616  15.949   1.494 -0.0851  0.2789 -0.1674
19223W        W28916   5.943  13.732  12.743  0.1629 -0.0743  0.4860
19224W        W28917  13.012  11.170  15.118 -0.1116 -0.1723 -0.2832
19225W        W28918   5.320  12.077   4.085 -0.3429 -0.0784  0.1395
19226W        W28919   5.753  12.179   2.779  0.0797  0.1424  0.0017
19227W        W28920  15.082  16.071   2.120  0.1844  0.3522  0.0079
19228W        W28921   1.360  12.682  11.738 -0.0866 -0.0982 -0.3432
19229W        W28922   8.795   0.721   1.571 -0.3418  0.0545 -0.1157
19230W        W28923  14.132  16.262   0.894 -0.3115 -0.0193 -0.1616
19231W        W28924   2.632   6.405   3.040  0.1180 -0.2264 -0.0910
19232W        W28925   9.895  12.634   5.843 -0.0527  0.0034  0.3405
19233W        W28926  14.007   2.965  12.375  0.0250  0.0362 -0.1577
19234W        W28927   7.424  14.392   5.316  0.1639  0.0862  0.1156
19235W        W28928   4.388  14.233   3.795  0.0605  0.0285  0.1190
19236W        W28929   5.146  14.511  14.667 -0.0665 -0.1364 -0.0362
19237W        W28930   9.971  11.508  17.003 -0.0590  0.2971 -0.0120
19238W        W28931  11.852   6.257   2.130  0.1827  0.0338  0.0293
19239W        W28932   8.993   8.330   4.162 -0.0020 -0.2916  0.0703
19240W        W28933  10.192  11.021   2.749 -0.0755 -0.1068 -0.3812
19241W        W28934   5.188  13.075   2.357  0.0879  0.1913  0.1708
19242W        W28935  10.804  13.378  16.100 -0.2076  0.1157  0.0091
19243W        W28936  16.437  12.287   4.949  0.0674 -0.0715 -0.2818
19244W        W28937  14.456   3.307   0.132  0.0091 -0.1665 -0.1604
19245W        W28938   7.178   5.391   2.871 -0.3832 -0.1422 -0.0654
19246W        W28939   3.199   4.083   6.072  0.1113  0.0168 -0.0241
19247W        W28940  10.810   5.431   4.658  0.0586  0.1336 -0.0815
19248W        W28941  12.409  12.798   3.974 -0.0635  0.1334 -0.1187
19249W        W28942   1.274   5.963   1.645  0.1811 -0.1571 -0.0734
19250W        W28943  15.777   1.698   6.221 -0.2156 -0.2008  0.0201
19251W        W28944   2.152   5.617   1.081 -0.1096 -0.0025 -0.2557
19252W        W28945   4.731   4.547  14.984  0.0275 -0.2756 -0.1733
19253W        W28946   4.408  11.029  13.152 -0.3364 -0.3702 -0.1205
19254W        W28947   7.136   3.927  14.560  0.2771  0.0432 -0.1401
19255W        W28948   5.713   4.709   3.424 -0.1806  0.2633 -0.0330
19256W        W28949  10.052  16.665   2.855  0.2227 -0.2495 -0.4200
19257W        W28950   7.548  12.858  14.933 -0.0262  0.0141 -0.1948
19258W        W28951   8.259   7.087   0.004  0.1103 -0.2997 -0.2396
19259W        W28952  15.895   5.727  14.745 -0.1169 -0.1030 -0.1435
19260W        W28953  12.896  14.133  15.220  0.2718 -0.2613  0.0740
19261W        W28954   9.098  12.144   4.929  0.2299 -0.1853  0.0045
19262W        W28955   7.439  11.616  14.561  0.1453  0.3511  0.1610
19263W        W28956   6.699   5.459  14.227  0.0553  0.2348 -0.0914
19264W        W28957   8.700  14.942   4.905  0.3840  0.0139 -0.0715
19265W        W28958   4.928   9.828  15.758  0.1045 -0.4166  0.2487
19266W        W28959  13.601   2.528   1.731  0.1438 -0.0298  0.0914
19267W        W28960  12.266   3.147   4.471 -0.3509 -0.2018  0.1013
19268W        W28961  17.207   0.649   1.112  0.0918 -0.0536 -0.1315
19269W        W28962   2.010   9.023  12.664  0.3888 -0.1447 -0.2223
19270W        W28963   8.019   3.334   5.726  0.1638 -0.1862  0.1658
19271W        W28964   6.470  15.682  16.168  0.3018 -0.1657 -0.5640
19272W        W28965   8.975  11.910  12.338 -0.0622 -0.0367 -0.0726
19273W        W28966   9.551  11.440   1.771 -0.0236 -0.1490  0.1577
19274W        W28967   6.210   1.884  13.050  0.2973  0.2275 -0.2531
19275W        W28968  16.505   7.698   0.690  0.0631 -0.0126  0.0874
19276W        W28969   2.182  14.978   1.647  0.1436  0.0614 -0.3236
19277W        W28970  11.793  13.781  15.890  0.1652  0.0090 -0.0196
19278W        W28971   2.674   8.464   2.102 -0.0717  0.0131 -0.1469
19279W        W28972   8.378   3.058  12.148 -0.0840 -0.1990 -0.0449
19280W        W28973   3.240   8.142   2.800  0.1243 -0.1409 -0.0382
19281W        W28974   7.433  17.206   6.460  0.1065 -0.3204 -0.3057
19282W        W28975   5.548   8.298   6.898  0.3433  0.1755  0.1960
19283W        W28976   6.472   5.144  12.504  0.0006 -0.2353 -0.0533
19284W        W28977  11.380  16.770   1.265  0.0660  0.1823 -0.0285
19285W        W28978  15.045  16.728   6.169 -0.0249  0.0097 -0.0454
19286W        W28979  10.880   0.603   5.867  0.2246  0.1385 -0.0154
19287W        W28980   9.256   1.857   0.830 -0.1355  0.2387 -0.1427
19288W        W28981  10.876   1.610  12.633  0.0714  0.0586  0.0667
19289W        W28982   5.491  17.676   0.864  0.2222  0.3651 -0.0676
19290W        W28983   6.295  17.194  16.147 -0.1418 -0.0961 -0.0633
19291W        W28984  10.195  10.254   4.327 -0.0199  0.1719 -0.0797
19292W        W28985   7.964  17.574   0.624 -0.1149  0.2110 -0.0104
19293W        W28986  12.943  10.600   3.709 -0.0423 -0.3205 -0.0247
19294W        W28987   2.309  15.900  14.370  0.0435 -0.4567  0.1066
19295W        W28988   1.886   2.138   1.746 -0.0004 -0.1001  0.2201
19296W        W28989   4.591   7.248   4.842  0.0098  0.0236 -0.0785
19297W        W28990   4.350   9.172  15.298 -0.0944  0.1593  0.1145
19298W        W28991   7.758   4.822   4.255 -0.0377  0.0077  0.1930
19299W        W28992   6.599  14.282   0.115  0.1970 -0.2200  0.0292
19300W        W28993   9.170   3.217  12.355  0.1670 -0.0546  0.0567
19301W        W28994   3.712   3.249  15.605 -0.2334  0.1814  0.0010
19302W        W28995   4.654   2.100   3.637  0.1601  0.2261 -0.0269
19303W        W28996   7.503  12.830   4.504  0.0720  0.1825 -0.0853
19304W        W28997   5.428  16.342   2.733  0.0720 -0.1010  0.0836
19305W        W28998  12.659   0.914   3.723  0.0314 -0.0330  0.2803
19306W        W28999   2.800   5.051  12.301  0.0964  0.1046 -0.0936
19307W        W29000   5.446   5.796   2.441  0.3000 -0.0744  0.0641
19308W        W29001   2.424   5.041  11.798  0.1455  0.2852  0.0672
19309W        W29002   4.400  10.959  15.679 -0.1372  0.1196  0.1489
19310W        W29003  15.899   4.697  15.270 -0.0602  0.1114 -0.1714
19311W        W29004   2.307   9.620  16.348  0.0091 -0.5470 -0.0122
19312W        W29005  11.802   2.810  16.673 -0.3899 -0.0635 -0.0755
19313W        W29006  13.635  13.900  15.769 -0.0717  0.1401  0.0512
19314W        W29007   2.217  10.025   1.984 -0.1646 -0.1808 -0.0305
19315W        W29008   7.308  14.946   5.248  0.1162  0.3291  0.5254
19316W        W29009   4.026  17.714  11.878 -0.0857  0.4033  0.3175
19317W        W29010   7.904  14.162  11.806  0.0318  0.0198  0.0257
19318W        W29011   7.020  13.002   0.844 -0.2210 -0.0466  0.1718
19319W        W29012  13.841   9.804   2.132  0.0439  0.0500  0.1027
19320W        W29013   2.595   9.725   0.710 -0.3046 -0.0192  0.2859
19321W        W29014   9.876  14.108   0.646  0.3431  0.0499 -0.0583
19322W        W29015   4.329  12.508   6.194  0.0705 -0.0840 -0.4319
19323W        W29016   4.894  14.227  12.885  0.1306 -0.0525 -0.1262
19324W        W29017   7.640   5.188  11.182  0.0530 -0.0596 -0.3751
19325W        W29018   7.640  13.485  16.875  0.0340 -0.0468  0.1494
19326W        W29019  14.053  17.186  14.900 -0.4120 -0.0096  0.0526
19327W        W29020   4.096  12.003   5.744 -0.0793  0.3476  0.0443
19328W        W29021   1.497   8.386  14.814 -0.0094  0.4251  0.1195
19329W        W29022   8.654  10.661   1.684  0.0863  0.1792 -0.0313
19330W        W29023   3.860   3.723   3.686 -0.1517 -0.1648 -0.1792
19331W        W29024  12.284   3.058  11.364 -0.0484  0.0281 -0.0401
19332W        W29025   1.182  15.298   5.008  0.2569  0.1652  0.1745
19333W        W29026   4.092   7.697  13.904 -0.3615  0.0886  0.1455
19334W        W29027  10.554   0.566  11.390  0.0387 -0.0641 -0.1760
19335W        W29028   7.347  11.769   1.304 -0.2100 -0.1387  0.5706
19336W        W29029   0.532   7.995   5.025 -0.1465 -0.0825  0.0564
19337W        W29030   6.945   2.530   4.861 -0.0292 -0.0203 -0.1518
19338W        W29031  10.590   4.532  12.567  0.0685  0.1803 -0.0718
19339W        W29032   7.078  16.326   4.672  0.0646 -0.0724 -0.0018
19340W        W29033   1.008   5.086   0.916 -0.1529 -0.0944  0.1635
19341W        W29034   4.462   2.334   0.648  0.1274  0.0585  0.1514
19342W        W29035   4.935   8.288  12.072 -0.2892  0.0319 -0.0171
19343W        W29036   6.239   8.106  14.113  0.2055  0.1371 -0.2706
19344W        W29037  17.308  14.681   2.017  0.0128  0.1570 -0.0208
19345W        W29038   5.547   0.941   2.192 -0.0143 -0.3135 -0.0641
19346W        W29039   8.832  13.850   4.191  0.0664  0.1131 -0.0748
19347W        W29040  10.710   8.463   0.305 -0.1019 -0.3399  0.0357
19348W        W29041   7.569  13.118  12.379  0.3225 -0.1410 -0.2513
19349W        W29042   0.983   4.944  14.810 -0.4301  0.2255 -0.0124
19350W        W29043  17.560   9.155  12.475 -0.1417 -0.0705  0.0555
19351W        W29044   5.824  17.577  14.146 -0.0592 -0.1285  0.1590
19352W        W29045   3.517   6.150  15.379  0.0048  0.1217 -0.0278
19353W        W29046   5.888  12.219   3.309  0.0839 -0.2654  0.0016
19354W        W29047   1.121   1.346  16.599 -0.2066 -0.0435 -0.0288
19355W        W29048  14.290   4.516  16.639  0.1093 -0.0684  0.3551
19356W        W29049   4.985   4.588   1.748  0.1232 -0.0893 -0.0274
19357W        W29050   3.237   8.013  17.078  0.3774 -0.1525 -0.2126
19358W        W29051   9.550  15.549   5.499 -0.2682 -0.0857  0.3582
19359W        W29052   9.418  17.370  13.598  0.0018  0.1599  0.1288
19360W        W29053   5.810  15.737  15.061 -0.2045  0.0503 -0.0906
19361W        W29054   6.832   8.135  16.418 -0.0814  0.0712  0.0494
19362W        W29055   0.821   8.957   1.368  0.1482 -0.2043  0.1437
19363W        W29056   6.640   9.985   0.919  0.3947 -0.0113 -0.0853
19364W        W29057   3.211   1.885  16.456 -0.4181 -0.1238 -0.2229
19365W        W29058  11.522   6.577   3.704  0.0965 -0.0745 -0.1732
19366W        W29059   6.473  14.063   4.066  0.0720  0.1761  0.2942
19367W        W29060   7.588  11.881  12.625  0.0737 -0.0953  0.2322
19368W        W29061   2.241   4.513  14.867 -0.1160 -0.1054  0.0629
19369W        W29062  15.186   3.223   3.732 -0.1081  0.1084 -0.0171
19370W        W29063  11.930   7.474   6.507 -0.1215  0.1953  0.2735
19371W        W29064   5.327  16.815  16.321  0.0546  0.0482 -0.0127
19372W        W29065   0.506   0.174  14.267 -0.1153  0.1117 -0.2523
19373W        W29066   0.998   4.515  15.105 -0.0869  0.0493 -0.3633
19374W        W29067  16.136   1.016   3.070 -0.0356 -0.2696  0.2358
19375W        W29068   2.107  16.707  15.938  0.1636  0.2059 -0.3480
19376W        W29069   4.297   2.095  16.836  0.2107 -0.4188  0.1790
19377W        W29070   8.768  12.145   5.346 -0.2470 -0.1648  0.1120
19378W        W29071   1.054   7.622   2.808 -0.1493 -0.2124  0.3126
19379W        W29072   9.038  10.038  11.767  0.0520  0.0709  0.1254
19380W        W29073   7.466   5.558   4.872  0.1109 -0.1175 -0.2172
19381W        W29074   2.095  16.583  12.148  0.0518  0.0643  0.0095
19382W        W29075  11.929   4.072  12.237  0.1195  0.0677 -0.1165
19383W        W29076  11.843  15.865  12.620  0.1388 -0.1250 -0.0421
19384W        W29077   2.387   8.765  12.936 -0.2122  0.1987  0.0617
19385W        W29078   6.264  12.281  14.966  0.0308  0.1408  0.2075
19386W        W29079   5.816  15.043  12.901 -0.1373  0.0705  0.2330
19387W        W29080  11.774   5.887   0.805  0.0176  0.0188  0.3403
19388W        W29081  17.793   2.390  13.168 -0.2097  0.2098 -0.2051
19389W        W29082   4.008   6.093   3.123  0.0720 -0.0706  0.4908
19390W        W29083  10.760   0.245  15.784 -0.0311  0.3230 -0.1254
19391W        W29084   1.782  10.721   2.039 -0.2779  0.1878 -0.0439
19392W        W29085  12.320  14.967  16.699 -0.2974 -0.1489  0.2053
19393W        W29086   5.649  17.933   5.014  0.3861 -0.3253 -0.2238
19394W        W29087  14.515  10.051   2.042  0.1983 -0.2044 -0.0542
19395W        W29088   8.911  10.710   3.127  0.0937  0.1136  0.2049
19396W        W29089  11.257   8.794   3.191 -0.1806 -0.0906 -0.1230
19397W        W29090   9.468   9.259  16.791 -0.0844  0.0928  0.1247
19398W        W29091  11.727  16.782   4.639  0.0563 -0.3330  0.1208
19399W        W29092   2.393  17.123   1.392 -0.0833 -0.2419  0.3189
19400W        W29093  10.372   8.787  14.447  0.1560  0.0454 -0.1618
19401W        W29094  11.217  12.936   3.327 -0.1918 -0.0986 -0.1665
19402W        W29095   6.112   6.513   0.741  0.2706  0.2328  0.2285
19403W        W29096  13.854   3.208  14.957 -0.0919 -0.1669 -0.2795
19404W        W29097   5.042   0.749  13.095 -0.0858 -0.1787  0.4312
19405W        W29098  16.384   7.190   0.505  0.4347  0.1836 -0.2039
19406W        W29099   7.125   8.459   6.192 -0.0616  0.2192 -0.0110
19407W        W29100   2.198   6.327   3.209 -0.0667  0.1704  0.2032
19408W        W29101  17.515   9.897  10.994  0.0014  0.2077  0.0242
19409W        W29102   1.021   5.750   4.164  0.0367 -0.1995 -0.0399
19410W        W29103   2.745  14.808  13.927 -0.4526  0.0570  0.2014
19411W        W29104   6.479   8.661  15.593  0.1798  0.0860 -0.2605
19412W        W29105   5.086   7.469   4.106  0.0069  0.4325 -0.2036
19413W        W29106   3.870  12.359  15.491 -0.2462 -0.0306 -0.1858
19414W        W29107  12.519  15.610  11.892 -0.1141  0.1751  0.0521
19415W        W29108   4.079  16.563   1.199 -0.2413 -0.0982 -0.3362
19416W        W29109   4.250   1.109  15.126  0.0597  0.1081  0.2127
19417W        W29110  14.594  15.504   0.384 -0.0417  0.1382  0.1492
19418W        W29111   9.649  14.094   1.365  0.2372 -0.0554  0.2418
19419W        W29112   8.835   1.170   1.842  0.0272 -0.2979 -0.2152
19420W        W29113  11.434  11.785  14.038 -0.0671  0.1251  0.0122
19421W        W29114   6.939   2.095  15.396 -0.1593 -0.1028 -0.2879
19422W        W29115   8.079  15.208   3.343 -0.4007  0.0428  0.0317
19423W        W29116   6.348   3.946  12.194 -0.1184  0.0329  0.0287
19424W        W29117  17.861   5.993   5.498 -0.0939  0.1585  0.1666
19425W        W29118   2.289  13.751   0.835  0.2083 -0.1758 -0.0605
19426W        W29119  17.049   8.810   0.591 -0.1766  0.2659 -0.0813
19427W        W29120   2.962   6.222  13.502  0.2526  0.0538  0.0743
19428W        W29121   3.976   5.575   1.965 -0.1658 -0.0094 -0.0601
19429W        W29122   6.919   3.896   5.223 -0.1056  0.0236  0.1172
19430W        W29123  11.039  17.722   3.939  0.2523 -0.1520 -0.2216
19431W        W29124   5.151   7.626  14.052 -0.1480  0.1694  0.2251
19432W        W29125   7.801  10.096  15.876 -0.1417 -0.2098 -0.1173
19433W        W29126  11.584  17.732  13.692  0.0085  0.0730  0.1811
19434W        W29127   3.811   9.207  13.465  0.0073  0.1434 -0.2162
19435W        W29128  10.486   8.264   1.309 -0.2391 -0.0678  0.0521
19436W        W29129   6.727  10.534   5.216 -0.2015 -0.5221  0.0808
19437W        W29130   6.743   9.683   3.844 -0.0373 -0.1835 -0.1688
19438W        W29131  11.590   2.750   5.271 -0.2593  0.0167  0.0839
19439W        W29132   0.580  14.529   1.337 -0.1524  0.3417 -0.3137
19440W        W29133   1.045  12.109   4.101  0.1527  0.0885 -0.2965
19441W        W29134  10.818  15.114   5.489 -0.2778  0.0839 -0.0620
19442W        W29135   1.438   6.565  16.183  0.0298 -0.2324 -0.2955
19443W        W29136   3.395  14.022   4.479 -0.0545 -0.1115  0.0314
19444W        W29137  15.123   1.484   0.766 -0.0730  0.2031 -0.0643
19445W        W29138   8.974   3.847   4.673 -0.1649 -0.1090  0.0454
19446W        W29139   1.570   7.800   2.719  0.0368  0.1196  0.2133
19447W        W29140   6.057  11.869   2.513 -0.1252 -0.0114  0.0259
19448W        W29141  14.446   5.108   2.993  0.1781 -0.2400  0.0482
19449W        W29142   0.787   0.178   5.899  0.3287 -0.0675 -0.1965
19450W        W29143   0.279  17.196  10.963 -0.2224 -0.1027  0.0434
19451W        W29144  11.352   0.220  17.018  0.1095 -0.0086  0.0802
19452W        W29145   4.306  11.008   3.836  0.3107  0.1565 -0.2792
19453W        W29146   9.067   0.351   5.805 -0.0569  0.1379 -0.0453
19454W        W29147   2.242  15.835   6.258  0.0863 -0.1070  0.1098
19455W        W29148  17.857   4.000  15.074  0.1340 -0.1948 -0.0129
19456W        W29149   7.996  13.999  11.174 -0.1416  0.2265  0.1590
19457W        W29150   2.524  13.203  13.309  0.1469  0.1000 -0.0787
19458W        W29151   5.773  14.498   1.541 -0.1068  0.3290  0.2098
19459W        W29152   3.371  14.899   5.006  0.1651 -0.1315  0.0465
19460W        W29153   8.102   1.581   1.473 -0.2242 -0.2660  0.0372
19461W        W29154   8.937   2.836   0.961 -0.1545  0.0295  0.0100
19462W        W29155   3.932   0.805  13.930 -0.1777  0.0081 -0.5292
19463W        W29156   1.134  10.616  10.447 -0.0591 -0.1860 -0.0605
19464W        W29157   0.050   4.411  12.783  0.0243 -0.2651  0.1001
19465W        W29158   2.188  17.621   4.222  0.2537 -0.1610 -0.1204
19466W        W29159   9.757   6.738   3.661 -0.0653 -0.3210  0.4285
19467W        W29160   7.635  11.027  15.797  0.1244 -0.1675 -0.0178
19468W        W29161   1.278  11.956   0.207 -0.0604  0.0200 -0.0260
19469W        W29162   8.893   1.060   4.566  0.1467 -0.0570  0.1814
19470W        W29163  16.347  14.907   3.531  0.0260  0.0283  0.0765
19471W        W29164   1.159   6.690  13.355  0.0479 -0.3213 -0.0603
19472W        W29165   6.265   3.722  16.453 -0.0563  0.1496  0.0205
19473W        W29166   1.678   8.857  15.754  0.0843 -0.0695 -0.2401
19474W        W29167  16.960   2.893   0.249 -0.0949 -0.1594 -0.0702
19475W        W29168  12.111  12.924  16.822  0.0854 -0.2959 -0.1771
19476W        W29169  14.035  14.751  12.898 -0.1206  0.1835 -0.1207
19477W        W29170   7.747   3.393  16.612  0.0311  0.1391  0.3210
19478W        W29171   0.651  12.203   0.074  0.2003  0.3622  0.3759
19479W        W29172   1.441   7.534   4.189 -0.0838 -0.1562 -0.0566
19480W        W29173  12.261  14.740   4.234 -0.0788  0.0045 -0.1109
19481W        W29174   5.516  12.178   0.368  0.2315 -0.0514  0.2524
19482W        W29175  15.477  15.178   0.357  0.0792  0.1931  0.0976
19483W        W29176   6.334   6.859   2.185 -0.0520 -0.3427  0.3314
19484W        W29177   4.155   2.872   5.285  0.0728 -0.1970 -0.0103
19485W        W29178   0.900  12.300   0.537 -0.1507 -0.1633  0.2451
19486W        W29179   4.287   4.624  15.363 -0.0667 -0.2375 -0.0121
19487W        W29180  17.863  11.553   0.004 -0.1794  0.1853  0.0673
19488W        W29181  17.731  14.876   6.197 -0.1857  0.1418 -0.2385
19489W        W29182  14.173   5.221   3.978  0.1952  0.0948 -0.2608
19490W        W29183   1.692  13.193   2.030  0.4691  0.0256 -0.1591
19491W        W29184   4.565   4.084  10.888  0.2768  0.1302 -0.0247
19492W        W29185  12.037   1.904   3.172  0.3132 -0.2179 -0.1238
19493W        W29186   3.174   9.906  16.538 -0.1102  0.1230  0.0328
19494W        W29187  11.655   3.288   5.015 -0.1421 -0.2048 -0.0167
19495W        W29188   1.684   1.965  11.898  0.0560  0.1126  0.1295
19496W        W29189   9.481  17.269   1.909 -0.2205  0.1686  0.0801
19497W        W29190  14.053  12.801   2.110 -0.0588 -0.4818 -0.1240
19498W        W29191   7.071   3.050  13.030 -0.1380 -0.0363  0.2408
19499W        W29192   4.171   0.591   4.415 -0.1071 -0.1228 -0.1957
19500W        W29193  17.970   5.780  13.926 -0.1497 -0.1167  0.0025
19501W        W29194  17.214   3.042  11.419  0.3294  0.0974 -0.3501
19502W        W29195   6.747  10.772  13.047  0.0459  0.1622 -0.2014
19503W        W29196   4.406   9.339  14.163  0.2987  0.1192  0.0361
19504W        W29197  10.009  17.704   3.415  0.0751  0.1424  0.0252
19505W        W29198   2.937   5.087   0.326 -0.1966  0.0623 -0.3398
19506W        W29199   9.841  15.208  12.013  0.0434  0.0125  0.1800
19507W        W29200   4.432   1.890   1.107  0.1237  0.1195  0.0486
19508W        W29201   3.225   8.788   4.262 -0.2537 -0.1481 -0.4860
19509W        W29202   8.047   1.324   0.965  0.1102  0.0445 -0.2648
19510W        W29203   5.773   7.047   3.898 -0.1194  0.0057  0.1770
19511W        W29204   7.985   2.682  15.113  0.0932  0.1501 -0.1542
19512W        W29205   3.298   9.903   2.676  0.1329 -0.0437 -0.0824
19513W        W29206  13.076   5.242  12.078 -0.0368  0.1005  0.1548
19514W        W29207   5.753  16.264  13.751 -0.0945  0.2713  0.3859
19515W        W29208  15.404  14.397  15.148 -0.1480 -0.0054 -0.2782
19516W        W29209   5.466   8.659  15.518 -0.1575 -0.1000  0.2000
19517W        W29210  15.419   0.601  11.633  0.3484 -0.1444 -0.0330
19518W        W29211   4.193   0.482   1.095 -0.0922  0.4592 -0.1600
19519W        W29212   6.194  12.528   4.228  0.1068  0.0873 -0.1452
19520W        W29213  16.367   3.327   1.204  0.1431  0.1171 -0.1693
19521W        W29214  14.323   5.279   3.476 -0.1393 -0.3714  0.1424
19522W        W29215  12.146   6.454  17.109 -0.1176  0.1106  0.0483
19523W        W29216  12.240  12.163  13.562 -0.1757  0.2830  0.2721
19524W        W29217   6.605   3.746  15.761  0.0354 -0.0388  0.0680
19525W        W29218   1.568   1.151  12.965 -0.0702  0.0223  0.0899
19526W        W29219   5.196   3.682   3.256 -0.3255 -0.0176 -0.1635
19527W        W29220   5.926   1.827   6.888 -0.0757 -0.2662  0.1912
19528W        W29221   3.229  12.573  14.558 -0.1863  0.1230 -0.0625
19529W        W29222   4.337   5.309  14.146  0.1739 -0.3570 -0.1670
19530W        W29223   2.964   9.712   0.208 -0.1345  0.1292 -0.0913
19531W        W29224   2.994  10.249  12.882  0.0273  0.1423 -0.0434
19532W        W29225   7.350   5.214   0.228  0.1625 -0.1629  0.1720
19533W        W29226   0.178   3.188  16.083  0.1902 -0.1460  0.0072
19534W        W29227   9.878  16.375   6.099 -0.0480  0.0654  0.0474
19535W        W29228   3.082   8.765  14.023 -0.0014 -0.3177 -0.2304
19536W        W29229   3.602  14.739   1.155  0.1313 -0.0707 -0.2540
19537W        W29230   7.572  16.416   5.249 -0.0851  0.3571  0.1420
19538W        W29231   0.827   8.010   0.174 -0.2205 -0.0762 -0.1413
19539W        W29232   0.681   7.773   1.552  0.0568 -0.3655 -0.1665
19540W        W29233  17.155  16.137  13.667 -0.1933 -0.1975 -0.1012
19541W        W29234   4.843  14.044   4.560 -0.2653  0.3226 -0.0288
19542W        W29235  16.825  12.047   2.589  0.2387  0.1851  0.0609
19543W        W29236   8.373  12.680   1.610  0.1370 -0.1525 -0.2549
19544W        W29237  16.510  11.331   0.542 -0.1587  0.0057  0.0479
19545W        W29238   4.774   1.095  13.422 -0.4244 -0.3397  0.2801
19546W        W29239  14.101  15.760   2.215 -0.0219  0.0193 -0.1349
19547W        W29240   6.222   8.021  15.196  0.1224  0.1448  0.1560
19548W        W29241   9.574   3.496  11.667 -0.1012 -0.1913  0.0810
19549W        W29242   8.359   3.494  15.473  0.0900  0.2241 -0.2881
19550W        W29243  17.115   5.930  16.501 -0.0038  0.0203  0.1631
19551W        W29244   5.452  10.959   6.354  0.1570 -0.0864 -0.1151
19552W        W29245   0.159   4.102   2.551 -0.1243 -0.0677 -0.1588
19553W        W29246   2.680   7.306   2.927  0.1944 -0.1471  0.5845
19554W        W29247   3.365  14.422  15.867 -0.0384 -0.0112  0.4993
19555W        W29248   0.940   4.931   6.749 -0.1214 -0.1569 -0.0983
19556W        W29249   3.758  10.845  13.898  0.0184 -0.0207  0.3096
19557W        W29250  17.370  14.545   6.008 -0.0486 -0.3315 -0.0344
19558W        W29251  12.947   0.355  14.270  0.2754  0.1799 -0.0731
19559W        W29252   6.902   8.789  16.890  0.0137 -0.3786 -0.3579
19560W        W29253   4.914  16.782  10.959 -0.1413  0.0768 -0.3663
19561W        W29254  11.117   4.810  15.971  0.0754  0.2415  0.2631
19562W        W29255  17.106   2.591   5.339  0.0470 -0.1214  0.1580
19563W        W29256  17.367   6.234   3.039  0.1847  0.0504  0.1118
19564W        W29257   0.997  17.086   3.667 -0.0120 -0.2063 -0.0891
19565W        W29258  17.395   4.810   0.361  0.2604  0.0929 -0.0609
19566W        W29259   7.743  14.372   4.742 -0.0055 -0.0922  0.1760
19567W        W29260  14.377  11.974  11.147  0.2023  0.1403  0.3635
19568W        W29261   8.056  15.256  15.205 -0.0429  0.1927  0.0881
19569W        W29262  10.789   5.977  16.575 -0.1490 -0.0467 -0.1309
19570W        W29263   1.380   9.216  16.674 -0.1517  0.2310 -0.2987
19571W        W29264   4.591   6.563   1.339 -0.1878  0.1635  0.3191
19572W        W29265   1.101  13.620  14.614  0.2614 -0.0230  0.1787
19573W        W29266  11.776  10.548   4.933  0.0023  0.0027  0.1649
19574W        W29267   8.947   3.160  14.968  0.0418  0.2084  0.1216
19575W        W29268   3.112   8.757  12.144  0.0600  0.0578 -0.2325
19576W        W29269   7.744  16.261   3.165 -0.0306 -0.1425 -0.0891
19577W        W29270  12.690  12.719   2.387 -0.0357 -0.0641  0.1017
19578W        W29271  17.287   7.905   1.171 -0.2066  0.3609  0.0662
19579W        W29272   3.775   5.982  11.850  0.2089  0.0494 -0.1866
19580W        W29273   7.054   5.333  14.633  0.1227  0.4606 -0.1005
19581W        W29274  13.893  14.416   0.097 -0.3273 -0.3113  0.1665
19582W        W29275   0.632  17.662  14.487  0.0507 -0.0021  0.0349
19583W        W29276  17.489   6.165  16.023  0.1566 -0.0670 -0.2886
19584W        W29277   6.548   2.430  14.165  0.0560  0.0614  0.1116
19585W        W29278   6.398   6.385   3.639 -0.0332  0.2998 -0.1874
19586W        W29279   1.701  17.696  12.682  0.0598  0.2830 -0.0179
19587W        W29280   2.144   5.740   0.564  0.0275  0.0897  0.1866
19588W        W29281  13.403  16.872  14.618  0.2829 -0.0207 -0.4842
19589W        W29282  12.477  15.805   1.108 -0.3308 -0.1588  0.0793
19590W        W29283   0.348  13.977  13.949  0.0752  0.3975  0.0257
19591W        W29284   5.196   9.668   1.772  0.2093  0.3390 -0.2188
19592W        W29285   2.877   5.947  14.511 -0.4324  0.0405 -0.2329
19593W        W29286   2.214   8.604   5.414  0.0798 -0.2790 -0.0917
19594W        W29287  17.872   8.499  13.639 -0.0703  0.2463  0.3599
19595W        W29288  13.804   3.885   5.354 -0.0356  0.0263  0.0966
19596W        W29289  11.416   1.321   5.413 -0.2157 -0.1159  0.3673
19597W        W29290   6.576  10.485   0.205 -0.2215  0.0849 -0.0875
19598W        W29291   8.878  12.349   3.858  0.0515  0.2351  0.3146
19599W        W29292   8.844   5.729   2.794  0.2165 -0.0426 -0.2911
19600W        W29293  14.151   0.649   6.164 -0.0061  0.2436 -0.0813
19601W        W29294   7.475  14.142   1.363 -0.2764 -0.4644 -0.1845
19602W        W29295   2.002   0.852   0.422 -0.0109 -0.1319  0.0004
19603W        W29296   0.456   9.544  17.007  0.0415  0.0034 -0.1456
19604W        W29297   9.449  13.713  13.468 -0.1598  0.2268  0.0151
19605W        W29298   3.901   1.550  15.961 -0.2053 -0.1325 -0.0976
19606W        W29299   6.226  17.480   5.470 -0.1644 -0.3236 -0.1742
19607W        W29300   8.228   7.705  13.907 -0.2965 -0.1113  0.1359
19608W        W29301   5.385   2.566  15.263  0.1417 -0.0726  0.1811
19609W        W29302   4.870   8.406  12.549 -0.0721  0.3764  0.0004
19610W        W29303  17.474  13.801  12.522  0.1163 -0.1310  0.1989
19611W        W29304  12.939   9.122   3.490  0.0564 -0.2440  0.2348
19612W        W29305   9.663  17.929  16.450 -0.0848  0.0250  0.0696
19613W        W29306   0.542   6.633   2.035 -0.2393 -0.1092 -0.0572
19614W        W29307   6.660   2.713   5.815 -0.1144  0.3494  0.0078
19615W        W29308   1.679   0.678   3.145 -0.0578 -0.1709 -0.0014
19616W        W29309  17.460  13.578  11.526 -0.1789 -0.2323 -0.0148
19617W        W29310   3.641   3.907   2.951  0.2483  0.2026  0.0719
19618W        W29311  16.910   2.241  13.157  0.0893  0.0387  0.2983
19619W        W29312   4.571  10.200   2.442  0.0338  0.0112  0.0370
19620W        W29313  13.464   0.737  12.396  0.1669 -0.1353  0.3497
19621W        W29314   9.853  12.850  12.933 -0.4377  0.3116 -0.3017
19622W        W29315  10.257   9.365   2.910  0.0501  0.1986  0.2008
19623W        W29316   5.792   4.348  12.892 -0.2285 -0.0748 -0.1621
19624W        W29317   7.615  10.675  11.160  0.0939 -0.3302 -0.0434
19625W        W29318   9.760  10.275  16.327  0.1572  0.0149  0.0793
19626W        W29319   7.628   6.556  15.013 -0.2055  0.2589  0.0914
19627W        W29320   6.867   3.015  14.508 -0.1967  0.1309  0.0519
19628W        W29321   8.300   9.069   1.166  0.1112  0.0202  0.3406
19629W        W29322  17.934   6.124  15.718 -0.1941 -0.1346  0.0441
19630W        W29323  16.773   3.027  11.755 -0.2121 -0.1874  0.0731
19631W        W29324  11.986   3.471   4.221  0.2222 -0.1209  0.1333
19632ION     NA29325   4.828   9.895   1.435  0.1672  0.3064 -0.0266
19633ION     NA29326  16.145   9.142   2.832 -0.1890  0.0677  0.0654
19634ION     NA29327  17.136  13.565   6.102 -0.0358 -0.1194 -0.3696
19635ION     NA29328   2.542  15.258   2.927  0.3418 -0.1562  0.2163
19636ION     NA29329  13.041  14.179   5.192  0.2369 -0.0850 -0.0857
19637ION     NA29330   5.414   7.121   1.742  0.2185 -0.1760 -0.1608
19638ION     NA29331   5.265  10.002   5.430  0.0918 -0.1417 -0.0082
19639ION     NA29332  10.250  14.966   0.955  0.2359 -0.0744  0.0813
19640ION     NA29333   5.364   7.373   6.656  0.0208  0.0930 -0.2249
19641ION     NA29334  15.703   7.809  13.823  0.0735  0.0692 -0.2559
19642ION     NA29335  11.289  14.582  14.933  0.2903  0.0254  0.1263
19643ION     NA29336   4.377   5.491  11.418 -0.0157 -0.0206 -0.3274
19644ION     NA29337   7.162  14.636   4.021 -0.0014  0.1737 -0.3804
19645ION     NA29338   8.403  15.476  11.246  0.0396 -0.2284  0.2197
19646ION     NA29339  10.558  16.840   2.882  0.0547 -0.0301  0.3041
19647ION     NA29340   5.393   8.895   5.738 -0.2886 -0.1012 -0.0739
19648ION     NA29341   3.829  10.714   2.522  0.1430 -0.0978 -0.0630
19649ION     NA29342   1.785  10.087  15.513  0.2102  0.2843 -0.2074
19650ION     NA29343  12.455   9.258  16.757  0.3422  0.0315 -0.0765
19651ION     NA29344  10.028   4.816  11.576 -0.1133  0.2063  0.3158
19652ION     NA29345  13.709  14.227  16.146  0.1720  0.2721  0.2871
19653ION     NA29346  16.790   4.528  10.686 -0.0739  0.3153 -0.3548
19654ION     NA29347   4.573   6.198   3.200  0.0740 -0.3264 -0.2973
19655ION     NA29348   3.275  14.339   6.641  0.0789  0.0987  0.0538
19656ION     NA29349   5.742   3.388  11.092 -0.0200 -0.2281  0.2170
19657ION     NA29350   7.620   4.571   1.504  0.2736 -0.0638 -0.1280
19658ION     NA29351   8.197   5.018  11.415 -0.0983  0.1156  0.0232
19659ION     NA29352   7.356   2.798  14.386 -0.2167  0.1303 -0.1688
19660ION     NA29353   3.877  15.880  10.844 -0.0288 -0.1497 -0.0770
19661ION     NA29354  11.696   5.031   1.990  0.1932  0.1355  0.0559
19662ION     NA29355  17.412   8.971   0.259  0.1969  0.1568 -0.1569
19663ION     NA29356  16.681  10.159  12.849  0.0215 -0.1536  0.2020
19664ION     NA29357   5.002   3.899  11.150  0.0158 -0.0395  0.2861
19665ION     NA29358   1.931   2.938  13.712 -0.1561  0.2048 -0.2586
19666ION     NA29359   8.557   2.108  10.908  0.0277  0.1007 -0.0563
19667ION     NA29360  11.662   0.454  10.335  0.0290 -0.1227 -0.1361
19668ION     NA29361   9.512   7.465  14.599 -0.3657 -0.0795 -0.0778
19669ION     NA29362   8.557   9.688   2.314 -0.1564 -0.2285 -0.0686
19670ION     NA29363   2.478   5.220  10.836 -0.1033 -0.0259  0.1011
19671ION     NA29364  17.394   4.053  16.408 -0.0182  0.1489  0.3121
19672ION     NA29365   7.799   7.081   1.957  0.0725 -0.0335  0.1458
19673ION     NA29366  14.859   3.119  16.198 -0.1666  0.0751  0.1857
19674ION     NA29367  17.423  15.012  10.678  0.0189  0.0717 -0.1562
19675ION     NA29368   7.431   5.209  11.693  0.0777  0.1176  0.0695
19676ION     NA29369  12.485   8.708  16.148  0.1316  0.2289  0.2687
19677ION     NA29370  14.683  17.080  13.817 -0.0859 -0.0477  0.0227
19678ION     NA29371   1.717  16.126  10.544 -0.1053 -0.0464  0.1442
19679ION     NA29372   4.688   3.616   2.671  0.1401 -0.0536 -0.1615
19680ION     NA29373   0.622   3.581  13.591  0.2107  0.1872  0.4983
19681ION     NA29374  17.682   7.124  10.647  0.1419 -0.2438 -0.1208
19682ION     NA29375   8.937   8.257  11.643  0.1010  0.1793 -0.3809
19683ION     NA29376   4.447  13.902  11.216  0.2082 -0.1917  0.0732
19684ION     NA29377   8.758   2.989  10.833 -0.2664 -0.1164  0.0942
19685ION     NA29378  17.927   5.520  10.725 -0.4211 -0.1558 -0.0888
19686ION     NA29379  16.667  14.137   6.127 -0.0332  0.1572  0.2515
19687ION     NA29380   5.571  12.005  11.085  0.0863 -0.0133 -0.0721
19688ION     NA29381  10.027   7.895   1.324 -0.2393  0.1939 -0.1273
19689ION     NA29382   3.427   1.288   5.006 -0.2426  0.2062 -0.1189
19690ION     NA29383  11.322  17.097  10.754 -0.1184  0.3103 -0.2991
19691ION     NA29384   9.500  10.507   6.880  0.0328  0.1060 -0.3105
19692ION     NA29385   0.227  11.409   2.126 -0.1595 -0.0391 -0.6314
19693ION     NA29386  17.884   3.097   5.960  0.2335 -0.1687 -0.0166
19694ION     NA29387  16.938  14.002  10.747  0.2197  0.2095  0.0272
19695ION     NA29388  16.430  15.746   5.303  0.0084 -0.1929  0.2423
19696ION     NA29389   5.548  17.301   3.345  0.0213 -0.0065  0.2132
19697ION     NA29390  15.890   1.003  14.378  0.2174 -0.0115  0.1851
19698ION     NA29391   7.564   0.008  10.844 -0.3002 -0.1187 -0.1973
19699ION     NA29392  14.698   9.747   1.423 -0.0204 -0.0875 -0.2284
19700ION     NA29393   4.333  10.243  11.317 -0.1680  0.0224  0.1327
19701ION     NA29394   4.266   8.587   4.675 -0.0816 -0.1881  0.0630
19702ION     NA29395   4.059   0.186  11.036 -0.1101  0.2210 -0.0702
19703ION     NA29396   3.975   4.723  11.105  0.0682  0.0380  0.2960
19704ION     NA29397   3.077  12.446  11.018 -0.1409  0.2056 -0.0747
19705ION     NA29398   6.868   0.280  10.877 -0.0524  0.1534  0.1288
19706ION     NA29399   8.740   5.669   0.611  0.2528 -0.2598 -0.1361
19707ION     NA29400  14.267  13.605   1.878  0.0193 -0.3285  0.3408
19708ION     NA29401  10.085   5.094   2.688  0.1197 -0.2182  0.1611
19709ION     NA29402   2.128  14.215  10.754 -0.0962  0.1792  0.1726
19710ION     NA29403   3.598  15.384   1.722 -0.1227  0.1969 -0.2177
19711ION     NA29404   5.165   5.950   4.945  0.0652  0.3126  0.0463
19712ION     NA29405  16.597   5.529   2.314 -0.4007 -0.0897  0.3326
19713ION     NA29406  10.430  15.630  16.012 -0.0225  0.0499 -0.0993
19714ION     NA29407  13.134  13.689  13.091 -0.1471  0.0112  0.2108
19715ION     NA29408   7.746   8.848  14.736  0.1397  0.1373  0.1208
19716ION     NA29409   6.413   1.660   1.862  0.0680 -0.1499 -0.1840
19717ION     NA29410  12.011   7.549   5.524 -0.0395  0.0321  0.0596
19718ION     NA29411   7.395   5.665   0.902 -0.3193  0.1420 -0.1849
19719ION     NA29412  11.872  12.247   3.103  0.1638 -0.0420 -0.1780
19720ION     NA29413   5.961   6.192  13.505  0.1666  0.3328 -0.2117
19721ION     NA29414   1.445   6.978  15.851  0.2447 -0.2225 -0.1918
19722ION     NA29415   1.715  10.300   3.635 -0.0682  0.3721 -0.0166
19723ION     NA29416  10.569  17.017  10.636  0.0872 -0.1788  0.1721
19724ION     NA29417   6.739  10.835  11.233  0.2144 -0.3995  0.1679
19725ION     NA29418   7.288  16.664  10.491  0.2298  0.3357  0.1009
19726ION     NA29419   9.701  13.001   1.221 -0.0220  0.0783 -0.0051
19727ION     NA29420   8.357   3.809  12.605 -0.2255  0.1488 -0.0447
19728ION     NA29421   0.934   0.300   1.544  0.0372 -0.2773 -0.1930
19729ION     NA29422   6.961  14.896   6.508 -0.2043  0.2524 -0.2002
19730ION     NA29423   2.780   3.481  10.738 -0.1949 -0.0859  0.1474
19731ION     NA29424   2.586   5.973   4.298 -0.2024  0.1537  0.0938
19732ION     NA29425   7.969   5.772   3.075  0.0269  0.1230 -0.0364
19733ION     NA29426   6.720  13.826   4.403 -0.1283  0.0706  0.1078
19734ION     NA29427  16.751   0.113  13.907  0.1884 -0.0570 -0.1128
19735ION     NA29428   2.975   8.712  11.003  0.2430 -0.0557 -0.3220
19736ION     NA29429   0.655   7.003   0.662  0.0372  0.1061  0.1601
19737ION     NA29430   3.426  13.609   0.311  0.0812  0.3168 -0.0529
19738ION     NA29431   6.516   2.874  11.088  0.3452 -0.2396  0.1871
19739ION     NA29432   2.366   0.690  10.829 -0.0427 -0.1613 -0.3575
19740ION     NA29433  15.905  12.623   2.271 -0.1498  0.0349 -0.0301
19741ION     NA29434   5.013  15.600   0.314  0.0219 -0.1524 -0.1492
19742ION     NA29435  17.453  12.303   5.400  0.1882 -0.1008 -0.0146
19743ION     NA29436   0.644  15.261  15.156  0.3677  0.2674 -0.0346
19744ION     NA29437  10.115   8.883  14.939  0.1934 -0.0509  0.1874
19745ION     NA29438   0.948   3.471   2.621 -0.2290  0.0895  0.1760
19746ION     NA29439   7.219  15.670   6.289  0.0458  0.0036  0.1483
19747ION     NA29440  14.210  11.269   0.086  0.1344 -0.0803  0.2169
19748ION     NA29441   5.781  16.620  10.907 -0.0670 -0.1756 -0.0610
19749ION     NA29442   2.433   9.965  10.703  0.1611  0.0349 -0.0532
19750ION     NA29443   8.141  11.656   3.654 -0.0366  0.1768 -0.0385
19751ION     NA29444   2.037  10.915  10.977  0.0784 -0.3788  0.0659
19752ION     NA29445   1.166  15.982  13.007  0.0999 -0.1256  0.2618
19753ION     NA29446   2.022   8.125   6.254 -0.1331  0.3943 -0.1729
19754ION     NA29447   6.926   1.147   4.354 -0.0105 -0.3654  0.0313
19755ION     NA29448  13.985   9.445   6.183  0.0512  0.1178 -0.0388
19756ION     NA29449   7.864   5.265   4.037 -0.0998  0.0617  0.0433
19757ION     NA29450  17.311   9.678   6.121  0.1377 -0.2838 -0.2679
19758ION     NA29451   3.298  10.535  16.925 -0.0272 -0.3550 -0.0841
19759ION     NA29452   1.329   8.129  11.485  0.0320 -0.1765 -0.0374
19760ION     NA29453   6.532  13.124  11.336  0.3075 -0.1941  0.0820
19761ION     NA29454  13.598  11.596  14.578  0.0696 -0.2427 -0.1366
19762ION     NA29455   4.548   7.415  11.255  0.1935  0.1148  0.3330
19763ION     NA29456  11.541   4.752   6.694  0.2011 -0.2109  0.1319
19764ION     NA29457   7.591   7.265  15.763 -0.1612 -0.0356 -0.2719
19765ION     NA29458   9.928  11.495   2.725  0.3281 -0.1968  0.0751
19766ION     NA29459   3.238  11.775   6.329  0.0032 -0.2953  0.1399
19767ION     NA29460   5.884   4.184   5.985  0.0132  0.0256  0.1611
19768ION     NA29461   9.981  11.765  16.614  0.1545  0.0151  0.1668
19769ION     NA29462   1.813  10.107   1.406 -0.1705 -0.0046 -0.0175
19770ION     NA29463   3.882  12.303   6.596 -0.1246  0.1349  0.4721
19771ION     NA29464   1.949   4.382  10.851  0.0920  0.2614 -0.0536
19772ION     NA29465   6.277   4.321  11.436 -0.2218  0.2050  0.0069
19773ION     NA29466   3.345   7.869   1.982 -0.3091  0.0758 -0.3885
19774ION     NA29467   1.733  13.367   0.634 -0.0482 -0.0440 -0.0991
19775ION     NA29468   8.606   7.083   5.993 -0.1651  0.3072 -0.1474
19776ION     NA29469   5.812   1.961   5.252  0.1383  0.2189  0.0084
19777ION     NA29470   7.678   4.602  15.607 -0.0785  0.3476  0.0460
19778ION     NA29471   7.035  16.124  13.839 -0.1549  0.2383 -0.0354
19779ION     NA29472   9.030  17.668   4.390 -0.1199  0.0351  0.0482
19780ION     NA29473   0.628   1.077   4.385  0.0378  0.0553 -0.3046
19781ION     NA29474  17.639  14.415  17.044  0.2232 -0.3754 -0.1352
19782ION     NA29475   6.818  17.328  10.924 -0.1675 -0.0794  0.0238
19783ION     NA29476  17.118  13.669   4.936  0.2981  0.1938  0.2557
19784ION     NA29477   0.256  17.126   6.314 -0.0294 -0.3065 -0.1164
19785ION     NA29478   6.894  14.150  16.666  0.0766  0.0276  0.1536
19786ION     NA29479   0.698  15.720   3.907 -0.0454 -0.1207 -0.1022
19787ION     NA29480   0.544   0.604   2.472 -0.0687  0.3058  0.2131
19788ION     NA29481   4.511  16.274   6.245 -0.2350 -0.0864  0.3217
19789ION     NA29482  10.614   9.599   6.407  0.2317 -0.1999  0.2299
19790ION     NA29483   7.016  10.315  16.603  0.1410  0.1553 -0.2938
19791ION     NA29484   7.377   2.473  17.090 -0.1133  0.3874 -0.1206
19792ION     NA29485   1.081   6.410  14.318  0.1205 -0.0842  0.1545
19793ION     NA29486  17.325  17.252   6.417  0.3915  0.1290  0.3926
19794ION     NA29487  15.675   1.500   3.516 -0.1619 -0.3338 -0.3410
19795ION     NA29488   7.592  17.209   3.362  0.2618  0.0719 -0.1683
19796ION     NA29489   5.829  15.567  11.074 -0.1414  0.1774 -0.1062
19797ION     NA29490  15.419   7.707   4.064 -0.1828 -0.1310 -0.1808
19798ION     NA29491   1.401  11.799  14.327  0.1478 -0.0280 -0.1374
19799ION     NA29492   0.466  11.250  14.747  0.0227 -0.1098  0.1628
19800ION     NA29493   8.158   1.507   4.135 -0.1524 -0.2102 -0.0222
19801ION     NA29494   3.890  12.983   3.472 -0.2381 -0.2551 -0.2848
19802ION     NA29495   9.468  16.516  13.196  0.3231  0.2550  0.1071
19803ION     NA29496  15.558  16.142  10.402 -0.0611  0.0331 -0.1956
19804ION     NA29497   0.630   4.794   0.684 -0.1348 -0.1196  0.0654
19805ION     NA29498  14.982  12.642   2.183 -0.0415 -0.3814  0.0285
19806ION     NA29499   3.972   6.384  14.935  0.1654  0.3101 -0.1505
19807ION     NA29500   6.491  10.251   2.493 -0.0917  0.2178  0.0069
19808ION     NA29501   2.302   5.118   6.473  0.3725  0.1143 -0.0793
19809ION     NA29502   9.388   3.355  14.938 -0.0889  0.2109 -0.2870
19810ION     NA29503   8.665  13.772   3.669  0.2389 -0.3364  0.0943
19811ION     NA29504  17.481   7.980   0.176  0.0783  0.3484 -0.1098
19812ION     NA29505   7.056   7.039   6.760 -0.0398  0.2009 -0.0968
19813ION     NA29506   7.147  11.373  11.232 -0.1796 -0.2180  0.4128
19814ION     NA29507   0.403   2.651   5.422  0.0582 -0.2590  0.0722
19815ION     NA29508   5.658   7.048  11.464 -0.0871 -0.3292  0.2264
19816ION     NA29509   8.166   3.283  14.586 -0.1515  0.0517  0.1282
19817ION     NA29510  17.514   5.105  10.739  0.0796 -0.1775  0.2034
19818ION     NA29511   1.797  12.811   2.829 -0.0678 -0.0681  0.0124
19819ION     NA29512  16.833  16.976  14.639 -0.1083  0.2222  0.0762
19820ION     NA29513   0.129  14.241   1.307  0.1161  0.1574 -0.0038
19821ION     NA29514   5.349  10.140   3.041 -0.0550  0.0614  0.1217
19822ION     NA29515  14.254   5.335  13.424  0.1765 -0.2033 -0.1824
19823ION     NA29516  11.003  12.148   6.911  0.0479  0.1672  0.0793
19824ION     NA29517   1.589   3.565   6.449 -0.2510  0.1747  0.0334
19825ION     NA29518  10.722   7.506  11.602 -0.4766 -0.0974 -0.0855
19826ION     NA29519   4.342  14.555   6.547 -0.0312 -0.1606 -0.1451
19827ION     NA29520   0.196   9.003   2.560  0.0001 -0.0865 -0.1336
19828ION     NA29521   6.886  11.526  14.828 -0.1454  0.1410 -0.0374
19829ION     NA29522   6.574   5.418   1.440 -0.0373  0.0698  0.1963
19830ION     NA29523  15.985  16.323   4.684  0.2928  0.0356  0.2311
19831ION     NA29524   1.451   5.976  10.756 -0.2181 -0.0250  0.2000
19832ION     NA29525   3.394   0.006   2.711  0.0402 -0.0708  0.1000
19833ION     NA29526   4.759  15.783  10.997 -0.0506 -0.1579  0.1281
19834ION     NA29527  13.676  13.332   0.643 -0.2541  0.2320 -0.2248
19835ION     NA29528   7.432  14.987  10.898 -0.3438 -0.0987  0.1652
19836ION     NA29529   4.116   7.805  11.176  0.1582  0.3559  0.4080
19837ION     NA29530   0.758   7.497   4.925  0.1457 -0.2222  0.0393
19838ION     NA29531   4.270   8.550   2.847 -0.1304 -0.0312  0.0440
19839ION     NA29532   2.765  17.818  10.727  0.2720  0.0558 -0.0597
19840ION     NA29533   3.852   1.893   1.058  0.0591 -0.1171  0.2466
19841ION     NA29534   0.960  13.377  15.915 -0.0714  0.2262 -0.0449
19842ION     NA29535   2.786  11.517  10.985 -0.0352 -0.0247 -0.0570
19843ION     NA29536  13.308  12.223   4.495 -0.1427 -0.1094  0.1105
19844ION     NA29537   3.304  16.033   6.475 -0.1484  0.0875  0.1762
19845ION     NA29538   3.305  16.057   3.575  0.1497  0.0969  0.0391
19846ION     NA29539   6.614   9.900  11.368 -0.0855  0.0561  0.0178
19847ION     NA29540   6.002   0.726  14.341  0.0784  0.0265 -0.0178
19848ION     NA29541   5.917  10.308  10.969 -0.0560 -0.1136  0.1176
19849ION     NA29542   2.270  17.703   3.334  0.1040 -0.1934 -0.1508
19850ION     NA29543   4.575  17.557  10.730  0.3292 -0.1205 -0.0711
19851ION     NA29544   3.492  12.055  11.103 -0.1139  0.0115  0.2106
19852ION     NA29545   9.830   9.884  14.741  0.1415 -0.3010  0.3200
19853ION     NA29546   1.145   3.519  16.705 -0.0740  0.1319 -0.0855
19854ION     NA29547   6.105   0.565   6.402 -0.0782 -0.2311  0.2053
19855ION     NA29548   0.877   7.516  10.737  0.0372  0.1007  0.1330
19856ION     NA29549   0.685   2.558  10.661 -0.3554 -0.1827  0.0710
19857ION     NA29550   7.562  12.054   4.684 -0.0162 -0.2664 -0.1220
19858ION     NA29551   3.162   9.509   1.577  0.0059  0.1584 -0.0050
19859ION     NA29552   5.330  10.832  11.234 -0.1505 -0.0882 -0.1266
19860ION     NA29553   7.539  14.728   6.567  0.0187 -0.3282 -0.0775
19861ION     NA29554   8.072   0.621  17.093  0.2861  0.2710  0.1324
19862ION     NA29555   0.883   0.271  15.879  0.2940  0.0723 -0.0172
19863ION     NA29556   4.608   4.000   3.875  0.0769  0.0002  0.2380
19864ION     NA29557   8.316   6.235  11.653  0.0641  0.0018 -0.3670
19865ION     NA29558   1.571  15.103   3.771 -0.1196  0.1427 -0.0565
19866ION     NA29559   5.889  11.073   6.114  0.1023  0.3558 -0.1112
19867ION     NA29560   8.467   3.672  11.294 -0.0501 -0.1781  0.2834
19868ION     NA29561   6.574  15.522  10.761 -0.1292 -0.1323 -0.3657
19869ION     NA29562  11.332   9.661   3.146  0.0365 -0.0176  0.2535
19870ION     NA29563   6.459   6.617  11.282 -0.0877  0.1129 -0.3094
19871ION     NA29564   4.884  11.694   4.020  0.0948 -0.1428  0.0669
19872ION     NA29565   7.851   1.770  14.499 -0.0475  0.1057  0.0376
19873ION     NA29566   7.185  17.490  16.598  0.1919 -0.0835  0.2074
19874ION     NA29567   4.190   5.977   6.334  0.0661  0.1972 -0.1334
19875ION     NA29568   3.465   5.332  11.039 -0.0518 -0.1902 -0.0325
19876ION     NA29569   4.638   4.281  11.930  0.1763  0.0010  0.3059
19877ION     NA29570   7.300   6.224  11.661 -0.3471  0.4172  0.0003
19878ION     NA29571   4.979  17.873   2.119  0.2913  0.4124 -0.0211
19879ION     NA29572   7.895   4.794  16.584  0.2139 -0.0852  0.1737
19880ION     NA29573   6.655  16.493  10.983 -0.0144 -0.3414 -0.0026
19881ION     NA29574   0.885   5.329  10.804 -0.1891 -0.3179  0.0790
19882ION     NA29575   3.339   0.720   6.286 -0.2235  0.0461  0.1443
19883ION     NA29576   8.382  17.015  10.735  0.1688  0.1510 -0.0781
19884ION     NA29577  16.993   3.084  10.405 -0.2683 -0.1525 -0.2071
19885ION     NA29578   3.531   0.870   4.695  0.1028  0.0666  0.0442
19886ION     NA29579   4.412  17.896   1.042 -0.2683 -0.0803  0.4054
19887ION     NA29580   3.508  15.221   4.579  0.1341  0.3596  0.0728
19888ION     NA29581  15.175   8.392  13.923  0.0011 -0.1992  0.1280
19889ION     NA29582   9.290  15.147  11.363 -0.4075  0.1367  0.1517
19890ION     NA29583  16.417   4.224   4.623 -0.1441 -0.0042 -0.0356
19891ION     NA29584  17.148   2.872   3.850 -0.1106  0.0525  0.4310
19892ION     NA29585  12.325   7.801   2.821 -0.0350 -0.1254 -0.1532
19893ION     NA29586   3.693   0.442   6.474 -0.2907 -0.4028 -0.1123
19894ION     NA29587  10.374  15.850   6.518  0.0827  0.2797  0.0733
19895ION     NA29588   1.585   2.541  10.710 -0.2706  0.4203  0.0233
19896ION     NA29589  11.473  16.490   5.288 -0.0119  0.2841  0.3492
19897ION     NA29590  10.230  10.267  11.175 -0.2430 -0.0366  0.0405
19898ION     NA29591  11.919  13.337  14.970 -0.2199  0.0231 -0.1450
19899ION     NA29592   2.866  13.725   1.605 -0.0650  0.0222 -0.0513
19900ION     NA29593   6.626   5.905  15.913 -0.3555 -0.2278  0.2641
19901ION     NA29594   6.647  13.355  17.093 -0.0657 -0.1302  0.3202
19902ION     NA29595  11.974   9.452  10.779  0.1171 -0.0610  0.0228
19903ION     NA29596  17.712  13.487  12.928 -0.0023 -0.0012  0.2420
19904ION     NA29597  10.595   2.044   0.694  0.0094  0.2346 -0.1184
19905ION     NA29598   2.341  16.178  14.816 -0.0219 -0.0712 -0.0020
19906ION     NA29599   8.735   9.132  11.238 -0.1896  0.1162 -0.0805
19907ION     NA29600   8.161  12.399  11.520 -0.2567 -0.4438  0.3114
19908ION     NA29601   5.529  11.697   2.640  0.1764 -0.0110 -0.1036
19909ION     NA29602   6.407  11.443   2.361  0.0292  0.1617  0.1299
19910ION     NA29603  17.107  13.231   0.224 -0.0877  0.0887 -0.0561
19911ION     NA29604   7.174   7.202  11.619 -0.0689  0.0818 -0.3519
19912ION     NA29605   6.977  14.198  10.707  0.2595 -0.2332  0.1965
19913ION     NA29606  10.057   7.396   6.744  0.0920 -0.2876 -0.0222
19914ION     NA29607   0.521  12.186  12.902 -0.5113 -0.0099 -0.1645
19915ION     NA29608  12.195   2.620   1.607  0.0916 -0.1051  0.0677
19916ION     NA29609   3.729  12.162  13.300  0.1097 -0.2570 -0.1346
19917ION     NA29610   5.298  16.820   4.015  0.1815 -0.2675 -0.0749
19918ION     NA29611   6.476   8.917   6.800 -0.1231 -0.1031  0.1570
19919ION     NA29612   9.651   1.177   6.500  0.2396 -0.0862  0.0178
19920ION     NA29613  16.983   3.105  15.093  0.0604  0.0637  0.2168
19921ION     NA29614   2.643  15.368   6.456  0.1022  0.2201  0.0369
19922ION     NA29615   3.167  17.066  14.393  0.1317  0.0386 -0.1651
19923ION     NA29616  10.995   8.945  11.438  0.0666 -0.0290  0.1090
19924ION     NA29617   5.003   2.902  10.890 -0.0733  0.0800  0.1674
19925ION     NA29618  15.144   8.300   3.213  0.0539  0.0874  0.0175
19926ION     NA29619   3.006   3.714   3.779 -0.0151 -0.2574 -0.0421
19927ION     NA29620   2.517   0.848   2.751 -0.0835  0.0926  0.1497
19928ION     NA29621   2.278  10.662   2.083  0.1099  0.2415 -0.2680
19929ION     NA29622  16.165  10.009   3.434 -0.0737 -0.0125  0.1198
19930ION     NA29623   9.154  16.761   4.118 -0.0372  0.3308 -0.3344
19931ION     NA29624   4.743   7.782  16.811  0.2059 -0.4008 -0.0791
19932ION     NA29625   5.081   8.670  16.511 -0.1348  0.0962 -0.0511
19933ION     NA29626   8.833   2.910   5.929  0.0313 -0.1897  0.0847
19934ION     NA29627   7.036   6.162   5.795  0.1621  0.3593 -0.0132
19935ION     NA29628   5.106   9.093  11.688  0.0706 -0.3061  0.0465
19936ION     NA29629   4.783   4.693  11.453  0.6661  0.1446 -0.1999
19937ION     NA29630   5.001   1.146  10.951  0.1012 -0.1333 -0.1729
19938ION     NA29631   9.248   8.115   0.653  0.0162  0.0132 -0.0580
19939ION     NA29632   6.169   6.891   6.579  0.1540  0.2057  0.3628
19940ION     NA29633   1.247   6.338   2.852  0.1360  0.1289  0.0779
19941ION     NA29634   5.519  17.210   2.706 -0.0129  0.1575  0.2300
19942ION     NA29635   8.586   5.615  15.962  0.0556 -0.1473  0.1276
19943ION     NA29636   7.008  15.144   2.408 -0.0921  0.4103  0.0504
19944ION     NA29637  10.632  17.556   0.328  0.0133  0.0819  0.1299
19945ION     NA29638   1.335  16.256   5.988 -0.3143 -0.0504 -0.0707
19946ION     NA29639   9.326   4.644  16.247 -0.1196  0.2007 -0.1129
19947ION     NA29640  10.034   5.525  11.303 -0.2805 -0.1659  0.0100
19948ION     NA29641  14.866  14.681   3.721  0.0679 -0.1984 -0.0845
19949ION     NA29642   0.927  11.515  10.525 -0.0300 -0.3504  0.0788
19950ION     NA29643   2.754  15.052  12.023 -0.1574 -0.2893 -0.0151
19951ION     NA29644  13.731  10.998  13.621  0.3082  0.1399 -0.3246
19952ION     NA29645   4.946  14.249  15.054 -0.3653 -0.2105 -0.0376
19953ION     NA29646   8.025   2.893  10.929 -0.0298  0.0225 -0.3567
19954ION     NA29647   1.204  10.996   5.704  0.3152  0.1116  0.2458
19955ION     NA29648  16.514  16.498   3.842  0.0429  0.1834 -0.0107
19956ION     NA29649   7.690   2.271   4.854 -0.0468 -0.0179 -0.5446
19957ION     NA29650   8.162  12.992  14.170  0.1719  0.1126  0.0057
19958ION     NA29651  10.235   3.062  10.682  0.3189 -0.0129 -0.1766
19959ION     NA29652   5.993   8.202   0.211 -0.2380 -0.1517 -0.1201
19960ION     NA29653   1.622   3.092   5.353 -0.0065 -0.1007 -0.1759
19961ION     NA29654  14.200  14.340  12.601  0.1979 -0.0884 -0.2651
19962ION     NA29655  17.363   0.399  10.274  0.3466 -0.0966  0.0238
19963ION     NA29656   4.266  16.510  16.083  0.0360 -0.0225  0.2998
19964ION     NA29657   6.602   1.790   6.511  0.0250  0.0197 -0.0918
19965ION     NA29658   5.903   6.102   6.596 -0.1473  0.0694 -0.2129
19966ION     NA29659  17.283  12.081   4.300  0.2370 -0.0714  0.0373
19967ION     NA29660   7.194   0.839  13.417  0.1118  0.0674  0.2380
19968ION     NA29661   5.388  14.094   6.728 -0.0064 -0.0643 -0.0179
19969ION     NA29662   6.160  17.124   6.197 -0.2396 -0.0500  0.1219
19970ION     NA29663   7.913   0.111  11.723 -0.0036  0.0411  0.0066
19971ION     NA29664  12.298  11.424  12.336  0.2102 -0.2379  0.1498
19972ION     NA29665  12.779  16.384   6.109  0.0932 -0.1078  0.0295
19973ION     NA29666   2.640   8.120  14.686  0.1089 -0.0181 -0.0812
19974ION     NA29667  13.991   2.365  10.251  0.3293  0.0544  0.0579
19975ION     NA29668  13.306  15.139   2.912 -0.0498 -0.1559  0.1560
19976ION     NA29669   4.452   9.258   1.465 -0.0208 -0.2507 -0.2254
19977ION     NA29670   9.278  16.962   0.850  0.0493 -0.4953  0.4477
19978ION     NA29671   5.656   0.552  16.156 -0.2099 -0.2715 -0.2138
19979ION     NA29672   6.970   4.615   6.400 -0.0666  0.0129  0.1971
19980ION     NA29673  16.609   1.885   5.648  0.1185 -0.1408  0.0996
19981ION     NA29674   6.425  16.386   3.322  0.0150 -0.2107 -0.0210
19982ION     NA29675   2.093   0.141   1.605  0.0326 -0.2289 -0.0486
19983ION     NA29676   6.571   0.116  15.215 -0.1263 -0.1492 -0.0495
19984ION     NA29677   3.586  17.707   6.108  0.0697  0.1187 -0.3134
19985ION     NA29678   8.501   2.033   5.937  0.1259 -0.2238  0.0667
19986ION     NA29679   4.740  16.902   0.604  0.0215 -0.1770 -0.4543
19987ION     NA29680   0.061   8.053  12.888 -0.0813  0.0162  0.2282
19988ION     NA29681   9.481   0.584  10.712 -0.0205 -0.1726 -0.0807
19989ION     NA29682   8.173  14.880   2.956  0.0188 -0.2295  0.0882
19990ION     NA29683   9.022  12.457  11.204 -0.0086 -0.2203 -0.0754
19991ION     NA29684   4.936  14.656   2.888  0.2110 -0.0960  0.1116
19992ION     NA29685   5.297  15.922  15.232  0.0310 -0.1133 -0.0144
19993ION     NA29686   5.677   1.577  13.653 -0.2926  0.4003 -0.1097
19994ION     NA29687   7.196   2.547   6.224  0.0779 -0.2011 -0.1940
19995ION     NA29688  16.860  11.640  10.119  0.1225  0.0755  0.0229
19996ION     NA29689   5.971   9.421  11.281  0.2511  0.0208  0.0020
19997ION     NA29690  12.388  14.432  15.965 -0.0481 -0.1437  0.0754
19998ION     NA29691   9.758   6.303   2.813 -0.0721 -0.2410  0.1259
19999ION     NA29692   5.286   3.329   3.972  0.0742 -0.1917  0.1483
20000ION     NA29693   7.100   8.065  11.325 -0.3568  0.2161  0.2935
20001ION     NA29694  15.803  11.734   2.279 -0.2021 -0.2594  0.3435
20002ION     NA29695   4.165  12.404  11.588 -0.3633 -0.1801  0.0550
20003ION     NA29696   4.184  11.962   3.586 -0.0556 -0.0378 -0.2396
20004ION     NA29697   4.377   1.459   5.677  0.1243  0.0894 -0.0908
20005ION     NA29698   0.506   3.603   6.374  0.0812  0.3425 -0.0784
20006ION     NA29699   4.407  17.286   6.038 -0.0817  0.2131  0.1917
20007ION     NA29700  11.876  14.973  14.521  0.4731  0.0096 -0.0157
20008ION     NA29701   7.761  12.618   6.095 -0.0721 -0.1526  0.1245
20009ION     NA29702   0.420   9.954  10.774  0.1238  0.0899  0.2696
20010ION     NA29703  10.770   7.318   3.879 -0.1106 -0.1707 -0.2194
20011ION     NA29704   1.406  14.480  10.467  0.1074 -0.0815 -0.1014
20012ION     NA29705  14.123  11.600   1.016 -0.0992  0.0203  0.0341
20013ION     NA29706   3.395  11.751   3.449  0.4262 -0.0994  0.0677
20014ION     NA29707   3.602  11.131  11.277 -0.0957 -0.1325  0.1983
20015ION     NA29708   8.589   7.177  11.639  0.1985 -0.1000  0.0200
20016ION     NA29709   2.784   4.315   3.144  0.1805  0.2488 -0.2351
20017ION     NA29710   8.997  15.357  14.163 -0.1468 -0.0485 -0.0384
20018ION     NA29711   0.805  10.796   0.040 -0.0051  0.2428  0.3292
20019ION     NA29712   2.986  14.862  10.672  0.2544 -0.3343  0.0068
20020ION     NA29713  17.791  17.571  10.316  0.1385 -0.1674  0.0968
20021ION     NA29714   6.296   9.966   6.872  0.1099  0.0619  0.4066
20022ION     NA29715   2.515  14.801   3.918  0.1710  0.2957 -0.1688
20023ION     NA29716   8.779   5.936  16.743 -0.0519  0.0844 -0.0292
20024ION     NA29717   4.135  13.431   1.436 -0.2173 -0.0723 -0.0606
20025ION     NA29718   0.622   7.729   6.579  0.0203  0.0758  0.1410
20026ION     NA29719   6.690   5.582   6.714 -0.0885 -0.1018  0.0651
20027ION     NA29720  15.301  10.931   6.043 -0.0712 -0.1301 -0.0796
20028ION     NA29721   6.870   8.947  11.367 -0.1948  0.0336  0.1814
20029ION     NA29722  11.532   7.238   7.025  0.1519  0.1209  0.1432
20030ION     NA29723  17.800   4.178   3.301 -0.1584  0.0601 -0.3258
20031ION     NA29724  10.680  10.903   2.814  0.2745  0.1199  0.1132
20032ION     NA29725   5.861   9.708   2.298 -0.1180 -0.1237 -0.1260
20033ION     NA29726   2.970  10.154   0.671  0.1990 -0.3206 -0.1275
20034ION     NA29727  11.083   7.844   1.851  0.0164 -0.0236 -0.0968
20035ION     NA29728   4.247   9.456  11.180 -0.0077  0.2350 -0.1041
20036ION     NA29729   7.154   6.344   3.397 -0.0669  0.0299  0.3297
20037ION     NA29730   3.886  14.349   4.270 -0.2126 -0.2654 -0.0405
20038ION     NA29731   1.904  14.848   6.208 -0.2393  0.0942 -0.2836
20039ION     NA29732   2.978   3.137   2.013 -0.0780 -0.2130  0.2189
20040ION     NA29733   3.363  17.354  12.213 -0.1591 -0.1638  0.2226
20041ION     NA29734  11.629  14.905  17.101 -0.3129  0.1363 -0.0128
20042ION     NA29735  11.551  14.799  10.673 -0.1087  0.1477 -0.0687
20043ION     NA29736   4.634   2.069  10.625  0.1905  0.0636 -0.2097
20044ION     NA29737  17.138  13.159  15.945 -0.3497 -0.3248  0.2864
20045ION     NA29738  10.232  15.994  10.801  0.1745  0.0321  0.0366
20046ION     NA29739   2.886  10.592  11.221  0.0343 -0.1238 -0.0968
20047ION     NA29740   1.012  10.331   1.694  0.0470  0.0802  0.0419
20048ION     NA29741  17.435  16.956   0.626 -0.0525 -0.0076  0.0862
20049ION     NA29742   8.052  10.887  11.375 -0.0858 -0.1070 -0.3545
20050ION     NA29743  10.996   3.519   2.300  0.2426  0.0685 -0.2943
20051ION     NA29744   0.807  16.518  10.285 -0.2858  0.1122 -0.0164
20052ION     NA29745   6.738   5.608   3.393  0.1734  0.0760 -0.0139
20053ION     NA29746  13.869  10.262  10.309 -0.1073  0.1480  0.0259
20054ION     NA29747  10.188   8.821   2.673  0.0173  0.1910  0.0177
20055ION     NA29748   2.732  13.774  10.939 -0.1069 -0.0403 -0.1643
20056ION     NA29749   2.201  13.201  12.296 -0.0921 -0.0857 -0.3224
20057ION     NA29750  15.015   1.325   4.074 -0.0526 -0.0566 -0.0625
20058ION     NA29751   5.106  13.162  15.532  0.0006 -0.1028  0.0579
20059ION     NA29752   8.138  13.717   4.687  0.0330 -0.0251  0.0037
20060ION     NA29753   8.474  15.475   1.729  0.0202 -0.1645  0.0444
20061ION     NA29754   5.781   2.464  10.970 -0.0282  0.1058 -0.0030
20062ION     NA29755  17.730   1.001   4.571 -0.0550  0.0903  0.3568
20063ION     NA29756   9.232   1.479  10.609  0.0987  0.0512 -0.3030
20064ION     NA29757   6.487  11.743  11.245  0.0427  0.3898  0.1000
20065ION     NA29758  17.223   6.299   6.390  0.2184 -0.1964 -0.5705
20066ION     NA29759   0.441  12.907   6.238  0.1617  0.1228  0.0360
20067ION     NA29760   1.389   6.651  10.904 -0.0063  0.0414 -0.3538
20068ION     NA29761   7.751   9.464   5.693 -0.0510  0.0349 -0.0157
20069ION     NA29762  14.281   2.382   6.581 -0.0483 -0.0401 -0.3106
20070ION     NA29763   9.309  13.845   2.668  0.0091  0.2501  0.1193
20071ION     NA29764   8.022  14.619   6.490  0.1405 -0.0982 -0.1061
20072ION     NA29765   4.654   3.901   6.224  0.1942  0.0390  0.0319
20073ION     NA29766  10.128  13.853   2.225 -0.0460 -0.0987  0.3387
20074ION     NA29767   3.857   4.145   1.050  0.1473  0.1415  0.0228
20075ION     NA29768  17.943   1.729   4.622 -0.2034  0.3148 -0.2442
20076ION     NA29769  10.230  17.821  16.298  0.1935 -0.2645  0.0957
20077ION     NA29770   1.223   3.618   4.212 -0.0604 -0.0818 -0.0509
20078ION     NA29771   1.976   8.648  10.893  0.1308 -0.0672  0.0593
20079ION     NA29772   1.413   7.994  15.904  0.1247 -0.2116 -0.0189
20080ION     NA29773  14.434   4.382  16.157 -0.1773  0.0275  0.0572
20081ION     NA29774   4.867   0.723  16.759  0.0001 -0.2231 -0.0204
20082ION     NA29775   2.131   0.116   6.239  0.0328 -0.0422  0.0734
20083ION     NA29776   3.757   4.537  16.213 -0.0306 -0.1448 -0.2363
20084ION     NA29777   0.592   5.449   6.058  0.2594 -0.1976  0.0695
20085ION     NA29778   8.560   8.447   6.383  0.0882 -0.3949  0.0565
20086ION     NA29779  12.504  14.905   6.369 -0.0657 -0.2169  0.0636
20087ION     NA29780  17.222  15.768   6.163  0.1079 -0.0074 -0.1044
20088ION     NA29781   5.943  14.878   2.473  0.4463  0.1629 -0.1902
20089ION     NA29782   2.787  12.739   0.279 -0.2409  0.0448  0.3128
20090ION     NA29783   7.854  14.229  10.781 -0.1099 -0.2803  0.2266
20091ION     NA29784   5.114   2.113  12.853 -0.2264  0.1454 -0.0728
20092ION     NA29785  13.458  11.150   2.078 -0.2214  0.0957 -0.0537
20093ION     NA29786  10.906  10.695  11.035 -0.2889  0.2322  0.0224
20094ION     NA29787   3.437   6.779  14.634  0.0649 -0.3713 -0.0434
20095ION     NA29788  10.136  12.056   6.556 -0.1796  0.0303  0.0384
20096ION     NA29789   7.931  13.265  16.079  0.1701  0.1183  0.2600
20097ION     NA29790   4.227   9.936   4.945 -0.2479  0.0166 -0.1804
20098ION     NA29791   9.833  11.054  11.464 -0.0211 -0.1708  0.2491
20099ION     NA29792   7.338  12.577   3.496 -0.1688 -0.2441  0.1142
20100ION     NA29793   1.184  10.752   6.227 -0.1053  0.0749  0.0343
20101ION     NA29794  10.814  12.605   4.158  0.6041  0.0315  0.1099
20102ION     NA29795   7.814  13.262   6.324  0.2598  0.1272  0.0796
20103ION     NA29796   2.145   3.354  16.565 -0.0263  0.2384 -0.2119
20104ION     NA29797  16.715   8.628   2.510  0.0587  0.1226  0.1278
20105ION     NA29798   1.592   2.348   6.043  0.1467  0.2691 -0.2700
20106ION     NA29799   9.520   8.339   6.921 -0.0663  0.5398  0.1245
20107ION     NA29800   4.678  10.538   4.346 -0.3202  0.2858  0.1374
20108ION     NA29801   4.480  15.564  16.347  0.0322 -0.1059 -0.1347
20109ION     NA29802   3.413   3.653  15.538  0.1982 -0.5126 -0.2044
20110ION     NA29803   7.382  17.533  15.678  0.2404 -0.3276 -0.3477
20111ION     NA29804   7.793  10.154   6.955  0.4004  0.2259 -0.0121
20112ION     NA29805   7.306  16.407   0.043 -0.2925 -0.5096  0.0078
20113ION     NA29806   5.706  12.836  11.242  0.3530 -0.2379 -0.2129
20114ION     NA29807   5.454  15.461  17.052 -0.0466  0.0785 -0.2465
20115ION     NA29808   0.672   9.422  11.837  0.0451 -0.0186  0.5080
20116ION     NA29809   6.884  16.998   1.383  0.0932 -0.0840  0.1279
20117POPI    C129810  15.293   9.846  10.431  0.2491 -0.2157 -0.1554
20117POPI    C229811  15.577   9.996  10.669  0.1957 -0.1674 -0.1216
20117POPI    C329812  15.388   9.659  10.772 -0.0263  0.0060  0.0480
20117POPI   PO429813  15.257   9.929  10.304 -0.5242  0.1029  0.2211
20117POPI   GL129814  14.929  10.053   9.997 -0.2783 -0.0635 -0.0461
20117POPI   GL229815  15.222   9.958   9.808  0.1122  0.3590 -0.2269
20117POPI   C1A29816  14.837  10.200   9.626  0.1594  0.0115 -0.3332
20117POPI   D2A29817  14.754  10.275   9.221  0.0998 -0.3930  0.2658
20117POPI   C3A29818  14.569  10.455   9.025  0.0817 -0.1952  0.0032
20117POPI   C4A29819  14.461  10.483   8.570  0.0608 -0.0550  0.4361
20117POPI   C1B29820  15.219   9.952   9.405 -0.0451  0.3170  0.3176
20117POPI   C2B29821  15.419   9.717   9.072  0.0810 -0.0204 -0.0953
20117POPI   C3B29822  15.514   9.507   8.709 -0.3171  0.1576  0.1909
20117POPI   C4B29823  15.553   9.076   8.643 -0.0305 -0.2855 -0.0405
20118POPI    C129824  13.853   7.341  10.821 -0.0457 -0.2131  0.0363
20118POPI    C229825  13.455   7.354  10.858 -0.0334  0.2094  0.0642
20118POPI    C329826  13.687   7.483  11.157  0.1328 -0.2788  0.1536
20118POPI   PO429827  13.893   7.193  10.653 -0.2080 -0.1596 -0.1388
20118POPI   GL129828  14.099   7.186  10.286  0.2922 -0.4754 -0.0180
20118POPI   GL229829  13.916   6.932  10.298  0.1669 -0.2234 -0.0079
20118POPI   C1A29830  14.320   7.109   9.928 -0.3024 -0.1837  0.0255
20118POPI   D2A29831  14.293   7.048   9.501 -0.1546 -0.0522  0.0606
20118POPI   C3A29832  14.138   6.694   9.315 -0.0290 -0.3008 -0.2783
20118POPI   C4A29833  14.284   6.365   8.949  0.0304 -0.3037  0.1821
20118POPI   C1B29834  13.783   6.804   9.774 -0.6044  0.4033  0.0966
20118POPI   C2B29835  13.672   6.789   9.329  0.1238 -0.3120 -0.0023
20118POPI   C3B29836  13.741   6.826   8.987 -0.0425 -0.3869  0.1208
20118POPI   C4B29837  13.969   6.667   8.670  0.0205  0.2053  0.2168
20119POPI    C129838  13.902  10.802  10.073  0.2029 -0.0275  0.1587
20119POPI    C229839  13.936  10.790  10.471 -0.0341 -0.0192  0.1808
20119POPI    C329840  13.575  10.766  10.301  0.0615  0.0326 -0.0321
20119POPI   PO429841  14.124  10.580   9.978 -0.0096 -0.3027 -0.0532
20119POPI   GL129842  13.910  10.397   9.725 -0.0761 -0.0905 -0.0231
20119POPI   GL229843  13.900  10.059   9.796  0.1236 -0.2640  0.0070
20119POPI   C1A29844  13.649  10.429   9.281 -0.1228  0.1248  0.0701
20119POPI   D2A29845  13.516  10.426   8.884  0.1876  0.0431 -0.1240
20119POPI   C3A29846  13.466  10.726   8.662  0.2442  0.3570  0.1383
20119POPI   C4A29847  13.572  11.077   8.428 -0.1038 -0.0756 -0.3367
20119POPI   C1B29848  13.508   9.998   9.623 -0.2116 -0.0766 -0.1679
20119POPI   C2B29849  13.430  10.004   9.170 -0.1664  0.0301  0.1929
20119POPI   C3B29850  13.276  10.042   8.701 -0.1475  0.2270  0.0535
20119POPI   C4B29851  13.302   9.851   8.243  0.1861  0.1678  0.2162
20120POPI    C129852  15.415   7.030  10.858 -0.2034  0.2773  0.1395
20120POPI    C229853  15.199   6.746  11.038 -0.1135  0.2047  0.1339
20120POPI    C329854  15.459   6.963  11.250  0.0157  0.0980  0.0865
20120POPI   PO429855  15.552   6.966  10.551 -0.3065  0.1285 -0.2090
20120POPI   GL129856  15.710   6.998  10.141  0.0724  0.1059  0.2040
20120POPI   GL229857  15.414   7.043   9.790  0.0028 -0.4393  0.1261
20120POPI   C1A29858  15.884   6.921   9.783  0.1910 -0.0919 -0.1492
20120POPI   D2A29859  16.281   6.736   9.812  0.0075 -0.0967  0.1335
20120POPI   C3A29860  16.258   6.585   9.341 -0.1967 -0.4152  0.1682
20120POPI   C4A29861  16.062   6.472   8.993 -0.0596 -0.0429  0.0251
20120POPI   C1B29862  15.383   6.789   9.356  0.1101  0.2521 -0.3272
20120POPI   C2B29863  15.493   6.638   8.988  0.1171  0.0849 -0.2029
20120POPI   C3B29864  15.830   6.780   8.710  0.0298 -0.1505 -0.1102
20120POPI   C4B29865  16.119   6.685   8.339  0.4705 -0.1269 -0.0490
20121POPI    C129866  13.383   2.017  10.572  0.0613 -0.0980 -0.0390
20121POPI    C229867  13.564   2.094  10.921 -0.0562 -0.0274  0.0069
20121POPI    C329868  13.542   1.718  10.786 -0.1145 -0.0699  0.1337
20121POPI   PO429869  13.535   2.163  10.376  0.0717 -0.3258 -0.0524
20121POPI   GL129870  13.481   2.342  10.042  0.2875  0.3637  0.1307
20121POPI   GL229871  13.612   2.518   9.905  0.0926 -0.1355 -0.1192
20121POPI   C1A29872  13.281   2.203   9.639 -0.2430 -0.2794  0.1475
20121POPI   D2A29873  13.410   1.957   9.300  0.2454  0.2394 -0.0072
20121POPI   C3A29874  13.361   1.729   8.887 -0.0732 -0.1349 -0.0651
20121POPI   C4A29875  13.449   1.493   8.555  0.0085  0.3992 -0.1771
20121POPI   C1B29876  13.623   2.537   9.444  0.3205 -0.0667  0.0189
20121POPI   C2B29877  13.554   2.438   8.992 -0.1608 -0.0662  0.2488
20121POPI   C3B29878  13.460   2.226   8.607  0.0617  0.2722 -0.0134
20121POPI   C4B29879  13.298   1.955   8.329  0.3503  0.3882 -0.1821
20122POPI    C129880  13.096   8.734  10.831  0.1535  0.0119 -0.0748
20122POPI    C229881  13.149   9.125  10.897 -0.0134  0.0445 -0.1293
20122POPI    C329882  13.356   8.856  11.109 -0.1200  0.1574  0.1223
20122POPI   PO429883  13.092   8.716  10.615 -0.1714  0.0856 -0.2713
20122POPI   GL129884  12.990   8.706  10.195  0.0832  0.2775 -0.2236
20122POPI   GL229885  13.221   8.565  10.137  0.1766  0.1823  0.1140
20122POPI   C1A29886  12.775   8.661   9.813 -0.0796 -0.2147 -0.0121
20122POPI   D2A29887  12.453   8.795   9.413  0.0767  0.2641  0.1875
20122POPI   C3A29888  12.083   8.698   9.245 -0.1803 -0.0478  0.1381
20122POPI   C4A29889  11.776   8.626   8.935 -0.0607  0.0397  0.0988
20122POPI   C1B29890  13.254   8.651   9.637 -0.1439 -0.2750 -0.0253
20122POPI   C2B29891  13.238   8.807   9.242 -0.0619  0.1808 -0.2908
20122POPI   C3B29892  13.082   8.630   8.825 -0.2391 -0.0619 -0.2675
20122POPI   C4B29893  13.184   8.885   8.505  0.1887  0.2050  0.1193
20123POPI    C129894  16.876   8.182  10.541 -0.0035 -0.1207  0.1048
20123POPI    C229895  16.749   7.819  10.430 -0.0338 -0.1256  0.1554
20123POPI    C329896  16.550   8.024  10.711 -0.0139 -0.0717  0.1304
20123POPI   PO429897  17.066   8.210  10.404  0.2312 -0.1393 -0.1227
20123POPI   GL129898  17.251   8.215   9.933 -0.0017 -0.1434 -0.0009
20123POPI   GL229899  17.043   8.473   9.932  0.0914 -0.0819 -0.2473
20123POPI   C1A29900  17.358   8.189   9.453  0.0081 -0.0608  0.0170
20123POPI   D2A29901  17.308   8.392   9.128  0.4436  0.1072  0.1068
20123POPI   C3A29902  17.257   8.039   8.830  0.2405  0.3120 -0.0501
20123POPI   C4A29903  17.018   7.724   8.504  0.0163  0.1003 -0.0246
20123POPI   C1B29904  16.980   8.494   9.481 -0.1968 -0.0304  0.1381
20123POPI   C2B29905  16.873   8.575   9.079 -0.0252 -0.1620  0.6109
20123POPI   C3B29906  16.598   8.609   8.585 -0.1040  0.0434 -0.0680
20123POPI   C4B29907  16.425   8.528   8.174 -0.0321 -0.0225 -0.3048
20124POPI    C129908  16.531   8.911  10.769  0.1375  0.1654 -0.0959
20124POPI    C229909  16.245   8.722  10.563  0.1019  0.1351 -0.0192
20124POPI    C329910  16.493   8.513  10.798  0.0088  0.1928  0.1321
20124POPI   PO429911  16.631   9.108  10.609  0.0929 -0.1827 -0.1789
20124POPI   GL129912  16.747   9.158  10.217  0.2644 -0.3333 -0.1268
20124POPI   GL229913  17.055   8.952  10.229 -0.3396 -0.0876  0.0737
20124POPI   C1A29914  16.664   9.102   9.772  0.0624  0.2183 -0.3564
20124POPI   D2A29915  16.544   8.746   9.404  0.0234  0.0025  0.3200
20124POPI   C3A29916  16.378   8.464   9.019 -0.3216  0.0566  0.1382
20124POPI   C4A29917  16.192   8.296   8.682  0.0342  0.2556  0.1105
20124POPI   C1B29918  17.147   9.372  10.065 -0.1307  0.0976  0.0194
20124POPI   C2B29919  17.123   9.487   9.622  0.2287 -0.1985 -0.4872
20124POPI   C3B29920  17.384   9.493   9.239 -0.1720 -0.0890  0.0110
20124POPI   C4B29921  17.447   9.218   8.988 -0.3117 -0.3399  0.0941
20125POPI    C129922  14.941   0.932  10.715  0.0486  0.1318  0.0640
20125POPI    C229923  15.202   1.234  10.690  0.3701 -0.1623 -0.2563
20125POPI    C329924  15.301   0.900  10.887 -0.0707  0.0180  0.2975
20125POPI   PO429925  14.943   0.796  10.487  0.1379 -0.1043 -0.2441
20125POPI   GL129926  14.822   0.839  10.057  0.1040  0.3336  0.3165
20125POPI   GL229927  14.596   0.675   9.902 -0.1152  0.2573  0.2343
20125POPI   C1A29928  14.852   1.208   9.744  0.0022  0.2137 -0.0073
20125POPI   D2A29929  14.878   1.355   9.356 -0.1160  0.2704 -0.0680
20125POPI   C3A29930  14.584   1.139   9.178  0.2421 -0.0583 -0.2827
20125POPI   C4A29931  14.389   1.131   8.780 -0.1979  0.1823  0.1559
20125POPI   C1B29932  14.463   0.730   9.494  0.1305 -0.0322  0.1861
20125POPI   C2B29933  14.527   0.667   9.046  0.1118 -0.0779  0.2113
20125POPI   C3B29934  14.288   0.573   8.887 -0.0154 -0.2047 -0.0743
20125POPI   C4B29935  14.268   0.338   8.425  0.4301 -0.0544 -0.1028
20126POPI    C129936  17.690   1.542  10.322 -0.2696  0.0935  0.1486
20126POPI    C229937  17.938   1.723  10.065  0.1649 -0.3763  0.2204
20126POPI    C329938  17.872   1.882  10.426 -0.0643  0.0292  0.0069
20126POPI   PO429939  17.566   1.413  10.161  0.1483 -0.0202  0.0497
20126POPI   GL129940  17.228   1.441   9.917 -0.1601  0.1414 -0.1428
20126POPI   GL229941  17.277   1.128   9.722  0.0703  0.2378 -0.1856
20126POPI   C1A29942  17.277   1.596   9.494 -0.0129  0.0930 -0.1726
20126POPI   D2A29943  17.186   1.934   9.262 -0.1441 -0.0535 -0.1674
20126POPI   C3A29944  17.227   1.672   8.902 -0.0889  0.3023 -0.2913
20126POPI   C4A29945  17.171   1.752   8.422  0.1091 -0.1390 -0.0645
20126POPI   C1B29946  17.214   1.174   9.290  0.4005 -0.0586 -0.2067
20126POPI   C2B29947  17.151   1.196   8.950 -0.0063 -0.1085  0.1430
20126POPI   C3B29948  17.142   1.241   8.442 -0.0010 -0.1571 -0.0663
20126POPI   C4B29949  17.311   1.016   8.121  0.1999 -0.1471 -0.0101
20127POPI    C129950  16.198   9.281  10.675 -0.0461 -0.0546  0.0348
20127POPI    C229951  16.461   9.495  10.887 -0.0284 -0.0394 -0.0026
20127POPI    C329952  16.178   9.282  11.074  0.1080 -0.1821  0.0434
20127POPI   PO429953  16.224   9.191  10.357  0.2706  0.2156 -0.3903
20127POPI   GL129954  16.331   8.878  10.092 -0.0854  0.2193  0.1394
20127POPI   GL229955  16.490   8.561   9.880 -0.1579 -0.2443  0.3072
20127POPI   C1A29956  16.121   8.745   9.673  0.1228  0.0365 -0.0082
20127POPI   D2A29957  16.026   8.670   9.231 -0.0376 -0.0857 -0.1490
20127POPI   C3A29958  16.056   8.824   8.929  0.2154  0.0706  0.0719
20127POPI   C4A29959  16.150   8.813   8.516  0.0118 -0.1248 -0.2206
20127POPI   C1B29960  16.312   8.312   9.516  0.0506  0.0593  0.1094
20127POPI   C2B29961  16.415   8.015   9.218  0.3331 -0.5893 -0.0953
20127POPI   C3B29962  16.240   7.807   8.870 -0.0558  0.0535 -0.2196
20127POPI   C4B29963  16.000   7.428   8.888 -0.0148 -0.3321  0.3468
20128POPI    C129964  12.526  10.399  11.028 -0.0194  0.0277  0.0349
20128POPI    C229965  12.471  10.261  11.399  0.1092  0.1968  0.1179
20128POPI    C329966  12.281  10.592  11.279 -0.1289  0.0022 -0.0513
20128POPI   PO429967  12.457  10.138  10.800  0.1726  0.1494  0.0468
20128POPI   GL129968  12.201  10.345  10.442  0.0194 -0.0118 -0.0745
20128POPI   GL229969  11.920  10.131  10.647 -0.0075 -0.0494  0.3869
20128POPI   C1A29970  12.391  10.473  10.057  0.0605 -0.0819  0.3529
20128POPI   D2A29971  12.326  10.490   9.674  0.0196  0.0357 -0.2726
20128POPI   C3A29972  12.102  10.539   9.313  0.1177  0.1467  0.2145
20128POPI   C4A29973  12.034  10.867   9.020 -0.5241  0.2597 -0.0072
20128POPI   C1B29974  12.023   9.998  10.134 -0.4595  0.0231  0.3332
20128POPI   C2B29975  12.075   9.973   9.680 -0.1851  0.1253 -0.1958
20128POPI   C3B29976  12.037  10.083   9.301  0.0815  0.0298  0.1066
20128POPI   C4B29977  11.951  10.258   8.918  0.0378  0.0088  0.0801
20129POPI    C129978  15.345   8.671  10.267  0.3367  0.2648 -0.1570
20129POPI    C229979  15.398   8.772  10.650  0.2722  0.0130 -0.0796
20129POPI    C329980  15.029   8.767  10.494  0.2805 -0.0506 -0.0971
20129POPI   PO429981  15.561   8.377  10.278 -0.0728 -0.3146  0.1414
20129POPI   GL129982  15.860   8.144   9.954 -0.0542 -0.1568 -0.2881
20129POPI   GL229983  15.966   8.377   9.910  0.1019 -0.1335 -0.1971
20129POPI   C1A29984  15.791   7.804   9.823 -0.0671 -0.0941  0.0313
20129POPI   D2A29985  15.788   7.396   9.663  0.1225 -0.3280  0.2615
20129POPI   C3A29986  15.722   7.232   9.339 -0.1037  0.0554 -0.4622
20129POPI   C4A29987  15.872   6.882   9.272  0.0765 -0.0231  0.0461
20129POPI   C1B29988  15.838   8.255   9.446  0.2257  0.3162  0.1608
20129POPI   C2B29989  15.922   8.120   9.023  0.1274 -0.3596  0.0581
20129POPI   C3B29990  15.758   8.050   8.574 -0.4426  0.2490 -0.0080
20129POPI   C4B29991  15.644   7.669   8.228  0.0325  0.0645  0.1953
20130POPI    C129992  13.857  11.353  10.547 -0.0148  0.2388  0.0333
20130POPI    C229993  14.164  11.192  10.746 -0.3424 -0.1390  0.2479
20130POPI    C329994  14.068  11.576  10.803  0.2402  0.0577 -0.0153
20130POPI   PO429995  13.673  11.219  10.459  0.1821  0.0954  0.1096
20130POPI   GL129996  13.594  11.245  10.035  0.0676  0.3731 -0.3559
20130POPI   GL229997  13.356  11.418   9.906  0.1472 -0.0284 -0.1973
20130POPI   C1A29998  13.559  10.953   9.717 -0.1172 -0.0422 -0.5254
20130POPI   D2A29999  13.555  10.886   9.282  0.1005  0.0588  0.0625
20130POPI   C3A30000  13.932  11.284   9.238 -0.2808 -0.0693  0.1243
20130POPI   C4A30001  14.232  11.480   9.262 -0.1080 -0.0581 -0.1447
20130POPI   C1B30002  13.428  11.366   9.365  0.2567 -0.1143 -0.5394
20130POPI   C2B30003  13.432  11.547   8.921 -0.2777 -0.0009  0.1835
20130POPI   C3B30004  13.562  11.600   8.474 -0.1009 -0.0942  0.1679
20130POPI   C4B30005  13.429  11.942   8.226  0.0978  0.0818  0.5069
20131POPI    C130006  11.642  12.523  11.528  0.0524 -0.2286  0.0317
20131POPI    C230007  11.962  12.718  11.387  0.0107 -0.2430 -0.0840
20131POPI    C330008  11.859  12.754  11.772  0.0813 -0.1432 -0.0742
20131POPI   PO430009  11.651  12.349  11.344 -0.0987  0.0043 -0.2818
20131POPI   GL130010  11.518  12.453  10.803  0.1065 -0.4475  0.0418
20131POPI   GL230011  11.511  12.163  10.565 -0.1491 -0.1096  0.0597
20131POPI   C1A30012  11.619  12.681  10.385 -0.1647  0.0241 -0.1680
20131POPI   D2A30013  11.471  13.109  10.390 -0.3031 -0.0801 -0.0614
20131POPI   C3A30014  11.461  13.424   9.957 -0.0469 -0.0807  0.1588
20131POPI   C4A30015  11.526  13.924   9.887 -0.3438 -0.0434 -0.2502
20131POPI   C1B30016  11.285  12.283  10.206 -0.0225 -0.2569 -0.0554
20131POPI   C2B30017  11.424  12.469   9.875 -0.1301  0.1525  0.1729
20131POPI   C3B30018  11.406  12.260   9.481 -0.1217 -0.0632  0.1316
20131POPI   C4B30019  11.389  12.367   9.020  0.1447 -0.3197 -0.1376
20132POPI    C130020  14.567  12.310  10.184  0.2761 -0.2406 -0.1542
20132POPI    C230021  14.863  12.569  10.111  0.3105 -0.1858  0.1663
20132POPI    C330022  14.604  12.639  10.408 -0.0247 -0.2358 -0.1073
20132POPI   PO430023  14.711  12.072  10.025  0.0709 -0.0662  0.2592
20132POPI   GL130024  14.785  11.872   9.707 -0.1806  0.1867 -0.0404
20132POPI   GL230025  15.036  11.661   9.838 -0.0948  0.1426  0.1264
20132POPI   C1A30026  14.654  11.751   9.325 -0.0653  0.2395 -0.1219
20132POPI   D2A30027  14.644  11.629   8.918  0.2432  0.2292  0.0611
20132POPI   C3A30028  14.335  11.619   8.555  0.3892 -0.1007  0.1638
20132POPI   C4A30029  13.990  11.865   8.425  0.1005  0.1604 -0.1893
20132POPI   C1B30030  15.300  11.901   9.464  0.1125  0.1935 -0.2801
20132POPI   C2B30031  15.094  11.845   9.142  0.0479 -0.0350 -0.2765
20132POPI   C3B30032  15.092  11.777   8.641 -0.1836  0.3443 -0.3280
20132POPI   C4B30033  15.009  11.920   8.252  0.1671 -0.1221  0.0547
20133POPI    C130034  13.032   3.380  10.497  0.1023  0.1777  0.0786
20133POPI    C230035  12.891   3.284  10.859 -0.0349 -0.0968 -0.0444
20133POPI    C330036  12.720   3.131  10.531 -0.0752  0.3507 -0.2387
20133POPI   PO430037  13.071   3.683  10.480 -0.1928  0.3155  0.3549
20133POPI   GL130038  12.849   3.770  10.096 -0.2608  0.1842  0.1651
20133POPI   GL230039  12.695   4.048  10.325 -0.1997  0.3235  0.1272
20133POPI   C1A30040  12.707   3.643   9.690 -0.1135  0.1727 -0.1680
20133POPI   D2A30041  12.604   3.514   9.292  0.2392  0.3591  0.0998
20133POPI   C3A30042  12.493   3.862   9.116  0.0862 -0.2179  0.2389
20133POPI   C4A30043  12.410   4.089   8.753 -0.0296 -0.1859  0.2164
20133POPI   C1B30044  12.503   4.155   9.939 -0.0377  0.0470 -0.1029
20133POPI   C2B30045  12.382   4.101   9.535  0.0506  0.1385  0.0513
20133POPI   C3B30046  12.254   4.365   9.245  0.2295  0.1886  0.3183
20133POPI   C4B30047  12.000   4.763   9.223  0.0719 -0.1005 -0.2345
20134POPI    C130048  16.184   9.823  10.662 -0.1357 -0.0224  0.1701
20134POPI    C230049  15.899   9.651  10.884 -0.2927  0.0318  0.0128
20134POPI    C330050  16.036  10.014  10.981 -0.3251  0.0343  0.0498
20134POPI   PO430051  16.145   9.701  10.324 -0.2946 -0.0046 -0.2850
20134POPI   GL130052  16.272   9.737   9.918  0.2389 -0.2140  0.1757
20134POPI   GL230053  16.464   9.499   9.932  0.1186  0.0758  0.2237
20134POPI   C1A30054  16.198   9.915   9.541 -0.2274  0.0417  0.1665
20134POPI   D2A30055  16.547   9.904   9.173  0.2304  0.2657 -0.1511
20134POPI   C3A30056  16.415   9.671   8.801  0.2019  0.0152 -0.0899
20134POPI   C4A30057  16.330   9.753   8.429 -0.1595  0.1343 -0.2033
20134POPI   C1B30058  16.674   9.539   9.512  0.1095 -0.3671 -0.1047
20134POPI   C2B30059  16.883   9.516   9.135 -0.1212 -0.0000 -0.1924
20134POPI   C3B30060  17.058   9.498   8.796 -0.0745 -0.2519 -0.2526
20134POPI   C4B30061  17.309   9.481   8.514  0.1289  0.1060  0.1532
20135POPI    C130062  12.885   4.544  11.338 -0.0964  0.0250 -0.1622
20135POPI    C230063  12.922   4.187  11.162 -0.1218  0.0104 -0.1379
20135POPI    C330064  12.964   4.220  11.558  0.1241  0.0733 -0.1678
20135POPI   PO430065  12.767   4.679  11.055  0.1330 -0.0528  0.0667
20135POPI   GL130066  12.407   4.818  10.756 -0.2608 -0.1234  0.2333
20135POPI   GL230067  12.178   4.855  10.738 -0.2242  0.1262  0.3746
20135POPI   C1A30068  12.725   4.923  10.442  0.0615  0.1988 -0.0533
20135POPI   D2A30069  12.891   5.065  10.101  0.1675  0.1542  0.3061
20135POPI   C3A30070  12.740   5.022   9.708 -0.1684  0.1753 -0.0986
20135POPI   C4A30071  12.781   5.274   9.397 -0.0484  0.0320 -0.0200
20135POPI   C1B30072  11.890   4.631  10.405  0.0280  0.1034 -0.0013
20135POPI   C2B30073  11.973   4.529   9.993  0.0008 -0.0192 -0.1217
20135POPI   C3B30074  11.973   4.475   9.620 -0.3284  0.1665 -0.3705
20135POPI   C4B30075  11.728   4.354   9.235 -0.4046  0.3410  0.1357
20136POPI    C130076  14.710  15.478  10.609  0.0855  0.1250 -0.1003
20136POPI    C230077  14.746  15.875  10.584  0.1807  0.1346  0.1639
20136POPI    C330078  14.721  15.699  10.942 -0.2030 -0.0690  0.0421
20136POPI   PO430079  14.867  15.393  10.373 -0.0131 -0.1345 -0.1181
20136POPI   GL130080  15.066  15.504  10.015 -0.1808  0.0176  0.1045
20136POPI   GL230081  14.684  15.320   9.947 -0.0679 -0.1402 -0.2023
20136POPI   C1A30082  15.256  15.239   9.793 -0.0526 -0.1040 -0.0072
20136POPI   D2A30083  15.066  15.039   9.634 -0.0157  0.2570 -0.0158
20136POPI   C3A30084  15.158  15.053   9.204  0.3007  0.1413 -0.1780
20136POPI   C4A30085  15.186  14.936   8.774  0.0774 -0.1563 -0.0084
20136POPI   C1B30086  14.790  15.507   9.517  0.2839 -0.1022 -0.0533
20136POPI   C2B30087  14.751  15.734   9.121  0.2694  0.2102 -0.1734
20136POPI   C3B30088  15.009  16.010   8.923 -0.0756  0.0999  0.1518
20136POPI   C4B30089  15.042  16.297   8.676 -0.2611  0.0354  0.1341
20137POPI    C130090  13.925  13.883  10.353  0.0376 -0.0325 -0.0111
20137POPI    C230091  13.770  13.534  10.473  0.0471 -0.0338 -0.0023
20137POPI    C330092  14.166  13.590  10.481  0.0379  0.0191  0.1080
20137POPI   PO430093  13.758  13.969  10.206 -0.1114  0.0176  0.1240
20137POPI   GL130094  13.596  14.205   9.942 -0.3206  0.0936  0.1052
20137POPI   GL230095  13.227  14.195  10.084 -0.0750  0.2603 -0.2022
20137POPI   C1A30096  13.790  14.486   9.656 -0.1285 -0.1964  0.1002
20137POPI   D2A30097  14.081  14.780   9.430 -0.0883  0.0875  0.0309
20137POPI   C3A30098  14.089  14.656   9.011  0.0987 -0.1376 -0.2753
20137POPI   C4A30099  13.868  14.557   8.659  0.1231 -0.3358 -0.0192
20137POPI   C1B30100  13.194  14.061   9.700  0.0988 -0.1385  0.0281
20137POPI   C2B30101  13.107  13.973   9.269 -0.1164  0.2858 -0.0898
20137POPI   C3B30102  13.140  13.667   8.955 -0.0653  0.0464 -0.0093
20137POPI   C4B30103  13.056  13.491   8.533 -0.0006  0.3250 -0.0014
20138POPI    C130104  13.504   3.174  10.511  0.2503 -0.2902  0.0777
20138POPI    C230105  13.584   3.015  10.870  0.2282 -0.0449  0.1930
20138POPI    C330106  13.227   2.956  10.699  0.2392 -0.1630  0.2104
20138POPI   PO430107  13.555   3.353  10.505  0.1417 -0.1471  0.3386
20138POPI   GL130108  13.432   3.527  10.144  0.1063  0.1323  0.2240
20138POPI   GL230109  13.202   3.387  10.062  0.2616 -0.2855  0.2944
20138POPI   C1A30110  13.312   3.767   9.796  0.3119 -0.3537 -0.0099
20138POPI   D2A30111  13.165   3.892   9.500  0.0392  0.1163  0.2690
20138POPI   C3A30112  13.004   3.699   9.133 -0.0102  0.1612  0.2835
20138POPI   C4A30113  13.035   3.764   8.700 -0.0294  0.1907 -0.0774
20138POPI   C1B30114  13.144   3.334   9.625 -0.2210  0.0428 -0.1722
20138POPI   C2B30115  12.920   3.183   9.279 -0.1498 -0.1034 -0.1065
20138POPI   C3B30116  12.983   3.195   8.752  0.0050  0.1912 -0.1185
20138POPI   C4B30117  12.941   3.047   8.356  0.0083  0.2917 -0.0561
20139POPI    C130118  15.563  13.400  10.477  0.1201  0.3642 -0.2843
20139POPI    C230119  15.793  13.719  10.550  0.0670  0.3771 -0.1696
20139POPI    C330120  15.412  13.716  10.671  0.1435  0.1606  0.0749
20139POPI   PO430121  15.600  13.367  10.172  0.1506  0.3878  0.2101
20139POPI   GL130122  15.464  13.196   9.722  0.2004 -0.1719 -0.1252
20139POPI   GL230123  15.142  13.347   9.675  0.2773  0.1347  0.0617
20139POPI   C1A30124  15.517  13.149   9.315  0.0726 -0.2461  0.1876
20139POPI   D2A30125  15.489  13.207   8.860 -0.0826 -0.1416 -0.2983
20139POPI   C3A30126  15.448  13.031   8.505 -0.3761  0.0382  0.2756
20139POPI   C4A30127  15.351  12.684   8.241 -0.2086  0.0062 -0.0074
20139POPI   C1B30128  14.993  13.431   9.208  0.2987 -0.2265 -0.0898
20139POPI   C2B30129  15.028  13.288   8.765 -0.3034  0.0332  0.2904
20139POPI   C3B30130  14.966  13.125   8.387  0.0472  0.2428  0.1629
20139POPI   C4B30131  14.649  12.882   8.056 -0.0786 -0.1637  0.0433
20140POPI    C130132  16.938  12.247  10.142 -0.0258 -0.0005 -0.2195
20140POPI    C230133  17.320  12.261  10.261 -0.1142 -0.2419  0.1084
20140POPI    C330134  17.028  12.227  10.531 -0.3592 -0.2382 -0.1510
20140POPI   PO430135  16.944  12.079   9.915 -0.1614  0.1073  0.0436
20140POPI   GL130136  16.934  11.812   9.651  0.1394 -0.2208 -0.0166
20140POPI   GL230137  17.216  12.057   9.509 -0.1867 -0.0587 -0.0650
20140POPI   C1A30138  16.615  11.759   9.354  0.2285 -0.0243 -0.4727
20140POPI   D2A30139  16.373  11.391   9.101 -0.0846 -0.1386 -0.1610
20140POPI   C3A30140  16.356  11.305   8.680  0.0490 -0.2591 -0.0641
20140POPI   C4A30141  16.300  11.223   8.304  0.2533 -0.0275 -0.0064
20140POPI   C1B30142  16.991  11.962   9.135 -0.2098 -0.0485 -0.0037
20140POPI   C2B30143  16.728  11.767   8.874 -0.0980 -0.1002 -0.1317
20140POPI   C3B30144  16.584  11.734   8.448 -0.3074  0.2041 -0.2041
20140POPI   C4B30145  16.770  12.138   8.122  0.0214 -0.0319  0.2728
20141POPI    C130146  15.439  14.365  10.570 -0.0509 -0.1543 -0.0749
20141POPI    C230147  15.140  14.236  10.802  0.0252  0.0931  0.1663
20141POPI    C330148  15.519  14.157  10.903  0.0558  0.1250  0.0769
20141POPI   PO430149  15.426  14.327  10.347 -0.0129 -0.2179 -0.2097
20141POPI   GL130150  15.699  14.275  10.033  0.2058  0.0172 -0.1755
20141POPI   GL230151  15.935  14.344   9.939 -0.1542 -0.2089 -0.0723
20141POPI   C1A30152  15.587  13.995   9.713 -0.0025  0.0586  0.0740
20141POPI   D2A30153  15.325  14.192   9.384 -0.0123  0.1381 -0.1454
20141POPI   C3A30154  15.412  14.172   8.981 -0.2881 -0.3166  0.2721
20141POPI   C4A30155  15.441  14.064   8.463 -0.0217  0.0102  0.0205
20141POPI   C1B30156  15.982  14.278   9.536 -0.1459  0.2149  0.3157
20141POPI   C2B30157  15.942  14.199   9.169  0.0041 -0.0501  0.1091
20141POPI   C3B30158  15.864  14.283   8.765  0.0243  0.0028 -0.0068
20141POPI   C4B30159  15.947  14.400   8.328  0.0230 -0.0512 -0.0947
20142POPI    C130160  14.943   3.305  10.336  0.3197  0.1981 -0.0558
20142POPI    C230161  14.635   3.516  10.480  0.1930  0.1345 -0.2289
20142POPI    C330162  15.005   3.668  10.491  0.1808  0.1464  0.1244
20142POPI   PO430163  14.935   3.213  10.130 -0.0033 -0.0569 -0.2241
20142POPI   GL130164  14.665   3.422   9.833  0.1885  0.2522  0.1513
20142POPI   GL230165  14.472   3.377  10.027 -0.0887 -0.0392  0.2495
20142POPI   C1A30166  14.624   3.430   9.376 -0.2586 -0.1254  0.1280
20142POPI   D2A30167  14.931   3.497   9.001  0.2081 -0.1945 -0.1213
20142POPI   C3A30168  14.980   3.825   8.873  0.1256  0.3016 -0.0413
20142POPI   C4A30169  15.261   3.936   8.686 -0.1342  0.0572 -0.0866
20142POPI   C1B30170  14.307   3.704   9.727 -0.3570  0.0153  0.3256
20142POPI   C2B30171  14.243   3.757   9.251 -0.2479  0.1288  0.1643
20142POPI   C3B30172  14.474   3.677   8.855 -0.0095 -0.1483  0.0362
20142POPI   C4B30173  14.386   3.386   8.554  0.0848  0.2927  0.0653
20143POPI    C130174  16.016  10.894  10.193  0.1694  0.0268 -0.2576
20143POPI    C230175  16.308  10.642  10.299  0.0769 -0.0012 -0.0632
20143POPI    C330176  16.142  10.881  10.573 -0.2935 -0.2049 -0.1044
20143POPI   PO430177  15.854  10.659   9.991  0.0393 -0.0668  0.2042
20143POPI   GL130178  16.123  10.328   9.826 -0.3394  0.0082  0.0976
20143POPI   GL230179  16.447  10.358   9.778 -0.0611 -0.0055 -0.0719
20143POPI   C1A30180  15.748  10.165   9.557  0.1196 -0.0723 -0.1588
20143POPI   D2A30181  15.721  10.169   9.136 -0.0423 -0.2806 -0.0150
20143POPI   C3A30182  15.706  10.300   8.768  0.1369  0.1295  0.1844
20143POPI   C4A30183  15.785  10.474   8.333 -0.0958 -0.0581 -0.0575
20143POPI   C1B30184  16.623  10.389   9.409 -0.1232  0.2070 -0.1860
20143POPI   C2B30185  16.841  10.285   9.018  0.3952 -0.1281 -0.0681
20143POPI   C3B30186  16.875   9.914   8.740  0.0959 -0.1910  0.3033
20143POPI   C4B30187  17.027   9.837   8.342  0.1118  0.0367 -0.2012
20144POPI    C130188  14.306  10.091  10.140 -0.0938  0.0983 -0.2888
20144POPI    C230189  14.568  10.383  10.067 -0.0335  0.0748 -0.1689
20144POPI    C330190  14.366  10.378  10.412 -0.0631 -0.0033 -0.1874
20144POPI   PO430191  14.482   9.871  10.068  0.1397 -0.0836  0.1515
20144POPI   GL130192  14.652   9.733   9.679 -0.2449 -0.1021  0.2132
20144POPI   GL230193  14.341   9.626   9.629  0.1174 -0.1456 -0.0640
20144POPI   C1A30194  14.693   9.803   9.228  0.1669 -0.1137 -0.1400
20144POPI   D2A30195  14.570   9.947   8.864 -0.1719 -0.2232  0.1459
20144POPI   C3A30196  14.857  10.191   8.609  0.0321  0.0071 -0.1786
20144POPI   C4A30197  14.757  10.114   8.195  0.0404 -0.1050  0.0449
20144POPI   C1B30198  14.226   9.649   9.180  0.1266 -0.1140  0.3251
20144POPI   C2B30199  14.136   9.641   8.765  0.0696  0.0793  0.2986
20144POPI   C3B30200  14.238   9.875   8.424 -0.0283  0.0371  0.0802
20144POPI   C4B30201  14.194  10.247   8.204  0.0500  0.1156 -0.1690
20145POPI    C130202  17.658  13.895  10.859 -0.2122 -0.0625  0.0014
20145POPI    C230203  17.761  13.915  11.245 -0.0521 -0.0254 -0.0427
20145POPI    C330204  17.678  13.561  11.079  0.1954 -0.0798 -0.0548
20145POPI   PO430205  17.426  14.028  10.704  0.0526  0.2670  0.2242
20145POPI   GL130206  17.292  14.079  10.244  0.0515  0.1514 -0.2257
20145POPI   GL230207  17.439  14.260  10.254  0.2257  0.0227  0.0892
20145POPI   C1A30208  17.168  14.028   9.869 -0.0351 -0.0301 -0.1724
20145POPI   D2A30209  17.016  14.083   9.489 -0.2965 -0.3620 -0.1645
20145POPI   C3A30210  17.148  14.062   9.064  0.2817  0.1809  0.0368
20145POPI   C4A30211  17.087  14.056   8.702  0.0116 -0.1998  0.1222
20145POPI   C1B30212  17.608  14.254   9.863 -0.1481 -0.1782  0.2240
20145POPI   C2B30213  17.568  14.188   9.413  0.1163 -0.0921  0.2692
20145POPI   C3B30214  17.622  13.968   9.006 -0.0742  0.2475 -0.1679
20145POPI   C4B30215  17.565  13.971   8.582 -0.0162  0.0080  0.0809
20146POPI    C130216  14.193  12.684  10.009  0.2116 -0.2118 -0.1043
20146POPI    C230217  14.118  12.723  10.400  0.1973  0.0326 -0.1299
20146POPI    C330218  14.105  12.362  10.229 -0.2219 -0.0231  0.0088
20146POPI   PO430219  14.432  12.774  10.002  0.1457 -0.0356  0.2966
20146POPI   GL130220  14.630  12.790   9.642  0.1019  0.0472 -0.0024
20146POPI   GL230221  14.801  12.486   9.639  0.0160  0.1399 -0.4188
20146POPI   C1A30222  14.563  12.664   9.280 -0.1021  0.0636  0.2189
20146POPI   D2A30223  14.440  12.469   8.912 -0.0188 -0.0097  0.0363
20146POPI   C3A30224  14.336  12.644   8.475  0.0895  0.0931  0.0211
20146POPI   C4A30225  14.107  12.812   8.210 -0.0388 -0.0274  0.2140
20146POPI   C1B30226  14.764  12.221   9.256  0.0463 -0.0887 -0.3116
20146POPI   C2B30227  14.789  12.092   8.852 -0.2835 -0.0246 -0.0657
20146POPI   C3B30228  14.507  12.099   8.515 -0.5562  0.1029  0.0287
20146POPI   C4B30229  14.405  12.249   8.089 -0.1455 -0.3180  0.1568
20147POPI    C130230  14.155   1.306  10.636 -0.3068  0.0644 -0.4002
20147POPI    C230231  14.045   1.651  10.807  0.1401  0.0247 -0.0130
20147POPI    C330232  13.862   1.310  10.909  0.1471  0.0556  0.1040
20147POPI   PO430233  14.132   1.310  10.420  0.0255 -0.1555  0.3573
20147POPI   GL130234  14.285   1.395  10.078 -0.1248  0.1112 -0.0993
20147POPI   GL230235  14.248   1.084   9.979 -0.0796  0.1721 -0.2413
20147POPI   C1A30236  13.954   1.428   9.790  0.1753 -0.0900  0.0331
20147POPI   D2A30237  13.785   1.325   9.460  0.0243  0.2342  0.1887
20147POPI   C3A30238  13.784   1.647   9.129  0.0138  0.2839  0.1322
20147POPI   C4A30239  13.782   1.929   8.904  0.0332 -0.0547 -0.6457
20147POPI   C1B30240  14.326   1.182   9.604 -0.0382  0.0341 -0.1390
20147POPI   C2B30241  14.081   1.026   9.210  0.0441 -0.2393  0.1256
20147POPI   C3B30242  13.802   0.783   8.854 -0.2765 -0.2658  0.0371
20147POPI   C4B30243  13.750   0.465   8.591  0.1447  0.0227  0.1013
20148POPI    C130244  14.935   1.686  10.524 -0.0714  0.0176  0.1628
20148POPI    C230245  15.031   1.599  10.902 -0.0429  0.0291  0.1582
20148POPI    C330246  15.152   1.944  10.740  0.1494 -0.0816  0.0624
20148POPI   PO430247  15.049   1.544  10.356  0.2926  0.2077  0.2361
20148POPI   GL130248  15.246   1.329  10.140 -0.1881 -0.1607 -0.1279
20148POPI   GL230249  15.557   1.468  10.079  0.0583  0.1007 -0.0379
20148POPI   C1A30250  15.366   1.257   9.711 -0.1194  0.0901  0.0257
20148POPI   D2A30251  15.387   1.377   9.441  0.4657 -0.1789  0.1115
20148POPI   C3A30252  15.340   1.330   8.988  0.2828  0.0081  0.1103
20148POPI   C4A30253  15.215   1.481   8.510 -0.0857 -0.1909 -0.2562
20148POPI   C1B30254  15.620   1.847   9.740 -0.0606  0.2125  0.2598
20148POPI   C2B30255  15.689   1.850   9.325  0.2343 -0.1684  0.2096
20148POPI   C3B30256  15.702   1.749   8.919 -0.1366 -0.1493  0.0476
20148POPI   C4B30257  15.646   1.807   8.404 -0.0026 -0.2548 -0.2802
20149POPI    C130258  17.371  17.238  10.831  0.1275 -0.1462  0.0620
20149POPI    C230259  17.763  17.280  10.765  0.1045  0.2095  0.1321
20149POPI    C330260  17.617  17.324  11.135  0.0462 -0.3269  0.1808
20149POPI   PO430261  17.318  17.346  10.574 -0.0032  0.1734  0.1996
20149POPI   GL130262  17.259  17.355  10.172 -0.2328 -0.2756 -0.0402
20149POPI   GL230263  17.508  17.255  10.003 -0.3967  0.0358  0.1888
20149POPI   C1A30264  17.088  17.074   9.774 -0.1659  0.0320 -0.2951
20149POPI   D2A30265  16.794  16.847   9.460  0.3068 -0.2746 -0.0967
20149POPI   C3A30266  16.846  16.616   9.046  0.2895  0.5124 -0.1154
20149POPI   C4A30267  17.046  16.144   8.941 -0.1274  0.0736 -0.2175
20149POPI   C1B30268  17.325  17.516   9.616 -0.1262 -0.1130  0.1231
20149POPI   C2B30269  17.415  17.507   9.177  0.1269  0.0477  0.1889
20149POPI   C3B30270  17.341  17.794   8.834  0.0217  0.0690 -0.0745
20149POPI   C4B30271  17.244  17.916   8.488 -0.1117 -0.0514  0.0794
20150POPI    C130272  15.879   5.837  10.873 -0.2100 -0.0726  0.0126
20150POPI    C230273  15.615   6.131  10.937 -0.1579 -0.0793  0.2668
20150POPI    C330274  15.722   5.889  11.237  0.1977 -0.0269  0.1867
20150POPI   PO430275  15.811   5.794  10.656 -0.3613 -0.0544  0.1858
20150POPI   GL130276  15.745   6.136  10.307 -0.0717  0.2490 -0.0512
20150POPI   GL230277  15.714   6.357  10.492 -0.1050 -0.0213  0.1815
20150POPI   C1A30278  15.328   6.163  10.108  0.0598  0.1966 -0.1604
20150POPI   D2A30279  14.877   6.298  10.083 -0.1316 -0.1683 -0.0298
20150POPI   C3A30280  14.699   6.043   9.866  0.1381  0.0681  0.0655
20150POPI   C4A30281  14.646   5.677   9.677 -0.0859 -0.1228 -0.2295
20150POPI   C1B30282  15.879   6.540  10.113 -0.1459  0.0109  0.0534
20150POPI   C2B30283  15.733   6.477   9.684 -0.2181  0.3808  0.0968
20150POPI   C3B30284  15.644   6.301   9.319 -0.1232 -0.2281  0.1071
20150POPI   C4B30285  15.588   6.026   9.039  0.0668  0.0670 -0.0435
20151POPI    C130286  17.150   7.554  10.506 -0.1585  0.1006 -0.1522
20151POPI    C230287  17.329   7.474  10.855 -0.0120 -0.1062 -0.2727
20151POPI    C330288  17.140   7.823  10.803 -0.0536 -0.0824  0.0196
20151POPI   PO430289  17.395   7.458  10.361  0.0327 -0.2271  0.0356
20151POPI   GL130290  17.589   7.287   9.976  0.0746  0.0319 -0.1880
20151POPI   GL230291  17.471   7.019  10.153  0.1469  0.0625  0.2431
20151POPI   C1A30292  17.789   7.314   9.596  0.2161  0.0721  0.0105
20151POPI   D2A30293  17.981   7.534   9.259 -0.3291  0.1707 -0.1140
20151POPI   C3A30294  18.332   7.257   9.051  0.0296 -0.0306  0.0533
20151POPI   C4A30295  18.238   7.061   8.678  0.0726 -0.1436 -0.0743
20151POPI   C1B30296  17.628   6.878   9.712  0.1962 -0.0861  0.0340
20151POPI   C2B30297  17.652   6.928   9.324 -0.2502 -0.1389 -0.0399
20151POPI   C3B30298  17.721   7.250   9.002  0.0934 -0.2500 -0.3608
20151POPI   C4B30299  17.779   7.190   8.544 -0.0723  0.2945  0.3959
20152POPI    C130300  14.525   4.521  10.548 -0.1092  0.0362  0.0961
20152POPI    C230301  14.724   4.359  10.855  0.1016 -0.2016 -0.1604
20152POPI    C330302  14.614   4.130  10.546 -0.1221  0.0321 -0.2568
20152POPI   PO430303  14.626   4.693  10.394  0.1305 -0.0458 -0.1546
20152POPI   GL130304  14.613   4.718  10.028 -0.2541 -0.3120 -0.2700
20152POPI   GL230305  14.878   4.393  10.092 -0.1848  0.0569  0.2734
20152POPI   C1A30306  14.598   4.943   9.596 -0.0572  0.1200 -0.1501
20152POPI   D2A30307  14.609   5.250   9.335  0.0387  0.1614 -0.3338
20152POPI   C3A30308  14.550   5.067   8.922 -0.0607  0.1246  0.1136
20152POPI   C4A30309  14.550   4.619   8.773  0.1286 -0.1942 -0.2674
20152POPI   C1B30310  14.872   4.525   9.622  0.0425 -0.1664 -0.0391
20152POPI   C2B30311  14.813   4.721   9.206 -0.0137 -0.1391 -0.1354
20152POPI   C3B30312  15.011   5.193   8.980 -0.0548  0.1824  0.2604
20152POPI   C4B30313  14.765   5.449   8.676  0.0847 -0.0521  0.2691
20153POPI    C130314  14.374  14.034  10.358 -0.0204 -0.1630  0.1150
20153POPI    C230315  14.115  14.268  10.555  0.0575 -0.0125  0.0400
20153POPI    C330316  14.285  13.957  10.741 -0.1290 -0.0752  0.1080
20153POPI   PO430317  14.522  14.152  10.251 -0.0847  0.2185 -0.1114
20153POPI   GL130318  14.738  14.006   9.973 -0.2286 -0.1219 -0.2084
20153POPI   GL230319  14.665  14.047   9.637  0.1160 -0.0604 -0.0028
20153POPI   C1A30320  15.100  13.844   9.701 -0.0017  0.1222  0.3698
20153POPI   D2A30321  15.374  13.676   9.357 -0.0873  0.1286  0.0530
20153POPI   C3A30322  15.255  13.685   8.878  0.0724  0.3665  0.1356
20153POPI   C4A30323  15.419  13.561   8.470  0.1445  0.0500 -0.0061
20153POPI   C1B30324  14.913  13.988   9.196 -0.0912 -0.1171 -0.2383
20153POPI   C2B30325  14.944  14.125   8.780 -0.1203 -0.1748 -0.2946
20153POPI   C3B30326  15.044  14.434   8.542  0.3047  0.2530 -0.2861
20153POPI   C4B30327  14.825  14.670   8.307 -0.3445 -0.1001  0.4311
20154POPI    C130328  16.079  13.272  10.605 -0.0056 -0.1049 -0.0052
20154POPI    C230329  16.192  13.574  10.842  0.0387  0.0202 -0.1829
20154POPI    C330330  16.330  13.204  10.908  0.0922  0.0641 -0.0468
20154POPI   PO430331  16.104  13.347  10.390  0.0081 -0.3575  0.1437
20154POPI   GL130332  16.405  13.494   9.973 -0.0916  0.2901  0.2341
20154POPI   GL230333  16.514  13.873   9.843 -0.0584 -0.1338  0.0847
20154POPI   C1A30334  16.355  13.396   9.550  0.0999 -0.1648 -0.1311
20154POPI   D2A30335  16.438  13.285   9.071  0.1004  0.1631 -0.0490
20154POPI   C3A30336  16.427  13.385   8.708 -0.2779 -0.2839 -0.1194
20154POPI   C4A30337  16.339  13.541   8.213  0.1813 -0.2049 -0.1638
20154POPI   C1B30338  16.306  13.862   9.413  0.1271  0.2147  0.0930
20154POPI   C2B30339  16.260  13.865   8.928  0.0672 -0.0006  0.1729
20154POPI   C3B30340  16.184  13.948   8.561 -0.0186  0.1157  0.1752
20154POPI   C4B30341  15.966  13.911   8.218 -0.1055 -0.0047  0.0063
20155POPI    C130342  14.937  16.481  10.598 -0.1211  0.0360  0.1734
20155POPI    C230343  15.198  16.772  10.685  0.1663 -0.1531 -0.0368
20155POPI    C330344  15.053  16.539  10.976 -0.0862  0.2124  0.1365
20155POPI   PO430345  15.098  16.244  10.466  0.0209  0.1328  0.0797
20155POPI   GL130346  14.941  15.998  10.137 -0.0234  0.2300  0.1533
20155POPI   GL230347  14.655  15.808  10.104  0.1732 -0.0125  0.0590
20155POPI   C1A30348  15.055  15.872   9.713  0.0457 -0.3360 -0.2550
20155POPI   D2A30349  15.386  15.637   9.469 -0.0214  0.0950  0.0089
20155POPI   C3A30350  15.287  15.578   9.081  0.0150  0.0570 -0.4679
20155POPI   C4A30351  15.109  15.387   8.723  0.3305 -0.1196  0.0749
20155POPI   C1B30352  14.426  15.757   9.756 -0.1371 -0.0930  0.1267
20155POPI   C2B30353  14.317  15.753   9.336  0.0514 -0.2165 -0.4764
20155POPI   C3B30354  14.240  15.666   8.974  0.3607 -0.1603 -0.1039
20155POPI   C4B30355  14.063  15.575   8.627  0.0667 -0.2556  0.2217
20156POPI    C130356  15.018  17.591  10.246 -0.0343  0.0588 -0.0273
20156POPI    C230357  15.025  17.763  10.608  0.1300  0.0136 -0.0084
20156POPI    C330358  14.832  17.941  10.306  0.0634  0.0930  0.0802
20156POPI   PO430359  15.282  17.556  10.158 -0.1206 -0.4767 -0.2335
20156POPI   GL130360  15.412  17.776   9.824 -0.0134 -0.1855 -0.0143
20156POPI   GL230361  15.138  17.912   9.787  0.4013 -0.0989 -0.0981
20156POPI   C1A30362  15.570  17.693   9.405 -0.0443 -0.0129  0.0301
20156POPI   D2A30363  15.781  17.666   9.031 -0.0886  0.3142 -0.4053
20156POPI   C3A30364  15.700  17.399   8.774 -0.0640  0.1940 -0.1478
20156POPI   C4A30365  15.577  17.053   8.525 -0.1049  0.1052  0.1985
20156POPI   C1B30366  15.097  17.798   9.381 -0.3696 -0.3695 -0.1938
20156POPI   C2B30367  15.177  17.832   8.931 -0.0640 -0.0650 -0.1419
20156POPI   C3B30368  15.524  17.863   8.682 -0.3250  0.3187  0.3959
20156POPI   C4B30369  15.861  18.102   8.424  0.2067 -0.3561 -0.0330
20157POPI    C130370  16.913  14.916  10.617 -0.0051 -0.1498 -0.0113
20157POPI    C230371  16.613  15.181  10.626  0.2426  0.1516 -0.3419
20157POPI    C330372  16.890  15.184  10.914  0.0064 -0.0427 -0.1066
20157POPI   PO430373  16.983  14.936  10.427 -0.0768 -0.0103 -0.2042
20157POPI   GL130374  16.829  15.116  10.066 -0.0888 -0.1087  0.1902
20157POPI   GL230375  16.680  15.355  10.083 -0.1303 -0.1415  0.0302
20157POPI   C1A30376  16.997  15.098   9.623 -0.4511  0.1219 -0.2945
20157POPI   D2A30377  16.913  15.243   9.231  0.1462  0.2522 -0.4711
20157POPI   C3A30378  17.081  15.149   8.843 -0.1062 -0.0725 -0.0667
20157POPI   C4A30379  17.323  15.483   8.610 -0.0630  0.1418 -0.0616
20157POPI   C1B30380  16.672  15.505   9.713  0.0352 -0.0759  0.0267
20157POPI   C2B30381  16.706  15.744   9.350  0.0091  0.0561  0.2554
20157POPI   C3B30382  16.813  15.720   8.960 -0.1272 -0.2686 -0.0338
20157POPI   C4B30383  16.969  15.886   8.551 -0.2938  0.2084 -0.1618
20158POPI    C130384  12.622  13.264  11.035  0.2865 -0.1425  0.0100
20158POPI    C230385  12.817  13.557  11.225 -0.0317 -0.0273  0.1656
20158POPI    C330386  12.533  13.348  11.416  0.2035 -0.4528  0.0621
20158POPI   PO430387  12.681  13.251  10.770  0.2344  0.3528  0.0096
20158POPI   GL130388  12.596  13.219  10.335  0.1541 -0.2145 -0.1615
20158POPI   GL230389  12.542  13.475  10.198 -0.2576 -0.2542  0.1968
20158POPI   C1A30390  12.391  13.015  10.017 -0.1322 -0.1503  0.0242
20158POPI   D2A30391  12.361  12.598   9.850 -0.1515 -0.1307 -0.1998
20158POPI   C3A30392  12.404  12.561   9.399 -0.3479  0.2595 -0.3446
20158POPI   C4A30393  12.364  12.485   9.036 -0.1371 -0.2969  0.1163
20158POPI   C1B30394  12.282  13.424   9.763 -0.0316 -0.0745 -0.0182
20158POPI   C2B30395  12.142  13.343   9.368  0.2227  0.1050 -0.1637
20158POPI   C3B30396  12.181  13.366   8.973  0.1469  0.1024  0.1779
20158POPI   C4B30397  11.992  13.541   8.557  0.2677  0.3025 -0.1794
20159POPI    C130398  16.572   6.465  10.911 -0.1659  0.0468  0.0874
20159POPI    C230399  16.836   6.276  11.145 -0.0953 -0.0658 -0.0811
20159POPI    C330400  16.475   6.371  11.287  0.0356  0.0920  0.1523
20159POPI   PO430401  16.723   6.372  10.648 -0.2006 -0.1663 -0.0476
20159POPI   GL130402  16.735   6.064  10.312 -0.0922  0.0951  0.1958
20159POPI   GL230403  17.062   6.062  10.058 -0.0077  0.2033  0.1699
20159POPI   C1A30404  16.651   5.786  10.008  0.1509 -0.1782  0.1670
20159POPI   D2A30405  16.522   5.658   9.594  0.0014 -0.2215 -0.0083
20159POPI   C3A30406  16.855   5.701   9.215 -0.0126  0.0715  0.1872
20159POPI   C4A30407  17.009   5.980   8.864 -0.0660  0.1128 -0.0331
20159POPI   C1B30408  17.057   5.875   9.687  0.3219 -0.2024  0.1903
20159POPI   C2B30409  17.192   6.061   9.363 -0.2242  0.1676 -0.0304
20159POPI   C3B30410  17.515   6.097   8.995 -0.0127  0.1177  0.2689
20159POPI   C4B30411  17.424   6.350   8.659  0.0755 -0.2092 -0.3815
20160POPI    C130412  15.097   9.328  10.516  0.0105  0.0707 -0.0180
20160POPI    C230413  14.740   9.156  10.575  0.0784 -0.1471 -0.2246
20160POPI    C330414  15.006   9.174  10.873 -0.1241  0.0686 -0.0525
20160POPI   PO430415  15.209   9.179  10.266  0.0733 -0.1734  0.2521
20160POPI   GL130416  15.127   9.328   9.796  0.0643 -0.1737  0.1496
20160POPI   GL230417  15.417   9.532   9.905  0.0554  0.0460  0.0705
20160POPI   C1A30418  15.096   9.502   9.402 -0.2201  0.1606  0.3103
20160POPI   D2A30419  15.003   9.700   8.881 -0.0563 -0.1656 -0.0884
20160POPI   C3A30420  14.827   9.685   8.413 -0.1440  0.1254 -0.0812
20160POPI   C4A30421  14.885   9.590   7.977 -0.0975 -0.0967  0.0208
20160POPI   C1B30422  15.681   9.698   9.541  0.0301 -0.0545 -0.3362
20160POPI   C2B30423  15.947   9.761   9.156  0.1262  0.0547  0.0415
20160POPI   C3B30424  15.851   9.833   8.740  0.2631 -0.2004  0.1981
20160POPI   C4B30425  15.761   9.769   8.303  0.2844  0.2288 -0.0741
20161POPI    C130426  16.033   8.337  10.411 -0.0026 -0.0288 -0.1655
20161POPI    C230427  16.017   8.102  10.734 -0.2060 -0.0385 -0.1816
20161POPI    C330428  15.796   8.435  10.717  0.0273  0.1177 -0.1887
20161POPI   PO430429  16.344   8.287  10.333  0.4193  0.1005 -0.0861
20161POPI   GL130430  16.445   8.077  10.073 -0.0485 -0.1838  0.0410
20161POPI   GL230431  16.717   8.105  10.013  0.1836  0.0983 -0.1566
20161POPI   C1A30432  16.276   7.812   9.781 -0.0162 -0.1384  0.0601
20161POPI   D2A30433  16.118   7.708   9.424 -0.4040  0.0593 -0.1109
20161POPI   C3A30434  15.770   7.710   9.247  0.1879  0.2812 -0.0557
20161POPI   C4A30435  15.575   7.623   8.895  0.0641  0.0270 -0.2281
20161POPI   C1B30436  16.789   8.064   9.600 -0.1726  0.1748 -0.0952
20161POPI   C2B30437  16.886   8.049   9.166 -0.2145  0.0822 -0.0302
20161POPI   C3B30438  16.733   8.088   8.819 -0.1491 -0.1384  0.0154
20161POPI   C4B30439  16.606   7.996   8.445  0.0838  0.1315 -0.0808
20162POPI    C130440  16.039   1.393  10.401  0.0994 -0.0337 -0.0973
20162POPI    C230441  16.428   1.298  10.390  0.1106 -0.0580  0.3305
20162POPI    C330442  16.193   1.145  10.676 -0.2268 -0.0799  0.0483
20162POPI   PO430443  16.028   1.618  10.231 -0.1951 -0.0777 -0.2513
20162POPI   GL130444  16.130   1.826   9.871 -0.0992  0.0309 -0.0595
20162POPI   GL230445  16.297   1.552   9.834  0.1288  0.0016  0.0492
20162POPI   C1A30446  16.130   1.944   9.524  0.0013 -0.1559  0.2574
20162POPI   D2A30447  16.249   1.965   9.063  0.0129  0.0196  0.0577
20162POPI   C3A30448  16.485   2.218   8.787  0.0683 -0.3422  0.1185
20162POPI   C4A30449  16.818   2.640   8.944  0.0219 -0.2905 -0.0098
20162POPI   C1B30450  16.339   1.543   9.363 -0.0275 -0.3664 -0.0743
20162POPI   C2B30451  16.307   1.503   8.989 -0.2072  0.0548  0.3847
20162POPI   C3B30452  16.332   1.454   8.560  0.1311 -0.2426  0.2205
20162POPI   C4B30453  16.277   1.890   8.490  0.2955  0.0443  0.1201
20163POPI    C130454  14.187   7.775  10.936  0.2218 -0.2966 -0.0845
20163POPI    C230455  14.164   7.467  11.190  0.0161 -0.2672 -0.0658
20163POPI    C330456  14.380   7.790  11.286 -0.0934 -0.2395  0.0905
20163POPI   PO430457  14.140   7.711  10.658  0.0213  0.5332 -0.1937
20163POPI   GL130458  14.012   7.712  10.215  0.1510 -0.0847 -0.1547
20163POPI   GL230459  13.774   7.688  10.316  0.1593  0.0502 -0.2079
20163POPI   C1A30460  13.773   7.851   9.795  0.0865 -0.1395 -0.0877
20163POPI   D2A30461  13.749   7.866   9.343 -0.1476  0.0570 -0.3400
20163POPI   C3A30462  13.334   7.862   9.093 -0.2676 -0.3511  0.3370
20163POPI   C4A30463  13.028   8.149   8.874 -0.3429 -0.0788 -0.1563
20163POPI   C1B30464  13.792   7.313   9.938  0.0563  0.1486 -0.1680
20163POPI   C2B30465  13.837   7.238   9.572 -0.3922 -0.1946 -0.0173
20163POPI   C3B30466  13.965   7.211   9.131 -0.1556 -0.1034  0.1843
20163POPI   C4B30467  14.079   7.285   8.785 -0.0051  0.0420  0.3015
20164POPI    C130468  16.450   6.829  10.639 -0.1382 -0.1027 -0.0353
20164POPI    C230469  16.245   6.839  10.295 -0.2066  0.0526  0.0091
20164POPI    C330470  16.060   6.743  10.636 -0.2061  0.1904  0.0489
20164POPI   PO430471  16.725   6.886  10.458  0.1734  0.2057  0.1144
20164POPI   GL130472  16.677   7.040  10.039 -0.0952  0.0992  0.2922
20164POPI   GL230473  16.935   7.203  10.152 -0.0960 -0.1884  0.1572
20164POPI   C1A30474  16.762   6.862   9.592  0.1247  0.1420  0.3276
20164POPI   D2A30475  16.771   6.748   9.178  0.0761  0.1339  0.3838
20164POPI   C3A30476  16.838   7.019   8.941 -0.2521 -0.0569 -0.0630
20164POPI   C4A30477  17.196   7.415   8.874  0.0655  0.0649 -0.1802
20164POPI   C1B30478  17.135   7.098   9.793 -0.2147  0.0173 -0.0804
20164POPI   C2B30479  17.157   7.096   9.361  0.1701  0.1722  0.0169
20164POPI   C3B30480  17.343   6.940   8.965 -0.0097  0.1807  0.4802
20164POPI   C4B30481  17.320   6.886   8.568  0.4271 -0.0598  0.0713
20165POPI    C130482  15.944   5.086  10.950  0.0417  0.0847 -0.0628
20165POPI    C230483  15.627   5.237  11.141  0.0320 -0.0034 -0.0086
20165POPI    C330484  15.971   5.441  11.133 -0.0495  0.1313 -0.1387
20165POPI   PO430485  15.872   4.907  10.715 -0.1080  0.2016 -0.0056
20165POPI   GL130486  16.078   4.945  10.325 -0.1706 -0.1561  0.0807
20165POPI   GL230487  15.927   4.679  10.232 -0.3471  0.2612 -0.2448
20165POPI   C1A30488  16.332   5.285  10.179  0.2573 -0.0511 -0.1721
20165POPI   D2A30489  16.718   5.257   9.869 -0.0396 -0.1951  0.0363
20165POPI   C3A30490  16.655   5.239   9.430 -0.1329  0.0992 -0.0852
20165POPI   C4A30491  16.511   5.423   9.085  0.1471 -0.2118  0.1141
20165POPI   C1B30492  15.921   4.730   9.866  0.1156 -0.2162  0.0443
20165POPI   C2B30493  15.893   4.761   9.424 -0.1279 -0.2038  0.0520
20165POPI   C3B30494  15.839   4.776   8.988  0.2765 -0.1536  0.1910
20165POPI   C4B30495  15.776   4.646   8.534  0.0762  0.2598 -0.4146
20166POPI    C130496  15.642  16.640  10.390  0.1328 -0.0235  0.0548
20166POPI    C230497  16.000  16.476  10.467  0.1909  0.2062  0.2887
20166POPI    C330498  15.812  16.688  10.749 -0.0310  0.2723  0.0950
20166POPI   PO430499  15.653  16.771  10.161  0.4022  0.2096  0.0921
20166POPI   GL130500  15.735  16.858   9.774 -0.2299 -0.1962  0.0953
20166POPI   GL230501  15.381  16.812   9.728 -0.0285 -0.0361  0.0498
20166POPI   C1A30502  15.793  17.152   9.386 -0.0088  0.1076  0.0460
20166POPI   D2A30503  15.734  16.966   9.038  0.0650 -0.0885 -0.0003
20166POPI   C3A30504  16.144  17.103   8.648 -0.0357 -0.2255 -0.0529
20166POPI   C4A30505  16.562  17.361   8.584  0.2025  0.4099 -0.4224
20166POPI   C1B30506  15.432  16.783   9.355  0.1142 -0.1780  0.3640
20166POPI   C2B30507  15.408  16.597   8.979  0.2717  0.0438 -0.1305
20166POPI   C3B30508  15.500  16.530   8.664 -0.0126 -0.2016 -0.1253
20166POPI   C4B30509  15.413  16.631   8.273 -0.3690 -0.3042  0.3361
20167POPI    C130510  12.441   4.234  11.019 -0.2204  0.0832  0.0719
20167POPI    C230511  12.429   4.307  11.412 -0.2112  0.2027  0.0506
20167POPI    C330512  12.489   3.935  11.279 -0.0772  0.1834  0.1627
20167POPI   PO430513  12.264   4.376  10.886 -0.1666  0.0423 -0.2261
20167POPI   GL130514  12.433   4.412  10.427  0.0547 -0.0032 -0.3147
20167POPI   GL230515  12.150   4.228  10.379  0.2021 -0.0982 -0.0452
20167POPI   C1A30516  12.504   4.643  10.062  0.4331  0.0548  0.1857
20167POPI   D2A30517  12.411   4.697   9.670  0.0400  0.2665  0.0330
20167POPI   C3A30518  12.570   4.747   9.261  0.2898  0.1949 -0.1473
20167POPI   C4A30519  12.834   4.744   9.076 -0.0722  0.3421  0.2431
20167POPI   C1B30520  11.972   4.036   9.972 -0.0843 -0.1866  0.3638
20167POPI   C2B30521  11.846   3.946   9.530  0.0914  0.0242  0.2498
20167POPI   C3B30522  12.004   3.912   9.145 -0.0938 -0.0139 -0.1190
20167POPI   C4B30523  11.808   4.066   8.783  0.3268  0.4229 -0.0262
20168POPI    C130524  14.917  14.893  10.341  0.0192 -0.0364 -0.0394
20168POPI    C230525  14.971  14.497  10.361 -0.1826 -0.0608  0.0468
20168POPI    C330526  15.076  14.729  10.669  0.0751 -0.0287 -0.0626
20168POPI   PO430527  14.725  14.861  10.103 -0.2203  0.1317 -0.1711
20168POPI   GL130528  14.699  14.505   9.934  0.1381  0.3628 -0.0389
20168POPI   GL230529  14.450  14.443   9.833  0.1296  0.1360 -0.1041
20168POPI   C1A30530  14.914  14.537   9.545 -0.2017  0.1554 -0.0654
20168POPI   D2A30531  14.963  14.544   9.087 -0.1129  0.3130 -0.0147
20168POPI   C3A30532  14.694  14.756   8.794  0.2623  0.0348 -0.0077
20168POPI   C4A30533  14.355  14.792   8.622 -0.3936  0.0570 -0.0395
20168POPI   C1B30534  14.451  14.456   9.347  0.3120  0.2861  0.1958
20168POPI   C2B30535  14.529  14.324   8.969 -0.0490 -0.0311  0.0488
20168POPI   C3B30536  14.504  14.319   8.518 -0.0556  0.2324  0.1028
20168POPI   C4B30537  14.153  14.406   8.220 -0.1628 -0.0844 -0.3421
20169POPI    C130538  16.456  11.401  10.267  0.2138 -0.2292  0.1379
20169POPI    C230539  16.132  11.435  10.499  0.0325  0.0708 -0.1507
20169POPI    C330540  16.497  11.450  10.662 -0.0891  0.3777  0.1057
20169POPI   PO430541  16.421  11.229  10.182  0.1825 -0.0206  0.2587
20169POPI   GL130542  16.218  11.195   9.718 -0.0988  0.1502  0.5909
20169POPI   GL230543  16.316  10.858   9.823  0.2186  0.3351  0.1238
20169POPI   C1A30544  16.024  11.077   9.298 -0.0680  0.2060 -0.2669
20169POPI   D2A30545  16.168  10.925   8.910 -0.2231  0.0662 -0.1630
20169POPI   C3A30546  15.963  10.885   8.563  0.0217 -0.4737  0.0523
20169POPI   C4A30547  15.954  10.897   7.967  0.2517  0.1494  0.4187
20169POPI   C1B30548  16.532  10.916   9.470  0.0617 -0.1704 -0.1209
20169POPI   C2B30549  16.627  10.806   9.104 -0.0409  0.1197  0.0909
20169POPI   C3B30550  16.571  10.750   8.646 -0.3334 -0.3673 -0.1335
20169POPI   C4B30551  16.289  10.645   8.257 -0.0285  0.3730  0.1825
20170POPI    C130552  15.828   0.350  10.530  0.0526 -0.0133  0.0261
20170POPI    C230553  16.170   0.149  10.578  0.0369 -0.0912 -0.1793
20170POPI    C330554  15.824  -0.011  10.702  0.0821  0.0214  0.1002
20170POPI   PO430555  15.760   0.356  10.253 -0.3118  0.0253  0.0027
20170POPI   GL130556  15.510   0.340   9.943 -0.1184 -0.0969  0.1363
20170POPI   GL230557  15.778   0.156   9.763  0.2353  0.1727 -0.1475
20170POPI   C1A30558  15.405   0.332   9.522  0.2122 -0.0594  0.2153
20170POPI   D2A30559  15.656   0.202   9.174 -0.3155  0.2200 -0.1271
20170POPI   C3A30560  15.507   0.337   8.802  0.0430 -0.1639 -0.0233
20170POPI   C4A30561  15.405   0.487   8.452  0.1339  0.1652 -0.2892
20170POPI   C1B30562  16.055   0.248   9.440  0.1339  0.1481 -0.2217
20170POPI   C2B30563  16.013   0.378   8.913 -0.1636  0.1104 -0.0423
20170POPI   C3B30564  15.886   0.635   8.567 -0.0144 -0.0319 -0.2344
20170POPI   C4B30565  15.727   0.848   8.302 -0.0516 -0.2429 -0.0965
20171POPI    C130566  12.244   6.805  11.094  0.1243  0.2733  0.1377
20171POPI    C230567  12.083   6.707  11.446 -0.1269 -0.0995 -0.0740
20171POPI    C330568  12.443   6.565  11.344 -0.0996 -0.0756 -0.0113
20171POPI   PO430569  12.262   7.120  11.066 -0.0555  0.1887 -0.1054
20171POPI   GL130570  12.177   7.300  10.771 -0.4979  0.0066  0.2452
20171POPI   GL230571  12.058   7.128  10.503  0.2758  0.2457 -0.0590
20171POPI   C1A30572  12.071   7.581  10.404  0.0988 -0.4300  0.0384
20171POPI   D2A30573  11.843   7.549  10.056  0.0347  0.1602 -0.1018
20171POPI   C3A30574  11.582   7.474   9.740  0.0573 -0.0418 -0.0323
20171POPI   C4A30575  11.252   7.340   9.823  0.1905 -0.0164 -0.0452
20171POPI   C1B30576  12.201   6.872  10.155  0.2160 -0.1128 -0.3549
20171POPI   C2B30577  12.410   6.685   9.860 -0.0387 -0.1529 -0.1265
20171POPI   C3B30578  12.380   6.394   9.612  0.1847  0.1187  0.2295
20171POPI   C4B30579  12.209   6.055   9.355 -0.0635  0.1321  0.0006
20172POPI    C130580  16.474  16.821  10.565 -0.1047  0.1440 -0.1157
20172POPI    C230581  16.423  17.216  10.529 -0.1001  0.1570  0.0144
20172POPI    C330582  16.204  17.009  10.792  0.0890  0.1163  0.1427
20172POPI   PO430583  16.413  16.755  10.353 -0.0147  0.2028 -0.3195
20172POPI   GL130584  16.480  16.664   9.847 -0.3278  0.0405  0.1319
20172POPI   GL230585  16.162  16.708   9.941 -0.1248  0.3584  0.1215
20172POPI   C1A30586  16.466  16.408   9.507  0.5466  0.0039  0.0585
20172POPI   D2A30587  16.313  16.641   9.032  0.1879  0.0323 -0.0428
20172POPI   C3A30588  16.537  16.806   8.642  0.2838 -0.1828 -0.3333
20172POPI   C4A30589  16.914  16.935   8.518  0.1243 -0.0002 -0.1923
20172POPI   C1B30590  16.159  16.839   9.458  0.2049  0.0034  0.0607
20172POPI   C2B30591  16.363  17.117   9.259 -0.2935  0.0491  0.4007
20172POPI   C3B30592  16.747  17.102   9.011  0.1122  0.1616  0.0536
20172POPI   C4B30593  17.129  17.325   8.773  0.0806  0.1244  0.0776
20173POPI    C130594  16.680   0.184  10.584  0.2392 -0.1181 -0.0698
20173POPI    C230595  16.507   0.409  10.302  0.2057  0.1562  0.1651
20173POPI    C330596  16.900   0.437  10.367  0.2712 -0.1497 -0.0743
20173POPI   PO430597  16.619  -0.061  10.459 -0.4733 -0.0715 -0.3631
20173POPI   GL130598  16.783  -0.068  10.022 -0.0842  0.1737 -0.3060
20173POPI   GL230599  16.866  -0.297   9.911  0.0352 -0.0496  0.0310
20173POPI   C1A30600  16.696   0.315   9.872 -0.0624  0.2935  0.0675
20173POPI   D2A30601  16.413   0.604   9.617  0.1820  0.0641  0.1467
20173POPI   C3A30602  16.382   0.626   9.203 -0.0527  0.2605 -0.0761
20173POPI   C4A30603  16.540   0.653   8.742 -0.1821  0.1124 -0.2730
20173POPI   C1B30604  17.094   0.058   9.668 -0.0763  0.1201  0.1157
20173POPI   C2B30605  17.140   0.027   9.227  0.1095 -0.0063 -0.1997
20173POPI   C3B30606  17.004   0.173   8.867  0.0937  0.1119  0.0578
20173POPI   C4B30607  16.785   0.320   8.461  0.2787 -0.0330 -0.1000
20174POPI    C130608  13.519  12.073  10.689  0.0709 -0.0296 -0.1370
20174POPI    C230609  13.726  12.409  10.622  0.0175  0.0619  0.1457
20174POPI    C330610  13.915  12.056  10.633  0.1366  0.1277  0.2492
20174POPI   PO430611  13.281  11.992  10.431  0.2892  0.2037  0.1138
20174POPI   GL130612  13.050  11.828  10.108  0.1114  0.4513 -0.4085
20174POPI   GL230613  13.329  11.908   9.969 -0.2779  0.2148  0.1679
20174POPI   C1A30614  12.750  11.634   9.695  0.4254 -0.3672  0.1953
20174POPI   D2A30615  12.530  11.573   9.304  0.4261 -0.1782  0.1068
20174POPI   C3A30616  12.734  11.438   8.891 -0.0790  0.3866  0.0757
20174POPI   C4A30617  12.604  11.248   8.505  0.0916  0.1164  0.2122
20174POPI   C1B30618  13.181  11.726   9.571 -0.1752  0.0429 -0.1424
20174POPI   C2B30619  13.063  11.683   9.198  0.0110 -0.1903 -0.1067
20174POPI   C3B30620  13.077  11.789   8.747  0.1151  0.0232 -0.3069
20174POPI   C4B30621  12.991  11.572   8.379 -0.2319  0.0422  0.0978
20175POPI    C130622  14.041   8.496  10.651 -0.0791 -0.0856 -0.2115
20175POPI    C230623  13.993   8.165  10.431 -0.0319 -0.1543 -0.1191
20175POPI    C330624  14.310   8.200  10.673 -0.0408 -0.0446 -0.1229
20175POPI   PO430625  13.871   8.725  10.569  0.1544 -0.1431 -0.0493
20175POPI   GL130626  13.743   8.577  10.168 -0.1322  0.1521 -0.1364
20175POPI   GL230627  13.803   8.332  10.001 -0.2115  0.0394  0.3870
20175POPI   C1A30628  13.572   8.882   9.890  0.0257  0.0983  0.1010
20175POPI   D2A30629  13.612   9.141   9.590  0.2941  0.1803 -0.3357
20175POPI   C3A30630  13.531   9.208   9.213 -0.4012  0.3852  0.0112
20175POPI   C4A30631  13.387   9.129   8.877  0.1897 -0.3706  0.2604
20175POPI   C1B30632  13.501   8.231   9.667 -0.0381  0.0122 -0.1803
20175POPI   C2B30633  13.435   8.286   9.326  0.0229  0.0194  0.1294
20175POPI   C3B30634  13.543   8.295   8.813 -0.0294  0.1841 -0.3269
20175POPI   C4B30635  13.695   8.123   8.351 -0.0135  0.2203 -0.1884
20176POPI    C130636  16.630   2.771  10.619 -0.1283  0.0812  0.1540
20176POPI    C230637  16.533   2.678  10.996 -0.2734  0.0748  0.1161
20176POPI    C330638  16.460   2.418  10.701  0.3102 -0.1379  0.1460
20176POPI   PO430639  16.497   2.963  10.573  0.0814 -0.2186 -0.0880
20176POPI   GL130640  16.407   3.138  10.129 -0.0728  0.0110  0.1625
20176POPI   GL230641  16.567   3.399  10.285 -0.2028 -0.2387 -0.0731
20176POPI   C1A30642  16.613   3.035   9.705 -0.1821 -0.0960 -0.0779
20176POPI   D2A30643  16.577   3.033   9.276 -0.1363  0.0157 -0.4547
20176POPI   C3A30644  16.272   2.804   8.952  0.1055  0.1346 -0.1861
20176POPI   C4A30645  16.206   2.662   8.564  0.2255 -0.0172 -0.3686
20176POPI   C1B30646  16.515   3.506   9.821  0.5131 -0.0011  0.0335
20176POPI   C2B30647  16.646   3.486   9.460  0.0040  0.1372 -0.0710
20176POPI   C3B30648  16.745   3.467   9.025 -0.0412  0.1491 -0.1086
20176POPI   C4B30649  16.483   3.240   8.656  0.0009 -0.0150 -0.1919
20177POPI    C130650  15.996  12.488  10.329 -0.0319 -0.0799  0.2195
20177POPI    C230651  15.660  12.308  10.208 -0.0135  0.0098  0.0322
20177POPI    C330652  15.804  12.237  10.574 -0.2507 -0.0089  0.1238
20177POPI   PO430653  16.107  12.449  10.006 -0.4910 -0.3193 -0.1191
20177POPI   GL130654  16.174  12.654   9.671  0.3109  0.1864  0.1927
20177POPI   GL230655  16.228  12.965   9.710  0.0977 -0.1044 -0.1489
20177POPI   C1A30656  16.143  12.506   9.306  0.1422  0.1385  0.0124
20177POPI   D2A30657  16.097  12.600   8.923  0.1435  0.1689  0.2205
20177POPI   C3A30658  16.194  12.323   8.610  0.0523  0.0436 -0.2510
20177POPI   C4A30659  16.259  12.213   8.085 -0.0060 -0.0344 -0.1970
20177POPI   C1B30660  16.030  12.980   9.307  0.1586 -0.0714  0.0625
20177POPI   C2B30661  16.043  13.095   8.855 -0.1191 -0.0144  0.1129
20177POPI   C3B30662  15.934  12.920   8.512  0.0478  0.2828  0.1519
20177POPI   C4B30663  15.965  12.589   8.152  0.0371 -0.0604 -0.0114
20178POPI    C130664  14.748  13.620  10.384 -0.0568 -0.0573  0.0063
20178POPI    C230665  15.092  13.497  10.221 -0.0108  0.1274 -0.0390
20178POPI    C330666  15.028  13.451  10.613  0.0118 -0.0241 -0.0526
20178POPI   PO430667  14.547  13.579  10.182 -0.2306  0.1274 -0.2472
20178POPI   GL130668  14.638  13.572   9.790 -0.0628  0.2067 -0.1138
20178POPI   GL230669  14.402  13.302   9.824 -0.0576 -0.0659  0.0299
20178POPI   C1A30670  14.537  13.642   9.246  0.2171  0.2374 -0.0363
20178POPI   D2A30671  14.614  13.692   8.797 -0.2608 -0.0221  0.1665
20178POPI   C3A30672  14.748  13.585   8.484 -0.0056 -0.3628  0.1055
20178POPI   C4A30673  15.039  13.524   8.120 -0.2303  0.0195 -0.0770
20178POPI   C1B30674  14.527  13.210   9.440 -0.2782 -0.0999 -0.2669
20178POPI   C2B30675  14.617  13.142   9.023 -0.0138 -0.2640  0.2663
20178POPI   C3B30676  14.495  13.103   8.536 -0.4416  0.2619 -0.1542
20178POPI   C4B30677  14.441  13.287   8.149  0.0985 -0.0331  0.3803
20179POPI    C130678  13.642  12.964  10.578 -0.2390 -0.0037  0.1625
20179POPI    C230679  13.982  13.150  10.675 -0.1233  0.0331 -0.2909
20179POPI    C330680  13.872  12.820  10.871  0.2001 -0.0087 -0.1737
20179POPI   PO430681  13.606  12.847  10.332 -0.1194  0.1439 -0.0548
20179POPI   GL130682  13.710  12.714   9.940 -0.1078 -0.0348  0.2265
20179POPI   GL230683  13.834  12.445   9.784  0.1256  0.3318 -0.2018
20179POPI   C1A30684  13.805  13.102   9.699 -0.0896 -0.0074 -0.1443
20179POPI   D2A30685  13.620  13.223   9.320 -0.0673 -0.0075  0.0411
20179POPI   C3A30686  13.509  13.361   8.916 -0.1455  0.0098  0.1435
20179POPI   C4A30687  13.528  13.337   8.507  0.0143 -0.1323  0.0110
20179POPI   C1B30688  13.735  12.618   9.439  0.1197 -0.1881  0.2491
20179POPI   C2B30689  13.873  12.452   9.055 -0.0184 -0.0487  0.2554
20179POPI   C3B30690  14.029  12.352   8.715  0.2375  0.1218 -0.0138
20179POPI   C4B30691  13.913  12.336   8.375 -0.2422  0.2243 -0.1225
20180POPI    C130692  13.640   5.014  10.665  0.0996  0.0967  0.0197
20180POPI    C230693  13.696   4.773  10.979  0.0226 -0.0726 -0.0955
20180POPI    C330694  13.565   4.623  10.632 -0.1511  0.1552 -0.1306
20180POPI   PO430695  13.831   5.101  10.608  0.2261  0.0274  0.0137
20180POPI   GL130696  13.934   5.405  10.325 -0.1529  0.1758 -0.3420
20180POPI   GL230697  14.091   5.182  10.190 -0.1756 -0.1944 -0.1885
20180POPI   C1A30698  13.735   5.345   9.937 -0.0714  0.0474  0.0923
20180POPI   D2A30699  13.654   5.297   9.503  0.1311  0.1479 -0.0798
20180POPI   C3A30700  13.490   5.448   9.195  0.0543 -0.1333 -0.1828
20180POPI   C4A30701  13.451   5.481   8.758 -0.1290  0.1066  0.2320
20180POPI   C1B30702  14.142   5.189   9.690 -0.1286 -0.2739  0.0613
20180POPI   C2B30703  14.078   5.180   9.189 -0.2221  0.1516 -0.2998
20180POPI   C3B30704  14.036   5.260   8.744  0.2575  0.0153 -0.1668
20180POPI   C4B30705  13.870   5.427   8.344  0.1139  0.0148 -0.1271
20181POPI    C130706  15.732  17.300  10.189 -0.0674 -0.1284 -0.0505
20181POPI    C230707  16.006  17.043  10.326  0.0997 -0.0674 -0.2640
20181POPI    C330708  15.972  17.406  10.490  0.0023 -0.1503 -0.0982
20181POPI   PO430709  15.851  17.388   9.957 -0.0424 -0.0044 -0.0855
20181POPI   GL130710  16.065  17.740   9.714 -0.0400  0.3025  0.0828
20181POPI   GL230711  16.091  17.534   9.490 -0.1864  0.2955 -0.2708
20181POPI   C1A30712  16.413  17.915   9.633  0.2048 -0.0668  0.0236
20181POPI   D2A30713  16.641  18.136   9.335  0.1988  0.0251 -0.1169
20181POPI   C3A30714  16.481  18.178   8.904 -0.1539 -0.2661  0.0945
20181POPI   C4A30715  16.304  18.197   8.519  0.1541  0.2302  0.1832
20181POPI   C1B30716  16.220  17.824   9.218  0.2447  0.2064  0.0857
20181POPI   C2B30717  16.223  17.700   8.771 -0.1181  0.2385  0.0365
20181POPI   C3B30718  16.027  17.609   8.490 -0.0521  0.1964  0.0174
20181POPI   C4B30719  15.555  17.581   8.313 -0.1568  0.1144  0.1966
20182DPPI    C130720  12.280   2.699  10.758 -0.1825  0.2167 -0.0575
20182DPPI    C230721  12.504   2.981  10.932  0.2046 -0.1313  0.0239
20182DPPI    C330722  12.461   2.624  11.107 -0.1943 -0.1629 -0.1290
20182DPPI   PO430723  12.261   2.833  10.499 -0.2837  0.0874  0.0354
20182DPPI   GL130724  12.306   3.147  10.166 -0.3405 -0.1195  0.1979
20182DPPI   GL230725  12.689   3.264  10.061 -0.1682 -0.0055 -0.0958
20182DPPI   C1A30726  12.192   2.966   9.768  0.0676 -0.0715 -0.5418
20182DPPI   C2A30727  12.069   2.834   9.411  0.0946 -0.2010 -0.1749
20182DPPI   C3A30728  11.993   2.907   8.976 -0.1445  0.2519 -0.0542
20182DPPI   C4A30729  12.133   3.107   8.524 -0.0052  0.1025 -0.0843
20182DPPI   C1B30730  12.627   3.136   9.648 -0.1523  0.0889  0.1999
20182DPPI   C2B30731  12.505   2.978   9.203  0.1230  0.0716 -0.2070
20182DPPI   C3B30732  12.494   3.241   8.836  0.0040  0.1616 -0.2595
20182DPPI   C4B30733  12.547   3.601   8.653  0.1609 -0.1218  0.3532
20183DPPI    C130734  12.348   3.916  10.670 -0.0444  0.0839  0.2219
20183DPPI    C230735  12.582   3.622  10.535 -0.0563  0.2091 -0.0784
20183DPPI    C330736  12.697   3.840  10.849  0.0178 -0.0226  0.0578
20183DPPI   PO430737  12.062   3.776  10.598  0.2073 -0.2102  0.1328
20183DPPI   GL130738  11.785   3.745  10.313  0.1506 -0.1979  0.1601
20183DPPI   GL230739  11.877   3.439  10.230  0.3374  0.0177 -0.2255
20183DPPI   C1A30740  11.593   3.660   9.939  0.1403 -0.0713  0.1234
20183DPPI   C2A30741  11.486   3.509   9.520 -0.0485 -0.3864 -0.1559
20183DPPI   C3A30742  11.165   3.304   9.294  0.1064  0.0153 -0.1605
20183DPPI   C4A30743  10.771   3.477   9.165 -0.2797  0.1617  0.1313
20183DPPI   C1B30744  11.725   3.200   9.844 -0.0882  0.1363 -0.1494
20183DPPI   C2B30745  11.601   3.050   9.410 -0.0205 -0.0395 -0.3788
20183DPPI   C3B30746  11.553   3.044   8.872 -0.1095  0.1492 -0.3020
20183DPPI   C4B30747  11.634   2.740   8.459 -0.0712 -0.1032  0.0086
20184DPPI    C130748  11.422  14.225  10.823  0.0060  0.1472  0.0640
20184DPPI    C230749  11.162  13.923  10.788  0.0198  0.1623 -0.1883
20184DPPI    C330750  11.042  14.275  10.936  0.0023  0.0382  0.1009
20184DPPI   PO430751  11.639  14.285  10.621 -0.0017  0.0398 -0.0128
20184DPPI   GL130752  11.753  14.546  10.269  0.0712  0.3945 -0.0916
20184DPPI   GL230753  11.973  14.763  10.392  0.1355  0.0242  0.0464
20184DPPI   C1A30754  11.787  14.328   9.957  0.1044 -0.0775 -0.1688
20184DPPI   C2A30755  11.757  14.335   9.536  0.1775  0.2623  0.0196
20184DPPI   C3A30756  11.578  13.965   9.319  0.3469 -0.2135 -0.3489
20184DPPI   C4A30757  11.402  13.595   9.128 -0.0413 -0.1871  0.1067
20184DPPI   C1B30758  11.874  14.871   9.944 -0.0591  0.0488 -0.2262
20184DPPI   C2B30759  11.793  14.807   9.565  0.3239  0.0900  0.0637
20184DPPI   C3B30760  11.715  14.835   9.073 -0.2803  0.1138  0.1820
20184DPPI   C4B30761  11.619  15.008   8.714  0.0570  0.0288  0.3103
20185DPPI    C130762  13.568   6.255  10.710  0.3655 -0.0110 -0.1551
20185DPPI    C230763  13.601   6.008  11.023  0.1757  0.1194 -0.0302
20185DPPI    C330764  13.629   6.404  11.077  0.0749  0.1460 -0.1671
20185DPPI   PO430765  13.633   6.118  10.526  0.0108 -0.1570 -0.2609
20185DPPI   GL130766  13.708   5.847  10.209  0.3499 -0.6232  0.0517
20185DPPI   GL230767  13.444   5.649  10.297  0.2613  0.0214 -0.0083
20185DPPI   C1A30768  13.523   5.834   9.767 -0.2758  0.1840 -0.1084
20185DPPI   C2A30769  13.464   5.896   9.372  0.0310 -0.0607 -0.1158
20185DPPI   C3A30770  13.379   5.934   9.008  0.1530  0.0110 -0.0238
20185DPPI   C4A30771  13.302   5.853   8.478  0.1042 -0.1801 -0.1380
20185DPPI   C1B30772  13.161   5.485   9.977  0.1796 -0.0944  0.1133
20185DPPI   C2B30773  13.139   5.550   9.622 -0.1623  0.0953 -0.1235
20185DPPI   C3B30774  12.977   5.609   9.120  0.0304 -0.1050 -0.1513
20185DPPI   C4B30775  12.957   5.596   8.708  0.1553 -0.2464 -0.0374
20186DPPI    C130776  15.663   1.118  10.510 -0.0137 -0.0695  0.1851
20186DPPI    C230777  15.786   0.814  10.740 -0.0235 -0.0926  0.1599
20186DPPI    C330778  15.721   1.175  10.902 -0.0870 -0.1237  0.2041
20186DPPI   PO430779  15.692   0.999  10.298 -0.2808 -0.1620  0.2191
20186DPPI   GL130780  15.803   1.078   9.982  0.2073  0.1455  0.3623
20186DPPI   GL230781  16.098   1.120  10.011  0.0131 -0.0521  0.1732
20186DPPI   C1A30782  15.873   1.381   9.615  0.0588 -0.2457 -0.0655
20186DPPI   C2A30783  15.812   1.345   9.148 -0.2980  0.0016  0.2675
20186DPPI   C3A30784  15.770   1.295   8.689  0.2824 -0.2084 -0.1370
20186DPPI   C4A30785  15.947   1.343   8.265  0.1551  0.1158 -0.4278
20186DPPI   C1B30786  16.252   1.068   9.682  0.2725  0.1419 -0.0531
20186DPPI   C2B30787  16.165   1.071   9.341 -0.0274  0.1287  0.1647
20186DPPI   C3B30788  16.120   1.005   8.873  0.1885  0.0083  0.0287
20186DPPI   C4B30789  16.234   0.985   8.482 -0.1500  0.1157  0.2363
20187DPPI    C130790  14.495   7.559  10.336 -0.0643  0.0377 -0.3161
20187DPPI    C230791  14.833   7.433  10.511 -0.2031 -0.0647 -0.1175
20187DPPI    C330792  14.604   7.175  10.308 -0.2600 -0.0370 -0.0889
20187DPPI   PO430793  14.500   7.876  10.312  0.1119  0.1087  0.1664
20187DPPI   GL130794  14.330   8.069   9.950  0.1255  0.1028 -0.0582
20187DPPI   GL230795  14.497   8.239   9.859  0.0325 -0.1802  0.0594
20187DPPI   C1A30796  14.002   8.206   9.574  0.2178 -0.2531 -0.0770
20187DPPI   C2A30797  13.942   8.247   9.163 -0.0870  0.0890  0.0554
20187DPPI   C3A30798  14.115   8.303   8.831 -0.4490  0.0188  0.0781
20187DPPI   C4A30799  14.141   8.276   8.434  0.0704 -0.4824  0.0996
20187DPPI   C1B30800  14.439   8.233   9.389  0.0670  0.3475  0.1676
20187DPPI   C2B30801  14.563   8.214   9.085 -0.3305 -0.2731 -0.1683
20187DPPI   C3B30802  14.603   8.258   8.680 -0.2847  0.0033 -0.0160
20187DPPI   C4B30803  14.569   8.520   8.414  0.0898  0.1744 -0.1918
20188DPPI    C130804  17.306  13.560  10.645 -0.1788 -0.0662 -0.1745
20188DPPI    C230805  17.393  13.182  10.548  0.0079 -0.0438 -0.0997
20188DPPI    C330806  17.684  13.456  10.563 -0.1037  0.0711 -0.0111
20188DPPI   PO430807  16.986  13.578  10.448 -0.2866  0.0800  0.1027
20188DPPI   GL130808  16.957  13.453  10.099  0.0742 -0.0478  0.1832
20188DPPI   GL230809  17.092  13.180  10.141 -0.1589  0.0596  0.2250
20188DPPI   C1A30810  16.880  13.648   9.664 -0.1506  0.1691 -0.0107
20188DPPI   C2A30811  16.755  13.708   9.242 -0.1126  0.0864  0.0346
20188DPPI   C3A30812  16.766  13.693   8.861  0.1951 -0.0347 -0.0246
20188DPPI   C4A30813  16.717  13.834   8.403  0.0780 -0.0859  0.0158
20188DPPI   C1B30814  17.317  13.054   9.826 -0.2922  0.3169 -0.2991
20188DPPI   C2B30815  17.465  13.047   9.429  0.0720 -0.2455 -0.2362
20188DPPI   C3B30816  17.528  12.709   9.192 -0.0476 -0.1080  0.0212
20188DPPI   C4B30817  17.407  12.182   9.101  0.1282 -0.0269 -0.0294
20189DPPI    C130818  13.472   8.370  10.567 -0.1245 -0.0285 -0.2009
20189DPPI    C230819  13.277   8.292  10.907 -0.0389 -0.1905 -0.1883
20189DPPI    C330820  13.629   8.481  10.918 -0.0624 -0.1463 -0.1912
20189DPPI   PO430821  13.470   8.137  10.306  0.1736 -0.3306 -0.3077
20189DPPI   GL130822  13.088   7.988  10.026 -0.0933  0.0416 -0.0184
20189DPPI   GL230823  13.338   7.749  10.048 -0.0794 -0.1435  0.4513
20189DPPI   C1A30824  13.030   8.133   9.640  0.0868  0.0536  0.2038
20189DPPI   C2A30825  12.917   8.377   9.276  0.0534  0.2625  0.0362
20189DPPI   C3A30826  12.681   8.628   9.004  0.2303 -0.0638  0.2007
20189DPPI   C4A30827  12.699   8.875   8.611  0.2205  0.1211  0.0352
20189DPPI   C1B30828  13.396   7.545   9.622 -0.4654 -0.1382 -0.1015
20189DPPI   C2B30829  13.519   7.430   9.198 -0.0815  0.3120  0.2392
20189DPPI   C3B30830  13.591   7.504   8.838 -0.0352  0.0822  0.2151
20189DPPI   C4B30831  13.809   7.891   8.819 -0.0806 -0.3882 -0.1605
20190DPPI    C130832  11.699   3.079  10.745 -0.1598  0.0258  0.0049
20190DPPI    C230833  11.527   2.957  11.085  0.0309 -0.0577  0.0734
20190DPPI    C330834  11.925   2.946  11.048  0.0273  0.1937 -0.0584
20190DPPI   PO430835  11.567   3.252  10.584  0.1350 -0.0335 -0.0177
20190DPPI   GL130836  11.378   3.324  10.281 -0.0322 -0.0429  0.2776
20190DPPI   GL230837  11.275   2.973  10.158  0.0777 -0.2721  0.0806
20190DPPI   C1A30838  11.168   3.363   9.845  0.3613  0.1402  0.1218
20190DPPI   C2A30839  10.825   3.458   9.692  0.1329 -0.3239 -0.0910
20190DPPI   C3A30840  10.514   3.820   9.425  0.0963 -0.2202 -0.0430
20190DPPI   C4A30841  10.434   3.887   9.026 -0.1788  0.0261  0.1196
20190DPPI   C1B30842  11.240   2.775   9.724 -0.2296 -0.4331  0.1006
20190DPPI   C2B30843  11.144   2.732   9.319  0.2682 -0.3039 -0.1303
20190DPPI   C3B30844  11.052   2.557   9.046  0.1250 -0.1757 -0.1317
20190DPPI   C4B30845  10.894   2.290   8.733 -0.0933  0.0636 -0.1169
20191DPPI    C130846  17.046   8.912  10.770  0.0800  0.2892  0.2114
20191DPPI    C230847  17.064   8.513  10.803  0.0839  0.2759  0.0567
20191DPPI    C330848  16.871   8.729  11.080 -0.0656  0.1517  0.0503
20191DPPI   PO430849  17.370   8.939  10.639 -0.0488  0.1761  0.0152
20191DPPI   GL130850  17.538   9.219  10.362 -0.1406 -0.1092 -0.0089
20191DPPI   GL230851  17.782   9.199  10.421 -0.0257 -0.1635  0.0793
20191DPPI   C1A30852  17.507   9.019   9.979  0.2301 -0.3172  0.0793
20191DPPI   C2A30853  17.224   8.888   9.717  0.0569  0.1773  0.1724
20191DPPI   C3A30854  16.981   9.032   9.393 -0.1509 -0.4519 -0.1327
20191DPPI   C4A30855  16.995   9.016   8.950 -0.1128 -0.1762 -0.3811
20191DPPI   C1B30856  18.093   9.037  10.178  0.2190  0.3342  0.4324
20191DPPI   C2B30857  18.072   8.947   9.717  0.3753 -0.1734 -0.1511
20191DPPI   C3B30858  18.182   8.880   9.317 -0.0280  0.0146  0.3562
20191DPPI   C4B30859  17.907   9.011   9.022  0.2635  0.0729 -0.2687
20192DPPI    C130860  12.669  15.763  10.645 -0.0749 -0.0717 -0.0178
20192DPPI    C230861  13.066  15.725  10.625 -0.0581  0.1649 -0.1762
20192DPPI    C330862  12.896  15.881  10.952 -0.0231  0.0443 -0.0999
20192DPPI   PO430863  12.555  15.589  10.462 -0.2262  0.0993  0.0207
20192DPPI   GL130864  12.281  15.599  10.066  0.2158 -0.1197 -0.0132
20192DPPI   GL230865  12.281  15.225  10.130  0.0195  0.2132  0.2448
20192DPPI   C1A30866  12.063  15.724   9.717 -0.1075 -0.6094 -0.3289
20192DPPI   C2A30867  12.034  15.742   9.371  0.0787  0.0804 -0.2013
20192DPPI   C3A30868  12.072  15.738   8.947  0.0571  0.3276 -0.1780
20192DPPI   C4A30869  12.079  16.097   8.641  0.0057 -0.1230 -0.0518
20192DPPI   C1B30870  12.171  15.163   9.678 -0.0518  0.0940 -0.3064
20192DPPI   C2B30871  12.112  15.130   9.268  0.2269 -0.1472 -0.1957
20192DPPI   C3B30872  12.246  15.270   8.801  0.0863 -0.0709 -0.0459
20192DPPI   C4B30873  12.204  15.618   8.461 -0.0838 -0.2106 -0.3081
20193DPPI    C130874  12.666  17.148  10.669  0.0067 -0.3564  0.0502
20193DPPI    C230875  12.359  16.915  10.561 -0.2357 -0.0210  0.0023
20193DPPI    C330876  12.292  17.287  10.693  0.1535  0.0679 -0.0391
20193DPPI   PO430877  12.848  17.152  10.439 -0.0012  0.0693  0.1424
20193DPPI   GL130878  12.996  17.181   9.994  0.0358  0.2237 -0.2598
20193DPPI   GL230879  13.226  17.059   9.897 -0.0262 -0.3795  0.0857
20193DPPI   C1A30880  12.735  16.974   9.756 -0.0672  0.1666 -0.0800
20193DPPI   C2A30881  12.535  16.926   9.435  0.1189 -0.2965  0.0419
20193DPPI   C3A30882  12.654  16.830   9.077  0.2831 -0.2402  0.2107
20193DPPI   C4A30883  13.034  16.775   8.884 -0.1297 -0.1254  0.0169
20193DPPI   C1B30884  13.450  17.086   9.583  0.0164  0.1236  0.1536
20193DPPI   C2B30885  13.462  17.086   9.137  0.0346  0.1406 -0.0850
20193DPPI   C3B30886  13.438  17.008   8.686  0.1035 -0.2051 -0.1944
20193DPPI   C4B30887  13.349  16.986   8.207  0.0993  0.3920  0.0250
20194DPPI    C130888  13.490  10.131  10.800  0.0835  0.2188 -0.0729
20194DPPI    C230889  13.571   9.872  10.507 -0.2201 -0.0370  0.0633
20194DPPI    C330890  13.798   9.878  10.836 -0.1723 -0.0840  0.0314
20194DPPI   PO430891  13.469  10.383  10.650 -0.0784 -0.0956 -0.3504
20194DPPI   GL130892  13.276  10.393  10.232 -0.2318 -0.0012 -0.0871
20194DPPI   GL230893  13.005  10.458  10.238 -0.3323 -0.0200  0.1455
20194DPPI   C1A30894  13.373  10.415   9.835 -0.1793  0.4017  0.0018
20194DPPI   C2A30895  13.202  10.563   9.444 -0.0766  0.3317 -0.0993
20194DPPI   C3A30896  13.066  10.547   8.948 -0.0330  0.0959 -0.0988
20194DPPI   C4A30897  12.917  10.650   8.498  0.1382  0.1190 -0.0197
20194DPPI   C1B30898  12.819  10.501   9.801 -0.0573  0.1360  0.3453
20194DPPI   C2B30899  12.654  10.495   9.292  0.0416 -0.3109 -0.2412
20194DPPI   C3B30900  12.411  10.297   8.968 -0.2396 -0.3453  0.1843
20194DPPI   C4B30901  12.363  10.014   8.877  0.1172  0.1710  0.0936
20195DPPI    C130902  12.993  15.266  10.442 -0.2101  0.1128 -0.0384
20195DPPI    C230903  12.808  15.269  10.796 -0.2851 -0.1756 -0.0731
20195DPPI    C330904  13.201  15.199  10.777 -0.2192  0.1664 -0.0220
20195DPPI   PO430905  12.773  15.129  10.330 -0.3197  0.2133 -0.0016
20195DPPI   GL130906  12.452  14.752  10.166 -0.1214 -0.0136 -0.1736
20195DPPI   GL230907  12.656  14.834   9.918 -0.3661 -0.2803 -0.0471
20195DPPI   C1A30908  12.217  14.647   9.752  0.4377  0.1071  0.1358
20195DPPI   C2A30909  12.166  14.531   9.265  0.0560  0.1488  0.2298
20195DPPI   C3A30910  12.122  14.314   8.849  0.0949 -0.2052 -0.2339
20195DPPI   C4A30911  11.778  13.998   8.611 -0.2886  0.0160 -0.1584
20195DPPI   C1B30912  12.557  14.868   9.493 -0.0363  0.0954 -0.4041
20195DPPI   C2B30913  12.570  14.865   9.090 -0.0523  0.1341 -0.2407
20195DPPI   C3B30914  12.407  14.710   8.776  0.3924 -0.0418 -0.1088
20195DPPI   C4B30915  12.094  14.871   8.635 -0.2464  0.1240 -0.2923
20196DPPI    C130916  17.192  17.862  10.382  0.1263 -0.0399  0.0745
20196DPPI    C230917  17.193  18.137  10.672  0.0301 -0.0313  0.0667
20196DPPI    C330918  17.048  17.771  10.744 -0.0017 -0.0266  0.0274
20196DPPI   PO430919  17.376  17.876  10.226  0.1983  0.0406 -0.4309
20196DPPI   GL130920  17.631  17.826   9.906  0.2588  0.1209 -0.0272
20196DPPI   GL230921  17.910  17.930   9.881  0.2233  0.1628 -0.0854
20196DPPI   C1A30922  17.702  17.882   9.476  0.0325  0.2848 -0.0111
20196DPPI   C2A30923  17.819  17.783   9.111  0.0007  0.0520  0.2602
20196DPPI   C3A30924  17.762  17.509   8.798 -0.5143 -0.2619 -0.1757
20196DPPI   C4A30925  17.517  17.369   8.450 -0.0765  0.3646 -0.0842
20196DPPI   C1B30926  18.187  17.754   9.482 -0.0635 -0.0206  0.2241
20196DPPI   C2B30927  18.411  17.858   9.061 -0.2834 -0.0433 -0.2565
20196DPPI   C3B30928  18.820  17.839   8.788 -0.2832  0.2225  0.1663
20196DPPI   C4B30929  19.034  17.848   8.333 -0.0692 -0.1305  0.0912
20197DPPI    C130930  13.229   9.630  10.875 -0.0688 -0.0226 -0.2986
20197DPPI    C230931  13.471   9.408  11.104 -0.1813  0.0226 -0.1341
20197DPPI    C330932  13.405   9.792  11.196 -0.2810  0.0224 -0.2036
20197DPPI   PO430933  13.247   9.493  10.549  0.0759  0.1530  0.0420
20197DPPI   GL130934  12.929   9.670  10.187  0.1911  0.2641 -0.1772
20197DPPI   GL230935  12.576   9.466  10.166 -0.0521  0.2805  0.4372
20197DPPI   C1A30936  13.003  10.070   9.897 -0.0265 -0.0027 -0.2162
20197DPPI   C2A30937  13.014  10.111   9.486 -0.4063 -0.0798  0.1190
20197DPPI   C3A30938  12.856  10.020   9.016 -0.0081  0.4362  0.3382
20197DPPI   C4A30939  12.811   9.763   8.586 -0.0831  0.1093 -0.0077
20197DPPI   C1B30940  12.207   9.530   9.893 -0.1667 -0.0945  0.1349
20197DPPI   C2B30941  11.899   9.503   9.504  0.0930 -0.0808 -0.0109
20197DPPI   C3B30942  12.061   9.581   9.111  0.2395  0.0287  0.0464
20197DPPI   C4B30943  11.958   9.787   8.753 -0.1240  0.0032  0.1603
20198DPPI    C130944  13.994  16.853  10.693  0.1270  0.2530 -0.1179
20198DPPI    C230945  13.662  17.070  10.639  0.0418  0.0887 -0.2627
20198DPPI    C330946  13.936  17.186  10.907 -0.2638  0.0750  0.0621
20198DPPI   PO430947  14.116  16.777  10.457  0.1596  0.0668 -0.3447
20198DPPI   GL130948  14.270  16.888  10.053  0.2288 -0.2481 -0.0953
20198DPPI   GL230949  14.526  16.856   9.815  0.0214 -0.5320  0.0900
20198DPPI   C1A30950  13.923  16.858   9.703  0.0480 -0.1987 -0.0954
20198DPPI   C2A30951  13.892  16.863   9.269 -0.1152  0.0776 -0.1079
20198DPPI   C3A30952  13.857  16.913   8.864 -0.2955 -0.0990 -0.3789
20198DPPI   C4A30953  13.889  16.565   8.549 -0.2798  0.0889  0.1342
20198DPPI   C1B30954  14.443  16.671   9.386  0.0219  0.0930  0.0248
20198DPPI   C2B30955  14.263  16.660   8.978 -0.0667  0.1239 -0.2385
20198DPPI   C3B30956  14.247  16.949   8.541 -0.3428  0.0152  0.4416
20198DPPI   C4B30957  13.964  17.330   8.540  0.0735  0.0504  0.1566
20199DPPI    C130958  13.640   0.537  10.614  0.0953  0.0171 -0.2551
20199DPPI    C230959  13.869   0.852  10.523  0.0006  0.1267 -0.1184
20199DPPI    C330960  13.719   0.813  10.892  0.1204 -0.1478 -0.0959
20199DPPI   PO430961  13.766   0.356  10.423  0.3751  0.1838  0.3030
20199DPPI   GL130962  13.785   0.333   9.970 -0.1107  0.0654 -0.0026
20199DPPI   GL230963  13.474   0.383   9.822 -0.1895 -0.2482  0.0612
20199DPPI   C1A30964  13.869   0.039   9.676  0.1759  0.1145  0.4193
20199DPPI   C2A30965  14.124  -0.179   9.429  0.0757  0.0468 -0.3291
20199DPPI   C3A30966  14.193  -0.266   8.943 -0.1780  0.0322  0.0711
20199DPPI   C4A30967  14.153  -0.196   8.535 -0.0493  0.1187  0.0751
20199DPPI   C1B30968  13.410   0.296   9.442 -0.2826 -0.1985  0.2007
20199DPPI   C2B30969  13.453  -0.003   9.192 -0.2536 -0.3225 -0.1011
20199DPPI   C3B30970  13.244  -0.423   9.086 -0.0122  0.0697  0.0319
20199DPPI   C4B30971  13.001  -0.723   8.834  0.0348 -0.1596  0.1227
20200DPPI    C130972  12.408   5.743  11.025  0.0027 -0.2649 -0.2213
20200DPPI    C230973  12.473   5.538  11.362 -0.0571  0.3919  0.2069
20200DPPI    C330974  12.100   5.587  11.226 -0.0242  0.0329 -0.0260
20200DPPI   PO430975  12.520   5.632  10.779  0.0391  0.0955  0.2142
20200DPPI   GL130976  12.276   5.584  10.419 -0.1823  0.0856  0.1045
20200DPPI   GL230977  12.361   5.233  10.449 -0.3648  0.0131 -0.0679
20200DPPI   C1A30978  12.153   5.513  10.005 -0.1945 -0.3015  0.0274
20200DPPI   C2A30979  11.987   5.618   9.464 -0.1943  0.3536  0.1108
20200DPPI   C3A30980  11.967   5.707   9.112 -0.0354 -0.2498  0.0579
20200DPPI   C4A30981  11.968   5.597   8.684  0.0791  0.0155  0.1195
20200DPPI   C1B30982  12.395   5.125   9.986 -0.0454 -0.1186 -0.1201
20200DPPI   C2B30983  12.322   5.170   9.507  0.3563 -0.0853  0.1296
20200DPPI   C3B30984  12.257   5.259   9.192 -0.3760  0.2205  0.1825
20200DPPI   C4B30985  12.564   5.284   8.951 -0.0661  0.2399 -0.2172
20201DPPI    C130986  15.791   3.791  10.826 -0.1824 -0.4221  0.1620
20201DPPI    C230987  15.591   4.105  10.974  0.0327 -0.1283 -0.1538
20201DPPI    C330988  15.756   3.837  11.221  0.1797  0.2200  0.1327
20201DPPI   PO430989  16.005   3.958  10.642 -0.2805 -0.0107  0.1902
20201DPPI   GL130990  16.032   4.080  10.235 -0.1577 -0.1110  0.1544
20201DPPI   GL230991  15.797   4.192  10.064  0.0089  0.0164 -0.1632
20201DPPI   C1A30992  16.198   3.906   9.765 -0.0723  0.0107  0.1333
20201DPPI   C2A30993  16.315   3.834   9.360  0.1138  0.1689  0.0515
20201DPPI   C3A30994  16.375   3.846   8.893  0.0384 -0.0322  0.2938
20201DPPI   C4A30995  16.639   3.640   8.532  0.0062  0.1432  0.0269
20201DPPI   C1B30996  15.693   4.334   9.649  0.0658 -0.4928  0.0139
20201DPPI   C2B30997  15.651   4.374   9.246 -0.1954  0.1557 -0.1119
20201DPPI   C3B30998  15.539   4.356   8.904 -0.1481  0.0476  0.1100
20201DPPI   C4B30999  15.308   4.464   8.477  0.2738  0.1520  0.0574
20202DPPI    C131000  15.249  12.938  10.107  0.1009  0.2875 -0.0902
20202DPPI    C231001  14.886  13.061   9.993 -0.0370 -0.2137 -0.2173
20202DPPI    C331002  14.970  13.020  10.382 -0.0683  0.0377 -0.1827
20202DPPI   PO431003  15.359  12.724   9.987 -0.2966  0.1455  0.0184
20202DPPI   GL131004  15.519  12.637   9.622  0.0984  0.0149  0.0700
20202DPPI   GL231005  15.663  12.690   9.340 -0.0243 -0.0308 -0.0361
20202DPPI   C1A31006  15.228  12.441   9.378  0.0302 -0.1597 -0.0251
20202DPPI   C2A31007  15.203  12.295   8.918  0.0471  0.0416 -0.0811
20202DPPI   C3A31008  15.277  12.227   8.548 -0.5228 -0.1226 -0.0047
20202DPPI   C4A31009  15.336  12.224   8.052 -0.3357  0.0757 -0.2149
20202DPPI   C1B31010  15.570  12.656   8.976 -0.1956  0.1027 -0.0692
20202DPPI   C2B31011  15.658  12.486   8.566  0.0987  0.2044 -0.0543
20202DPPI   C3B31012  15.788  12.185   8.326  0.0514  0.0598 -0.2065
20202DPPI   C4B31013  15.834  11.983   7.941  0.0440  0.1663 -0.0648
20203DPPI    C131014  12.547   7.629  10.690 -0.0389  0.0996  0.0825
20203DPPI    C231015  12.859   7.407  10.806 -0.2014 -0.1803 -0.0054
20203DPPI    C331016  12.575   7.506  11.070 -0.0310  0.0939  0.0801
20203DPPI   PO431017  12.678   7.778  10.428 -0.2229 -0.2400 -0.1888
20203DPPI   GL131018  12.512   8.025  10.190  0.1381  0.1637 -0.1632
20203DPPI   GL231019  12.619   8.248  10.010 -0.0355 -0.0911 -0.0805
20203DPPI   C1A31020  12.657   7.814   9.781 -0.1396  0.1198 -0.0899
20203DPPI   C2A31021  12.765   7.783   9.311 -0.0568  0.1730  0.3260
20203DPPI   C3A31022  12.546   7.929   8.952 -0.1241  0.1640  0.0578
20203DPPI   C4A31023  12.570   8.267   8.598 -0.0435  0.1014  0.1740
20203DPPI   C1B31024  12.423   8.329   9.555  0.0939  0.1658  0.1701
20203DPPI   C2B31025  12.266   8.272   9.186 -0.1878  0.0779 -0.1277
20203DPPI   C3B31026  12.094   8.084   8.814  0.1569  0.2552  0.2508
20203DPPI   C4B31027  11.734   7.998   8.574 -0.3704  0.2091  0.2153
20204DPPI    C131028  14.541   5.547  10.648 -0.1308  0.2505  0.0698
20204DPPI    C231029  14.521   5.315  10.973 -0.2005  0.1791  0.0152
20204DPPI    C331030  14.201   5.525  10.857 -0.1812  0.1907 -0.0173
20204DPPI   PO431031  14.824   5.428  10.573  0.2466 -0.0442 -0.2605
20204DPPI   GL131032  15.126   5.587  10.371 -0.0714 -0.4947 -0.2460
20204DPPI   GL231033  14.920   5.614  10.093  0.0479  0.5080 -0.3370
20204DPPI   C1A31034  15.466   5.680  10.167 -0.0260  0.0097 -0.1761
20204DPPI   C2A31035  15.755   5.688   9.964 -0.4547 -0.0437  0.0676
20204DPPI   C3A31036  16.059   5.522   9.816  0.1831  0.0583 -0.0493
20204DPPI   C4A31037  16.162   5.288   9.577  0.1502  0.1269  0.0193
20204DPPI   C1B31038  15.160   5.826   9.768 -0.3241  0.0953 -0.0928
20204DPPI   C2B31039  15.502   5.825   9.466 -0.0994  0.1182 -0.0239
20204DPPI   C3B31040  15.859   5.631   9.359 -0.3066  0.2284  0.2196
20204DPPI   C4B31041  15.955   5.268   9.096  0.0076  0.1626  0.0505
20205DPPI    C131042  17.799   0.074  10.478  0.0725 -0.0542 -0.2380
20205DPPI    C231043  17.629   0.335  10.729 -0.0271 -0.1198 -0.2371
20205DPPI    C331044  17.959   0.139  10.839 -0.2177 -0.3432 -0.0524
20205DPPI   PO431045  17.817   0.248  10.251  0.4421 -0.0777  0.1046
20205DPPI   GL131046  17.775   0.427   9.923 -0.1744  0.3147 -0.0128
20205DPPI   GL231047  17.519   0.298   9.754 -0.2532  0.4470  0.5001
20205DPPI   C1A31048  17.986   0.508   9.450  0.1116  0.0058  0.1038
20205DPPI   C2A31049  17.970   0.291   8.930  0.1854 -0.0867 -0.1607
20205DPPI   C3A31050  17.898   0.420   8.497 -0.2268 -0.0863  0.1540
20205DPPI   C4A31051  18.174   0.630   8.239 -0.1331  0.2291  0.0900
20205DPPI   C1B31052  17.516   0.414   9.378  0.0257 -0.2146  0.1850
20205DPPI   C2B31053  17.519   0.232   9.030 -0.1411 -0.2501  0.0502
20205DPPI   C3B31054  17.388   0.352   8.646 -0.3573  0.0832  0.4769
20205DPPI   C4B31055  17.313   0.398   8.235 -0.2201 -0.2380  0.0339
20206DPPI    C131056  14.723  16.977  10.488 -0.0028  0.1418  0.1605
20206DPPI    C231057  14.417  17.113  10.707 -0.0396 -0.1038  0.2647
20206DPPI    C331058  14.521  16.727  10.726 -0.0002 -0.1147 -0.1006
20206DPPI   PO431059  14.736  17.155  10.219 -0.2580  0.2131 -0.0533
20206DPPI   GL131060  14.919  17.229   9.873  0.1245 -0.0526  0.0932
20206DPPI   GL231061  14.913  17.486   9.803  0.0344  0.0208 -0.1302
20206DPPI   C1A31062  14.893  16.906   9.515  0.0972 -0.2696 -0.1244
20206DPPI   C2A31063  14.946  16.704   9.203 -0.4290  0.2565  0.0443
20206DPPI   C3A31064  14.771  16.604   8.928 -0.1779  0.1322 -0.0718
20206DPPI   C4A31065  14.594  16.572   8.597  0.0132  0.1860 -0.4128
20206DPPI   C1B31066  14.586  17.622   9.531  0.1526 -0.2817 -0.1220
20206DPPI   C2B31067  14.642  17.697   9.140  0.1071  0.0394  0.0369
20206DPPI   C3B31068  14.677  17.562   8.763 -0.0662  0.0000 -0.0921
20206DPPI   C4B31069  14.479  17.429   8.463  0.1598  0.0762  0.1017
20207DPPI    C131070  16.439  11.925  10.244 -0.0028 -0.0057 -0.1354
20207DPPI    C231071  16.647  11.932  10.585 -0.0365 -0.1635 -0.1106
20207DPPI    C331072  16.248  11.909  10.595 -0.0440 -0.0633 -0.1602
20207DPPI   PO431073  16.450  12.073  10.128 -0.0590 -0.1584 -0.2338
20207DPPI   GL131074  16.474  12.126   9.720  0.0646  0.1626  0.2016
20207DPPI   GL231075  16.662  12.226   9.500 -0.1904  0.2907  0.1027
20207DPPI   C1A31076  16.203  11.994   9.418 -0.1876  0.0550 -0.0671
20207DPPI   C2A31077  16.184  11.858   9.044 -0.1193 -0.2325  0.0877
20207DPPI   C3A31078  16.191  11.792   8.728 -0.1820  0.2753  0.0249
20207DPPI   C4A31079  16.087  11.724   8.326  0.2602 -0.1193  0.3891
20207DPPI   C1B31080  16.508  12.283   9.084  0.1710 -0.1706  0.0562
20207DPPI   C2B31081  16.678  12.226   8.686 -0.3055 -0.0921  0.0860
20207DPPI   C3B31082  17.095  12.077   8.693 -0.0393 -0.0327  0.1325
20207DPPI   C4B31083  17.532  12.009   8.557 -0.1611  0.1881  0.2380
20208DPPI    C131084  13.287  13.339  10.611  0.0014 -0.2760 -0.1455
20208DPPI    C231085  13.129  12.972  10.637 -0.0443 -0.2465  0.0044
20208DPPI    C331086  13.155  13.202  10.963  0.2651 -0.2322 -0.0274
20208DPPI   PO431087  13.103  13.448  10.389 -0.1372 -0.1474  0.1247
20208DPPI   GL131088  13.065  13.494  10.022 -0.0094  0.0915 -0.1007
20208DPPI   GL231089  13.357  13.722  10.032 -0.0881 -0.2502  0.1372
20208DPPI   C1A31090  12.791  13.277   9.845  0.0062 -0.0964  0.1785
20208DPPI   C2A31091  12.658  13.091   9.492  0.0173  0.2009 -0.0075
20208DPPI   C3A31092  12.510  13.035   9.104  0.0599 -0.0654  0.0988
20208DPPI   C4A31093  12.164  12.919   8.811  0.1020 -0.3499  0.1747
20208DPPI   C1B31094  13.310  13.448   9.626 -0.0276  0.2047 -0.3902
20208DPPI   C2B31095  13.112  13.285   9.255 -0.1096 -0.0294 -0.1411
20208DPPI   C3B31096  13.019  13.070   8.875 -0.0190  0.1143  0.1705
20208DPPI   C4B31097  13.224  12.969   8.484 -0.1217  0.0011  0.0600
20209DPPI    C131098  16.969   1.027  10.575 -0.1372 -0.1167 -0.1160
20209DPPI    C231099  16.981   1.387  10.400 -0.2175 -0.0781 -0.0430
20209DPPI    C331100  17.210   1.090  10.263  0.0861  0.0889  0.0932
20209DPPI   PO431101  16.674   0.878  10.500 -0.2973  0.0454  0.0272
20209DPPI   GL131102  16.613   0.973  10.035 -0.0872  0.2065 -0.0187
20209DPPI   GL231103  16.760   1.218   9.957  0.0278  0.1778  0.0298
20209DPPI   C1A31104  16.742   0.951   9.492  0.3539  0.1403  0.0021
20209DPPI   C2A31105  16.644   1.158   9.146  0.2272 -0.3734  0.0846
20209DPPI   C3A31106  16.696   1.131   8.700 -0.1465 -0.1091  0.0374
20209DPPI   C4A31107  16.690   1.037   8.265 -0.0306  0.1381  0.2639
20209DPPI   C1B31108  16.807   1.431   9.565  0.1148 -0.2012 -0.0996
20209DPPI   C2B31109  16.763   1.650   9.154 -0.0235 -0.2053 -0.1432
20209DPPI   C3B31110  16.766   1.760   8.706  0.0537  0.2838  0.2220
20209DPPI   C4B31111  16.750   1.572   8.277  0.0092  0.1688 -0.2360
20210DPPI    C131112  17.223  16.423  10.529 -0.0601 -0.0367  0.1909
20210DPPI    C231113  17.595  16.492  10.658 -0.0952 -0.0147  0.2811
20210DPPI    C331114  17.295  16.726  10.780 -0.1038  0.1107  0.0275
20210DPPI   PO431115  17.262  16.295  10.310  0.0415 -0.0699  0.0581
20210DPPI   GL131116  17.462  16.066  10.007 -0.0370 -0.2326  0.0243
20210DPPI   GL231117  17.437  15.779  10.225  0.0190  0.0568  0.2353
20210DPPI   C1A31118  17.553  15.887   9.570  0.0747  0.0842 -0.2063
20210DPPI   C2A31119  17.527  16.080   9.154  0.1139  0.2694  0.1834
20210DPPI   C3A31120  17.472  16.039   8.679 -0.1866  0.1104  0.0762
20210DPPI   C4A31121  17.707  16.291   8.435 -0.0775  0.2819  0.1214
20210DPPI   C1B31122  17.242  15.571   9.948  0.0064  0.2002  0.0414
20210DPPI   C2B31123  17.176  15.591   9.553  0.4031  0.2038 -0.3752
20210DPPI   C3B31124  17.233  15.673   9.193 -0.1518 -0.2574  0.0763
20210DPPI   C4B31125  17.650  15.629   9.000  0.0805  0.0129  0.1585
20211DPPI    C131126  11.785  15.013  11.112  0.2162 -0.1070  0.0592
20211DPPI    C231127  11.869  15.376  11.257 -0.1314 -0.0493  0.1249
20211DPPI    C331128  11.747  15.086  11.504  0.0012 -0.1691  0.0511
20211DPPI   PO431129  11.932  15.081  10.881 -0.0059  0.0342  0.3285
20211DPPI   GL131130  11.860  15.224  10.509  0.1215  0.0611 -0.1791
20211DPPI   GL231131  11.596  15.202  10.376  0.0599 -0.0027 -0.1732
20211DPPI   C1A31132  11.828  15.356   9.986  0.1137 -0.0564  0.1879
20211DPPI   C2A31133  11.690  15.291   9.548  0.0580 -0.2339  0.3438
20211DPPI   C3A31134  11.695  15.309   9.107 -0.0852 -0.1973 -0.1405
20211DPPI   C4A31135  11.762  15.534   8.596 -0.0186 -0.0213 -0.3440
20211DPPI   C1B31136  11.412  15.084   9.951  0.4209  0.1752 -0.2106
20211DPPI   C2B31137  11.237  15.041   9.553 -0.1889 -0.1224  0.2901
20211DPPI   C3B31138  11.259  15.036   9.085  0.2888 -0.0063  0.0784
20211DPPI   C4B31139  11.096  15.043   8.700  0.0076 -0.3306  0.0850
20212DPPI    C131140  16.172   4.446  10.586  0.1619  0.1043  0.1508
20212DPPI    C231141  16.340   4.623  10.903  0.0965  0.1022  0.1868
20212DPPI    C331142  16.048   4.354  10.955  0.1250  0.0596  0.1274
20212DPPI   PO431143  16.407   4.505  10.389  0.2494  0.0072  0.0953
20212DPPI   GL131144  16.582   4.793  10.151  0.3658  0.2943 -0.0041
20212DPPI   GL231145  16.831   4.550  10.158 -0.4333 -0.0585 -0.2385
20212DPPI   C1A31146  16.457   4.858   9.743 -0.0388  0.3222  0.0708
20212DPPI   C2A31147  16.362   4.807   9.353 -0.0087 -0.1759 -0.0119
20212DPPI   C3A31148  16.320   4.953   9.003  0.0956  0.0775 -0.0084
20212DPPI   C4A31149  16.208   4.894   8.649 -0.3244  0.0056 -0.2084
20212DPPI   C1B31150  16.785   4.512   9.705 -0.1660 -0.0170 -0.0557
20212DPPI   C2B31151  16.792   4.619   9.226  0.0538  0.0822  0.4987
20212DPPI   C3B31152  16.717   4.678   8.814 -0.0754  0.0421 -0.1151
20212DPPI   C4B31153  16.659   5.083   8.561  0.2519 -0.3032  0.2573
20213DPPI    C131154  12.678  16.366  10.642  0.0023  0.0762  0.1675
20213DPPI    C231155  12.895  16.683  10.754 -0.1113  0.2171 -0.0052
20213DPPI    C331156  12.596  16.553  10.986  0.0143  0.1590  0.1257
20213DPPI   PO431157  12.965  16.203  10.578  0.1603  0.0205  0.0821
20213DPPI   GL131158  13.065  15.915  10.188 -0.0489 -0.0307  0.1771
20213DPPI   GL231159  12.750  15.955  10.175  0.0716  0.1093  0.0397
20213DPPI   C1A31160  12.973  15.852   9.650  0.1690 -0.1511  0.0558
20213DPPI   C2A31161  13.053  15.816   9.241 -0.0669 -0.3919 -0.2299
20213DPPI   C3A31162  13.107  15.742   8.817  0.1628  0.3381  0.1514
20213DPPI   C4A31163  13.158  15.519   8.336 -0.0590  0.0959 -0.0532
20213DPPI   C1B31164  12.494  15.949   9.766 -0.1586 -0.1801 -0.2587
20213DPPI   C2B31165  12.507  15.994   9.333 -0.0859  0.1864 -0.1583
20213DPPI   C3B31166  12.537  15.900   8.937  0.0677  0.0031  0.0351
20213DPPI   C4B31167  12.704  15.868   8.552  0.2791 -0.2258  0.1900
20214DPPI    C131168  11.542   5.808  11.104 -0.1214 -0.0318  0.0875
20214DPPI    C231169  11.669   5.594  11.417 -0.1435 -0.1051  0.0465
20214DPPI    C331170  11.352   5.835  11.454 -0.1405 -0.1069  0.0832
20214DPPI   PO431171  11.756   5.880  10.943 -0.1737 -0.0009 -0.0056
20214DPPI   GL131172  11.710   6.215  10.686 -0.1107 -0.0996  0.1417
20214DPPI   GL231173  11.434   6.205  10.798  0.3951  0.0682  0.4906
20214DPPI   C1A31174  11.791   6.371  10.272 -0.2833  0.0183 -0.0518
20214DPPI   C2A31175  11.883   6.563   9.939 -0.0584  0.2053 -0.0574
20214DPPI   C3A31176  11.916   6.687   9.581  0.0005 -0.0415  0.0749
20214DPPI   C4A31177  12.254   6.742   9.300 -0.2723  0.2944  0.0147
20214DPPI   C1B31178  11.285   6.039  10.347  0.0355  0.0209 -0.1180
20214DPPI   C2B31179  11.121   6.049   9.877  0.1013 -0.1263  0.2426
20214DPPI   C3B31180  11.237   6.128   9.436 -0.2111 -0.1126 -0.2126
20214DPPI   C4B31181  11.273   6.140   8.944 -0.0522  0.1170 -0.4022
20215DPPI    C131182  15.109   4.162  10.613  0.0350 -0.0358  0.0769
20215DPPI    C231183  15.060   4.549  10.524 -0.0415 -0.0076  0.2368
20215DPPI    C331184  15.224   4.444  10.873  0.0254 -0.1195  0.1723
20215DPPI   PO431185  15.242   4.097  10.376  0.4382  0.0415  0.1044
20215DPPI   GL131186  15.212   3.694  10.029  0.1107  0.0886 -0.0194
20215DPPI   GL231187  15.142   3.596   9.782  0.0793  0.1843  0.3138
20215DPPI   C1A31188  15.238   4.131   9.749  0.2380 -0.1712 -0.0857
20215DPPI   C2A31189  15.171   4.259   9.297 -0.1004 -0.0011 -0.2767
20215DPPI   C3A31190  15.006   4.343   8.932 -0.1390 -0.0071  0.0807
20215DPPI   C4A31191  14.836   4.262   8.522  0.0645  0.3137  0.1562
20215DPPI   C1B31192  15.202   3.664   9.415 -0.0116  0.1487 -0.1672
20215DPPI   C2B31193  15.426   3.446   9.051  0.0356  0.0838  0.2341
20215DPPI   C3B31194  15.413   3.415   8.726  0.1822 -0.2164  0.1926
20215DPPI   C4B31195  15.514   3.063   8.395 -0.0758 -0.0274  0.1545
20216DPPI    C131196  12.595  11.780  10.876 -0.1945 -0.4319  0.0107
20216DPPI    C231197  12.954  11.763  11.051 -0.0992 -0.0470 -0.1361
20216DPPI    C331198  12.920  11.699  10.657 -0.2051 -0.1650 -0.1085
20216DPPI   PO431199  12.435  12.005  10.890  0.1245  0.3550  0.0692
20216DPPI   GL131200  12.361  12.289  10.489 -0.2038 -0.0631  0.0607
20216DPPI   GL231201  12.100  12.360  10.473  0.1429  0.0570 -0.1056
20216DPPI   C1A31202  12.311  12.110  10.012  0.0434  0.0192 -0.4840
20216DPPI   C2A31203  12.166  11.917   9.538 -0.0307  0.1359  0.1030
20216DPPI   C3A31204  12.165  11.824   9.069  0.0255  0.0207  0.2934
20216DPPI   C4A31205  12.442  11.749   8.692 -0.0812  0.1382  0.0460
20216DPPI   C1B31206  11.939  12.465  10.109 -0.0001 -0.0356 -0.4679
20216DPPI   C2B31207  11.877  12.344   9.706  0.2139 -0.1848  0.1991
20216DPPI   C3B31208  11.877  12.269   9.279  0.0164  0.0016  0.3694
20216DPPI   C4B31209  11.988  12.306   8.811  0.1001 -0.0418 -0.0304
20217DPPI    C131210  12.788  12.524  10.688  0.0191 -0.0405 -0.2041
20217DPPI    C231211  12.785  12.150  10.548 -0.1485 -0.1910  0.1886
20217DPPI    C331212  13.047  12.255  10.831  0.0769  0.0645 -0.1090
20217DPPI   PO431213  12.713  12.671  10.444  0.0668 -0.2576  0.1563
20217DPPI   GL131214  12.890  12.825  10.021  0.0835  0.1504 -0.1373
20217DPPI   GL231215  13.174  12.943  10.139  0.1164  0.2377 -0.0069
20217DPPI   C1A31216  12.875  12.649   9.608 -0.0611  0.0308 -0.0822
20217DPPI   C2A31217  12.850  12.642   9.110  0.0861  0.0763 -0.2279
20217DPPI   C3A31218  12.633  12.726   8.678  0.0188  0.3631  0.1133
20217DPPI   C4A31219  12.734  12.570   8.290 -0.0131  0.0432  0.4529
20217DPPI   C1B31220  13.308  12.943   9.702  0.0290 -0.0067  0.0569
20217DPPI   C2B31221  13.353  12.863   9.323 -0.0738 -0.2765  0.3958
20217DPPI   C3B31222  13.442  12.794   8.935  0.1194 -0.1315  0.1310
20217DPPI   C4B31223  13.534  12.613   8.595  0.0778  0.1638  0.1019
20218DPPI    C131224  14.109   9.660  10.409 -0.0348  0.0845  0.0035
20218DPPI    C231225  14.260   9.945  10.644 -0.0511 -0.1862  0.3503
20218DPPI    C331226  14.480   9.624  10.553 -0.0503 -0.0908  0.0017
20218DPPI   PO431227  13.955   9.739  10.203 -0.2301  0.0559 -0.1848
20218DPPI   GL131228  13.905   9.494   9.813 -0.0935 -0.0166 -0.0482
20218DPPI   GL231229  14.126   9.234   9.782  0.1907  0.0299  0.1083
20218DPPI   C1A31230  13.796   9.571   9.461  0.0665 -0.0235  0.0594
20218DPPI   C2A31231  13.727   9.587   9.043 -0.1551  0.0739  0.0231
20218DPPI   C3A31232  13.682   9.766   8.678 -0.0211 -0.0793  0.1904
20218DPPI   C4A31233  13.774   9.713   8.282 -0.1451  0.0234 -0.1390
20218DPPI   C1B31234  14.114   9.205   9.401  0.0868  0.0015  0.2575
20218DPPI   C2B31235  13.982   9.182   8.967  0.1466  0.2491 -0.1199
20218DPPI   C3B31236  13.850   9.282   8.565 -0.0093  0.2544  0.1233
20218DPPI   C4B31237  13.513   9.246   8.302 -0.0158 -0.0876  0.2502
20219DPPI    C131238  14.115   4.135  10.554 -0.0776  0.0147  0.0577
20219DPPI    C231239  14.224   4.144  10.939  0.1352 -0.0755  0.0008
20219DPPI    C331240  14.250   3.803  10.731 -0.2263 -0.0914 -0.0250
20219DPPI   PO431241  13.814   4.234  10.523 -0.0186  0.0759 -0.1090
20219DPPI   GL131242  13.652   4.306  10.181  0.1460  0.1267  0.0834
20219DPPI   GL231243  13.900   4.125  10.008 -0.2170  0.2463  0.0534
20219DPPI   C1A31244  13.454   4.304   9.776 -0.1931  0.0275 -0.0686
20219DPPI   C2A31245  13.380   4.360   9.451  0.2569  0.0383 -0.0073
20219DPPI   C3A31246  13.313   4.527   9.056 -0.1204 -0.1906 -0.3462
20219DPPI   C4A31247  13.685   4.490   8.904  0.1449  0.1696 -0.3235
20219DPPI   C1B31248  13.874   4.019   9.611 -0.1130  0.1320  0.1938
20219DPPI   C2B31249  13.751   4.092   9.262  0.0919 -0.1157 -0.1964
20219DPPI   C3B31250  13.424   4.020   9.045 -0.3548  0.0431  0.2220
20219DPPI   C4B31251  13.279   4.171   8.717  0.0279 -0.1637  0.0495
20220DPPI    C131252  13.920   2.841  10.496  0.2540 -0.0846  0.0374
20220DPPI    C231253  13.559   2.701  10.393  0.1710  0.0565  0.1329
20220DPPI    C331254  13.774   2.513  10.673  0.1033  0.0628  0.1890
20220DPPI   PO431255  14.021   2.870  10.250 -0.4594 -0.2878 -0.1156
20220DPPI   GL131256  14.129   2.984   9.909  0.3484  0.0919 -0.2224
20220DPPI   GL231257  14.110   2.615   9.840  0.1536  0.2056 -0.2059
20220DPPI   C1A31258  14.209   3.205   9.666 -0.2611 -0.4878  0.0683
20220DPPI   C2A31259  14.062   3.130   9.175  0.1531 -0.0158  0.4482
20220DPPI   C3A31260  13.945   3.233   8.766 -0.3490  0.1028 -0.0036
20220DPPI   C4A31261  13.814   3.319   8.352 -0.2164 -0.1318  0.0614
20220DPPI   C1B31262  14.074   2.711   9.403 -0.4159  0.2347  0.0438
20220DPPI   C2B31263  13.985   2.668   8.984  0.0334  0.1788 -0.1211
20220DPPI   C3B31264  13.717   2.766   8.588 -0.0803  0.0775  0.0508
20220DPPI   C4B31265  13.512   2.853   8.220 -0.1707  0.1229 -0.0684
20221PYPI    C131266  13.053   2.473  10.375  0.1300 -0.0300 -0.1996
20221PYPI    C231267  13.187   2.457  10.751 -0.0166 -0.1934 -0.1530
20221PYPI    C331268  12.858   2.668  10.665  0.1594  0.0523 -0.2348
20221PYPI   PO431269  12.997   2.210  10.335  0.1980 -0.2997 -0.1179
20221PYPI   GL131270  13.137   1.882  10.142  0.0592 -0.1589  0.0362
20221PYPI   GL231271  12.853   1.794  10.120 -0.3510 -0.0397  0.1172
20221PYPI   C1A31272  13.065   1.668   9.667 -0.1518  0.1295  0.3150
20221PYPI   C2A31273  13.314   1.509   9.357 -0.2204 -0.1109  0.1140
20221PYPI   D3A31274  13.529   1.243   9.042 -0.0297  0.1298 -0.0209
20221PYPI   C4A31275  13.881   1.305   8.820  0.3024  0.0973  0.2667
20221PYPI   C1B31276  12.751   2.072   9.694 -0.1870  0.2499 -0.0613
20221PYPI   C2B31277  12.857   2.123   9.329  0.0719  0.1205  0.0740
20221PYPI   C3B31278  12.622   2.223   9.041 -0.0694  0.0509 -0.0884
20221PYPI   C4B31279  12.515   2.288   8.628  0.0665  0.2456 -0.0940
20222PYPI    C131280  12.897  14.793  10.685 -0.1494 -0.2554  0.0826
20222PYPI    C231281  13.112  14.701  10.360  0.1161 -0.2383  0.2505
20222PYPI    C331282  13.284  14.697  10.722 -0.0352  0.2628  0.3363
20222PYPI   PO431283  12.664  14.640  10.646 -0.1871  0.0243 -0.0407
20222PYPI   GL131284  12.506  14.218  10.490 -0.2197  0.0120 -0.3558
20222PYPI   GL231285  12.298  13.931  10.484 -0.1253  0.0221  0.2080
20222PYPI   C1A31286  12.274  14.268  10.162 -0.1087  0.2163  0.3454
20222PYPI   C2A31287  12.133  14.081   9.680 -0.1517  0.0833 -0.0529
20222PYPI   D3A31288  12.078  14.005   9.251  0.0349  0.2430  0.3955
20222PYPI   C4A31289  11.865  13.717   9.054  0.3116  0.0450 -0.3148
20222PYPI   C1B31290  12.015  13.827  10.108 -0.2351  0.0256  0.1072
20222PYPI   C2B31291  11.851  13.618   9.678 -0.0052 -0.2423  0.0484
20222PYPI   C3B31292  11.666  13.343   9.449  0.0618 -0.2044  0.1725
20222PYPI   C4B31293  11.739  13.167   9.001  0.1699 -0.1429  0.0744
20223PYPI    C131294  14.408   2.643  10.472  0.2349 -0.0039 -0.0878
20223PYPI    C231295  14.460   3.028  10.375  0.0690  0.0503  0.0331
20223PYPI    C331296  14.636   2.878  10.702  0.3234 -0.0375 -0.1405
20223PYPI   PO431297  14.479   2.527  10.214 -0.2784  0.2339 -0.1614
20223PYPI   GL131298  14.684   2.339   9.934  0.1432  0.2794  0.0163
20223PYPI   GL231299  14.455   2.278   9.763 -0.1826 -0.1142  0.2951
20223PYPI   C1A31300  14.989   2.518   9.642  0.0608 -0.0430  0.2320
20223PYPI   C2A31301  15.330   2.736   9.656 -0.0728 -0.2374  0.0780
20223PYPI   D3A31302  15.573   2.940   9.643 -0.0767 -0.0929 -0.0315
20223PYPI   C4A31303  15.551   3.372   9.539  0.3505 -0.1447  0.0769
20223PYPI   C1B31304  14.810   2.061   9.516 -0.2502  0.1693  0.0526
20223PYPI   C2B31305  14.751   1.992   9.076  0.1908  0.1140 -0.1960
20223PYPI   C3B31306  14.793   1.588   8.838 -0.0729  0.1900  0.1296
20223PYPI   C4B31307  14.744   1.327   8.488 -0.1621 -0.0265 -0.2441
20224PYPI    C131308  14.516   8.847  10.191  0.1085 -0.0124  0.0259
20224PYPI    C231309  14.659   8.491  10.305  0.1464  0.0490  0.1737
20224PYPI    C331310  14.266   8.540  10.248  0.1599 -0.0642 -0.0269
20224PYPI   PO431311  14.775   8.984  10.069 -0.0539  0.0592  0.0145
20224PYPI   GL131312  15.033   8.789   9.838 -0.1479  0.0287 -0.0886
20224PYPI   GL231313  14.960   8.514   9.927 -0.1526 -0.2719  0.1783
20224PYPI   C1A31314  15.086   8.980   9.447 -0.0029  0.0829 -0.0014
20224PYPI   C2A31315  15.200   9.184   9.019  0.0082  0.0175 -0.1537
20224PYPI   D3A31316  15.101   9.272   8.586  0.1081 -0.0019  0.2753
20224PYPI   C4A31317  15.296   9.511   8.260  0.0021  0.0507 -0.2839
20224PYPI   C1B31318  14.973   8.256   9.539  0.0059 -0.1157 -0.3097
20224PYPI   C2B31319  14.978   8.427   9.107  0.2305  0.2262 -0.2849
20224PYPI   C3B31320  14.998   8.768   8.845  0.2393 -0.0501  0.1008
20224PYPI   C4B31321  15.163   8.775   8.419 -0.0286  0.1595 -0.1750
20225PYPI    C131322  15.245  11.335  10.358 -0.2271  0.2028 -0.0693
20225PYPI    C231323  14.890  11.163  10.295 -0.0522 -0.1247 -0.1891
20225PYPI    C331324  15.155  10.991  10.540 -0.0412  0.2128  0.0442
20225PYPI   PO431325  15.348  11.444  10.151 -0.1779 -0.0877  0.1097
20225PYPI   GL131326  15.555  11.350   9.752 -0.0926  0.0044 -0.2629
20225PYPI   GL231327  15.717  11.070   9.721 -0.0083  0.0260  0.1264
20225PYPI   C1A31328  15.121  11.363   9.431  0.1100  0.0433  0.2212
20225PYPI   C2A31329  15.073  11.331   8.942 -0.2175 -0.1244  0.4738
20225PYPI   D3A31330  15.163  11.287   8.539 -0.0594 -0.0154  0.0960
20225PYPI   C4A31331  14.811  11.398   8.347  0.0425  0.4196  0.1245
20225PYPI   C1B31332  15.506  11.019   9.352 -0.1269  0.2253  0.4104
20225PYPI   C2B31333  15.692  10.747   8.981  0.1225  0.4207 -0.0698
20225PYPI   C3B31334  15.448  10.731   8.648  0.1787 -0.3936  0.2354
20225PYPI   C4B31335  15.366  10.961   8.261 -0.6220  0.0499  0.0480
20226PYPI    C131336  16.275  14.216  10.407 -0.1990 -0.0011 -0.0110
20226PYPI    C231337  16.058  14.552  10.405  0.0372  0.1580  0.2625
20226PYPI    C331338  15.889  14.205  10.511 -0.2607  0.1476 -0.2190
20226PYPI   PO431339  16.427  14.324  10.117 -0.0420  0.0154  0.1414
20226PYPI   GL131340  16.341  14.632   9.834  0.3466  0.3023 -0.0768
20226PYPI   GL231341  16.622  14.750   9.848 -0.0104 -0.1754  0.0402
20226PYPI   C1A31342  15.999  14.748   9.580 -0.0145  0.1657 -0.0117
20226PYPI   C2A31343  16.066  14.688   9.097  0.2486  0.1335 -0.1961
20226PYPI   D3A31344  16.068  14.802   8.672 -0.1892 -0.1407 -0.3110
20226PYPI   C4A31345  15.833  14.857   8.250  0.0959  0.1540  0.0361
20226PYPI   C1B31346  16.582  14.859   9.436 -0.0287  0.0196  0.0905
20226PYPI   C2B31347  16.583  14.862   9.139 -0.0152  0.2762 -0.0587
20226PYPI   C3B31348  16.548  14.911   8.715 -0.0181  0.0861 -0.1053
20226PYPI   C4B31349  16.394  14.998   8.261  0.2346  0.0892 -0.1823
20227PYPI    C131350  14.565   2.104  10.478 -0.1289  0.0427 -0.0037
20227PYPI    C231351  14.378   1.958  10.156 -0.0396 -0.0741 -0.0029
20227PYPI    C331352  14.429   1.728  10.480 -0.0159  0.0017  0.0473
20227PYPI   PO431353  14.853   2.132  10.293 -0.2508 -0.0166 -0.0162
20227PYPI   GL131354  15.105   1.892  10.048 -0.1915  0.0034 -0.3059
20227PYPI   GL231355  15.210   2.191   9.930 -0.0243 -0.0575  0.0600
20227PYPI   C1A31356  15.088   1.731   9.625  0.0297 -0.0793  0.2540
20227PYPI   C2A31357  15.172   1.751   9.178 -0.1607  0.1801 -0.1276
20227PYPI   D3A31358  15.187   2.037   8.779  0.0052 -0.2488  0.0329
20227PYPI   C4A31359  15.499   2.362   8.697 -0.1019 -0.1788  0.0031
20227PYPI   C1B31360  15.342   2.199   9.529 -0.2769  0.0619 -0.0061
20227PYPI   C2B31361  15.136   2.372   9.207 -0.2166  0.3388 -0.1288
20227PYPI   C3B31362  14.832   2.443   8.807 -0.5579 -0.4574 -0.1655
20227PYPI   C4B31363  14.423   2.308   8.784  0.0802  0.2022 -0.0067
20228PYPI    C131364  15.101   8.193  10.314 -0.0297 -0.0658  0.1815
20228PYPI    C231365  14.884   8.198  10.651 -0.0672  0.0516  0.1563
20228PYPI    C331366  15.276   8.276  10.664 -0.0191 -0.1894  0.2059
20228PYPI   PO431367  14.892   8.029  10.142  0.0266  0.2637  0.1553
20228PYPI   GL131368  14.793   7.823   9.791 -0.1352  0.0220 -0.3393
20228PYPI   GL231369  14.859   7.517   9.985  0.2062 -0.0463 -0.0920
20228PYPI   C1A31370  14.763   7.834   9.368 -0.4034 -0.0017  0.2028
20228PYPI   C2A31371  14.723   7.750   9.050 -0.1856  0.3560  0.2533
20228PYPI   D3A31372  14.970   7.761   8.623 -0.1267 -0.0447  0.0908
20228PYPI   C4A31373  15.085   7.768   8.265 -0.3001  0.1266 -0.0794
20228PYPI   C1B31374  14.664   7.382   9.554 -0.2068  0.0067  0.0484
20228PYPI   C2B31375  14.533   7.235   9.126 -0.1543  0.0599 -0.1196
20228PYPI   C3B31376  14.393   6.863   8.890 -0.1954  0.0144 -0.0559
20228PYPI   C4B31377  14.682   6.519   8.654 -0.3085 -0.0370  0.0242
20229PYPI    C131378  12.114   1.840  10.633 -0.2273 -0.0552 -0.0634
20229PYPI    C231379  12.358   1.829  10.950 -0.0334  0.1237 -0.2034
20229PYPI    C331380  12.233   2.181  10.805 -0.2440  0.0380 -0.2341
20229PYPI   PO431381  12.201   1.614  10.420  0.1581  0.0444 -0.1488
20229PYPI   GL131382  11.989   1.544  10.135 -0.1927 -0.0864 -0.0487
20229PYPI   GL231383  12.067   1.254   9.969 -0.1423  0.1156  0.0502
20229PYPI   C1A31384  11.619   1.397  10.000 -0.0778  0.0860 -0.0716
20229PYPI   C2A31385  11.592   1.352   9.558  0.1514  0.2567  0.0972
20229PYPI   D3A31386  11.534   1.354   9.098  0.1584 -0.2150 -0.1655
20229PYPI   C4A31387  11.639   1.103   8.886 -0.0541 -0.0074  0.2012
20229PYPI   C1B31388  12.072   1.436   9.610  0.1674 -0.2315 -0.0278
20229PYPI   C2B31389  12.002   1.371   9.248  0.2133 -0.2616  0.2654
20229PYPI   C3B31390  11.983   1.504   8.888  0.1999 -0.0063 -0.3046
20229PYPI   C4B31391  11.837   1.676   8.609  0.0208 -0.1087  0.0720
20230PYPI    C131392  14.198   6.402  10.629 -0.1227 -0.2252  0.0962
20230PYPI    C231393  14.112   6.316  11.010 -0.2059 -0.2032  0.0826
20230PYPI    C331394  14.415   6.130  10.826  0.0005 -0.0266  0.2382
20230PYPI   PO431395  13.983   6.473  10.521  0.4776  0.0990  0.0622
20230PYPI   GL131396  13.732   6.477  10.193  0.1359 -0.1533  0.0139
20230PYPI   GL231397  13.917   6.288   9.998 -0.5085 -0.0933 -0.2320
20230PYPI   C1A31398  13.432   6.379   9.910 -0.1078  0.1954  0.3791
20230PYPI   C2A31399  13.338   6.411   9.417 -0.1072 -0.3367 -0.0165
20230PYPI   D3A31400  13.403   6.440   9.056  0.0843  0.0833 -0.1355
20230PYPI   C4A31401  13.056   6.526   8.783  0.0570 -0.2377  0.1995
20230PYPI   C1B31402  13.781   6.364   9.577  0.0019 -0.3710  0.0918
20230PYPI   C2B31403  13.868   6.270   9.180  0.2178 -0.0530  0.0643
20230PYPI   C3B31404  13.748   6.238   8.700  0.0108 -0.3132  0.0637
20230PYPI   C4B31405  13.607   6.178   8.349  0.0868 -0.0487  0.1857
20231PYPI    C131406  13.656  16.542  10.482  0.2086 -0.1130 -0.1209
20231PYPI    C231407  13.749  16.433  10.856  0.1048  0.0236 -0.0540
20231PYPI    C331408  13.395  16.602  10.779  0.2171  0.2074 -0.1746
20231PYPI   PO431409  13.736  16.349  10.246 -0.0609  0.2585 -0.0385
20231PYPI   GL131410  13.758  16.401   9.888 -0.4884  0.3944 -0.2599
20231PYPI   GL231411  13.527  16.614   9.814  0.2888 -0.0122  0.1040
20231PYPI   C1A31412  13.568  16.164   9.584  0.1004  0.0683 -0.2051
20231PYPI   C2A31413  13.445  16.150   9.214 -0.0401  0.2308 -0.2099
20231PYPI   D3A31414  13.451  16.048   8.762 -0.0863 -0.0872 -0.0786
20231PYPI   C4A31415  13.606  16.131   8.336  0.0464 -0.1009 -0.4749
20231PYPI   C1B31416  13.458  16.620   9.345  0.1847  0.0340 -0.0753
20231PYPI   C2B31417  13.503  16.557   8.911  0.1034 -0.1417 -0.1656
20231PYPI   C3B31418  13.244  16.494   8.570 -0.2860 -0.2156  0.2494
20231PYPI   C4B31419  13.116  16.110   8.391  0.1245 -0.2447  0.1089
20232PYPI    C131420  11.936  17.691  10.586  0.0902  0.1654 -0.1324
20232PYPI    C231421  11.585  17.878  10.543 -0.0095  0.0211  0.0392
20232PYPI    C331422  11.848  18.006  10.816 -0.1093 -0.1321  0.2094
20232PYPI   PO431423  12.047  17.607  10.431 -0.0925 -0.0522  0.0778
20232PYPI   GL131424  12.057  17.191  10.212 -0.0071 -0.0806  0.1855
20232PYPI   GL231425  12.452  17.191  10.170 -0.0768  0.1748  0.1711
20232PYPI   C1A31426  11.755  17.246   9.954 -0.1847  0.1277 -0.0301
20232PYPI   C2A31427  11.683  17.349   9.565 -0.1231 -0.0970 -0.2272
20232PYPI   D3A31428  11.549  17.266   9.159 -0.2240  0.3429  0.2213
20232PYPI   C4A31429  11.599  17.074   8.817  0.3479  0.0876 -0.1822
20232PYPI   C1B31430  12.191  17.145   9.730 -0.0918  0.0469  0.0252
20232PYPI   C2B31431  12.059  17.042   9.289  0.1553 -0.0494  0.1391
20232PYPI   C3B31432  12.196  16.946   8.924  0.4935 -0.3186  0.0266
20232PYPI   C4B31433  12.075  17.124   8.550  0.0674 -0.3074 -0.1618
20233PYPI    C131434  12.769   1.361  10.474  0.0802  0.1952  0.0015
20233PYPI    C231435  12.482   1.317  10.750 -0.0087 -0.0592 -0.1281
20233PYPI    C331436  12.833   1.481  10.851 -0.1101  0.0287  0.0890
20233PYPI   PO431437  12.629   1.366  10.233  0.1232  0.4409  0.0643
20233PYPI   GL131438  12.587   1.035   9.947  0.1200 -0.0780  0.1664
20233PYPI   GL231439  12.337   0.856   9.905  0.2382 -0.1766  0.1910
20233PYPI   C1A31440  12.851   1.090   9.656  0.1164  0.0420 -0.2508
20233PYPI   C2A31441  12.945   1.129   9.210  0.3627  0.0028  0.0424
20233PYPI   D3A31442  13.036   1.097   8.855  0.1540  0.1434 -0.1015
20233PYPI   C4A31443  12.748   0.960   8.638  0.2437  0.1696  0.1361
20233PYPI   C1B31444  12.378   1.026   9.492  0.0359 -0.0786  0.0737
20233PYPI   C2B31445  12.441   1.053   9.119  0.1682 -0.1524  0.3167
20233PYPI   C3B31446  12.104   0.974   8.756  0.0156 -0.0608  0.0261
20233PYPI   C4B31447  11.923   1.149   8.433 -0.0644 -0.0619 -0.2654
20234PYPI    C131448  15.049  10.508  10.252  0.0855  0.0036 -0.0597
20234PYPI    C231449  14.892  10.554  10.617  0.2027  0.0200 -0.0109
20234PYPI    C331450  15.267  10.421  10.576  0.1308 -0.1493 -0.1306
20234PYPI   PO431451  14.997  10.670  10.092  0.2317 -0.0314 -0.0364
20234PYPI   GL131452  15.008  10.627   9.662 -0.2116  0.1496 -0.0575
20234PYPI   GL231453  15.367  10.636   9.701 -0.0144 -0.2229  0.1178
20234PYPI   C1A31454  15.026  10.790   9.151 -0.0790 -0.4608 -0.1141
20234PYPI   C2A31455  14.920  10.717   8.736  0.0759 -0.1055 -0.0165
20234PYPI   D3A31456  14.746  10.810   8.300 -0.0248 -0.1442 -0.0602
20234PYPI   C4A31457  14.907  11.035   7.938  0.1174  0.1087 -0.0147
20234PYPI   C1B31458  15.387  10.499   9.298  0.0992 -0.0855  0.2035
20234PYPI   C2B31459  15.192  10.350   8.930  0.0987 -0.1930 -0.1460
20234PYPI   C3B31460  15.328   9.983   8.653  0.2684 -0.0890  0.0259
20234PYPI   C4B31461  15.279   9.957   8.106  0.0886 -0.1589 -0.4101
20235PYPI    C131462  12.073   0.742  10.382 -0.0333 -0.0365 -0.4731
20235PYPI    C231463  12.415   0.942  10.433 -0.0850  0.0109 -0.3072
20235PYPI    C331464  12.066   1.137  10.439 -0.1712 -0.1400  0.3490
20235PYPI   PO431465  12.129   0.491  10.527 -0.2132  0.1632 -0.2105
20235PYPI   GL131466  12.224   0.084  10.239  0.0139 -0.4407 -0.2707
20235PYPI   GL231467  11.878   0.009  10.150 -0.0359  0.0984 -0.3544
20235PYPI   C1A31468  12.172   0.355   9.859 -0.0438 -0.0408 -0.1305
20235PYPI   C2A31469  12.295   0.496   9.486 -0.0471 -0.3261  0.1984
20235PYPI   D3A31470  12.295   0.609   9.117  0.0162  0.2627 -0.1531
20235PYPI   C4A31471  12.418   0.578   8.651  0.3120 -0.2881  0.1863
20235PYPI   C1B31472  11.664  -0.185   9.904 -0.0415  0.4356  0.0430
20235PYPI   C2B31473  11.605  -0.162   9.465 -0.3053  0.0263  0.1767
20235PYPI   C3B31474  11.519  -0.200   9.041 -0.1292  0.0399  0.2191
20235PYPI   C4B31475  11.656  -0.085   8.708 -0.0063  0.2314 -0.1083
20236PYPI    C131476  13.137   6.900  10.899 -0.2752  0.2313  0.2035
20236PYPI    C231477  12.785   6.941  11.084 -0.2819  0.1714  0.2040
20236PYPI    C331478  13.099   7.158  11.203 -0.3161  0.2178  0.2097
20236PYPI   PO431479  13.130   6.957  10.614  0.1141 -0.0709  0.0225
20236PYPI   GL131480  13.005   7.272  10.294 -0.2747  0.0907  0.4239
20236PYPI   GL231481  12.888   7.513  10.059  0.3188 -0.0180 -0.0001
20236PYPI   C1A31482  12.797   7.051   9.871 -0.1900 -0.1326 -0.0394
20236PYPI   C2A31483  12.634   7.101   9.473  0.2567 -0.0924 -0.0571
20236PYPI   D3A31484  12.461   7.266   9.078 -0.1160  0.2499  0.0417
20236PYPI   C4A31485  12.546   7.529   8.658 -0.1531  0.1569  0.3243
20236PYPI   C1B31486  12.941   7.447   9.576 -0.1126 -0.2272 -0.2577
20236PYPI   C2B31487  12.991   7.333   9.160 -0.0379  0.0487 -0.1666
20236PYPI   C3B31488  13.052   7.567   8.751 -0.1504 -0.0513  0.0785
20236PYPI   C4B31489  13.309   7.834   8.573 -0.0612  0.1943  0.1051
20237PYPI    C131490  11.294  13.157  10.934  0.3393 -0.0081  0.1298
20237PYPI    C231491  11.139  13.177  11.302 -0.0185  0.3060 -0.0310
20237PYPI    C331492  10.975  12.935  11.030  0.1840  0.1491 -0.0161
20237PYPI   PO431493  11.325  13.457  10.801  0.0965  0.3760 -0.0533
20237PYPI   GL131494  11.327  13.635  10.369  0.0111 -0.0329 -0.2204
20237PYPI   GL231495  11.374  13.976  10.355  0.0904  0.0315  0.2924
20237PYPI   C1A31496  11.052  13.758  10.014  0.0557  0.1655 -0.1293
20237PYPI   C2A31497  11.210  13.636   9.532  0.0795  0.0669 -0.0843
20237PYPI   D3A31498  11.239  13.172   9.246  0.0082  0.0468  0.1448
20237PYPI   C4A31499  10.911  13.141   8.974 -0.1393  0.1137 -0.1578
20237PYPI   C1B31500  11.177  14.232  10.026 -0.3026  0.3135 -0.0979
20237PYPI   C2B31501  11.084  14.178   9.586 -0.5496  0.1756  0.0343
20237PYPI   C3B31502  10.970  13.866   9.174 -0.3628 -0.4048  0.3484
20237PYPI   C4B31503  10.878  13.710   8.789  0.3596  0.6565 -0.1880
20238PYPI    C131504  12.919  11.026  10.525 -0.0343 -0.2336 -0.0959
20238PYPI    C231505  13.209  11.148  10.772 -0.1549 -0.2038  0.0327
20238PYPI    C331506  13.215  10.776  10.625 -0.0520 -0.2031  0.0341
20238PYPI   PO431507  12.763  11.239  10.576 -0.0051 -0.3123  0.0399
20238PYPI   GL131508  12.330  11.330  10.328  0.1603  0.5007  0.1330
20238PYPI   GL231509  12.116  11.166  10.149  0.1537 -0.0167  0.1183
20238PYPI   C1A31510  12.308  11.546   9.908 -0.0561  0.1878  0.0758
20238PYPI   C2A31511  12.049  11.400   9.613  0.1498  0.1086  0.1174
20238PYPI   D3A31512  11.996  11.339   9.201  0.0154 -0.2202 -0.1845
20238PYPI   C4A31513  12.213  11.360   8.913 -0.0255  0.0628  0.1978
20238PYPI   C1B31514  12.042  10.912   9.811  0.0417  0.0078  0.0552
20238PYPI   C2B31515  11.908  10.928   9.467 -0.0108 -0.1255  0.0825
20238PYPI   C3B31516  11.573  10.856   9.215  0.0937  0.2653  0.0838
20238PYPI   C4B31517  11.236  10.776   8.941  0.4729  0.0821 -0.0737
20239PYPI    C131518  16.402   2.085  10.205 -0.0673  0.1234  0.1381
20239PYPI    C231519  16.422   1.809  10.494  0.2621  0.1339  0.1286
20239PYPI    C331520  16.116   2.067  10.485  0.0337 -0.1283  0.2279
20239PYPI   PO431521  16.644   2.291  10.082 -0.1363  0.0031  0.0393
20239PYPI   GL131522  16.354   2.484   9.749  0.3205  0.1578  0.1283
20239PYPI   GL231523  16.132   2.759   9.826 -0.0056 -0.0891 -0.0001
20239PYPI   C1A31524  16.418   2.429   9.273  0.0559  0.1630  0.0045
20239PYPI   C2A31525  16.734   2.170   9.149  0.0771 -0.1022  0.1028
20239PYPI   D3A31526  17.023   2.161   8.795 -0.1354 -0.1488  0.0557
20239PYPI   C4A31527  16.842   2.115   8.351 -0.0555 -0.1369 -0.0302
20239PYPI   C1B31528  16.032   2.903   9.391  0.1911  0.0184 -0.1175
20239PYPI   C2B31529  15.722   2.974   9.100 -0.1819 -0.0380 -0.0714
20239PYPI   C3B31530  15.739   2.751   8.762  0.0543  0.1455  0.0699
20239PYPI   C4B31531  15.708   2.639   8.352 -0.3622 -0.2933  0.0017
20240PYPI    C131532  14.112  14.954  10.705 -0.2907  0.3723 -0.0706
20240PYPI    C231533  13.731  15.001  10.815 -0.2760  0.2381  0.0400
20240PYPI    C331534  14.018  14.982  11.092 -0.2128  0.1264 -0.0321
20240PYPI   PO431535  13.995  14.784  10.465 -0.2208 -0.3563 -0.1727
20240PYPI   GL131536  13.948  15.021  10.077 -0.1097 -0.0468 -0.1840
20240PYPI   GL231537  14.225  14.887  10.000 -0.1138 -0.0657 -0.1085
20240PYPI   C1A31538  13.585  14.747  10.011 -0.0570 -0.0034 -0.0616
20240PYPI   C2A31539  13.287  14.542   9.798 -0.1570  0.0136 -0.0622
20240PYPI   D3A31540  13.293  14.403   9.349  0.0169  0.0477 -0.1480
20240PYPI   C4A31541  13.635  14.409   9.064 -0.0177 -0.1646 -0.1537
20240PYPI   C1B31542  14.222  15.264   9.672  0.0241 -0.0201 -0.2897
20240PYPI   C2B31543  14.077  15.269   9.294 -0.3048 -0.2157  0.0731
20240PYPI   C3B31544  14.029  15.139   8.914  0.0220 -0.0387  0.0285
20240PYPI   C4B31545  13.811  15.103   8.721  0.1283 -0.0347  0.0178
20241PYPI    C131546  14.263  17.860  10.288  0.0107 -0.0104 -0.1830
20241PYPI    C231547  14.144  17.753   9.922 -0.0470 -0.1029 -0.1375
20241PYPI    C331548  14.479  17.599  10.077 -0.1373 -0.2302 -0.0669
20241PYPI   PO431549  14.239  18.108  10.266 -0.0754 -0.2087  0.2607
20241PYPI   GL131550  14.297  18.229   9.861  0.1634 -0.1109 -0.0119
20241PYPI   GL231551  14.570  18.060   9.869  0.1289  0.0437  0.0394
20241PYPI   C1A31552  14.427  18.230   9.357  0.0439 -0.0358  0.2143
20241PYPI   C2A31553  14.635  18.113   8.935  0.2537 -0.1965  0.0558
20241PYPI   D3A31554  14.618  18.038   8.556 -0.1187  0.0940  0.1409
20241PYPI   C4A31555  15.026  18.084   8.442  0.2238 -0.2325 -0.0040
20241PYPI   C1B31556  14.871  18.256   9.551 -0.0683 -0.1638  0.0399
20241PYPI   C2B31557  15.065  18.276   9.162 -0.2631 -0.0442 -0.1156
20241PYPI   C3B31558  15.031  18.475   8.804  0.2311  0.0278 -0.0991
20241PYPI   C4B31559  14.785  18.539   8.363 -0.0426 -0.1573 -0.0163
20242PYPI    C131560  12.863   6.475  10.952  0.0119 -0.0947  0.0378
20242PYPI    C231561  12.714   6.131  11.094  0.1722 -0.1899 -0.0220
20242PYPI    C331562  13.110   6.179  11.059  0.1649  0.1081  0.2542
20242PYPI   PO431563  12.654   6.517  10.803  0.1448  0.0684  0.2644
20242PYPI   GL131564  12.634   6.544  10.354  0.1969 -0.0265  0.0424
20242PYPI   GL231565  12.840   6.782  10.279  0.0942  0.0635 -0.1887
20242PYPI   C1A31566  12.317   6.190  10.121 -0.0076 -0.0184 -0.3719
20242PYPI   C2A31567  12.053   5.977   9.866 -0.2371  0.0938  0.0983
20242PYPI   D3A31568  11.673   6.104   9.692 -0.1673  0.1939 -0.0112
20242PYPI   C4A31569  11.775   6.160   9.246  0.0971 -0.0661 -0.2431
20242PYPI   C1B31570  12.906   6.516   9.936 -0.0523 -0.1852 -0.1448
20242PYPI   C2B31571  12.817   6.560   9.494 -0.0328 -0.0530  0.2001
20242PYPI   C3B31572  12.633   6.745   9.056  0.3614 -0.3955 -0.0455
20242PYPI   C4B31573  12.492   6.475   8.621  0.1074  0.1144  0.1381
20243PYPI    C131574  13.220   0.271  10.254 -0.2599  0.1971  0.1260
20243PYPI    C231575  13.141   0.478  10.588 -0.1651  0.2305  0.1283
20243PYPI    C331576  13.304   0.113  10.612 -0.0269  0.2910  0.1145
20243PYPI   PO431577  13.059   0.248  10.139  0.1582  0.1501  0.0085
20243PYPI   GL131578  13.046   0.115   9.800 -0.0184  0.2913  0.1327
20243PYPI   GL231579  12.647  -0.040   9.980  0.0923  0.0170  0.0270
20243PYPI   C1A31580  12.991   0.012   9.369 -0.2240  0.1025  0.0006
20243PYPI   C2A31581  13.001  -0.006   8.997 -0.0786 -0.0359  0.2004
20243PYPI   D3A31582  13.346   0.050   8.722  0.1357 -0.2147 -0.0522
20243PYPI   C4A31583  13.353   0.189   8.450 -0.2074 -0.2437 -0.1383
20243PYPI   C1B31584  12.520   0.059   9.553 -0.2533  0.2153  0.1225
20243PYPI   C2B31585  12.449   0.136   9.144 -0.2651 -0.3415  0.1539
20243PYPI   C3B31586  12.534   0.034   8.693  0.0591  0.0435 -0.0144
20243PYPI   C4B31587  12.879  -0.222   8.555  0.0841 -0.0416 -0.0541
20244PYPI    C131588  12.591   9.221  10.879  0.0845 -0.1623  0.1753
20244PYPI    C231589  12.440   9.568  11.009 -0.0231 -0.1467  0.0113
20244PYPI    C331590  12.420   9.242  11.240  0.0507 -0.0518  0.1533
20244PYPI   PO431591  12.398   9.201  10.551 -0.2905 -0.1399  0.0573
20244PYPI   GL131592  12.458   8.860  10.311 -0.0070  0.1143 -0.0839
20244PYPI   GL231593  12.486   8.558  10.328  0.1096 -0.0861 -0.1422
20244PYPI   C1A31594  12.446   9.061   9.847 -0.0413 -0.0867 -0.0712
20244PYPI   C2A31595  12.299   9.226   9.412 -0.1319  0.0755  0.3704
20244PYPI   D3A31596  12.349   9.072   8.963  0.3021 -0.0349 -0.0141
20244PYPI   C4A31597  11.955   9.131   8.686  0.1427  0.0246 -0.1455
20244PYPI   C1B31598  12.231   8.648   9.912 -0.0441  0.1729 -0.0396
20244PYPI   C2B31599  11.892   8.475   9.740  0.0424 -0.0011  0.0452
20244PYPI   C3B31600  11.785   8.345   9.398 -0.2894 -0.1895  0.1715
20244PYPI   C4B31601  11.651   8.098   9.102  0.3448  0.0841  0.1359
20245PYPI    C131602  15.570  15.326  10.273 -0.3987 -0.0203 -0.0366
20245PYPI    C231603  15.638  15.292  10.666 -0.1177  0.1940 -0.0630
20245PYPI    C331604  15.280  15.195  10.515 -0.1890 -0.0059  0.2267
20245PYPI   PO431605  15.806  15.595  10.245  0.1619  0.0897  0.1293
20245PYPI   GL131606  16.064  15.615   9.907 -0.0330  0.0009  0.2648
20245PYPI   GL231607  16.333  15.718  10.053 -0.2145 -0.0165  0.1486
20245PYPI   C1A31608  15.874  15.728   9.482 -0.0866 -0.0570 -0.0076
20245PYPI   C2A31609  15.785  15.734   9.066  0.0190 -0.1989 -0.3611
20245PYPI   D3A31610  15.976  15.749   8.700  0.3458 -0.1491 -0.3443
20245PYPI   C4A31611  16.393  15.866   8.657 -0.3282  0.2932 -0.0236
20245PYPI   C1B31612  16.304  15.944   9.672 -0.0470 -0.0468 -0.0020
20245PYPI   C2B31613  16.297  15.959   9.233 -0.1442 -0.1894  0.1108
20245PYPI   C3B31614  16.531  16.176   8.971 -0.1354  0.0673  0.1843
20245PYPI   C4B31615  16.648  16.291   8.565 -0.1465 -0.2222  0.0466
20246PYPI    C131616  13.626  15.535  10.574 -0.1371  0.2163  0.0712
20246PYPI    C231617  13.934  15.311  10.451 -0.2508  0.1298 -0.0601
20246PYPI    C331618  13.912  15.430  10.833 -0.1061  0.0541 -0.0274
20246PYPI   PO431619  13.420  15.549  10.326 -0.0244  0.0910  0.0905
20246PYPI   GL131620  13.201  15.463  10.059  0.0225  0.2562  0.0077
20246PYPI   GL231621  13.132  15.116   9.917  0.0698  0.1121 -0.4234
20246PYPI   C1A31622  13.230  15.428   9.567  0.1972 -0.1843  0.0697
20246PYPI   C2A31623  13.128  15.290   9.189 -0.2740  0.2446 -0.2799
20246PYPI   D3A31624  13.173  15.233   8.723  0.0365 -0.2364 -0.0034
20246PYPI   C4A31625  13.434  14.986   8.419  0.1291  0.1040  0.0754
20246PYPI   C1B31626  13.033  14.947   9.535 -0.0747 -0.1509  0.0620
20246PYPI   C2B31627  13.006  14.694   9.148  0.1998 -0.0530  0.3255
20246PYPI   C3B31628  13.031  14.293   8.911 -0.1061 -0.3363  0.0047
20246PYPI   C4B31629  12.915  13.957   8.668  0.1023 -0.1130  0.0456
20247ERGO   ROH31630  13.666   4.835  10.178 -0.0739 -0.2151 -0.0057
20247ERGO    R131631  13.463   4.791   9.986 -0.0679 -0.0384 -0.0535
20247ERGO    R231632  13.333   4.998   9.857  0.2018  0.0740 -0.1447
20247ERGO    R331633  13.413   4.865   9.633  0.1172 -0.0734 -0.0895
20247ERGO    R431634  13.219   5.064   9.537  0.0823 -0.1217 -0.1446
20247ERGO    R531635  13.214   4.849   9.500  0.0620 -0.1515 -0.0054
20247ERGO    C131636  13.227   4.979   9.141 -0.0667 -0.3740 -0.0930
20247ERGO    C231637  13.057   5.150   8.866  0.1076 -0.0178 -0.0884
20248ERGO   ROH31638  13.092  10.931  10.098 -0.1861 -0.0094 -0.1288
20248ERGO    R131639  12.993  10.948   9.833 -0.1613  0.0646 -0.1331
20248ERGO    R231640  12.978  11.187   9.694  0.0091  0.0774 -0.1230
20248ERGO    R331641  13.123  11.050   9.509 -0.0744 -0.0142 -0.1264
20248ERGO    R431642  12.951  11.227   9.352 -0.0503  0.0373 -0.1237
20248ERGO    R531643  12.969  11.012   9.329 -0.1359  0.0146 -0.0898
20248ERGO    C131644  13.070  11.123   8.979 -0.1632 -0.0723 -0.1273
20248ERGO    C231645  13.154  11.184   8.646  0.1750 -0.0538 -0.2904
20249ERGO   ROH31646  14.653  11.280   9.452 -0.0075  0.0411 -0.0442
20249ERGO    R131647  14.642  11.192   9.183  0.0124  0.1261 -0.0726
20249ERGO    R231648  14.470  10.994   9.098  0.1226  0.0504 -0.1192
20249ERGO    R331649  14.392  11.182   8.918 -0.0141  0.0647 -0.0451
20249ERGO    R431650  14.448  10.945   8.756  0.1230  0.1597 -0.1355
20249ERGO    R531651  14.532  11.144   8.727 -0.0073  0.2226 -0.0722
20249ERGO    C131652  14.363  11.093   8.389 -0.0051  0.2369 -0.0753
20249ERGO    C231653  14.408  11.209   8.005 -0.0688  0.0600 -0.1937
20250ERGO   ROH31654  15.834  12.196   9.629 -0.1043  0.1733  0.1109
20250ERGO    R131655  15.701  12.173   9.380 -0.0275  0.1777  0.0691
20250ERGO    R231656  15.832  12.201   9.138  0.0562  0.1370  0.1095
20250ERGO    R331657  15.723  11.957   9.088  0.0303  0.1521  0.0920
20250ERGO    R431658  15.777  12.072   8.823 -0.0008  0.1858  0.0991
20250ERGO    R531659  15.586  11.993   8.894  0.0035  0.1900  0.1172
20250ERGO    C131660  15.643  11.768   8.591 -0.0582  0.2285  0.0767
20250ERGO    C231661  15.441  11.740   8.298  0.2196  0.0128 -0.1222
20251ERGO   ROH31662  10.761   1.698  10.130  0.1831 -0.0002 -0.2170
20251ERGO    R131663  10.792   1.516   9.916  0.1771  0.0139 -0.2304
20251ERGO    R231664  10.580   1.373   9.810  0.2014 -0.1095 -0.1202
20251ERGO    R331665  10.666   1.483   9.576  0.0200 -0.0615 -0.1650
20251ERGO    R431666  10.473   1.276   9.496  0.1152 -0.1862 -0.0672
20251ERGO    R531667  10.678   1.297   9.425  0.0675 -0.0565 -0.1653
20251ERGO    C131668  10.490   1.322   9.094 -0.1053 -0.1858 -0.0783
20251ERGO    C231669  10.387   1.151   8.870 -0.1663  0.2830 -0.3902
20252ERGO   ROH31670  15.887  10.615   9.477  0.0746 -0.0193  0.1054
20252ERGO    R131671  16.095  10.572   9.290 -0.0153  0.2189 -0.0537
20252ERGO    R231672  16.156  10.321   9.190  0.2878  0.2621  0.0152
20252ERGO    R331673  16.123  10.445   8.950 -0.1130  0.1030 -0.0199
20252ERGO    R431674  16.237  10.184   8.883  0.3722  0.2897  0.0250
20252ERGO    R531675  16.313  10.379   8.822 -0.0508  0.4271 -0.1076
20252ERGO    C131676  16.254  10.221   8.480  0.0454  0.1565 -0.0022
20252ERGO    C231677  16.171  10.158   8.167 -0.0432 -0.1556 -0.0829
20253ERGO   ROH31678  16.601   7.564  10.035 -0.2271  0.0061  0.0606
20253ERGO    R131679  16.756   7.611   9.803 -0.1801  0.1173  0.1142
20253ERGO    R231680  16.802   7.417   9.612  0.0408  0.1445  0.1394
20253ERGO    R331681  16.702   7.605   9.443 -0.0452  0.0592  0.0935
20253ERGO    R431682  16.763   7.375   9.271  0.0343  0.0293  0.1537
20253ERGO    R531683  16.832   7.579   9.243 -0.0466  0.0516  0.0912
20253ERGO    C131684  16.647   7.527   8.914 -0.0501 -0.1178  0.1190
20253ERGO    C231685  16.491   7.364   8.786  0.1703  0.1678  0.0803
20254ERGO   ROH31686  14.227  13.919   9.902  0.1449 -0.2308 -0.1502
20254ERGO    R131687  14.123  13.916   9.638  0.0661 -0.0250 -0.1235
20254ERGO    R231688  14.081  14.147   9.493  0.2446  0.0777 -0.0193
20254ERGO    R331689  14.235  14.021   9.308  0.0736  0.0015 -0.1120
20254ERGO    R431690  14.035  14.165   9.150 -0.0232 -0.0012  0.0102
20254ERGO    R531691  14.082  13.953   9.138 -0.0748 -0.0119  0.0265
20254ERGO    C131692  14.154  14.057   8.778 -0.3397 -0.1186 -0.0596
20254ERGO    C231693  13.986  14.054   8.535 -0.0516  0.1212  0.0897
20255ERGO   ROH31694  14.119   4.664  10.232  0.0003  0.0122  0.0669
20255ERGO    R131695  14.108   4.670   9.949  0.0390 -0.0338  0.0634
20255ERGO    R231696  13.904   4.551   9.806  0.0437 -0.0380  0.0533
20255ERGO    R331697  13.880   4.798   9.696  0.0852 -0.0524  0.0134
20255ERGO    R431698  13.775   4.616   9.492  0.0571 -0.0636  0.0435
20255ERGO    R531699  13.931   4.766   9.464  0.0800 -0.0954  0.0205
20255ERGO    C131700  13.677   4.886   9.206  0.1039 -0.0921  0.0002
20255ERGO    C231701  13.620   5.001   8.855  0.2508 -0.2547  0.0095
20256ERGO   ROH31702  15.976   3.269   9.868  0.0865 -0.0455 -0.0244
20256ERGO    R131703  16.016   3.429   9.638 -0.0259 -0.0666 -0.0597
20256ERGO    R231704  16.191   3.360   9.437 -0.1691 -0.1147 -0.1689
20256ERGO    R331705  15.973   3.393   9.279 -0.2638 -0.0772 -0.0315
20256ERGO    R431706  16.187   3.316   9.094 -0.3181  0.1806 -0.2076
20256ERGO    R531707  16.059   3.492   9.078 -0.4083  0.1374  0.0086
20256ERGO    C131708  15.979   3.322   8.746 -0.4938  0.3878 -0.1012
20256ERGO    C231709  16.031   3.129   8.550 -0.0054 -0.0357  0.2462
20257ERGO   ROH31710  14.234  17.297   9.748 -0.0328 -0.0254 -0.0161
20257ERGO    R131711  14.283  17.182   9.494 -0.0104  0.0189 -0.0322
20257ERGO    R231712  14.274  17.329   9.260 -0.0772  0.0422 -0.0162
20257ERGO    R331713  14.523  17.227   9.225 -0.0443  0.1320 -0.0439
20257ERGO    R431714  14.405  17.229   8.956 -0.1264 -0.0443 -0.0094
20257ERGO    R531715  14.496  17.058   9.057 -0.0230  0.0416  0.0437
20257ERGO    C131716  14.716  17.076   8.746 -0.1242 -0.0101 -0.0313
20257ERGO    C231717  15.069  16.884   8.557  0.0155 -0.2531 -0.1139
20258ERGO   ROH31718  14.628   2.916   9.806 -0.0415  0.0990  0.2098
20258ERGO    R131719  14.566   2.835   9.542 -0.0371  0.0107  0.2347
20258ERGO    R231720  14.476   3.011   9.349 -0.0273 -0.0500  0.1688
20258ERGO    R331721  14.685   2.913   9.207 -0.0244 -0.1052  0.2127
20258ERGO    R431722  14.531   3.069   9.013 -0.0831 -0.2923  0.1169
20258ERGO    R531723  14.593   2.861   8.993 -0.0366 -0.2895  0.2644
20258ERGO    C131724  14.760   3.011   8.684 -0.1127 -0.4852  0.1277
20258ERGO    C231725  14.874   3.188   8.540 -0.1661  0.1759  0.1409
20259ERGO   ROH31726  14.025   8.786   9.834 -0.0370 -0.1647 -0.0518
20259ERGO    R131727  14.001   8.708   9.563 -0.0679  0.0636 -0.1170
20259ERGO    R231728  13.758   8.655   9.444 -0.0620 -0.1049 -0.0506
20259ERGO    R331729  13.844   8.838   9.263 -0.3571  0.1686  0.0749
20259ERGO    R431730  13.677   8.652   9.108  0.2276 -0.2254 -0.1226
20259ERGO    R531731  13.883   8.711   9.064  0.1370  0.3055  0.0685
20259ERGO    C131732  13.711   8.823   8.742  0.1191 -0.0388 -0.0468
20259ERGO    C231733  13.654   8.619   8.363  0.2892 -0.2085  0.0085
20260ERGO   ROH31734  15.344   0.834   9.998  0.1991 -0.2363  0.0209
20260ERGO    R131735  15.309   0.761   9.727 -0.1835 -0.3371  0.0909
20260ERGO    R231736  15.059   0.740   9.610 -0.3466  0.3518  0.2531
20260ERGO    R331737  15.164   0.913   9.430  0.1111 -0.0923  0.0709
20260ERGO    R431738  14.931   0.800   9.294 -0.1266  0.3048  0.1546
20260ERGO    R531739  15.135   0.805   9.218 -0.0896 -0.2625  0.1879
20260ERGO    C131740  14.956   0.997   8.941  0.4314 -0.1395 -0.0738
20260ERGO    C231741  14.811   0.914   8.695  0.3752 -0.1813  0.1511
20261ERGO   ROH31742  16.957   3.271   9.929  0.0993  0.2570 -0.0363
20261ERGO    R131743  17.036   3.463   9.736 -0.1431  0.1516 -0.2433
20261ERGO    R231744  17.289   3.467   9.624 -0.0851  0.4635 -0.0949
20261ERGO    R331745  17.151   3.458   9.391  0.0609 -0.0951 -0.1769
20261ERGO    R431746  17.423   3.532   9.312 -0.0648  0.5835 -0.0629
20261ERGO    R531747  17.240   3.639   9.261 -0.3415  0.0621 -0.2579
20261ERGO    C131748  17.370   3.562   8.912  0.0840  0.1289 -0.1213
20261ERGO    C231749  17.321   3.464   8.643 -0.2889 -0.0594 -0.2041
20262ERGO   ROH31750  15.735  15.268   9.780  0.2872  0.2491  0.0326
20262ERGO    R131751  15.757  15.158   9.520  0.3836  0.1091  0.0981
20262ERGO    R231752  15.584  15.225   9.315  0.1886 -0.3205  0.1065
20262ERGO    R331753  15.814  15.284   9.183  0.0497 -0.0097 -0.0062
20262ERGO    R431754  15.631  15.189   8.975  0.0931 -0.2946  0.0906
20262ERGO    R531755  15.831  15.114   9.015  0.2186 -0.0052  0.0096
20262ERGO    C131756  15.874  15.224   8.653 -0.0929  0.0122 -0.0245
20262ERGO    C231757  15.678  15.342   8.452 -0.3681 -0.1106 -0.0299
20263ERGO   ROH31758  15.943  13.433   9.809  0.0178 -0.1097 -0.1115
20263ERGO    R131759  15.838  13.441   9.546 -0.0243 -0.0834 -0.0948
20263ERGO    R231760  15.832  13.672   9.394 -0.0627 -0.0618 -0.0681
20263ERGO    R331761  15.964  13.518   9.213 -0.0794 -0.0332 -0.1028
20263ERGO    R431762  15.788  13.687   9.052 -0.1774 -0.0997 -0.0546
20263ERGO    R531763  15.800  13.470   9.045 -0.1167 -0.0920 -0.0456
20263ERGO    C131764  15.885  13.552   8.683 -0.2600 -0.0948 -0.0793
20263ERGO    C231765  15.923  13.390   8.444  0.1629  0.1689  0.0746
20264ERGO   ROH31766  13.186   6.052  10.226 -0.0135 -0.1441  0.0999
20264ERGO    R131767  13.096   5.978   9.968  0.0772 -0.0697  0.0462
20264ERGO    R231768  12.857   6.067   9.863  0.1028 -0.0615 -0.0004
20264ERGO    R331769  13.015   6.148   9.657  0.1588  0.0226  0.0741
20264ERGO    R431770  12.765   6.062   9.529  0.2463 -0.0788 -0.0408
20264ERGO    R531771  12.966   5.993   9.480  0.3007  0.0112  0.0410
20264ERGO    C131772  12.859   6.135   9.142  0.3825 -0.0101  0.0058
20264ERGO    C231773  12.799   6.066   8.777 -0.0881  0.1105 -0.0202
20265ERGO   ROH31774  16.202   7.280  10.042  0.0759  0.0207  0.1648
20265ERGO    R131775  16.270   7.345   9.775  0.1239  0.0121  0.1750
20265ERGO    R231776  16.427   7.181   9.617  0.0989 -0.0238  0.1879
20265ERGO    R331777  16.217   7.200   9.446  0.1233  0.0376  0.1638
20265ERGO    R431778  16.420   7.049   9.298  0.0169 -0.2084  0.2645
20265ERGO    R531779  16.318   7.229   9.231  0.1605 -0.1677  0.1513
20265ERGO    C131780  16.219   6.989   8.952 -0.0079 -0.2583  0.2865
20265ERGO    C231781  16.346   6.832   8.793  0.2485 -0.1672 -0.0413
20266ERGO   ROH31782  17.674   1.475   9.693  0.0098 -0.0270 -0.0256
20266ERGO    R131783  17.741   1.513   9.421 -0.0608  0.0330 -0.0343
20266ERGO    R231784  17.793   1.302   9.249  0.0656  0.0782 -0.0479
20266ERGO    R331785  17.600   1.421   9.098 -0.0442 -0.0567 -0.0172
20266ERGO    R431786  17.792   1.315   8.904 -0.0881 -0.0834 -0.0551
20266ERGO    R531787  17.719   1.520   8.916 -0.1545 -0.0983 -0.1170
20266ERGO    C131788  17.610   1.433   8.561 -0.2809 -0.3042 -0.0304
20266ERGO    C231789  17.584   1.529   8.234  0.2541  0.0856 -0.0600
20267ERGO   ROH31790  13.384   6.799  10.237 -0.1690  0.1633  0.0354
20267ERGO    R131791  13.250   6.891  10.005  0.0257  0.1227 -0.0953
20267ERGO    R231792  13.380   7.030   9.804  0.2217 -0.0176 -0.0708
20267ERGO    R331793  13.275   6.835   9.647  0.2444 -0.0411 -0.0561
20267ERGO    R431794  13.305   7.065   9.468  0.1146 -0.0188 -0.0470
20267ERGO    R531795  13.124   6.950   9.502  0.1643 -0.0832 -0.0048
20267ERGO    C131796  13.163   6.902   9.125  0.0733 -0.0416 -0.0192
20267ERGO    C231797  13.303   7.081   8.878 -0.0520  0.4413 -0.0520
20268ERGO   ROH31798  15.562   9.017   9.912  0.0885 -0.2288  0.0609
20268ERGO    R131799  15.563   8.997   9.630  0.0014 -0.1060  0.0507
20268ERGO    R231800  15.525   9.216   9.465 -0.0334 -0.0290  0.1551
20268ERGO    R331801  15.760   9.133   9.356 -0.0714  0.0000  0.0517
20268ERGO    R431802  15.659   9.336   9.170 -0.0682  0.1374  0.2063
20268ERGO    R531803  15.719   9.132   9.120 -0.1163  0.1617  0.0604
20268ERGO    C131804  15.957   9.328   8.896 -0.1241  0.2615  0.1391
20268ERGO    C231805  15.990   9.380   8.516 -0.2245  0.0081 -0.2008
20269ERGO   ROH31806  13.768  17.845  10.197  0.0469  0.2109 -0.0255
20269ERGO    R131807  13.513  17.822  10.076 -0.0098 -0.0301  0.1351
20269ERGO    R231808  13.480  17.789   9.804 -0.1492  0.1432  0.1380
20269ERGO    R331809  13.334  17.573   9.880  0.1787 -0.1155  0.0637
20269ERGO    R431810  13.267  17.613   9.597 -0.2111  0.1745  0.1732
20269ERGO    R531811  13.126  17.598   9.764 -0.0008 -0.1832  0.3441
20269ERGO    C131812  13.005  17.308   9.548  0.0605 -0.0501  0.1239
20269ERGO    C231813  13.015  17.037   9.337 -0.1230  0.0272  0.2591
20270ERGO   ROH31814  16.892  15.917  10.170 -0.1533 -0.0722 -0.0742
20270ERGO    R131815  16.929  15.933   9.890 -0.2325 -0.0624 -0.0849
20270ERGO    R231816  16.828  16.141   9.738 -0.0977  0.0556 -0.0189
20270ERGO    R331817  17.086  16.165   9.657 -0.1005 -0.1657 -0.0994
20270ERGO    R431818  16.935  16.332   9.471  0.0017  0.1069  0.0579
20270ERGO    R531819  17.074  16.173   9.418 -0.1823 -0.0086 -0.0904
20270ERGO    C131820  17.240  16.467   9.240  0.0571 -0.0709  0.0269
20270ERGO    C231821  17.522  16.531   8.956 -0.0878 -0.0775  0.2588
20271ERGO   ROH31822  11.367   4.213  10.572 -0.0466  0.0127 -0.0467
20271ERGO    R131823  11.466   4.293  10.319 -0.1512  0.1675 -0.0389
20271ERGO    R231824  11.492   4.118  10.107  0.1367  0.2059 -0.0324
20271ERGO    R331825  11.341   4.304   9.977 -0.1428 -0.0255 -0.0507
20271ERGO    R431826  11.450   4.134   9.764  0.3190  0.2403 -0.0546
20271ERGO    R531827  11.465   4.351   9.777 -0.0990  0.2779  0.0375
20271ERGO    C131828  11.285   4.317   9.443  0.1628  0.0430 -0.0847
20271ERGO    C231829  11.205   4.322   9.066 -0.0326  0.0078 -0.1391
20272ERGO   ROH31830  14.357   7.565   9.878  0.1399 -0.1565  0.0726
20272ERGO    R131831  14.200   7.584   9.643  0.1252 -0.0058  0.0930
20272ERGO    R231832  14.216   7.799   9.471  0.2226  0.0379  0.1509
20272ERGO    R331833  14.263   7.606   9.285  0.1027  0.0633  0.0943
20272ERGO    R431834  14.236   7.855   9.130  0.0457  0.0830  0.1474
20272ERGO    R531835  14.125   7.669   9.099  0.0118  0.1028  0.1779
20272ERGO    C131836  14.290   7.705   8.757 -0.1698  0.1332  0.0924
20272ERGO    C231837  14.394   7.877   8.493 -0.4249  0.2682 -0.2092
20273ERGO   ROH31838  15.106  12.865   9.530  0.0093 -0.2280  0.0793
20273ERGO    R131839  15.000  12.899   9.270 -0.0481 -0.1310  0.1150
20273ERGO    R231840  15.143  12.834   9.042 -0.0806 -0.0003  0.0591
20273ERGO    R331841  14.923  12.685   8.986 -0.0622 -0.0176  0.0318
20273ERGO    R431842  15.052  12.728   8.726 -0.0010 -0.0498  0.0525
20273ERGO    R531843  14.844  12.771   8.776 -0.0166 -0.0497 -0.0008
20273ERGO    C131844  14.793  12.526   8.488  0.0626 -0.0949  0.0230
20273ERGO    C231845  14.874  12.399   8.181 -0.0436  0.0338 -0.0271
20274ERGO   ROH31846  13.830  17.001   8.177  0.0493  0.0749  0.0517
20274ERGO    R131847  13.779  16.748   8.060  0.0741 -0.0639  0.3310
20274ERGO    R231848  13.558  16.596   8.127 -0.2098  0.2321  0.1188
20274ERGO    R331849  13.515  16.599   7.858  0.3535 -0.1306  0.0083
20274ERGO    R431850  13.400  16.345   7.949 -0.1890  0.1701  0.1894
20274ERGO    R531851  13.547  16.372   7.791  0.1860 -0.2899  0.4391
20274ERGO    C131852  13.268  16.202   7.594  0.3518 -0.2068  0.1270
20274ERGO    C231853  13.185  15.999   7.469 -0.3638 -0.2290  0.1982
20275ERGO   ROH31854  15.952   9.355   9.988 -0.2994 -0.1443 -0.1714
20275ERGO    R131855  15.992   9.276   9.719 -0.1421  0.1175 -0.2287
20275ERGO    R231856  16.111   9.440   9.532  0.2645  0.1865  0.0766
20275ERGO    R331857  16.276   9.227   9.497  0.0167  0.0024 -0.0039
20275ERGO    R431858  16.276   9.364   9.238  0.3358  0.2265  0.1062
20275ERGO    R531859  16.232   9.154   9.274  0.0474  0.2458 -0.0937
20275ERGO    C131860  16.527   9.120   9.034  0.1447  0.0770  0.0477
20275ERGO    C231861  16.628   9.144   8.712 -0.1457 -0.2563 -0.0134
20276ERGO   ROH31862  12.819  14.374  10.103  0.2887 -0.2836  0.1231
20276ERGO    R131863  12.684  14.350   9.856  0.1671 -0.3352  0.1938
20276ERGO    R231864  12.783  14.458   9.621 -0.1931  0.0639  0.2142
20276ERGO    R331865  12.752  14.204   9.530  0.2430  0.0725  0.0194
20276ERGO    R431866  12.656  14.373   9.311 -0.2334  0.0891  0.2236
20276ERGO    R531867  12.548  14.209   9.405  0.1413 -0.2123  0.1607
20276ERGO    C131868  12.554  14.086   9.044  0.1526  0.1117  0.0462
20276ERGO    C231869  12.330  13.805   8.794  0.1311  0.1632  0.1823
20277ERGO   ROH31870  14.386   4.282  10.122  0.1502 -0.0817 -0.0910
20277ERGO    R131871  14.440   4.325   9.848  0.0046  0.0785 -0.0952
20277ERGO    R231872  14.256   4.268   9.649 -0.0161 -0.0182 -0.0438
20277ERGO    R331873  14.299   4.527   9.579 -0.2906  0.0531  0.0349
20277ERGO    R431874  14.182   4.403   9.340 -0.1031 -0.0222 -0.0257
20277ERGO    R531875  14.369   4.515   9.350 -0.2260  0.1882  0.0442
20277ERGO    C131876  14.179   4.725   9.094 -0.4116  0.0424  0.0590
20277ERGO    C231877  14.089   4.735   8.739  0.0159 -0.1889  0.1760
20278ERGO   ROH31878  12.628   2.792  10.197  0.0450  0.0531 -0.0648
20278ERGO    R131879  12.696   2.711   9.934 -0.0173  0.0776 -0.0883
20278ERGO    R231880  12.599   2.478   9.821 -0.0227  0.0760 -0.0761
20278ERGO    R331881  12.518   2.647   9.623 -0.0940  0.0788 -0.0456
20278ERGO    R431882  12.432   2.381   9.534  0.2024  0.0246 -0.1917
20278ERGO    R531883  12.554   2.523   9.422  0.1207  0.1894 -0.0803
20278ERGO    C131884  12.260   2.483   9.181  0.2664 -0.0027 -0.2304
20278ERGO    C231885  12.120   2.329   8.922 -0.3032 -0.3888 -0.0437
20279ERGO   ROH31886  17.134   7.748  10.046 -0.1666 -0.0049 -0.1414
20279ERGO    R131887  17.191   7.621   9.800 -0.1108 -0.0823 -0.0888
20279ERGO    R231888  17.125   7.733   9.556 -0.0631 -0.1625 -0.1376
20279ERGO    R331889  17.389   7.697   9.503 -0.0506 -0.1719 -0.0720
20279ERGO    R431890  17.266   7.741   9.241  0.0394 -0.0149 -0.0897
20279ERGO    R531891  17.392   7.572   9.299 -0.0029 -0.0644 -0.1380
20279ERGO    C131892  17.597   7.711   9.008  0.1107  0.0623 -0.0003
20279ERGO    C231893  17.570   7.748   8.636 -0.0730 -0.0443 -0.3053
20280ERGO   ROH31894  11.507   9.229  10.615 -0.2988 -0.0994  0.0809
20280ERGO    R131895  11.527   9.029  10.415 -0.0292 -0.0297  0.0350
20280ERGO    R231896  11.306   8.920  10.290  0.1191 -0.2672 -0.0204
20280ERGO    R331897  11.436   8.996  10.065  0.0603 -0.0579  0.0130
20280ERGO    R431898  11.296   8.751   9.989  0.2997 -0.1791 -0.0775
20280ERGO    R531899  11.508   8.790   9.965  0.2684  0.0400 -0.0521
20280ERGO    C131900  11.413   8.723   9.602  0.3497  0.0685 -0.0795
20280ERGO    C231901  11.526   8.822   9.354  0.0168 -0.5279 -0.1907
20281ERGO   ROH31902  12.648  10.897  10.147 -0.0329 -0.0002 -0.1098
20281ERGO    R131903  12.498  10.913   9.907 -0.1665 -0.1573 -0.0398
20281ERGO    R231904  12.536  11.113   9.720 -0.5498 -0.0357 -0.0035
20281ERGO    R331905  12.569  10.903   9.550 -0.3022  0.0528 -0.0741
20281ERGO    R431906  12.495  11.127   9.377 -0.7413 -0.0096  0.0200
20281ERGO    R531907  12.398  10.933   9.385 -0.4351 -0.1705  0.0187
20281ERGO    C131908  12.502  10.939   9.018 -0.6204  0.0886 -0.0326
20281ERGO    C231909  12.450  10.790   8.706  0.2070 -0.1050 -0.1371
20282ERGO   ROH31910  16.629  12.722   9.419 -0.2068  0.1627  0.1243
20282ERGO    R131911  16.520  12.811   9.174 -0.0268  0.1006  0.0201
20282ERGO    R231912  16.678  12.882   8.958  0.1311 -0.0347  0.0870
20282ERGO    R331913  16.524  12.700   8.827  0.1540 -0.0388  0.0659
20282ERGO    R431914  16.674  12.835   8.615  0.0121  0.1158  0.0670
20282ERGO    R531915  16.458  12.811   8.626  0.0277  0.0230  0.1423
20282ERGO    C131916  16.526  12.637   8.294 -0.0356  0.1996  0.0358
20282ERGO    C231917  16.427  12.649   7.921 -0.0326 -0.0487 -0.0127
20283ERGO   ROH31918  16.318   4.334   9.895  0.0937 -0.0596 -0.0787
20283ERGO    R131919  16.283   4.427   9.630  0.0000 -0.0096 -0.0500
20283ERGO    R231920  16.408   4.308   9.414  0.0175  0.1027 -0.1048
20283ERGO    R331921  16.155   4.291   9.318  0.0065  0.0054 -0.0584
20283ERGO    R431922  16.324   4.307   9.079 -0.0487  0.1047 -0.0880
20283ERGO    R531923  16.154   4.435   9.126 -0.0933  0.0257 -0.0416
20283ERGO    C131924  16.037   4.291   8.793 -0.0976  0.0145 -0.0346
20283ERGO    C231925  16.090   4.244   8.450 -0.0446 -0.0445  0.0034
20284ERGO   ROH31926  15.368  16.369  10.020 -0.2682 -0.0910  0.0715
20284ERGO    R131927  15.367  16.222   9.778 -0.0668 -0.0566  0.0453
20284ERGO    R231928  15.223  16.301   9.556 -0.1566 -0.1967  0.0389
20284ERGO    R331929  15.464  16.281   9.433 -0.1126  0.1291  0.0663
20284ERGO    R431930  15.271  16.189   9.233  0.0601 -0.2189  0.0794
20284ERGO    R531931  15.448  16.082   9.301  0.2106  0.0703  0.1225
20284ERGO    C131932  15.526  16.104   8.929  0.2276  0.0740  0.1285
20284ERGO    C231933  15.495  15.936   8.734  0.2695  0.2777  0.0778
20285ERGO   ROH31934  13.642   3.082  10.047 -0.1258  0.3671 -0.0457
20285ERGO    R131935  13.562   3.141   9.782  0.1936  0.1580 -0.1961
20285ERGO    R231936  13.700   3.048   9.561  0.1409 -0.5096  0.0247
20285ERGO    R331937  13.455   2.953   9.490 -0.0472 -0.0489  0.0225
20285ERGO    R431938  13.596   2.987   9.237 -0.0043 -0.2669  0.0236
20285ERGO    R531939  13.401   3.069   9.288  0.1473  0.0846  0.0491
20285ERGO    C131940  13.307   2.863   8.982 -0.2655  0.3068  0.0210
20285ERGO    C231941  13.236   2.737   8.704  0.4053  0.0446  0.3594
20286ERGO   ROH31942  14.290   6.672  10.127 -0.2228  0.0405 -0.0506
20286ERGO    R131943  14.273   6.584   9.858 -0.0347 -0.0417 -0.0371
20286ERGO    R231944  14.488   6.472   9.725  0.0574 -0.0936  0.1498
20286ERGO    R331945  14.312   6.269   9.680  0.0790 -0.0989  0.0876
20286ERGO    R431946  14.508   6.246   9.463  0.0733 -0.0042  0.0736
20286ERGO    R531947  14.292   6.259   9.442  0.0718 -0.0217  0.0853
20286ERGO    C131948  14.356   5.925   9.270  0.1029  0.0429 -0.0292
20286ERGO    C231949  14.478   5.621   9.147  0.0293 -0.0079 -0.1159
20287ERGO   ROH31950  17.417   2.416   9.673 -0.0990  0.2882  0.1666
20287ERGO    R131951  17.358   2.552   9.432  0.0720  0.2992  0.1297
20287ERGO    R231952  17.544   2.586   9.230  0.1498  0.1064  0.1655
20287ERGO    R331953  17.352   2.470   9.077  0.0841  0.2429  0.1429
20287ERGO    R431954  17.545   2.579   8.885  0.2824 -0.0614  0.1675
20287ERGO    R531955  17.330   2.616   8.889  0.3208  0.1767  0.0620
20287ERGO    C131956  17.365   2.466   8.540  0.2982 -0.0310  0.1474
20287ERGO    C231957  17.524   2.465   8.316  0.1573  0.0952 -0.2722
20288ERGO   ROH31958  11.792  10.765  10.460  0.0224  0.0206 -0.0349
20288ERGO    R131959  11.799  10.738  10.179  0.0361 -0.0221 -0.0307
20288ERGO    R231960  11.896  10.512  10.053  0.1495  0.0059  0.0061
20288ERGO    R331961  11.653  10.515   9.931  0.1485 -0.1359  0.0045
20288ERGO    R431962  11.836  10.402   9.731  0.2472  0.0998 -0.0447
20288ERGO    R531963  11.702  10.572   9.703  0.1089  0.0059  0.0298
20288ERGO    C131964  11.573  10.341   9.429  0.3030  0.0213 -0.0757
20288ERGO    C231965  11.418  10.324   9.168  0.0650  0.1624 -0.0661
20289ERGO   ROH31966  14.560  14.888   9.609  0.1771 -0.2970 -0.1442
20289ERGO    R131967  14.646  14.984   9.357  0.0716 -0.2371 -0.1563
20289ERGO    R231968  14.474  15.011   9.142 -0.0738  0.0644 -0.0001
20289ERGO    R331969  14.568  15.266   9.141  0.1871 -0.0264  0.0691
20289ERGO    R431970  14.507  15.208   8.860 -0.1600  0.2010  0.0823
20289ERGO    R531971  14.696  15.281   8.939  0.0037 -0.0401 -0.0565
20289ERGO    C131972  14.614  15.562   8.694  0.0348  0.1952  0.1954
20289ERGO    C231973  14.740  15.786   8.470 -0.0054  0.1172 -0.0439
20290ERGO   ROH31974  17.707   9.754  10.526  0.0673  0.2068 -0.0527
20290ERGO    R131975  17.711   9.748  10.243  0.2321  0.0862 -0.0490
20290ERGO    R231976  17.869   9.573  10.100  0.1266 -0.1517  0.1208
20290ERGO    R331977  17.633   9.505   9.983  0.1188  0.0619  0.0065
20290ERGO    R431978  17.837   9.356   9.833  0.0589 -0.1166  0.0997
20290ERGO    R531979  17.686   9.489   9.749  0.2161  0.0223  0.0301
20290ERGO    C131980  17.597   9.165   9.567  0.0123  0.1042 -0.0200
20290ERGO    C231981  17.543   8.870   9.332 -0.1147  0.1086  0.2227
20291ERGO   ROH31982  12.701  16.741  10.281  0.2787 -0.0710 -0.0937
20291ERGO    R131983  12.573  16.560  10.104  0.1760 -0.0926  0.0027
20291ERGO    R231984  12.349  16.628   9.958  0.0954 -0.1099  0.1230
20291ERGO    R331985  12.500  16.545   9.748 -0.0284 -0.1413  0.0443
20291ERGO    R431986  12.232  16.585   9.636 -0.0535  0.0556  0.1524
20291ERGO    R531987  12.354  16.404   9.621 -0.1647 -0.0181  0.0561
20291ERGO    C131988  12.306  16.481   9.251 -0.2564  0.1226  0.0955
20291ERGO    C231989  12.338  16.427   8.869 -0.2596 -0.1055  0.0512
20292ERGO   ROH31990  15.179   6.279   8.812 -0.1008 -0.1161  0.0018
20292ERGO    R131991  15.165   6.413   8.563 -0.0961 -0.0327  0.0455
20292ERGO    R231992  15.355   6.596   8.481 -0.1353  0.0560  0.1434
20292ERGO    R331993  15.370   6.435   8.263 -0.0468  0.1339  0.0915
20292ERGO    R431994  15.565   6.647   8.212 -0.1223  0.2195  0.1836
20292ERGO    R531995  15.404   6.586   8.080 -0.0803  0.2031  0.1449
20292ERGO    C131996  15.702   6.525   7.850 -0.0316  0.3880  0.1583
20292ERGO    C231997  15.821   6.484   7.497 -0.0407  0.0279 -0.3351
20293ERGO   ROH31998  14.418   5.680  10.169  0.2810  0.1434 -0.0170
20293ERGO    R131999  14.201   5.654   9.989  0.1536  0.3735  0.0991
20293ERGO    R232000  14.107   5.865   9.837  0.4558  0.4192 -0.0271
20293ERGO    R332001  14.148   5.692   9.631  0.0681  0.1757  0.0885
20293ERGO    R432002  13.969   5.897   9.522  0.2745  0.3385  0.0422
20293ERGO    R532003  13.937   5.682   9.519 -0.0327  0.3743  0.2510
20293ERGO    C132004  13.928   5.754   9.145 -0.1951  0.0629  0.1912
20293ERGO    C232005  13.879   5.783   8.810 -0.0366  0.1079  0.0549
20294ERGO   ROH32006  15.257   6.619  10.039 -0.0483 -0.0327  0.0604
20294ERGO    R132007  15.202   6.563   9.767  0.0014  0.0447  0.0340
20294ERGO    R232008  15.253   6.317   9.652  0.1373  0.1149 -0.0586
20294ERGO    R332009  14.991   6.331   9.582  0.1350  0.0068 -0.0725
20294ERGO    R432010  15.121   6.192   9.358  0.1791 -0.0798  0.0043
20294ERGO    R532011  14.995   6.370   9.345  0.1311 -0.1192 -0.0943
20294ERGO    C132012  14.798   6.133   9.121  0.2012 -0.2946  0.0278
20294ERGO    C232013  14.668   5.978   8.858 -0.0996 -0.0290  0.3020
20295ERGO   ROH32014  15.816  11.723   9.502  0.0271  0.1023 -0.0754
20295ERGO    R132015  15.802  11.526   9.300  0.1834  0.1060 -0.0906
20295ERGO    R232016  15.584  11.501   9.132  0.1685 -0.0997 -0.0374
20295ERGO    R332017  15.772  11.522   8.937  0.1038  0.1118 -0.0868
20295ERGO    R432018  15.557  11.363   8.816  0.2196 -0.1047 -0.0400
20295ERGO    R532019  15.768  11.309   8.827  0.2896  0.1070 -0.0991
20295ERGO    C132020  15.719  11.303   8.449  0.1887  0.0909 -0.0879
20295ERGO    C232021  15.774  11.375   8.129 -0.1266  0.2026  0.0910
20296ERGO   ROH32022  15.511   8.559   9.766 -0.2615 -0.2087  0.2395
20296ERGO    R132023  15.421   8.540   9.498 -0.2396 -0.0606  0.2202
20296ERGO    R232024  15.470   8.736   9.310 -0.0629 -0.0414  0.2837
20296ERGO    R332025  15.572   8.527   9.168 -0.2018 -0.0791  0.2381
20296ERGO    R432026  15.509   8.730   8.966  0.2079  0.1320  0.3088
20296ERGO    R532027  15.442   8.523   8.967 -0.0486  0.2077  0.1264
20296ERGO    C132028  15.627   8.532   8.633  0.2353  0.1975  0.2808
20296ERGO    C232029  15.710   8.651   8.367 -0.2327  0.0522  0.0468
20297ERGO   ROH32030  13.293   9.229  10.138  0.0751  0.1413 -0.1268
20297ERGO    R132031  13.113   9.115   9.951 -0.0953  0.2851 -0.0552
20297ERGO    R232032  12.934   9.266   9.806  0.0963  0.4572 -0.1222
20297ERGO    R332033  13.051   9.142   9.594 -0.0800  0.1861 -0.0651
20297ERGO    R432034  12.806   9.260   9.485  0.0567  0.4329 -0.1055
20297ERGO    R532035  12.867   9.052   9.469 -0.2073  0.3440  0.0068
20297ERGO    C132036  12.841   9.140   9.099 -0.1319  0.1642 -0.0421
20297ERGO    C232037  12.910   9.224   8.804 -0.0328  0.1082  0.0226
20298ERGO   ROH32038  13.137   1.290  10.054  0.0452 -0.2312  0.1083
20298ERGO    R132039  13.334   1.179   9.883  0.0280 -0.1643  0.0438
20298ERGO    R232040  13.330   0.914   9.804  0.0634 -0.1540  0.0020
20298ERGO    R332041  13.341   1.022   9.555 -0.0185 -0.1106  0.0173
20298ERGO    R432042  13.318   0.734   9.510 -0.0119 -0.1028 -0.0262
20298ERGO    R532043  13.470   0.866   9.428 -0.0461 -0.0789 -0.0487
20298ERGO    C132044  13.321   0.730   9.104 -0.1324 -0.0323 -0.0282
20298ERGO    C232045  13.464   0.470   8.994  0.1371  0.2313  0.3450
20299ERGO   ROH32046  17.495  13.469  10.139 -0.1711  0.0517 -0.0277
20299ERGO    R132047  17.368  13.580   9.912 -0.0878  0.0203 -0.0905
20299ERGO    R232048  17.509  13.685   9.698 -0.0087 -0.0569 -0.0782
20299ERGO    R332049  17.358  13.510   9.554 -0.0005 -0.0647 -0.0765
20299ERGO    R432050  17.459  13.701   9.357 -0.0304 -0.0456 -0.0741
20299ERGO    R532051  17.251  13.645   9.389 -0.0232 -0.0671 -0.0638
20299ERGO    C132052  17.288  13.545   9.023 -0.0354 -0.0464 -0.0703
20299ERGO    C232053  17.327  13.573   8.736  0.2560 -0.0234  0.3926
20300ERGO   ROH32054  14.612   9.206   9.637  0.0507 -0.2061  0.0905
20300ERGO    R132055  14.646   9.317   9.379  0.0900 -0.1364  0.1256
20300ERGO    R232056  14.733   9.168   9.164  0.1484 -0.0716  0.1051
20300ERGO    R332057  14.507   9.263   9.047  0.1616 -0.0661  0.0834
20300ERGO    R432058  14.672   9.169   8.823  0.1420 -0.1588  0.1057
20300ERGO    R532059  14.583   9.367   8.845  0.1759 -0.1363  0.0515
20300ERGO    C132060  14.424   9.258   8.516  0.1506 -0.2042  0.0856
20300ERGO    C232061  14.301   9.366   8.291  0.0978  0.0028 -0.0370
20301ERGO   ROH32062  15.031   4.970  10.279  0.0600  0.0927  0.0812
20301ERGO    R132063  15.120   5.110  10.049 -0.0225  0.1734  0.0975
20301ERGO    R232064  15.058   5.029   9.792  0.2500  0.0054  0.0795
20301ERGO    R332065  14.966   5.284   9.769 -0.1365 -0.1376 -0.0371
20301ERGO    R432066  15.056   5.213   9.500  0.3612  0.0089  0.0804
20301ERGO    R532067  15.116   5.388   9.615 -0.0820  0.1107  0.1764
20301ERGO    C132068  14.968   5.559   9.308  0.0631 -0.1232 -0.0284
20301ERGO    C232069  15.139   5.738   9.052  0.1904  0.2943 -0.2132
20302ERGO   ROH32070  11.741   5.087  10.520 -0.1682 -0.3084  0.1767
20302ERGO    R132071  11.859   5.177  10.278  0.0327 -0.4247  0.2287
20302ERGO    R232072  11.916   5.006  10.068 -0.2709 -0.4500  0.1590
20302ERGO    R332073  11.767   5.184   9.926  0.0769 -0.0946  0.2219
20302ERGO    R432074  11.883   5.006   9.724 -0.4079 -0.3619  0.1711
20302ERGO    R532075  11.895   5.224   9.728  0.0957 -0.3814  0.1755
20302ERGO    C132076  11.725   5.173   9.390 -0.1611  0.0231  0.2373
20302ERGO    C232077  11.742   5.186   9.078  0.0221  0.1234 -0.1248
20303ERGO   ROH32078  13.933  13.564   9.917  0.2586 -0.0557  0.0565
20303ERGO    R132079  13.745  13.617   9.712  0.2120 -0.0162  0.1085
20303ERGO    R232080  13.714  13.868   9.600  0.2001  0.0030  0.1491
20303ERGO    R332081  13.757  13.734   9.367  0.1378  0.0301  0.1224
20303ERGO    R432082  13.638  13.989   9.285  0.2324  0.0855  0.1729
20303ERGO    R532083  13.568  13.790   9.231  0.1553  0.1245  0.1401
20303ERGO    C132084  13.633  13.934   8.884  0.1928  0.1591  0.1617
20303ERGO    C232085  13.460  14.035   8.650 -0.0599 -0.1214  0.1944
20304ERGO   ROH32086  11.826  13.445  10.309  0.0728 -0.1369  0.2132
20304ERGO    R132087  11.948  13.266  10.127  0.1788  0.0008  0.1462
20304ERGO    R232088  11.831  13.028  10.050  0.3238 -0.0510  0.0684
20304ERGO    R332089  11.869  13.127   9.800  0.2515  0.0634  0.1025
20304ERGO    R432090  11.882  12.836   9.767  0.1051  0.0787 -0.0613
20304ERGO    R532091  12.031  12.980   9.702  0.1381  0.0432 -0.0532
20304ERGO    C132092  11.947  12.817   9.368 -0.0902  0.2615 -0.1048
20304ERGO    C232093  11.745  12.689   9.025 -0.1323 -0.0658  0.1846
20305ERGO   ROH32094  11.407  16.937  10.266  0.0641 -0.2044 -0.0847
20305ERGO    R132095  11.291  16.885  10.013  0.0570 -0.1219 -0.0989
20305ERGO    R232096  11.170  17.082   9.862  0.1510 -0.0491 -0.0823
20305ERGO    R332097  11.343  16.997   9.671  0.1270 -0.0997 -0.0811
20305ERGO    R432098  11.087  17.028   9.531  0.1065 -0.1545 -0.0540
20305ERGO    R532099  11.213  16.849   9.534  0.1143 -0.1474 -0.0174
20305ERGO    C132100  11.202  16.916   9.158  0.0580 -0.2635 -0.0364
20305ERGO    C232101  11.104  17.006   8.937 -0.0890 -0.0064  0.4503
20306ERGO   ROH32102  11.756   7.136  10.992 -0.0037  0.1014 -0.1067
20306ERGO    R132103  11.596   7.313  10.839 -0.0705  0.0979 -0.0422
20306ERGO    R232104  11.594   7.309  10.563 -0.0397  0.2231 -0.0457
20306ERGO    R332105  11.326   7.283  10.597 -0.0313  0.0807 -0.0836
20306ERGO    R432106  11.357   7.371  10.319 -0.0407  0.0876 -0.0798
20306ERGO    R532107  11.232   7.464  10.472 -0.1118  0.0253 -0.1019
20306ERGO    C132108  10.966   7.382  10.210 -0.0334 -0.1250 -0.1354
20306ERGO    C232109  10.728   7.364   9.943 -0.0890  0.0234 -0.2710
20307ERGO   ROH32110  17.624   7.783  10.005  0.1025 -0.1712 -0.2580
20307ERGO    R132111  17.660   7.951   9.780  0.0605 -0.0952 -0.2085
20307ERGO    R232112  17.909   7.996   9.667  0.0562  0.0398 -0.1653
20307ERGO    R332113  17.784   7.913   9.440  0.1195  0.0476 -0.2037
20307ERGO    R432114  18.046   8.008   9.350  0.1630  0.0072 -0.1210
20307ERGO    R532115  17.852   8.071   9.273  0.1969  0.0311 -0.1882
20307ERGO    C132116  18.008   7.937   8.952  0.2846 -0.0045 -0.1312
20307ERGO    C232117  18.059   7.594   8.783 -0.0059  0.1243  0.0980
20308ERGO   ROH32118  16.005   0.637   9.860  0.3115  0.0006 -0.0557
20308ERGO    R132119  15.799   0.643   9.666  0.2461  0.0149  0.0147
20308ERGO    R232120  15.711   0.878   9.549  0.2529  0.0161  0.0153
20308ERGO    R332121  15.767   0.746   9.318  0.1468 -0.0257  0.0118
20308ERGO    R432122  15.555   0.935   9.246  0.1837  0.0311  0.0522
20308ERGO    R532123  15.554   0.720   9.211  0.1079  0.0271  0.0747
20308ERGO    C132124  15.517   0.845   8.853  0.0438  0.0006  0.0706
20308ERGO    C232125  15.332   0.945   8.648 -0.4191 -0.0806 -0.1778
20309ERGO   ROH32126  14.517   8.686   9.707  0.0477  0.2016 -0.0047
20309ERGO    R132127  14.481   8.802   9.451  0.4196 -0.0902 -0.1959
20309ERGO    R232128  14.569   8.679   9.219 -0.0934 -0.8440 -0.0205
20309ERGO    R332129  14.310   8.714   9.142 -0.0191  0.0122  0.0083
20309ERGO    R432130  14.462   8.703   8.891 -0.0893 -1.0947 -0.0437
20309ERGO    R532131  14.323   8.860   8.953  0.5140 -0.3954 -0.3033
20309ERGO    C132132  14.157   8.749   8.628 -0.0172 -0.4369 -0.0300
20309ERGO    C232133  14.109   8.877   8.312 -0.1406  0.0667  0.1749
20310ERGO   ROH32134  13.725  17.370   9.894 -0.0164 -0.1498 -0.0480
20310ERGO    R132135  13.791  17.486   9.644 -0.0721 -0.0884 -0.0354
20310ERGO    R232136  13.856  17.335   9.422  0.1014 -0.0322 -0.0288
20310ERGO    R332137  13.658  17.480   9.306 -0.0075 -0.2040 -0.0579
20310ERGO    R432138  13.839  17.411   9.086  0.2447  0.2124  0.0172
20310ERGO    R532139  13.770  17.611   9.139 -0.0605  0.0786  0.1263
20310ERGO    C132140  13.643  17.591   8.780  0.2259  0.1936  0.0167
20310ERGO    C232141  13.400  17.533   8.603  0.1540 -0.1087  0.1583
20311ERGO   ROH32142  15.477   4.945  10.348  0.1262  0.1444  0.1563
20311ERGO    R132143  15.528   5.163  10.176  0.1555  0.0319  0.0210
20311ERGO    R232144  15.683   5.140   9.948  0.0343 -0.1629 -0.0450
20311ERGO    R332145  15.463   5.245   9.827  0.0280 -0.1120  0.0103
20311ERGO    R432146  15.654   5.200   9.609 -0.0910 -0.2824 -0.0562
20311ERGO    R532147  15.552   5.387   9.655  0.0143 -0.2193 -0.0846
20311ERGO    C132148  15.431   5.333   9.298 -0.1699 -0.3043 -0.0108
20311ERGO    C232149  15.502   5.355   8.989 -0.2033 -0.1837 -0.0701
20312ERGO   ROH32150  12.074  11.819  10.518 -0.1008  0.1614 -0.1209
20312ERGO    R132151  11.916  11.751  10.293 -0.0458  0.0977 -0.1412
20312ERGO    R232152  11.757  11.935  10.161 -0.0840  0.0429 -0.1782
20312ERGO    R332153  11.897  11.850   9.943 -0.0207  0.0709 -0.1500
20312ERGO    R432154  11.629  11.910   9.841 -0.0194 -0.0151 -0.1996
20312ERGO    R532155  11.738  11.723   9.817  0.0401  0.0161 -0.1700
20312ERGO    C132156  11.684  11.816   9.451  0.0777 -0.0226 -0.1854
20312ERGO    C232157  11.701  11.753   9.120 -0.0261 -0.0897 -0.1483
20313ERGO   ROH32158  13.780   0.956  10.006 -0.0242  0.1934  0.0354
20313ERGO    R132159  13.790   0.876   9.735 -0.0938  0.0713  0.0681
20313ERGO    R232160  14.017   0.767   9.620 -0.0665  0.1827  0.0139
20313ERGO    R332161  13.847   0.566   9.553  0.0474  0.0243  0.1906
20313ERGO    R432162  14.059   0.553   9.352 -0.0895  0.1480  0.0379
20313ERGO    R532163  13.845   0.566   9.314 -0.1297 -0.0378  0.1910
20313ERGO    C132164  13.924   0.240   9.132  0.0040 -0.0209  0.2178
20313ERGO    C232165  13.824   0.074   8.844 -0.2345  0.0855 -0.0291
20314ERGO   ROH32166  15.320   8.032   9.811 -0.0565  0.0124  0.1263
20314ERGO    R132167  15.427   7.999   9.551 -0.1336 -0.1025  0.1080
20314ERGO    R232168  15.281   7.890   9.343 -0.2791  0.0306  0.1359
20314ERGO    R332169  15.351   8.121   9.217 -0.0753 -0.0392  0.1185
20314ERGO    R432170  15.196   7.971   9.018  0.0221 -0.0277  0.0389
20314ERGO    R532171  15.396   8.054   8.991  0.0793 -0.1254  0.1749
20314ERGO    C132172  15.211   8.235   8.711  0.3888 -0.1271 -0.0340
20314ERGO    C232173  15.053   8.320   8.368 -0.2037 -0.2457  0.1812
20315ERGO   ROH32174  13.248  16.397  10.168 -0.0302  0.1389  0.0133
20315ERGO    R132175  13.056  16.374   9.961 -0.0417  0.2304  0.0139
20315ERGO    R232176  13.041  16.554   9.751  0.1772  0.1241 -0.0949
20315ERGO    R332177  13.061  16.329   9.599 -0.0647  0.0075  0.0397
20315ERGO    R432178  12.884  16.507   9.447  0.1087  0.1019 -0.0566
20315ERGO    R532179  12.842  16.301   9.506 -0.1023  0.1781  0.0721
20315ERGO    C132180  12.811  16.269   9.127 -0.1583 -0.0203  0.0921
20315ERGO    C232181  12.879  16.248   8.844 -0.0299 -0.1541 -0.1264
20316ERGO   ROH32182  14.305  12.375   9.664  0.0901  0.0074  0.0016
20316ERGO    R132183  14.178  12.293   9.425  0.1630 -0.0091 -0.0321
20316ERGO    R232184  14.311  12.153   9.226  0.1879 -0.1500  0.0800
20316ERGO    R332185  14.107  11.977   9.259  0.0779 -0.0303  0.0451
20316ERGO    R432186  14.195  11.937   8.983  0.0173  0.0036  0.0223
20316ERGO    R532187  13.992  11.978   9.049  0.0524  0.1125  0.0601
20316ERGO    C132188  13.937  11.645   8.872 -0.1854  0.2055 -0.0441
20316ERGO    C232189  13.957  11.335   8.681 -0.2469  0.0586  0.0473
20317ERGO   ROH32190  12.824   5.472  10.390  0.1731 -0.0934  0.0113
20317ERGO    R132191  12.659   5.484  10.159  0.0506 -0.0160  0.1027
20317ERGO    R232192  12.598   5.721  10.032  0.2001 -0.0033  0.0645
20317ERGO    R332193  12.696   5.592   9.814 -0.0498 -0.1640  0.0432
20317ERGO    R432194  12.495   5.776   9.707  0.2550  0.2185  0.0819
20317ERGO    R532195  12.505   5.561   9.672 -0.1321  0.1904  0.0611
20317ERGO    C132196  12.526   5.686   9.313  0.0523  0.1968  0.0722
20317ERGO    C232197  12.455   5.759   9.045  0.2027  0.1698 -0.1878
20318ERGO   ROH32198  17.080   0.681   9.931  0.1582  0.1327 -0.0599
20318ERGO    R132199  17.147   0.580   9.675  0.0747  0.1919 -0.1058
20318ERGO    R232200  16.956   0.512   9.487  0.0081  0.1061 -0.0099
20318ERGO    R332201  17.097   0.682   9.329 -0.1676  0.1979 -0.0704
20318ERGO    R432202  16.908   0.552   9.147 -0.0669 -0.0261 -0.0154
20318ERGO    R532203  17.124   0.564   9.123 -0.0799  0.1693 -0.0420
20318ERGO    C132204  17.013   0.736   8.801 -0.2757 -0.0170 -0.0754
20318ERGO    C232205  17.072   0.728   8.526  0.1243  0.0489  0.2547
20319ERGO   ROH32206  17.070  14.583  10.092  0.0013  0.1421  0.1006
20319ERGO    R132207  17.131  14.673   9.831 -0.1217  0.1335  0.0687
20319ERGO    R232208  17.219  14.504   9.631  0.1546  0.1860  0.1452
20319ERGO    R332209  17.010  14.610   9.493 -0.0044 -0.1913  0.0830
20319ERGO    R432210  17.200  14.523   9.287  0.3093  0.2958  0.1416
20319ERGO    R532211  17.112  14.722   9.308 -0.1298  0.1137  0.1886
20319ERGO    C132212  16.992  14.634   8.957  0.2498  0.0056  0.0811
20319ERGO    C232213  17.005  14.671   8.580 -0.0870  0.3239 -0.1642
20320ERGO   ROH32214  12.235  17.627   9.963 -0.0319 -0.0663 -0.0596
20320ERGO    R132215  12.080  17.623   9.727  0.0190  0.1268 -0.0987
20320ERGO    R232216  12.139  17.779   9.507  0.2432  0.0891 -0.0720
20320ERGO    R332217  12.134  17.540   9.376  0.0186  0.1036 -0.0917
20320ERGO    R432218  12.098  17.742   9.166  0.2829  0.1478 -0.0833
20320ERGO    R532219  11.969  17.571   9.205  0.0930  0.2858 -0.1276
20320ERGO    C132220  12.068  17.496   8.845  0.0950  0.1956 -0.1083
20320ERGO    C232221  12.165  17.687   8.633  0.0338 -0.1211  0.0227
20321ERGO   ROH32222  16.769  11.186   9.824  0.2093 -0.3344 -0.1330
20321ERGO    R132223  16.821  11.324   9.582  0.0741 -0.0985 -0.0312
20321ERGO    R232224  17.007  11.236   9.397  0.0701  0.1548 -0.1598
20321ERGO    R332225  16.796  11.253   9.226  0.0160  0.1948 -0.0894
20321ERGO    R432226  17.031  11.229   9.052 -0.0321  0.2284 -0.1683
20321ERGO    R532227  16.878  11.384   9.043 -0.0354  0.2347 -0.0864
20321ERGO    C132228  16.847  11.240   8.691 -0.1424  0.3089 -0.1071
20321ERGO    C232229  17.027  11.106   8.358  0.0498  0.2615  0.0594
20322ERGO   ROH32230  12.788  12.245  10.039 -0.1128  0.0615 -0.0927
20322ERGO    R132231  12.786  12.112   9.788 -0.0328 -0.0007 -0.0610
20322ERGO    R232232  12.580  12.141   9.606 -0.0084 -0.1004 -0.1056
20322ERGO    R332233  12.781  12.210   9.438  0.0035 -0.0877 -0.0860
20322ERGO    R432234  12.572  12.105   9.263 -0.0659  0.1161 -0.1285
20322ERGO    R532235  12.779  12.040   9.270 -0.0942  0.0165 -0.1920
20322ERGO    C132236  12.756  12.148   8.905 -0.0884  0.2539 -0.1234
20322ERGO    C232237  12.831  12.099   8.469  0.2350  0.0483  0.2367
20323ERGO   ROH32238  12.737  15.492   9.979 -0.0813  0.0412 -0.2099
20323ERGO    R132239  12.660  15.375   9.733 -0.0440  0.0817 -0.2423
20323ERGO    R232240  12.516  15.513   9.541  0.0035  0.1234 -0.2562
20323ERGO    R332241  12.722  15.438   9.380  0.0325  0.1282 -0.2194
20323ERGO    R432242  12.500  15.492   9.197  0.0456  0.0322 -0.2517
20323ERGO    R532243  12.618  15.310   9.207  0.0817  0.0647 -0.1965
20323ERGO    C132244  12.685  15.410   8.845  0.0974 -0.0163 -0.2146
20323ERGO    C232245  12.651  15.367   8.532  0.3166 -0.1454 -0.0615
20324ERGO   ROH32246   0.046   6.950  10.219  0.2668  0.0576 -0.0328
20324ERGO    R132247   0.088   7.019   9.948  0.2514  0.0193 -0.0439
20324ERGO    R232248   0.313   6.943   9.808  0.2116 -0.0537 -0.0617
20324ERGO    R332249   0.131   6.841   9.633  0.1650 -0.0223 -0.0334
20324ERGO    R432250   0.360   6.917   9.466  0.1998 -0.1644 -0.0565
20324ERGO    R532251   0.152   6.979   9.438  0.2237 -0.0813 -0.0710
20324ERGO    C132252   0.216   6.807   9.104  0.1492 -0.1995 -0.0269
20324ERGO    C232253   0.381   6.590   8.859  0.1791 -0.0498 -0.1288
20325ERGO   ROH32254  12.488   7.319  10.297  0.1689 -0.0189 -0.1226
20325ERGO    R132255  12.317   7.341  10.073  0.1431 -0.0182 -0.1014
20325ERGO    R232256  12.410   7.389   9.818  0.1333 -0.2664 -0.1485
20325ERGO    R332257  12.268   7.165   9.758 -0.0748 -0.1842  0.0204
20325ERGO    R432258  12.226   7.344   9.529  0.0933 -0.3047 -0.1183
20325ERGO    R532259  12.071   7.248   9.649 -0.0013 -0.0757 -0.0405
20325ERGO    C132260  11.985   7.109   9.304 -0.1252 -0.2499  0.0579
20325ERGO    C232261  11.922   7.124   8.974 -0.0768 -0.1588 -0.0001
20326ERGO   ROH32262  13.555   1.592   9.997 -0.0233 -0.2282  0.0463
20326ERGO    R132263  13.587   1.773   9.781 -0.0670 -0.3271 -0.0444
20326ERGO    R232264  13.732   2.007   9.804 -0.3784 -0.1251 -0.0684
20326ERGO    R332265  13.865   1.907   9.589 -0.0659 -0.1047  0.1088
20326ERGO    R432266  13.945   2.190   9.602 -0.4957  0.0323 -0.0510
20326ERGO    R532267  13.861   2.086   9.429 -0.2146 -0.2342 -0.0364
20326ERGO    C132268  14.193   2.203   9.282 -0.2708  0.1432  0.1256
20326ERGO    C232269  14.522   2.444   9.273  0.1441 -0.3113  0.0086
20327ERGO   ROH32270  13.190   4.525  10.304  0.0737  0.0254 -0.0189
20327ERGO    R132271  12.999   4.458  10.106  0.0402  0.0069  0.0182
20327ERGO    R232272  12.963   4.608   9.877 -0.0770  0.0514  0.0595
20327ERGO    R332273  13.005   4.369   9.753 -0.0255  0.0937 -0.0034
20327ERGO    R432274  12.890   4.541   9.546 -0.1121  0.0968  0.0587
20327ERGO    R532275  12.818   4.344   9.606 -0.0387  0.0651  0.0246
20327ERGO    C132276  12.887   4.278   9.237 -0.0843  0.1629 -0.0010
20327ERGO    C232277  12.863   4.212   8.922 -0.0387  0.0377  0.1367
20328ERGO   ROH32278  15.371  14.778  10.031  0.0095  0.0251  0.1016
20328ERGO    R132279  15.499  14.789   9.779 -0.1032 -0.0630  0.0406
20328ERGO    R232280  15.553  14.563   9.630 -0.2184 -0.1051  0.0757
20328ERGO    R332281  15.418  14.698   9.437 -0.2732 -0.1297  0.0951
20328ERGO    R432282  15.629  14.553   9.293 -0.1975 -0.0340  0.0775
20328ERGO    R532283  15.588  14.767   9.283 -0.2867 -0.0391  0.1095
20328ERGO    C132284  15.546  14.674   8.915 -0.2368 -0.0157  0.0966
20328ERGO    C232285  15.548  14.666   8.590  0.0412 -0.1606 -0.0677
20329ERGO   ROH32286  11.745   1.896  10.347  0.1155  0.0173  0.0749
20329ERGO    R132287  11.636   1.913  10.086  0.0641 -0.0161  0.0937
20329ERGO    R232288  11.746   2.071   9.888 -0.0597  0.0764  0.0929
20329ERGO    R332289  11.747   1.838   9.747  0.0582  0.0909  0.0693
20329ERGO    R432290  11.726   2.049   9.544  0.1338  0.0963  0.0793
20329ERGO    R532291  11.594   1.877   9.568  0.1534  0.0748 -0.0114
20329ERGO    C132292  11.716   1.818   9.211  0.3572  0.1215  0.0494
20329ERGO    C232293  11.809   2.006   8.943  0.1055 -0.2919 -0.0813
20330ERGO   ROH32294  16.550   3.936  10.161 -0.1039 -0.0598  0.0553
20330ERGO    R132295  16.687   4.050   9.941 -0.0839 -0.0108  0.0926
20330ERGO    R232296  16.848   3.901   9.772  0.0041  0.0433  0.1266
20330ERGO    R332297  16.688   4.007   9.580  0.0182  0.0004  0.0914
20330ERGO    R432298  16.933   3.930   9.438  0.0213 -0.0468  0.1230
20330ERGO    R532299  16.838   4.126   9.436  0.0301 -0.0434  0.0676
20330ERGO    C132300  16.832   4.047   9.063  0.0446 -0.1395  0.0878
20330ERGO    C232301  17.003   3.856   8.824  0.1239  0.0196 -0.0579
20331ERGO   ROH32302  13.465   9.647  10.031  0.1365 -0.2314  0.0291
20331ERGO    R132303  13.336   9.518   9.814  0.0181 -0.1019  0.0217
20331ERGO    R232304  13.138   9.640   9.665  0.0600  0.0512  0.0937
20331ERGO    R332305  13.300   9.576   9.457 -0.0209  0.0084  0.0425
20331ERGO    R432306  13.052   9.668   9.331  0.0745  0.3943  0.1146
20331ERGO    R532307  13.154   9.479   9.294 -0.1468  0.2955 -0.0244
20331ERGO    C132308  13.154   9.624   8.942  0.0070  0.5541  0.0788
20331ERGO    C232309  13.262   9.531   8.652 -0.0810 -0.0868 -0.4772
20332ERGO   ROH32310  11.729   0.882  10.037 -0.0928  0.2014 -0.0044
20332ERGO    R132311  11.693   0.896   9.757  0.0052  0.1890 -0.0174
20332ERGO    R232312  11.901   0.942   9.582  0.1209 -0.1368  0.0323
20332ERGO    R332313  11.812   0.713   9.465 -0.1613 -0.0435  0.0551
20332ERGO    R432314  11.892   0.885   9.241  0.5625 -0.3415  0.0467
20332ERGO    R532315  11.699   0.787   9.268  0.3029  0.0673 -0.1899
20332ERGO    C132316  11.802   0.636   8.934  0.5547 -0.3732  0.0767
20332ERGO    C232317  11.587   0.577   8.679 -0.0822 -0.3266  0.1013
20333ERGO   ROH32318  14.710   1.683   9.998 -0.0496 -0.2737  0.0314
20333ERGO    R132319  14.554   1.602   9.776 -0.0046 -0.1387 -0.0507
20333ERGO    R232320  14.365   1.766   9.659 -0.0384 -0.0966  0.0653
20333ERGO    R332321  14.505   1.711   9.433 -0.0021  0.1268  0.0307
20333ERGO    R432322  14.228   1.748   9.342 -0.0640 -0.1729  0.0802
20333ERGO    R532323  14.356   1.576   9.303  0.1355 -0.0159  0.0169
20333ERGO    C132324  14.280   1.685   8.945 -0.0446 -0.0075  0.0564
20333ERGO    C232325  14.321   1.840   8.692  0.0143 -0.1266  0.1471
20334ERGO   ROH32326  10.623   6.206  11.023  0.1417  0.0606  0.0432
20334ERGO    R132327  10.744   6.174  10.769  0.0622  0.2754 -0.0237
20334ERGO    R232328  10.697   5.954  10.608  0.4598  0.1188  0.0608
20334ERGO    R332329  10.630   6.143  10.424 -0.0894 -0.0642  0.0525
20334ERGO    R432330  10.690   5.903  10.266  0.5933  0.0800  0.0636
20334ERGO    R532331  10.778   6.101  10.240  0.0355  0.3438  0.0504
20334ERGO    C132332  10.624   6.051   9.894  0.1554 -0.1144  0.0574
20334ERGO    C232333  10.566   6.049   9.544  0.0498  0.0430  0.1425
20335ERGO   ROH32334  17.127   6.578  10.235  0.0797  0.2628  0.1222
20335ERGO    R132335  17.192   6.654   9.971  0.0635  0.0246  0.0480
20335ERGO    R232336  17.352   6.499   9.806 -0.1513 -0.2470  0.0889
20335ERGO    R332337  17.140   6.519   9.637 -0.1937 -0.1427  0.1527
20335ERGO    R432338  17.373   6.485   9.462 -0.2442 -0.0693  0.0744
20335ERGO    R532339  17.225   6.644   9.451 -0.2344 -0.0527  0.1952
20335ERGO    C132340  17.186   6.496   9.102 -0.3383  0.1322  0.1258
20335ERGO    C232341  17.030   6.552   8.822 -0.2142  0.3079  0.1707
20336ERGO   ROH32342  16.591  14.287   9.580 -0.0615 -0.1925 -0.0747
20336ERGO    R132343  16.641  14.360   9.312  0.0257 -0.3031 -0.0894
20336ERGO    R232344  16.664  14.174   9.108 -0.3445 -0.3679 -0.0801
20336ERGO    R332345  16.471  14.326   8.992 -0.0984 -0.0232 -0.0558
20336ERGO    R432346  16.631  14.225   8.768 -0.1419 -0.0751 -0.0602
20336ERGO    R532347  16.582  14.433   8.809  0.1197 -0.0357  0.0666
20336ERGO    C132348  16.430  14.397   8.461  0.2075  0.4189 -0.0259
20336ERGO    C232349  16.441  14.205   8.163 -0.1799  0.3289 -0.4283
20337ERGO   ROH32350  16.675  13.020   9.909 -0.1224 -0.0642 -0.1337
20337ERGO    R132351  16.842  13.131   9.710 -0.1195 -0.0712 -0.1352
20337ERGO    R232352  16.958  12.979   9.510 -0.2056 -0.0610 -0.1931
20337ERGO    R332353  16.838  13.161   9.347 -0.1727  0.0199 -0.1277
20337ERGO    R432354  17.039  13.030   9.178 -0.1924  0.0455 -0.1739
20337ERGO    R532355  17.016  13.245   9.210 -0.1555  0.0389 -0.0951
20337ERGO    C132356  16.974  13.231   8.831 -0.1537  0.1835 -0.1012
20337ERGO    C232357  16.964  13.379   8.498  0.0822 -0.1163  0.0711
20338ERGO   ROH32358  13.922   3.465   9.983  0.1355 -0.1171 -0.0607
20338ERGO    R132359  13.804   3.592   9.759  0.0230 -0.1270 -0.0069
20338ERGO    R232360  13.876   3.532   9.499  0.0131 -0.0166 -0.0331
20338ERGO    R332361  13.609   3.488   9.469  0.0322 -0.1632 -0.0010
20338ERGO    R432362  13.717   3.484   9.196 -0.0390  0.2149 -0.0447
20338ERGO    R532363  13.552   3.607   9.269 -0.1041  0.0262  0.1442
20338ERGO    C132364  13.374   3.415   8.992 -0.0514  0.2121 -0.0214
20338ERGO    C232365  13.457   3.209   8.655 -0.2372  0.0663  0.0723
20339ERGO   ROH32366  11.650   2.555  10.031 -0.0929  0.0871 -0.0079
20339ERGO    R132367  11.706   2.634   9.765 -0.0028  0.0126 -0.0117
20339ERGO    R232368  11.809   2.459   9.577  0.0185 -0.0524  0.0591
20339ERGO    R332369  11.593   2.539   9.432  0.0736 -0.0465 -0.0209
20339ERGO    R432370  11.762   2.398   9.240  0.1554 -0.0213  0.0340
20339ERGO    R532371  11.682   2.599   9.219  0.1567 -0.0229  0.0208
20339ERGO    C132372  11.532   2.437   8.908  0.2868  0.0023 -0.0557
20339ERGO    C232373  11.435   2.310   8.673 -0.0682  0.1061  0.1218
20340ERGO   ROH32374  15.731   3.724   9.900  0.3168  0.1117  0.0551
20340ERGO    R132375  15.664   3.842   9.652  0.1778  0.0731  0.0721
20340ERGO    R232376  15.855   3.932   9.473  0.0783  0.1469 -0.0034
20340ERGO    R332377  15.722   3.770   9.300  0.0840  0.0810  0.0552
20340ERGO    R432378  15.880   3.948   9.129  0.0939  0.0101 -0.0082
20340ERGO    R532379  15.666   3.913   9.117  0.0952  0.0086 -0.0037
20340ERGO    C132380  15.770   3.806   8.766  0.1083 -0.1314  0.0440
20340ERGO    C232381  16.010   3.742   8.564  0.1987  0.0759  0.1343
20341ERGO   ROH32382  12.665  17.499   9.792  0.0938 -0.1029  0.1317
20341ERGO    R132383  12.538  17.461   9.542  0.0898 -0.1255  0.1389
20341ERGO    R232384  12.594  17.617   9.321  0.0031 -0.0750  0.1601
20341ERGO    R332385  12.641  17.377   9.203  0.0946 -0.0382  0.1166
20341ERGO    R432386  12.560  17.555   8.983  0.1544  0.0137  0.1259
20341ERGO    R532387  12.472  17.361   9.033  0.1633 -0.0193  0.0397
20341ERGO    C132388  12.583  17.293   8.675  0.3285  0.0998  0.0652
20341ERGO    C232389  12.519  17.417   8.350 -0.1227  0.0596  0.4945
20342ERGO   ROH32390  14.130  12.902   9.464 -0.1074 -0.0659  0.1233
20342ERGO    R132391  14.111  12.867   9.184 -0.0118 -0.0192  0.1100
20342ERGO    R232392  13.889  12.944   9.039 -0.0821 -0.2502  0.0864
20342ERGO    R332393  14.071  13.082   8.893 -0.2165  0.0101  0.1593
20342ERGO    R432394  13.848  13.037   8.709 -0.0754 -0.3147  0.0678
20342ERGO    R532395  14.057  12.987   8.674  0.0130 -0.0161  0.1556
20342ERGO    C132396  13.996  13.221   8.379 -0.1977 -0.1080  0.1252
20342ERGO    C232397  13.906  13.338   8.164  0.1457  0.0586 -0.2012
20343ERGO   ROH32398  17.506  11.878   9.943  0.2787  0.0301 -0.0392
20343ERGO    R132399  17.671  11.947   9.724  0.1977 -0.0592 -0.1298
20343ERGO    R232400  17.811  11.759   9.578  0.0145 -0.1353 -0.2093
20343ERGO    R332401  17.683  11.874   9.367 -0.0379 -0.0630 -0.1382
20343ERGO    R432402  17.884  11.699   9.245  0.0462  0.1040 -0.2467
20343ERGO    R532403  17.855  11.912   9.206 -0.0523  0.1173 -0.1143
20343ERGO    C132404  17.806  11.773   8.854  0.0155  0.3112 -0.2017
20343ERGO    C232405  17.857  11.620   8.672  0.1111 -0.0651 -0.0897
20344ERGO   ROH32406  13.175   2.915  10.151 -0.1630  0.0997 -0.0455
20344ERGO    R132407  13.208   2.833   9.882 -0.0398  0.0599 -0.0178
20344ERGO    R232408  13.071   2.618   9.774 -0.0268  0.0789 -0.0597
20344ERGO    R332409  12.996   2.801   9.588  0.1083  0.0678 -0.1283
20344ERGO    R432410  12.993   2.545   9.446 -0.3302 -0.0336  0.0335
20344ERGO    R532411  13.099   2.725   9.385 -0.1139 -0.2091 -0.1480
20344ERGO    C132412  12.876   2.674   9.079 -0.3799 -0.1096  0.0234
20344ERGO    C232413  12.694   2.730   8.799  0.0627  0.0325 -0.0001
20345ERGO   ROH32414  15.329   7.575   9.821 -0.2479 -0.2634  0.0803
20345ERGO    R132415  15.318   7.509   9.546 -0.1688 -0.1522  0.0510
20345ERGO    R232416  15.200   7.278   9.453 -0.0739 -0.1511 -0.0690
20345ERGO    R332417  15.058   7.451   9.298 -0.0977 -0.1329 -0.0286
20345ERGO    R432418  15.077   7.205   9.138 -0.2941 -0.1802  0.0209
20345ERGO    R532419  15.134   7.406   9.075 -0.2499 -0.2193 -0.0645
20345ERGO    C132420  14.873   7.325   8.809 -0.4447 -0.1800  0.1111
20345ERGO    C232421  14.656   7.381   8.597  0.2235 -0.1189  0.0033
20346ERGO   ROH32422  17.259  11.511   9.869 -0.1273 -0.0798 -0.0426
20346ERGO    R132423  17.374  11.628   9.638 -0.2006  0.0258 -0.0257
20346ERGO    R232424  17.475  11.477   9.430 -0.0173  0.1165  0.0004
20346ERGO    R332425  17.306  11.630   9.281 -0.1399 -0.0517 -0.0392
20346ERGO    R432426  17.431  11.448   9.088 -0.0991 -0.1048  0.0274
20346ERGO    R532427  17.424  11.665   9.075 -0.2126 -0.1101 -0.0950
20346ERGO    C132428  17.248  11.574   8.749 -0.2617 -0.3915  0.0060
20346ERGO    C232429  17.071  11.633   8.465  0.0254 -0.1931  0.0226
20347ERGO   ROH32430  17.117   5.557  10.060  0.0262  0.0650 -0.2581
20347ERGO    R132431  17.275   5.416   9.872 -0.0194 -0.0004 -0.2489
20347ERGO    R232432  17.202   5.389   9.606 -0.0041  0.0467 -0.2604
20347ERGO    R332433  17.449   5.494   9.562  0.0493 -0.0653 -0.2263
20347ERGO    R432434  17.348   5.430   9.295 -0.0914  0.3147 -0.2682
20347ERGO    R532435  17.537   5.365   9.380 -0.1024  0.0875 -0.4109
20347ERGO    C132436  17.664   5.551   9.073 -0.0920  0.3656 -0.2408
20347ERGO    C232437  17.876   5.746   8.829  0.1330 -0.2452  0.1405
20348ERGO   ROH32438  14.349  10.180   9.645 -0.2501  0.4680  0.1814
20348ERGO    R132439  14.278  10.113   9.379 -0.1409  0.1716  0.2211
20348ERGO    R232440  14.015  10.085   9.297 -0.1134  0.0838  0.1399
20348ERGO    R332441  14.087  10.268   9.109 -0.0293 -0.1218 -0.0290
20348ERGO    R432442  13.909  10.083   8.969 -0.1291 -0.1464  0.1462
20348ERGO    R532443  14.110  10.140   8.908 -0.1081 -0.3071  0.0826
20348ERGO    C132444  13.915  10.253   8.601 -0.0592 -0.4737 -0.0087
20348ERGO    C232445  13.703  10.199   8.445  0.1352  0.2382  0.0932
20349ERGO   ROH32446  14.973   3.103   9.583 -0.0357 -0.0771  0.0076
20349ERGO    R132447  15.116   3.109   9.339  0.2496 -0.3076  0.1633
20349ERGO    R232448  15.230   2.884   9.228 -0.2913 -0.5718  0.1267
20349ERGO    R332449  15.084   2.957   9.010  0.1422  0.0275  0.0122
20349ERGO    R432450  15.268   2.750   8.911 -0.5453 -0.7166  0.1539
20349ERGO    R532451  15.242   2.951   8.829  0.2946 -0.5686  0.1375
20349ERGO    C132452  15.154   2.741   8.522 -0.2863 -0.2383  0.0622
20349ERGO    C232453  15.062   2.423   8.320  0.0083 -0.0007 -0.1339
20350ERGO   ROH32454  16.283   6.369  10.343  0.4006 -0.1166  0.0540
20350ERGO    R132455  16.281   6.214  10.106  0.1917 -0.0695  0.0232
20350ERGO    R232456  16.050   6.154   9.969  0.0896  0.0877  0.1325
20350ERGO    R332457  16.184   6.262   9.759  0.0389  0.0497  0.0795
20350ERGO    R432458  16.037   6.034   9.645  0.1118 -0.0650  0.1874
20350ERGO    R532459  16.252   6.072   9.629  0.1026  0.0109  0.1606
20350ERGO    C132460  16.156   6.065   9.259  0.0767 -0.1895  0.1698
20350ERGO    C232461  16.158   5.839   8.915  0.0670  0.0852 -0.1595
20351ERGO   ROH32462  12.754  13.927  10.044 -0.0036 -0.1932  0.0721
20351ERGO    R132463  12.688  13.745   9.837 -0.0476 -0.0477 -0.0433
20351ERGO    R232464  12.529  13.815   9.622 -0.0370  0.1238  0.0038
20351ERGO    R332465  12.740  13.725   9.477 -0.0601  0.1702 -0.0591
20351ERGO    R432466  12.509  13.703   9.296 -0.1052  0.1444  0.0006
20351ERGO    R532467  12.650  13.543   9.348 -0.0640  0.1642 -0.0482
20351ERGO    C132468  12.696  13.552   8.970 -0.1667  0.1999 -0.0604
20351ERGO    C232469  12.620  13.353   8.680  0.2926  0.1906  0.0452
20352ERGO   ROH32470  14.077  13.454   9.507 -0.1099  0.5459  0.2015
20352ERGO    R132471  14.094  13.381   9.234 -0.0746  0.2744  0.2733
20352ERGO    R232472  13.929  13.489   9.040 -0.0627  0.0706  0.1442
20352ERGO    R332473  14.165  13.549   8.919 -0.0535 -0.0315  0.1111
20352ERGO    R432474  13.966  13.563   8.705 -0.0783  0.0806  0.1449
20352ERGO    R532475  14.149  13.446   8.704 -0.1352 -0.0056  0.1059
20352ERGO    C132476  14.208  13.663   8.396 -0.0786 -0.0095  0.1142
20352ERGO    C232477  14.397  13.851   8.285 -0.0001 -0.0279 -0.0263
20353ERGO   ROH32478  13.945  11.567   9.890 -0.0172 -0.0948 -0.0342
20353ERGO    R132479  13.749  11.644   9.701 -0.0494 -0.0654  0.0111
20353ERGO    R232480  13.721  11.905   9.614 -0.0956 -0.0433  0.0923
20353ERGO    R332481  13.746  11.791   9.368 -0.1079  0.0342  0.0548
20353ERGO    R432482  13.613  12.048   9.318  0.0867  0.1514  0.1171
20353ERGO    R532483  13.544  11.851   9.254 -0.0360  0.2230  0.0209
20353ERGO    C132484  13.573  12.024   8.915  0.1812  0.3376  0.0962
20353ERGO    C232485  13.563  12.098   8.635 -0.2397 -0.2243  0.1663
20354ERGO   ROH32486  13.280  12.442   9.926  0.3110  0.1746 -0.1285
20354ERGO    R132487  13.354  12.381   9.659  0.1876  0.1054 -0.1473
20354ERGO    R232488  13.211  12.203   9.503  0.1487  0.0206 -0.0157
20354ERGO    R332489  13.202  12.412   9.330  0.0093 -0.0387 -0.0815
20354ERGO    R432490  13.190  12.174   9.159  0.3115 -0.1112 -0.0156
20354ERGO    R532491  13.331  12.339   9.142  0.1582  0.0267 -0.0087
20354ERGO    C132492  13.169  12.353   8.797  0.2755 -0.2436 -0.0773
20354ERGO    C232493  13.081  12.486   8.611  0.3459  0.0886 -0.3222
20355ERGO   ROH32494  12.632  10.102  10.223  0.0927 -0.2454 -0.0370
20355ERGO    R132495  12.516   9.976   9.996  0.0961 -0.0355 -0.1586
20355ERGO    R232496  12.560  10.066   9.739  0.4350 -0.0372 -0.1121
20355ERGO    R332497  12.637   9.809   9.697  0.1088 -0.1421 -0.0926
20355ERGO    R432498  12.562   9.908   9.431  0.1359 -0.1094 -0.0792
20355ERGO    R532499  12.487   9.728   9.529 -0.0464  0.0024 -0.0201
20355ERGO    C132500  12.636   9.575   9.213 -0.3444 -0.2499 -0.0416
20355ERGO    C232501  12.486   9.554   8.859 -0.1492 -0.0936  0.1345
20356ERGO   ROH32502  12.480   1.584   9.840 -0.0481  0.1418  0.0920
20356ERGO    R132503  12.631   1.566   9.601 -0.0236  0.0946  0.1114
20356ERGO    R232504  12.524   1.471   9.364 -0.0178  0.1106  0.1037
20356ERGO    R332505  12.615   1.708   9.266  0.0524  0.0843  0.1031
20356ERGO    R432506  12.619   1.527   9.036  0.2727  0.0058  0.1662
20356ERGO    R532507  12.785   1.647   9.110  0.1993  0.0427  0.2749
20356ERGO    C132508  12.759   1.782   8.754  0.5077 -0.0801  0.2019
20356ERGO    C232509  12.717   1.848   8.493  0.0334 -0.0405 -0.2625
20357ERGO   ROH32510  14.911   6.802  10.211 -0.0497  0.1311 -0.0642
20357ERGO    R132511  14.773   6.795   9.964 -0.0565  0.1438 -0.0615
20357ERGO    R232512  14.828   6.970   9.757  0.0086  0.0911 -0.0943
20357ERGO    R332513  14.858   6.741   9.615 -0.0796  0.0534 -0.0518
20357ERGO    R432514  14.903   6.955   9.420  0.0964 -0.0101 -0.0703
20357ERGO    R532515  14.762   6.790   9.401  0.0121  0.0699 -0.0854
20357ERGO    C132516  14.974   6.731   9.090  0.0648 -0.1045 -0.0165
20357ERGO    C232517  15.076   6.843   8.801 -0.0771  0.0683  0.0174
20358ERGO   ROH32518  15.874  16.321   9.976  0.1194 -0.0454 -0.2060
20358ERGO    R132519  15.828  16.267   9.702  0.0767 -0.1325 -0.1814
20358ERGO    R232520  15.829  16.464   9.509 -0.1621 -0.1642 -0.2139
20358ERGO    R332521  16.013  16.303   9.390 -0.0576 -0.0213 -0.2503
20358ERGO    R432522  15.868  16.427   9.167 -0.0655  0.0261 -0.2258
20358ERGO    R532523  15.899  16.213   9.199  0.0258  0.0203 -0.3236
20358ERGO    C132524  16.063  16.253   8.857  0.0891  0.2711 -0.2671
20358ERGO    C232525  16.226  16.471   8.590 -0.0280  0.2821  0.0034
20359ERGO   ROH32526  14.271  16.450   9.736 -0.0179  0.1042 -0.0198
20359ERGO    R132527  14.116  16.289   9.561 -0.0904  0.1173  0.0319
20359ERGO    R232528  13.971  16.395   9.351 -0.0146  0.1128 -0.0230
20359ERGO    R332529  14.112  16.215   9.205 -0.0994 -0.0242  0.0608
20359ERGO    R432530  13.878  16.280   9.039  0.0205  0.1398 -0.0436
20359ERGO    R532531  13.944  16.081   9.098 -0.1648  0.0947  0.0131
20359ERGO    C132532  13.957  16.044   8.719 -0.0387  0.0266  0.0231
20359ERGO    C232533  14.064  16.038   8.430  0.5397  0.2078 -0.0388
20360ERGO   ROH32534  11.496  10.344  10.341  0.2377 -0.0699  0.2214
20360ERGO    R132535  11.555  10.129  10.166  0.3952  0.0667  0.1046
20360ERGO    R232536  11.373  10.034   9.981  0.3552 -0.1530  0.2547
20360ERGO    R332537  11.577  10.080   9.806  0.1237  0.2049  0.0663
20360ERGO    R432538  11.393   9.903   9.662  0.3182 -0.1713  0.2596
20360ERGO    R532539  11.606   9.871   9.693  0.4173  0.2339  0.0788
20360ERGO    C132540  11.595   9.870   9.312  0.0794  0.1539  0.0856
20360ERGO    C232541  11.553   9.864   9.032  0.1883 -0.0347 -0.0468
20361ERGO   ROH32542  11.791   5.789  10.411  0.0853  0.1987  0.0104
20361ERGO    R132543  11.699   5.620  10.203  0.1145  0.1237  0.0576
20361ERGO    R232544  11.473   5.677  10.055  0.0094 -0.0407  0.1492
20361ERGO    R332545  11.643   5.649   9.845 -0.0572  0.0694  0.0798
20361ERGO    R432546  11.375   5.636   9.726 -0.0919  0.0541  0.1671
20361ERGO    R532547  11.535   5.490   9.702 -0.0702  0.0976  0.0604
20361ERGO    C132548  11.478   5.586   9.337 -0.2135  0.2127  0.1124
20361ERGO    C232549  11.385   5.628   9.004  0.2819 -0.1735  0.0293
20362ERGO   ROH32550  14.715   3.869  10.077 -0.0006 -0.0039  0.1154
20362ERGO    R132551  14.769   4.011   9.838 -0.0192 -0.0113  0.1068
20362ERGO    R232552  14.803   3.884   9.594 -0.0441 -0.0182  0.1072
20362ERGO    R332553  14.608   4.055   9.515 -0.0474 -0.0158  0.1203
20362ERGO    R432554  14.733   3.966   9.266 -0.1410 -0.1070  0.1052
20362ERGO    R532555  14.703   4.172   9.329 -0.0927 -0.0839  0.0539
20362ERGO    C132556  14.509   4.174   9.000 -0.2006 -0.1564  0.1163
20362ERGO    C232557  14.129   4.228   8.913 -0.1204 -0.2497  0.0658
20363ERGO   ROH32558  13.947  15.930   9.756 -0.1877  0.1754 -0.2308
20363ERGO    R132559  13.885  15.725   9.571 -0.1093  0.0490 -0.1170
20363ERGO    R232560  13.640  15.706   9.447 -0.0670 -0.0609 -0.1730
20363ERGO    R332561  13.790  15.704   9.221 -0.0076 -0.1928 -0.1342
20363ERGO    R432562  13.528  15.600   9.137 -0.1628  0.2362 -0.2439
20363ERGO    R532563  13.722  15.505   9.106 -0.2899 -0.0508 -0.2332
20363ERGO    C132564  13.605  15.537   8.744 -0.1628  0.2852 -0.2487
20363ERGO    C232565  13.588  15.618   8.477  0.0109  0.1746  0.3287
20364ERGO   ROH32566  15.361   4.518  10.124  0.2997  0.0215 -0.1499
20364ERGO    R132567  15.280   4.667   9.898  0.1241  0.0693 -0.0586
20364ERGO    R232568  15.460   4.800   9.735  0.0035  0.0874 -0.1850
20364ERGO    R332569  15.339   4.655   9.539 -0.1682  0.1286 -0.1103
20364ERGO    R432570  15.442   4.893   9.403 -0.0471  0.0201 -0.2007
20364ERGO    R532571  15.237   4.820   9.398 -0.0998  0.1659 -0.1124
20364ERGO    C132572  15.319   4.812   9.025 -0.2378  0.0196 -0.1397
20364ERGO    C232573  15.378   4.951   8.772 -0.1957 -0.1205  0.1593
20365ERGO   ROH32574  16.314  17.264   9.906 -0.0638 -0.0221  0.0111
20365ERGO    R132575  16.506  17.427   9.777 -0.0401 -0.0456  0.0146
20365ERGO    R232576  16.692  17.327   9.598 -0.0328 -0.0733  0.0300
20365ERGO    R332577  16.589  17.518   9.435 -0.0114 -0.0757  0.0154
20365ERGO    R432578  16.839  17.435   9.305 -0.0530 -0.1362 -0.0028
20365ERGO    R532579  16.781  17.639   9.357 -0.0040 -0.1234 -0.0260
20365ERGO    C132580  16.828  17.677   8.980 -0.0447 -0.1749 -0.0359
20365ERGO    C232581  16.784  17.762   8.683 -0.1567 -0.2393 -0.1217
20366ERGO   ROH32582  12.322   2.045  10.128  0.0209 -0.0343  0.0428
20366ERGO    R132583  12.197   1.937   9.898  0.0433 -0.0600  0.0428
20366ERGO    R232584  12.124   2.093   9.682  0.0716 -0.0861  0.0167
20366ERGO    R332585  12.273   1.913   9.543  0.0806 -0.1077  0.0533
20366ERGO    R432586  12.132   2.067   9.337  0.2005 -0.0398  0.0155
20366ERGO    R532587  12.134   1.850   9.359  0.1346 -0.0458 -0.0114
20366ERGO    C132588  12.277   1.882   9.006  0.2839 -0.0331  0.0492
20366ERGO    C232589  12.252   1.879   8.657 -0.3754  0.3030  0.3816
20367ERGO   ROH32590  11.663   0.437   9.851 -0.0961  0.0183 -0.1139
20367ERGO    R132591  11.735   0.279   9.627  0.1992 -0.0506  0.0234
20367ERGO    R232592  11.617   0.309   9.379  0.0329 -0.5776  0.0188
20367ERGO    R332593  11.874   0.338   9.296 -0.0474 -0.0529 -0.0799
20367ERGO    R432594  11.733   0.227   9.065  0.1483 -0.6171  0.0719
20367ERGO    R532595  11.913   0.147   9.157  0.3685 -0.1026  0.1013
20367ERGO    C132596  12.042   0.206   8.803  0.1403 -0.1476  0.0102
20367ERGO    C232597  12.094   0.217   8.501  0.0098  0.0038  0.3296
20368ERGO   ROH32598  13.673  15.377   9.877  0.1205 -0.0191 -0.0243
20368ERGO    R132599  13.747  15.222   9.651  0.1301  0.0125 -0.0422
20368ERGO    R232600  13.632  14.978   9.594  0.1254  0.0282 -0.0866
20368ERGO    R332601  13.582  15.095   9.353  0.1474  0.0632 -0.0748
20368ERGO    R432602  13.526  14.811   9.310 -0.0698  0.0957 -0.0556
20368ERGO    R532603  13.660  14.935   9.192 -0.0070  0.0007 -0.0929
20368ERGO    C132604  13.418  14.823   8.919 -0.1629  0.1678 -0.0264
20368ERGO    C232605  13.344  14.560   8.673 -0.2113 -0.4330  0.2074
20369ERGO   ROH32606  12.886   0.608   9.838  0.1949 -0.1023 -0.0425
20369ERGO    R132607  12.810   0.514   9.582  0.0548 -0.0958 -0.0041
20369ERGO    R232608  12.777   0.683   9.366  0.0255 -0.1017 -0.0026
20369ERGO    R332609  12.954   0.513   9.248 -0.0843 -0.1748 -0.0651
20369ERGO    R432610  12.815   0.643   9.024  0.0047  0.0106 -0.0184
20369ERGO    R532611  12.837   0.429   9.057 -0.1396 -0.0201 -0.1029
20369ERGO    C132612  13.004   0.461   8.715 -0.1104  0.0074 -0.0864
20369ERGO    C232613  13.086   0.651   8.533 -0.3459  0.2191  0.2576
20370ERGO   ROH32614  14.946  16.674  10.090 -0.3419  0.1294  0.0190
20370ERGO    R132615  14.952  16.480   9.885 -0.1868 -0.0306  0.1711
20370ERGO    R232616  14.732  16.326   9.818 -0.1901  0.0436  0.0100
20370ERGO    R332617  14.780  16.423   9.569  0.1803 -0.1718 -0.0108
20370ERGO    R432618  14.620  16.182   9.525 -0.2847  0.1153  0.0107
20370ERGO    R532619  14.812  16.228   9.434 -0.1176 -0.3160  0.1142
20370ERGO    C132620  14.599  16.189   9.121  0.0081 -0.0457 -0.0084
20370ERGO    C232621  14.419  16.181   8.764 -0.0905 -0.0182  0.2669
20371ERGO   ROH32622  16.673   6.505  10.129 -0.1923  0.1509 -0.0458
20371ERGO    R132623  16.786   6.417   9.885 -0.0742  0.0471  0.0450
20371ERGO    R232624  16.683   6.204   9.741 -0.0842  0.0679  0.0193
20371ERGO    R332625  16.677   6.385   9.539  0.1366  0.0320 -0.0214
20371ERGO    R432626  16.621   6.128   9.410  0.1059  0.0334 -0.0090
20371ERGO    R532627  16.776   6.270   9.353  0.2102 -0.0491  0.0676
20371ERGO    C132628  16.580   6.254   9.027  0.4239 -0.0205 -0.0637
20371ERGO    C232629  16.551   6.359   8.845 -0.3215 -0.2290  0.2817
20372ERGO   ROH32630  12.301   3.762  10.125  0.1068 -0.1749  0.0930
20372ERGO    R132631  12.249   3.552   9.942 -0.2764 -0.0099 -0.0007
20372ERGO    R232632  12.029   3.550   9.775 -0.1718  0.5800 -0.1765
20372ERGO    R332633  12.217   3.518   9.581 -0.0889  0.1752 -0.0361
20372ERGO    R432634  11.961   3.481   9.444 -0.0550  0.5351 -0.1907
20372ERGO    R532635  12.129   3.343   9.443 -0.2811  0.2533 -0.0100
20372ERGO    C132636  12.097   3.410   9.069  0.0908  0.1291 -0.0671
20372ERGO    C232637  12.071   3.616   8.763  0.0403  0.2140  0.0887
20373ERGO   ROH32638  16.304  15.171   9.807 -0.0766 -0.0468 -0.0006
20373ERGO    R132639  16.225  15.206   9.538  0.0237  0.0184 -0.0205
20373ERGO    R232640  16.270  15.441   9.399  0.1872  0.0033  0.0179
20373ERGO    R332641  16.391  15.275   9.221  0.1532 -0.0387  0.0315
20373ERGO    R432642  16.279  15.492   9.058 -0.0221 -0.1441 -0.0130
20373ERGO    R532643  16.247  15.278   9.030  0.0396 -0.1783  0.1059
20373ERGO    C132644  16.399  15.366   8.691 -0.1756 -0.2695 -0.0183
20373ERGO    C232645  16.651  15.495   8.391 -0.0288 -0.1054  0.1064
20374ERGO   ROH32646  14.386  10.730   9.518  0.0114  0.1330 -0.0960
20374ERGO    R132647  14.190  10.644   9.331 -0.0752  0.1631 -0.0205
20374ERGO    R232648  14.042  10.821   9.180  0.0703  0.1836 -0.1458
20374ERGO    R332649  14.137  10.673   8.972 -0.0672 -0.0582 -0.0403
20374ERGO    R432650  13.933  10.846   8.853  0.1866  0.1395 -0.1882
20374ERGO    R532651  13.944  10.629   8.837 -0.0902  0.1143 -0.0628
20374ERGO    C132652  13.959  10.722   8.468  0.1254 -0.1131 -0.1138
20374ERGO    C232653  13.781  10.594   8.210  0.0085 -0.1334 -0.0750
20375ERGO   ROH32654  15.393  17.315   9.734 -0.0042 -0.4809  0.0366
20375ERGO    R132655  15.313  17.211   9.483 -0.0863 -0.2961 -0.0147
20375ERGO    R232656  15.101  17.316   9.340  0.0195 -0.0319  0.0157
20375ERGO    R332657  15.286  17.337   9.142  0.0533 -0.1195  0.0371
20375ERGO    R432658  15.027  17.341   9.003  0.0635  0.1772  0.0202
20375ERGO    R532659  15.195  17.207   8.962 -0.0554  0.0382 -0.0237
20375ERGO    C132660  15.158  17.375   8.621  0.1208  0.2166  0.0430
20375ERGO    C232661  15.024  17.605   8.335  0.1515  0.1000 -0.2004
20376ERGO   ROH32662  15.874   2.401  10.016  0.2605  0.0684 -0.0757
20376ERGO    R132663  15.820   2.334   9.747  0.1167  0.1664 -0.0724
20376ERGO    R232664  15.767   2.524   9.553  0.3026  0.2565 -0.0336
20376ERGO    R332665  15.971   2.402   9.422  0.1256  0.0248 -0.0994
20376ERGO    R432666  15.790   2.492   9.210  0.2554  0.4283 -0.0542
20376ERGO    R532667  15.865   2.289   9.239 -0.0464  0.2900 -0.1712
20376ERGO    C132668  15.995   2.358   8.887  0.0619  0.3109 -0.1279
20376ERGO    C232669  15.969   2.259   8.562 -0.2918 -0.0939 -0.0744
20377PSPI    C132670  12.692   8.533   6.240 -0.1851  0.0591 -0.0344
20377PSPI    C232671  12.511   8.329   6.532 -0.1028  0.1377  0.0723
20377PSPI    C332672  12.356   8.330   6.163 -0.1804 -0.0017  0.1038
20377PSPI   PO432673  12.930   8.457   6.290 -0.2253  0.3369 -0.0924
20377PSPI   GL132674  13.017   8.216   6.647 -0.1566  0.1914  0.0837
20377PSPI   GL232675  13.286   7.968   6.633 -0.1790 -0.2757 -0.0080
20377PSPI   C1A32676  12.856   8.306   7.042  0.1231  0.0339 -0.2001
20377PSPI   C2A32677  12.880   8.713   7.251  0.0275 -0.1928 -0.4966
20377PSPI   C3A32678  13.064   8.747   7.609 -0.0504  0.3167 -0.1699
20377PSPI   C4A32679  13.062   8.707   7.982 -0.1310 -0.1585  0.2066
20377PSPI   C1B32680  13.364   7.945   7.107  0.2104  0.2763  0.0732
20377PSPI   C2B32681  13.544   7.935   7.470  0.0349 -0.0617 -0.1359
20377PSPI   C3B32682  13.685   8.001   7.736 -0.1613 -0.1402 -0.0477
20377PSPI   C4B32683  14.007   8.309   7.923 -0.0286  0.0848 -0.1137
20378PSPI    C132684  15.986   8.325   6.045 -0.3744  0.1718 -0.0323
20378PSPI    C232685  16.125   8.361   5.672 -0.0284 -0.0712  0.0678
20378PSPI    C332686  15.801   8.138   5.743  0.1158 -0.3207 -0.0440
20378PSPI   PO432687  16.031   8.650   6.076  0.0511 -0.1769  0.1826
20378PSPI   GL132688  16.004   8.919   6.438  0.0079 -0.0068 -0.2798
20378PSPI   GL232689  16.293   9.068   6.580  0.0925  0.0606  0.1824
20378PSPI   C1A32690  15.780   8.796   6.819  0.2681 -0.0162 -0.1650
20378PSPI   C2A32691  15.733   8.980   7.197  0.1766  0.0909  0.1743
20378PSPI   C3A32692  15.692   8.967   7.596  0.0432 -0.2059 -0.0830
20378PSPI   C4A32693  16.012   8.766   7.994  0.1921  0.0538  0.0259
20378PSPI   C1B32694  16.211   9.276   6.963 -0.1198  0.0662 -0.0266
20378PSPI   C2B32695  16.090   9.358   7.369  0.0643  0.2688  0.3413
20378PSPI   C3B32696  15.991   9.299   7.844 -0.0044 -0.0813 -0.3141
20378PSPI   C4B32697  15.788   9.237   8.102  0.0721  0.1991 -0.1994
20379PSPI    C132698  12.236   6.243   6.267 -0.0878 -0.0621 -0.2193
20379PSPI    C232699  11.890   6.047   6.310 -0.0445 -0.0887  0.0229
20379PSPI    C332700  11.918   6.348   6.048 -0.2395 -0.1116 -0.0258
20379PSPI   PO432701  12.311   6.235   6.518  0.1927  0.0376 -0.0077
20379PSPI   GL132702  12.264   5.996   6.852  0.0172 -0.0558  0.1124
20379PSPI   GL232703  12.046   6.089   7.102 -0.0976 -0.1026 -0.1424
20379PSPI   C1A32704  12.564   5.839   7.028  0.0174  0.0675  0.2318
20379PSPI   C2A32705  12.727   5.905   7.345 -0.0752 -0.0223  0.1259
20379PSPI   C3A32706  13.009   5.949   7.719 -0.0251  0.0596  0.0261
20379PSPI   C4A32707  13.398   5.834   7.992 -0.0999 -0.0985  0.0115
20379PSPI   C1B32708  12.248   5.874   7.380 -0.2506 -0.0201  0.0354
20379PSPI   C2B32709  12.239   5.547   7.691 -0.1334 -0.0618  0.2481
20379PSPI   C3B32710  12.428   5.395   8.072 -0.0838 -0.2070 -0.0135
20379PSPI   C4B32711  12.465   5.434   8.501  0.3596  0.0096 -0.3661
20380PSPI    C132712  17.095  16.458   6.317  0.0620  0.0959 -0.0946
20380PSPI    C232713  16.924  16.189   6.075  0.0229  0.1031 -0.0750
20380PSPI    C332714  16.698  16.452   6.274  0.0593  0.1339 -0.0744
20380PSPI   PO432715  17.396  16.188   6.327 -0.1845 -0.1338 -0.3002
20380PSPI   GL132716  17.524  16.215   6.756 -0.2591 -0.2298  0.0407
20380PSPI   GL232717  17.798  16.320   6.576 -0.0431  0.1677 -0.0704
20380PSPI   C1A32718  17.545  16.307   7.143 -0.0451  0.1349 -0.0522
20380PSPI   C2A32719  17.611  16.300   7.585 -0.0228 -0.3420 -0.0091
20380PSPI   C3A32720  17.698  16.046   7.898  0.0571  0.2947  0.0694
20380PSPI   C4A32721  17.709  15.811   8.299 -0.2578 -0.0693  0.3873
20380PSPI   C1B32722  18.023  16.348   6.968 -0.0941  0.2308  0.0412
20380PSPI   C2B32723  17.982  16.097   7.351 -0.0410 -0.2649  0.0373
20380PSPI   C3B32724  18.218  16.113   7.770  0.2804  0.3241 -0.1121
20380PSPI   C4B32725  18.098  16.367   8.113  0.2119 -0.1892 -0.1509
20381PSPI    C132726  17.024  14.875   6.129 -0.0022 -0.0930 -0.0197
20381PSPI    C232727  17.056  14.811   5.735  0.0193  0.3166 -0.0890
20381PSPI    C332728  17.329  15.034   5.925  0.0493  0.0616  0.1744
20381PSPI   PO432729  16.881  14.589   6.180  0.0431 -0.1828 -0.4316
20381PSPI   GL132730  17.192  14.317   6.402  0.1257 -0.1933  0.1567
20381PSPI   GL232731  17.264  14.595   6.522 -0.2544  0.2285  0.2792
20381PSPI   C1A32732  17.252  14.260   6.912 -0.0584  0.0540  0.2122
20381PSPI   C2A32733  17.188  14.264   7.365 -0.0757 -0.2015 -0.0015
20381PSPI   C3A32734  17.359  14.425   7.838  0.1952 -0.0336 -0.0820
20381PSPI   C4A32735  17.352  14.445   8.252 -0.0296 -0.0546 -0.3760
20381PSPI   C1B32736  17.303  14.716   6.992  0.0136 -0.2752 -0.0739
20381PSPI   C2B32737  17.299  14.806   7.469 -0.0496  0.2416 -0.2710
20381PSPI   C3B32738  17.196  14.861   7.947  0.1049 -0.0460 -0.2040
20381PSPI   C4B32739  17.456  14.956   8.346  0.1027 -0.0769 -0.0662
20382PSPI    C132740  15.149   5.599   6.360  0.0690  0.0828  0.0141
20382PSPI    C232741  15.056   5.399   6.027  0.0839  0.2641 -0.0999
20382PSPI    C332742  15.397   5.319   6.219 -0.1227 -0.1399  0.1110
20382PSPI   PO432743  14.986   5.581   6.533  0.1588  0.0021 -0.1175
20382PSPI   GL132744  14.995   5.586   6.943 -0.1779 -0.0140  0.0236
20382PSPI   GL232745  15.170   5.979   6.862 -0.1561  0.0581 -0.1946
20382PSPI   C1A32746  14.718   5.672   7.325  0.0939 -0.3026 -0.0234
20382PSPI   C2A32747  14.685   5.653   7.838  0.0204  0.1250  0.0562
20382PSPI   C3A32748  14.589   5.823   8.250 -0.0419  0.2481 -0.0958
20382PSPI   C4A32749  14.319   5.657   8.614 -0.2096 -0.4499 -0.1964
20382PSPI   C1B32750  15.230   5.961   7.338 -0.1026 -0.0181  0.0430
20382PSPI   C2B32751  15.096   5.913   7.668  0.0690 -0.0511 -0.1192
20382PSPI   C3B32752  15.095   5.908   8.070  0.1367  0.1406 -0.2848
20382PSPI   C4B32753  15.021   5.856   8.533  0.1876 -0.0941  0.1055
20383PSPI    C132754  15.916  15.970   5.962 -0.1321 -0.0638  0.2754
20383PSPI    C232755  15.952  15.578   6.036 -0.3327 -0.1601 -0.1096
20383PSPI    C332756  16.259  15.782   5.879 -0.2446 -0.1716  0.0454
20383PSPI   PO432757  15.780  16.065   6.163 -0.1995 -0.1515  0.0419
20383PSPI   GL132758  15.761  16.079   6.616 -0.0758 -0.1798  0.1856
20383PSPI   GL232759  15.965  15.981   6.929  0.0619 -0.0653  0.2369
20383PSPI   C1A32760  15.776  16.417   6.985  0.0369 -0.1991  0.0412
20383PSPI   C2A32761  15.720  16.594   7.454  0.0601  0.1706 -0.0771
20383PSPI   C3A32762  15.746  16.818   7.844  0.0895 -0.1873  0.2134
20383PSPI   C4A32763  15.920  16.722   8.332 -0.1263 -0.1373 -0.1210
20383PSPI   C1B32764  15.919  16.098   7.362  0.2141 -0.1228  0.1398
20383PSPI   C2B32765  15.888  15.985   7.737 -0.1362  0.5281 -0.4532
20383PSPI   C3B32766  15.770  15.931   8.149 -0.0043  0.3608 -0.2388
20383PSPI   C4B32767  15.750  16.235   8.339 -0.0531 -0.2334 -0.1309
20384POPI    C132768  15.906   3.189   6.249 -0.0097 -0.1642 -0.0336
20384POPI    C232769  16.107   3.217   5.904  0.0019  0.0859 -0.0087
20384POPI    C332770  15.938   2.870   6.009  0.0976 -0.0236 -0.2092
20384POPI   PO432771  15.912   3.440   6.309 -0.1244  0.0590  0.0297
20384POPI   GL132772  16.054   3.641   6.736 -0.0543  0.0378 -0.4654
20384POPI   GL232773  15.854   3.353   6.884  0.2364 -0.0963  0.0005
20384POPI   C1A32774  16.260   3.823   7.118  0.1720 -0.0163  0.3304
20384POPI   D2A32775  16.231   3.996   7.480  0.0050  0.0897  0.2663
20384POPI   C3A32776  16.237   3.638   7.713  0.1158 -0.1415  0.0853
20384POPI   C4A32777  16.212   3.463   8.136 -0.2031 -0.2208  0.0878
20384POPI   C1B32778  15.892   3.523   7.306 -0.3421 -0.3551 -0.2074
20384POPI   C2B32779  15.810   3.338   7.661 -0.0612  0.0116 -0.2547
20384POPI   C3B32780  15.886   3.095   8.037  0.1917  0.0052  0.1632
20384POPI   C4B32781  16.179   2.837   8.080  0.0502 -0.0297 -0.0205
20385POPI    C132782  14.477   0.085   5.767  0.1838 -0.0002  0.0458
20385POPI    C232783  14.733   0.366   5.642  0.0168  0.0777 -0.1255
20385POPI    C332784  14.762  -0.008   5.502 -0.1489  0.1569 -0.3784
20385POPI   PO432785  14.368   0.161   6.029  0.0855  0.1218  0.2035
20385POPI   GL132786  14.723   0.050   6.290 -0.1637 -0.2180  0.0503
20385POPI   GL232787  14.983   0.171   6.375  0.3447  0.1798  0.3243
20385POPI   C1A32788  14.608  -0.079   6.687 -0.2525 -0.1827 -0.0818
20385POPI   D2A32789  14.598  -0.142   7.128  0.1084 -0.3843  0.3139
20385POPI   C3A32790  14.391   0.103   7.438  0.0099 -0.0967 -0.2333
20385POPI   C4A32791  14.177   0.080   7.871 -0.0711 -0.1618  0.3108
20385POPI   C1B32792  14.977   0.252   6.777  0.1244  0.0705 -0.2225
20385POPI   C2B32793  14.887   0.254   7.189 -0.0352 -0.0886 -0.1118
20385POPI   C3B32794  14.803   0.343   7.496  0.1297 -0.3261 -0.0769
20385POPI   C4B32795  15.038   0.267   7.965 -0.0666 -0.2260 -0.1777
20386POPI    C132796  17.142   0.715   5.980 -0.1779  0.0625  0.0796
20386POPI    C232797  16.933   1.024   5.835 -0.1521  0.0657  0.0491
20386POPI    C332798  17.201   1.082   6.126  0.1948  0.1525 -0.2783
20386POPI   PO432799  16.890   0.570   6.076  0.0778 -0.0185  0.1329
20386POPI   GL132800  16.644   0.400   6.443 -0.0862 -0.1372  0.1283
20386POPI   GL232801  16.967   0.414   6.564 -0.2485  0.0827  0.2818
20386POPI   C1A32802  16.414   0.236   6.772  0.0938 -0.0741 -0.1974
20386POPI   D2A32803  16.391  -0.037   7.073  0.0361  0.1241  0.4296
20386POPI   C3A32804  16.416   0.090   7.588 -0.2039 -0.1646 -0.0714
20386POPI   C4A32805  16.292   0.021   7.973  0.0767  0.0223  0.0155
20386POPI   C1B32806  16.844   0.651   6.904 -0.2434 -0.1008  0.1358
20386POPI   C2B32807  16.729   0.818   7.304 -0.0964 -0.0320  0.0527
20386POPI   C3B32808  16.844   0.874   7.646  0.1330 -0.0628 -0.0434
20386POPI   C4B32809  16.886   0.664   7.980 -0.1606  0.1073 -0.0314
20387POPI    C132810  14.280   3.886   6.199  0.0287 -0.0002 -0.1677
20387POPI    C232811  14.056   4.213   6.253 -0.1781 -0.1183 -0.2951
20387POPI    C332812  14.399   4.236   6.047 -0.0850  0.0579 -0.1238
20387POPI   PO432813  14.255   3.788   6.419  0.1570 -0.0612 -0.2803
20387POPI   GL132814  14.114   3.616   6.824 -0.0854  0.3550 -0.1470
20387POPI   GL232815  14.006   3.869   7.029 -0.0063  0.3667 -0.1716
20387POPI   C1A32816  14.362   3.433   7.087  0.0947  0.2236 -0.0439
20387POPI   D2A32817  14.475   3.215   7.416 -0.1025  0.2965 -0.1599
20387POPI   C3A32818  14.103   3.032   7.658 -0.0479  0.1812 -0.0074
20387POPI   C4A32819  14.147   2.822   8.027  0.0831  0.0805 -0.0632
20387POPI   C1B32820  14.189   3.990   7.433  0.3097  0.1288 -0.3265
20387POPI   C2B32821  14.233   3.959   7.942  0.1688  0.1024 -0.0612
20387POPI   C3B32822  14.109   3.682   8.354 -0.1987 -0.2589  0.1587
20387POPI   C4B32823  13.994   3.745   8.827 -0.1628  0.0573 -0.2253
20388POPI    C132824   0.053  12.761   5.963  0.1226  0.2490 -0.0703
20388POPI    C232825  -0.305  12.702   5.795  0.3164  0.0738 -0.4325
20388POPI    C332826  -0.203  13.066   5.927 -0.0487  0.0924 -0.1895
20388POPI   PO432827   0.141  12.499   6.088 -0.3737 -0.0059  0.0084
20388POPI   GL132828   0.152  12.442   6.518 -0.2156 -0.3628 -0.3620
20388POPI   GL232829   0.375  12.706   6.680 -0.0987  0.3230 -0.1305
20388POPI   C1A32830  -0.086  12.242   6.824  0.2094 -0.0486  0.3214
20388POPI   D2A32831  -0.052  11.961   7.013 -0.1597  0.0034 -0.1177
20388POPI   C3A32832  -0.252  11.676   7.215 -0.1345  0.1080 -0.2889
20388POPI   C4A32833  -0.215  11.351   7.492  0.0611  0.2800  0.0897
20388POPI   C1B32834  -0.023  12.715   6.919 -0.0120  0.1263  0.0498
20388POPI   C2B32835  -0.457  12.502   7.082  0.2069  0.2340 -0.1814
20388POPI   C3B32836  -0.325  12.162   7.398  0.0600 -0.4323  0.3096
20388POPI   C4B32837  -0.349  11.860   7.649 -0.2600  0.0260  0.1112
20389POPI    C132838  11.568  16.196   5.748 -0.0255  0.1826 -0.1515
20389POPI    C232839  11.252  15.961   5.678  0.0543  0.0190  0.0277
20389POPI    C332840  11.591  15.904   5.475  0.0891 -0.0530  0.1054
20389POPI   PO432841  11.411  16.393   5.850 -0.2351  0.2537  0.0151
20389POPI   GL132842  11.283  16.281   6.427 -0.0332  0.1537 -0.1119
20389POPI   GL232843  11.497  16.536   6.649 -0.1507 -0.0397 -0.1281
20389POPI   C1A32844  11.499  16.060   6.591  0.1583  0.0793  0.3353
20389POPI   D2A32845  11.459  15.648   6.877 -0.1112 -0.0452  0.0487
20389POPI   C3A32846  11.711  15.609   7.211 -0.2312 -0.1919  0.0545
20389POPI   C4A32847  11.931  15.645   7.540  0.1079  0.2380  0.0891
20389POPI   C1B32848  11.415  16.624   7.044 -0.0498 -0.2776  0.0092
20389POPI   C2B32849  11.526  16.899   7.352 -0.1616 -0.3325  0.0161
20389POPI   C3B32850  11.578  16.972   7.745  0.2601  0.2406 -0.1326
20389POPI   C4B32851  11.752  16.956   8.145  0.1068 -0.0816 -0.2470
20390POPI    C132852  13.942   9.919   5.767  0.1701 -0.0211  0.2962
20390POPI    C232853  13.652   9.884   6.040 -0.1236 -0.0261 -0.0097
20390POPI    C332854  13.655   9.645   5.720  0.2383 -0.0455  0.0040
20390POPI   PO432855  14.187  10.019   5.974  0.0715  0.2646  0.2222
20390POPI   GL132856  14.285  10.237   6.284  0.2966 -0.4860 -0.1351
20390POPI   GL232857  14.103   9.894   6.413 -0.1467 -0.0926  0.0264
20390POPI   C1A32858  14.302  10.154   6.819  0.0366  0.2032  0.2021
20390POPI   D2A32859  14.310   9.818   7.180  0.0842  0.0896 -0.0839
20390POPI   C3A32860  14.519   9.567   7.053 -0.0910 -0.0681 -0.0867
20390POPI   C4A32861  14.823   9.313   6.744  0.0757  0.0400  0.2686
20390POPI   C1B32862  14.074   9.664   6.762 -0.0716 -0.0886  0.0659
20390POPI   C2B32863  13.949   9.478   7.166 -0.2172  0.2945 -0.0158
20390POPI   C3B32864  13.845   9.357   7.518  0.0251  0.0591 -0.1888
20390POPI   C4B32865  13.958   9.251   7.987  0.4874 -0.0399 -0.0441
20391POPI    C132866  12.769   7.069   6.405  0.0537  0.2871  0.0979
20391POPI    C232867  13.134   7.066   6.567  0.1158 -0.0118 -0.0395
20391POPI    C332868  13.079   7.221   6.202  0.1153 -0.0177 -0.0419
20391POPI   PO432869  12.716   6.820   6.389 -0.0155 -0.1086  0.1578
20391POPI   GL132870  12.683   6.436   6.757  0.4077  0.0694  0.0989
20391POPI   GL232871  12.927   6.687   6.842  0.0026  0.1177  0.1613
20391POPI   C1A32872  12.566   6.423   7.176 -0.1165  0.0410 -0.4025
20391POPI   D2A32873  12.569   6.290   7.562  0.2748 -0.3456 -0.0320
20391POPI   C3A32874  12.765   6.336   7.977 -0.0816 -0.1645  0.0375
20391POPI   C4A32875  13.075   6.186   8.241 -0.1251  0.3163 -0.0430
20391POPI   C1B32876  12.890   6.809   7.245 -0.0018 -0.0337  0.2095
20391POPI   C2B32877  12.860   6.843   7.637  0.0158 -0.2381 -0.4273
20391POPI   C3B32878  12.861   6.810   8.011 -0.0371 -0.1199  0.1585
20391POPI   C4B32879  12.890   6.657   8.340 -0.0742  0.1561 -0.1355
20392POPI    C132880   0.354   4.771   6.289 -0.1130  0.2302 -0.1729
20392POPI    C232881   0.531   4.604   5.971  0.0747  0.0182  0.0395
20392POPI    C332882   0.753   4.752   6.269 -0.1016  0.0977  0.1327
20392POPI   PO432883   0.167   4.629   6.295  0.0529 -0.1250 -0.1460
20392POPI   GL132884  -0.090   4.428   6.613 -0.0349 -0.0740  0.0728
20392POPI   GL232885   0.224   4.432   6.733  0.1693  0.0924  0.0816
20392POPI   C1A32886  -0.278   4.032   6.994 -0.0062 -0.0884  0.0763
20392POPI   D2A32887  -0.329   3.597   6.867  0.0371 -0.0596  0.3264
20392POPI   C3A32888   0.022   3.266   6.934 -0.0665  0.3571  0.0725
20392POPI   C4A32889   0.099   3.175   7.358 -0.2539  0.1776  0.1667
20392POPI   C1B32890   0.046   4.643   7.074  0.0208 -0.3025  0.0937
20392POPI   C2B32891   0.100   4.682   7.461  0.0101 -0.2261  0.0605
20392POPI   C3B32892  -0.047   4.923   7.924  0.0932 -0.2067  0.1995
20392POPI   C4B32893  -0.330   4.833   8.283 -0.2252  0.0417  0.1639
20393POPI    C132894  14.586   2.156   6.299  0.1537  0.1047  0.0706
20393POPI    C232895  14.627   2.525   6.151 -0.0306  0.1047  0.0186
20393POPI    C332896  14.704   2.207   5.920  0.2339  0.1106  0.0961
20393POPI   PO432897  14.738   1.983   6.473 -0.0869  0.2855 -0.1911
20393POPI   GL132898  14.613   1.958   6.859  0.0149  0.2304 -0.0381
20393POPI   GL232899  14.521   2.256   7.067  0.1378  0.0031  0.0552
20393POPI   C1A32900  14.587   1.752   7.287 -0.2275  0.2403  0.1398
20393POPI   D2A32901  14.728   1.598   7.645  0.3442  0.0752 -0.1216
20393POPI   C3A32902  14.550   1.721   8.094  0.0742 -0.1966  0.1402
20393POPI   C4A32903  14.262   1.467   8.376  0.2044  0.2257 -0.1780
20393POPI   C1B32904  14.634   2.237   7.482 -0.0506  0.0747  0.0029
20393POPI   C2B32905  14.703   2.391   7.962 -0.2354 -0.4502 -0.1245
20393POPI   C3B32906  14.624   2.586   8.310  0.1698  0.0043 -0.1486
20393POPI   C4B32907  14.342   2.776   8.581  0.0659  0.2392  0.1899
20394POPI    C132908  11.106  16.749   5.981  0.0019 -0.0099 -0.0603
20394POPI    C232909  11.335  17.052   5.856  0.2312 -0.1202  0.0840
20394POPI    C332910  11.207  16.777   5.595  0.1735 -0.0001 -0.0155
20394POPI   PO432911  11.179  16.755   6.288 -0.1514 -0.1745 -0.3057
20394POPI   GL132912  11.244  17.014   6.628 -0.0606  0.4196 -0.1818
20394POPI   GL232913  11.096  17.239   6.765 -0.3089 -0.3618 -0.1573
20394POPI   C1A32914  11.656  17.055   6.776  0.1082  0.0904 -0.2280
20394POPI   D2A32915  11.973  17.176   6.987  0.1052 -0.0649  0.0611
20394POPI   C3A32916  11.942  17.246   7.327  0.1592 -0.1094 -0.1360
20394POPI   C4A32917  12.151  17.279   7.641 -0.0423 -0.1076  0.1739
20394POPI   C1B32918  10.980  17.144   7.207  0.0385  0.0346  0.1328
20394POPI   C2B32919  11.163  17.276   7.496  0.1079  0.2919 -0.0685
20394POPI   C3B32920  11.115  17.150   7.955  0.1753 -0.0043 -0.3746
20394POPI   C4B32921  10.846  16.986   8.340  0.0531  0.2707 -0.0790
20395POPI    C132922  12.755  15.232   6.160 -0.0033 -0.1565 -0.1982
20395POPI    C232923  12.707  15.469   5.841 -0.0307  0.1111  0.0012
20395POPI    C332924  12.561  15.096   5.837 -0.0682  0.1263 -0.2810
20395POPI   PO432925  12.600  15.471   6.350  0.0885 -0.0300 -0.2063
20395POPI   GL132926  12.390  15.464   6.705 -0.0697 -0.4374 -0.1803
20395POPI   GL232927  12.115  15.433   6.645  0.3578 -0.1309  0.2304
20395POPI   C1A32928  12.465  15.969   6.852  0.4266  0.0978 -0.0629
20395POPI   D2A32929  12.805  16.037   7.087 -0.1497 -0.2085 -0.0830
20395POPI   C3A32930  12.707  16.161   7.511 -0.1152  0.1855  0.1364
20395POPI   C4A32931  12.837  16.119   7.941  0.0076  0.1189  0.1031
20395POPI   C1B32932  12.141  15.508   7.097 -0.1925 -0.1050  0.1028
20395POPI   C2B32933  12.375  15.782   7.347 -0.1361  0.1002 -0.0837
20395POPI   C3B32934  12.392  15.733   7.744  0.0297 -0.1877 -0.2047
20395POPI   C4B32935  12.275  15.983   8.143  0.2500 -0.0864  0.2467
20396POPI    C132936  16.939  11.973   6.009 -0.0637  0.0736 -0.0259
20396POPI    C232937  16.606  11.753   6.045  0.0046 -0.0459 -0.1171
20396POPI    C332938  16.597  12.098   5.843 -0.0972  0.0243  0.0059
20396POPI   PO432939  17.054  12.043   6.183  0.0775  0.1890 -0.0490
20396POPI   GL132940  17.058  11.887   6.610 -0.1152 -0.0734  0.0062
20396POPI   GL232941  16.876  11.672   6.507 -0.0235  0.2195 -0.0028
20396POPI   C1A32942  17.194  11.535   7.015 -0.0545 -0.4850  0.2933
20396POPI   D2A32943  17.232  11.428   7.380  0.1902 -0.0842  0.0292
20396POPI   C3A32944  16.962  11.521   7.743  0.1365  0.1180  0.0393
20396POPI   C4A32945  16.728  11.431   8.094 -0.1596  0.0473  0.1051
20396POPI   C1B32946  16.508  11.672   6.753 -0.1920  0.0805  0.1004
20396POPI   C2B32947  16.260  11.513   7.025  0.2420  0.4406 -0.2165
20396POPI   C3B32948  16.121  11.714   7.432 -0.1601 -0.2364 -0.1595
20396POPI   C4B32949  15.714  11.677   7.607 -0.0751 -0.0915  0.0351
20397POPI    C132950  16.498  16.017   6.204 -0.0964 -0.0174  0.0677
20397POPI    C232951  16.200  15.836   6.400 -0.0265  0.0582  0.2460
20397POPI    C332952  16.257  16.229   6.442  0.0672  0.0528  0.1729
20397POPI   PO432953  16.678  15.784   6.349 -0.3166 -0.0042 -0.1474
20397POPI   GL132954  16.994  15.775   6.673  0.2791 -0.1958 -0.0658
20397POPI   GL232955  16.937  16.103   6.611 -0.0655  0.1369 -0.1434
20397POPI   C1A32956  16.913  15.785   7.075  0.2432 -0.0294 -0.0473
20397POPI   D2A32957  16.875  15.802   7.530 -0.0439  0.1742 -0.1218
20397POPI   C3A32958  17.024  15.512   7.771 -0.0381  0.1569  0.0580
20397POPI   C4A32959  17.094  15.559   8.161  0.0180 -0.0220  0.2311
20397POPI   C1B32960  16.931  16.263   6.972 -0.1775  0.0971 -0.1017
20397POPI   C2B32961  17.112  16.247   7.393 -0.1067 -0.1310  0.0926
20397POPI   C3B32962  17.127  16.146   7.764 -0.0501 -0.0981 -0.0983
20397POPI   C4B32963  17.279  16.068   8.204  0.1324  0.3337  0.2676
20398POPI    C132964  14.984  10.567   5.787  0.0093 -0.0832 -0.1666
20398POPI    C232965  15.019  10.931   5.624 -0.0612 -0.0814 -0.1781
20398POPI    C332966  15.277  10.642   5.524  0.0332 -0.0174 -0.1215
20398POPI   PO432967  14.846  10.718   6.094  0.0995  0.0906  0.0434
20398POPI   GL132968  14.764  10.728   6.465 -0.0129  0.2614 -0.0316
20398POPI   GL232969  14.534  10.938   6.458  0.4751  0.0407  0.0483
20398POPI   C1A32970  14.617  10.586   6.855  0.0321 -0.0405  0.3044
20398POPI   D2A32971  14.344  10.681   7.196  0.3440 -0.1021  0.5559
20398POPI   C3A32972  14.301  10.796   7.656  0.0730  0.1475  0.0577
20398POPI   C4A32973  14.179  10.769   8.040 -0.1731  0.0738 -0.2964
20398POPI   C1B32974  14.209  10.636   6.637  0.2195  0.2224  0.1764
20398POPI   C2B32975  13.944  10.545   6.968 -0.1962 -0.0459  0.1337
20398POPI   C3B32976  14.023  10.328   7.366  0.3561 -0.1057  0.1673
20398POPI   C4B32977  14.026  10.278   7.760  0.0190 -0.0855 -0.2115
20399POPI    C132978  12.566  13.650   6.334 -0.1686 -0.0183 -0.2862
20399POPI    C232979  12.520  13.896   6.022 -0.0158  0.3259 -0.0440
20399POPI    C332980  12.210  13.679   6.152 -0.0908  0.2076 -0.4068
20399POPI   PO432981  12.737  13.877   6.520  0.2351  0.3473 -0.1562
20399POPI   GL132982  12.772  14.267   6.728 -0.2150 -0.2876  0.0266
20399POPI   GL232983  13.016  14.380   6.736 -0.1420  0.2335  0.1898
20399POPI   C1A32984  12.734  14.263   7.122  0.0653 -0.1403  0.0870
20399POPI   D2A32985  12.804  13.892   7.359  0.3846 -0.2591 -0.0244
20399POPI   C3A32986  12.967  13.903   7.777 -0.0683  0.3104  0.0800
20399POPI   C4A32987  13.137  13.882   8.192  0.1095  0.3484  0.0274
20399POPI   C1B32988  13.103  14.642   7.155  0.0872 -0.0747  0.0041
20399POPI   C2B32989  12.981  14.640   7.482 -0.0292 -0.6068  0.0326
20399POPI   C3B32990  12.825  14.756   7.802  0.0487 -0.1109 -0.2090
20399POPI   C4B32991  12.966  15.065   8.183  0.2223 -0.3965 -0.0956
20400POPI    C132992  17.654  15.448   5.926  0.0357  0.1003 -0.1032
20400POPI    C232993  17.978  15.237   5.825 -0.0820 -0.1409  0.0147
20400POPI    C332994  17.664  15.249   5.579 -0.0350 -0.0156 -0.0395
20400POPI   PO432995  17.553  15.386   6.184  0.5475  0.1045 -0.0049
20400POPI   GL132996  17.494  15.673   6.586 -0.1927 -0.1199  0.0300
20400POPI   GL232997  17.815  15.838   6.381  0.4049 -0.0696 -0.1061
20400POPI   C1A32998  17.392  15.811   6.995 -0.1230  0.1406  0.1235
20400POPI   D2A32999  17.513  15.824   7.445  0.1293  0.3142 -0.0383
20400POPI   C3A33000  17.818  15.539   7.729 -0.1492  0.1592  0.1591
20400POPI   C4A33001  18.184  15.555   8.070  0.0497  0.1049  0.0206
20400POPI   C1B33002  17.898  15.890   6.823  0.0592  0.0319 -0.0788
20400POPI   C2B33003  18.197  15.766   7.111 -0.2857  0.0078  0.1637
20400POPI   C3B33004  18.271  15.694   7.552  0.0027 -0.2915  0.1152
20400POPI   C4B33005  18.237  15.266   7.508 -0.0327 -0.1749  0.3941
20401POPI    C133006  11.914   8.026   6.177  0.0721  0.0894 -0.1550
20401POPI    C233007  11.582   8.179   6.014 -0.1056 -0.2195 -0.0919
20401POPI    C333008  11.785   7.894   5.822  0.0837 -0.0846 -0.0952
20401POPI   PO433009  11.780   7.924   6.441 -0.1587 -0.2522 -0.2923
20401POPI   GL133010  12.059   7.861   6.769 -0.2860  0.0062  0.1173
20401POPI   GL233011  11.959   7.644   6.984 -0.0920 -0.2320 -0.2418
20401POPI   C1A33012  12.216   7.980   7.232  0.1332  0.0605 -0.1236
20401POPI   D2A33013  12.352   7.831   7.604  0.0355  0.1980  0.0272
20401POPI   C3A33014  12.072   7.908   7.968  0.2199 -0.1517  0.1375
20401POPI   C4A33015  11.787   7.713   8.120  0.3562 -0.1292 -0.1375
20401POPI   C1B33016  11.968   7.521   7.469 -0.1439 -0.2067  0.2042
20401POPI   C2B33017  12.039   7.372   7.846 -0.0970 -0.0330  0.2231
20401POPI   C3B33018  12.110   7.364   8.289 -0.0970 -0.1117 -0.0909
20401POPI   C4B33019  12.018   7.471   8.622 -0.0255  0.0963  0.0697
20402POPS   CNO33020  13.691   5.815   6.269  0.0389  0.0269 -0.1999
20402POPS   PO433021  13.744   6.221   6.599 -0.1794  0.0785  0.2780
20402POPS   GL133022  13.450   5.902   6.769  0.0176 -0.0852 -0.0708
20402POPS   GL233023  13.157   5.851   6.819  0.1448 -0.1410  0.0309
20402POPS   C1A33024  13.652   5.521   7.103 -0.1540 -0.2914 -0.1771
20402POPS   D2A33025  13.802   5.326   7.396  0.0115  0.1929  0.1699
20402POPS   C3A33026  13.784   5.422   7.853 -0.0619  0.2254  0.0546
20402POPS   C4A33027  14.111   5.736   8.062  0.0022  0.1251  0.0321
20402POPS   C1B33028  13.234   5.761   7.275  0.1551 -0.0876  0.2632
20402POPS   C2B33029  13.283   5.488   7.584  0.0690  0.1558  0.3178
20402POPS   C3B33030  13.411   5.168   7.921 -0.0378  0.1197 -0.0448
20402POPS   C4B33031  13.451   5.164   8.401 -0.0445 -0.3232 -0.0512
20403POPS   CNO33032  11.647   2.621   6.636 -0.1665  0.1741 -0.3202
20403POPS   PO433033  11.611   2.969   6.439 -0.1768 -0.0451 -0.5135
20403POPS   GL133034  11.939   3.031   6.806  0.1902  0.0354 -0.0472
20403POPS   GL233035  12.112   2.686   6.872 -0.0925  0.0313 -0.1761
20403POPS   C1A33036  12.021   3.070   7.238 -0.3236  0.1139 -0.1199
20403POPS   D2A33037  12.004   2.881   7.662  0.0380 -0.0365 -0.0539
20403POPS   C3A33038  12.164   3.206   7.953  0.0852  0.0991  0.3142
20403POPS   C4A33039  12.431   3.387   8.184  0.0365 -0.0969  0.1426
20403POPS   C1B33040  12.316   2.498   7.257 -0.1651  0.3055  0.0828
20403POPS   C2B33041  12.224   2.155   7.471 -0.2544  0.0878 -0.0124
20403POPS   C3B33042  12.026   1.871   7.732 -0.1648  0.0957  0.1699
20403POPS   C4B33043  11.956   1.803   8.174 -0.0092  0.0233  0.0339
20404POPS   CNO33044  16.760   9.096   6.504 -0.1832 -0.3494 -0.0633
20404POPS   PO433045  16.796   8.671   6.430 -0.0644 -0.0229  0.0299
20404POPS   GL133046  16.608   8.665   6.784  0.0654  0.3925 -0.3823
20404POPS   GL233047  16.555   8.383   6.846 -0.3088 -0.2802 -0.0376
20404POPS   C1A33048  16.310   8.795   7.072 -0.1774 -0.0314  0.3667
20404POPS   D2A33049  16.295   8.804   7.581 -0.1584 -0.0182  0.3539
20404POPS   C3A33050  16.637   8.821   7.872  0.0749 -0.4721  0.0265
20404POPS   C4A33051  16.955   8.570   8.077 -0.1478  0.1115 -0.4154
20404POPS   C1B33052  16.426   8.391   7.297  0.2980 -0.1833 -0.2620
20404POPS   C2B33053  16.285   8.327   7.689 -0.2072  0.0321 -0.0483
20404POPS   C3B33054  16.449   8.033   7.938 -0.1857  0.2196 -0.0239
20404POPS   C4B33055  16.898   7.910   8.041 -0.1233  0.0842  0.0618
20405POPS   CNO33056  16.823   5.521   6.652  0.4697 -0.1606 -0.0182
20405POPS   PO433057  16.353   5.232   6.666 -0.2040  0.1175 -0.2437
20405POPS   GL133058  16.434   5.239   7.079  0.1433 -0.0847  0.1718
20405POPS   GL233059  16.834   5.312   7.117 -0.0767 -0.0163  0.5676
20405POPS   C1A33060  16.337   5.043   7.439 -0.0172 -0.0562  0.2972
20405POPS   D2A33061  16.226   4.959   7.844 -0.0400  0.1233  0.0158
20405POPS   C3A33062  16.319   5.185   8.182 -0.3239  0.0397 -0.4270
20405POPS   C4A33063  16.248   5.380   8.585 -0.2830  0.1051  0.2988
20405POPS   C1B33064  17.110   5.391   7.488 -0.0894  0.1004  0.0680
20405POPS   C2B33065  17.069   5.370   7.853  0.1258 -0.2516 -0.3100
20405POPS   C3B33066  17.001   5.331   8.332  0.2567  0.0655  0.0801
20405POPS   C4B33067  17.247   4.958   8.554  0.0538 -0.0389  0.0028
20406POPS   CNO33068  11.666  11.794   6.585  0.2077  0.0921 -0.0088
20406POPS   PO433069  11.489  11.984   6.810 -0.0847  0.1011  0.0453
20406POPS   GL133070  11.679  11.878   7.148  0.0101 -0.2498  0.0531
20406POPS   GL233071  11.926  11.665   7.025 -0.1176 -0.0788  0.2630
20406POPS   C1A33072  11.528  11.874   7.552 -0.1862 -0.1143  0.1767
20406POPS   D2A33073  11.610  11.856   8.039 -0.1204 -0.2368 -0.2455
20406POPS   C3A33074  11.696  11.659   8.280 -0.0231 -0.2694 -0.1190
20406POPS   C4A33075  11.916  11.584   8.625  0.0837 -0.0603  0.0114
20406POPS   C1B33076  11.868  11.505   7.478 -0.0385 -0.0391 -0.1721
20406POPS   C2B33077  11.915  11.354   7.966 -0.0222 -0.3374  0.1245
20406POPS   C3B33078  12.192  11.416   8.249 -0.0299  0.3211 -0.2142
20406POPS   C4B33079  12.556  11.671   8.204  0.1192  0.1294 -0.1073
20407POPS   CNO33080  16.836  13.055   6.333  0.0019  0.3480 -0.3035
20407POPS   PO433081  16.608  13.373   6.091 -0.0612 -0.1213 -0.2072
20407POPS   GL133082  16.709  13.716   6.467  0.0495 -0.3110  0.1583
20407POPS   GL233083  16.844  13.575   6.597  0.0493  0.1526  0.0086
20407POPS   C1A33084  16.547  13.692   6.982  0.1539 -0.3347  0.2497
20407POPS   D2A33085  16.565  13.556   7.399 -0.0343 -0.1093 -0.0366
20407POPS   C3A33086  16.258  13.381   7.702 -0.0924  0.0021 -0.1826
20407POPS   C4A33087  16.167  13.029   7.994  0.0911 -0.0280 -0.0103
20407POPS   C1B33088  16.946  13.285   6.883  0.0354  0.2535  0.4204
20407POPS   C2B33089  16.926  13.313   7.210  0.0179  0.0569 -0.0234
20407POPS   C3B33090  16.999  13.310   7.592  0.0669 -0.0021  0.2266
20407POPS   C4B33091  16.920  13.576   7.888 -0.2818 -0.1081 -0.1196
20408POPS   CNO33092  13.553  13.540   6.096 -0.1716  0.2645  0.0306
20408POPS   PO433093  13.393  13.638   6.488 -0.0705 -0.0150  0.0163
20408POPS   GL133094  13.604  13.620   6.843  0.0193 -0.1085  0.2594
20408POPS   GL233095  13.683  13.901   6.848 -0.1389  0.1688  0.0792
20408POPS   C1A33096  13.705  13.573   7.302 -0.2123  0.3158 -0.2634
20408POPS   D2A33097  13.795  13.376   7.684 -0.1272  0.1606  0.2109
20408POPS   C3A33098  14.073  13.060   7.773 -0.2384  0.2539  0.2158
20408POPS   C4A33099  14.066  12.628   7.703 -0.0171  0.0898 -0.0007
20408POPS   C1B33100  13.943  14.084   7.169  0.0571  0.1561 -0.4449
20408POPS   C2B33101  13.840  14.021   7.550 -0.0325  0.0236 -0.3753
20408POPS   C3B33102  13.986  13.993   7.990  0.2127 -0.2184  0.2194
20408POPS   C4B33103  13.674  13.783   8.255 -0.2642 -0.1818  0.1106
20409POPS   CNO33104  15.969  14.595   5.919 -0.0025 -0.0760  0.0554
20409POPS   PO433105  16.353  14.538   6.157  0.2955 -0.0872  0.4726
20409POPS   GL133106  16.453  14.606   6.563  0.1881 -0.0583 -0.0387
20409POPS   GL233107  16.683  14.431   6.613 -0.0325  0.0693  0.1387
20409POPS   C1A33108  16.226  14.561   6.852 -0.2959  0.1888 -0.1581
20409POPS   D2A33109  16.168  14.577   7.367 -0.0286  0.2509 -0.0616
20409POPS   C3A33110  15.934  14.144   7.638 -0.2979  0.1368  0.1117
20409POPS   C4A33111  15.718  14.208   7.918  0.0686  0.2270 -0.0994
20409POPS   C1B33112  16.708  14.166   6.969  0.0108 -0.3545  0.0722
20409POPS   C2B33113  16.731  14.104   7.445  0.0130  0.0219 -0.0660
20409POPS   C3B33114  16.905  14.124   7.845 -0.0121 -0.0071  0.0583
20409POPS   C4B33115  16.935  14.243   8.284 -0.1111  0.0763  0.2380
20410POPS   CNO33116  16.110   1.270   6.088 -0.1831 -0.0303 -0.2420
20410POPS   PO433117  16.610   1.400   6.037 -0.2084  0.1869  0.0470
20410POPS   GL133118  16.892   1.572   6.414  0.0857  0.3553 -0.0251
20410POPS   GL233119  16.911   1.896   6.438  0.0864 -0.0651 -0.0681
20410POPS   C1A33120  16.873   1.641   6.840  0.1462  0.0274 -0.2770
20410POPS   D2A33121  16.780   1.766   7.303 -0.3030 -0.1007 -0.0220
20410POPS   C3A33122  16.886   1.595   7.794  0.2496  0.2319  0.0680
20410POPS   C4A33123  17.186   1.515   8.005  0.0860  0.0473  0.0713
20410POPS   C1B33124  16.948   2.235   6.831  0.1915 -0.0750  0.0323
20410POPS   C2B33125  16.931   2.336   7.301  0.1078  0.4871  0.0273
20410POPS   C3B33126  16.840   2.227   7.654  0.3274  0.0904 -0.1297
20410POPS   C4B33127  17.130   2.430   8.032 -0.2110 -0.0802 -0.1193
20411POPS   CNO33128   0.365   4.159   6.291 -0.3374  0.1312  0.1527
20411POPS   PO433129   0.014   3.881   6.339 -0.0262 -0.1946 -0.0891
20411POPS   GL133130   0.185   3.812   6.714  0.1712 -0.1174  0.2071
20411POPS   GL233131   0.390   3.989   6.794 -0.1154 -0.0216 -0.0629
20411POPS   C1A33132   0.285   3.617   7.073 -0.0117  0.0156 -0.0903
20411POPS   D2A33133  -0.066   3.719   7.381 -0.0842 -0.0862  0.1131
20411POPS   C3A33134  -0.216   3.379   7.763 -0.2715 -0.0848 -0.1874
20411POPS   C4A33135  -0.326   3.303   8.231 -0.0236 -0.0818  0.0595
20411POPS   C1B33136   0.166   4.188   7.264  0.0591  0.4384  0.1649
20411POPS   C2B33137   0.209   4.245   7.684  0.0221 -0.0241 -0.0492
20411POPS   C3B33138   0.291   4.544   7.897  0.0477 -0.2298  0.0963
20411POPS   C4B33139   0.377   4.746   8.282 -0.2161  0.1045 -0.2574
20412POPS   CNO33140  17.293  12.885   6.083 -0.2259  0.0875  0.0642
20412POPS   PO433141  17.394  13.100   6.346  0.1959  0.2040  0.0778
20412POPS   GL133142  17.367  12.893   6.793  0.0338  0.2441 -0.1524
20412POPS   GL233143  17.159  12.741   6.758 -0.0494 -0.1655 -0.0809
20412POPS   C1A33144  17.253  12.959   7.252  0.1812  0.3270 -0.0031
20412POPS   D2A33145  17.237  12.891   7.713  0.2793 -0.1218 -0.3311
20412POPS   C3A33146  16.837  13.088   8.020 -0.2136  0.1606 -0.2582
20412POPS   C4A33147  16.593  13.148   8.272  0.1729  0.0396  0.3374
20412POPS   C1B33148  17.032  12.510   7.130  0.1782  0.0441 -0.0637
20412POPS   C2B33149  17.129  12.398   7.467 -0.0672  0.0837  0.0928
20412POPS   C3B33150  17.450  12.335   7.814 -0.1797  0.0600 -0.1675
20412POPS   C4B33151  17.452  12.585   8.202  0.0484  0.3571  0.1726
20413POPS   CNO33152  14.110  16.316   6.126 -0.0084 -0.1017 -0.2581
20413POPS   PO433153  14.124  16.609   6.420 -0.1117  0.0347  0.1683
20413POPS   GL133154  14.129  16.510   6.725  0.0013 -0.4000  0.2701
20413POPS   GL233155  14.430  16.502   6.856  0.0081 -0.2525  0.2458
20413POPS   C1A33156  14.003  16.715   7.091 -0.0135  0.0102  0.3232
20413POPS   D2A33157  14.330  16.775   7.353  0.1106 -0.0019 -0.1637
20413POPS   C3A33158  14.445  16.914   7.828  0.3352  0.0459 -0.0070
20413POPS   C4A33159  14.276  17.130   8.077 -0.2335 -0.4500 -0.5291
20413POPS   C1B33160  14.765  16.299   6.843 -0.2736  0.0025  0.4286
20413POPS   C2B33161  15.160  16.263   7.095  0.0248  0.0422  0.0951
20413POPS   C3B33162  15.251  16.345   7.540 -0.2431  0.1151 -0.1308
20413POPS   C4B33163  15.542  16.318   7.884  0.1406  0.1688  0.1099
20414POPS   CNO33164  11.920   8.843   6.838  0.1960  0.3348  0.1081
20414POPS   PO433165  12.050   9.225   6.597  0.1813  0.0821  0.2467
20414POPS   GL133166  12.262   9.233   7.021 -0.1049 -0.0823 -0.3206
20414POPS   GL233167  12.559   9.141   6.785  0.2228 -0.1688 -0.2987
20414POPS   C1A33168  12.389   9.280   7.404 -0.0622 -0.0680 -0.2259
20414POPS   D2A33169  12.680   9.139   7.549  0.0085 -0.0659  0.1670
20414POPS   C3A33170  12.671   9.129   7.950 -0.1159 -0.0474  0.0230
20414POPS   C4A33171  12.368   9.328   7.946  0.2439 -0.0135 -0.3669
20414POPS   C1B33172  12.831   9.192   7.049 -0.0015  0.0970 -0.2582
20414POPS   C2B33173  13.137   9.246   7.452 -0.0653 -0.0145  0.3485
20414POPS   C3B33174  13.134   9.221   7.832  0.0956  0.0581 -0.0297
20414POPS   C4B33175  13.009   9.388   8.285  0.1961 -0.4393  0.0848
20415POPS   CNO33176  16.846   7.957   6.996 -0.0991 -0.0651  0.2592
20415POPS   PO433177  17.243   7.937   6.908  0.2477  0.0735 -0.0434
20415POPS   GL133178  17.387   8.235   7.214  0.1697 -0.0027  0.2714
20415POPS   GL233179  17.087   8.064   7.480 -0.0310 -0.0417  0.0272
20415POPS   C1A33180  17.554   8.531   7.446 -0.1017  0.3948  0.0133
20415POPS   D2A33181  17.738   8.930   7.655  0.2888  0.2075  0.1626
20415POPS   C3A33182  17.816   8.920   8.078 -0.1625  0.1025 -0.1648
20415POPS   C4A33183  17.661   9.099   8.471  0.0070 -0.0559 -0.0949
20415POPS   C1B33184  17.239   8.289   7.754 -0.1443 -0.0127 -0.2410
20415POPS   C2B33185  17.448   8.584   8.004 -0.2982  0.2063 -0.0454
20415POPS   C3B33186  17.483   8.634   8.419  0.0268  0.1451 -0.3776
20415POPS   C4B33187  17.473   8.782   8.836 -0.1265 -0.2070 -0.1806
20416POPS   CNO33188  17.257   4.593   5.820  0.0228 -0.0486  0.1876
20416POPS   PO433189  17.386   4.332   6.151 -0.1303  0.1719 -0.0175
20416POPS   GL133190  17.328   4.445   6.610 -0.2375 -0.1904  0.1267
20416POPS   GL233191  17.481   4.706   6.664  0.2788 -0.0431  0.1435
20416POPS   C1A33192  17.099   4.524   6.996  0.2394 -0.1722  0.2691
20416POPS   D2A33193  16.750   4.714   7.228 -0.1375 -0.4252  0.3183
20416POPS   C3A33194  16.822   5.002   7.607  0.0841  0.1678 -0.1591
20416POPS   C4A33195  16.772   4.935   8.057 -0.0913 -0.0844 -0.0809
20416POPS   C1B33196  17.564   4.526   7.099  0.1210  0.0576  0.2442
20416POPS   C2B33197  17.626   4.658   7.620 -0.1544 -0.2474 -0.0607
20416POPS   C3B33198  17.736   4.487   7.931  0.1629 -0.1044  0.3139
20416POPS   C4B33199  17.950   4.298   8.213  0.1408 -0.1440  0.0543
20417POPS   CNO33200  14.374  14.700   5.732  0.1735  0.3279  0.0374
20417POPS   PO433201  14.221  14.220   6.028  0.0964 -0.1094  0.0428
20417POPS   GL133202  14.339  14.115   6.394  0.1987 -0.0666 -0.1532
20417POPS   GL233203  14.182  14.061   6.771 -0.0660 -0.0087  0.3477
20417POPS   C1A33204  14.638  14.095   6.751 -0.3302 -0.0142  0.1332
20417POPS   D2A33205  14.863  14.326   7.099  0.0330 -0.0119  0.1482
20417POPS   C3A33206  14.706  14.212   7.505  0.1284  0.0587 -0.2823
20417POPS   C4A33207  14.341  14.104   7.610  0.0047  0.0990 -0.0331
20417POPS   C1B33208  14.384  14.303   7.165 -0.0276 -0.1313 -0.0493
20417POPS   C2B33209  14.395  14.584   7.598  0.1051 -0.0890 -0.0342
20417POPS   C3B33210  14.476  14.853   8.027  0.2044  0.1982 -0.3251
20417POPS   C4B33211  14.314  15.179   8.311  0.1240  0.0190 -0.0203
20418POPS   CNO33212   0.416   6.196   6.405 -0.2763  0.3293  0.2200
20418POPS   PO433213  -0.004   6.292   6.301  0.2096  0.1678  0.0186
20418POPS   GL133214  -0.206   6.339   6.717  0.1919  0.5315 -0.3148
20418POPS   GL233215  -0.428   6.178   6.736  0.2217 -0.0704 -0.1167
20418POPS   C1A33216  -0.193   6.321   7.218  0.3019 -0.0527 -0.1225
20418POPS   D2A33217  -0.183   6.067   7.705 -0.0756 -0.0599  0.1412
20418POPS   C3A33218   0.116   6.121   7.957  0.0523 -0.2656  0.1258
20418POPS   C4A33219   0.311   6.180   8.393 -0.0424 -0.0321  0.0405
20418POPS   C1B33220  -0.535   6.015   7.089  0.1214  0.0091  0.2150
20418POPS   C2B33221  -0.506   5.745   7.499 -0.1983 -0.0068 -0.2515
20418POPS   C3B33222  -0.480   5.692   7.911  0.2592  0.1498  0.2197
20418POPS   C4B33223  -0.479   5.388   8.179 -0.2202  0.1918 -0.2055
20419POPS   CNO33224  16.744  10.164   5.687  0.0817 -0.2042  0.0119
20419POPS   PO433225  16.447  10.172   5.978  0.1376 -0.1005 -0.0763
20419POPS   GL133226  16.305  10.296   6.456 -0.0705  0.0012  0.1591
20419POPS   GL233227  16.570  10.166   6.652  0.0860  0.3041 -0.1787
20419POPS   C1A33228  16.130   9.930   6.646  0.0130 -0.1763 -0.2377
20419POPS   D2A33229  16.007   9.725   6.997  0.0191  0.0931 -0.2510
20419POPS   C3A33230  15.910   9.896   7.310 -0.0949 -0.1160 -0.0760
20419POPS   C4A33231  15.633   9.991   7.760  0.2492 -0.0409  0.0322
20419POPS   C1B33232  16.346  10.123   7.116 -0.1208 -0.0365 -0.1293
20419POPS   C2B33233  16.486  10.188   7.543  0.2689  0.2855 -0.3358
20419POPS   C3B33234  16.556  10.350   7.891 -0.0376 -0.1247  0.0703
20419POPS   C4B33235  16.839  10.659   8.024  0.0032  0.2821  0.4277
20420POPS   CNO33236  14.068  15.655   5.726 -0.2648  0.0152  0.2889
20420POPS   PO433237  14.071  15.842   6.201 -0.2846 -0.0871 -0.0723
20420POPS   GL133238  13.927  15.999   6.598 -0.0210  0.1201 -0.2822
20420POPS   GL233239  13.708  15.968   6.731  0.1353  0.2035  0.1248
20420POPS   C1A33240  14.184  16.059   6.994  0.0289 -0.1833  0.1019
20420POPS   D2A33241  14.277  16.267   7.325 -0.2443  0.1317 -0.1074
20420POPS   C3A33242  13.983  16.519   7.584 -0.2242 -0.1310 -0.0501
20420POPS   C4A33243  13.969  16.944   7.645  0.1204 -0.1564  0.0016
20420POPS   C1B33244  13.851  15.730   7.143 -0.0947 -0.0117  0.2872
20420POPS   C2B33245  14.178  15.776   7.408 -0.1015  0.2918 -0.1667
20420POPS   C3B33246  14.198  16.006   7.771 -0.1739  0.1742  0.0813
20420POPS   C4B33247  13.968  16.271   7.996  0.1010  0.0712  0.0031
20421POPS   CNO33248  17.851   8.168   6.369  0.0504 -0.1899  0.1660
20421POPS   PO433249  18.108   7.968   6.504 -0.0905 -0.2113 -0.0505
20421POPS   GL133250  18.098   8.194   6.887 -0.2029 -0.1268 -0.0550
20421POPS   GL233251  17.902   8.168   7.108 -0.2095  0.0722  0.1006
20421POPS   C1A33252  18.342   8.192   7.328 -0.1480 -0.1483 -0.2648
20421POPS   D2A33253  18.303   8.179   7.757 -0.2182  0.1155  0.0958
20421POPS   C3A33254  18.269   8.012   8.135  0.0348 -0.0853  0.1191
20421POPS   C4A33255  18.325   7.904   8.486  0.0073  0.2216 -0.0206
20421POPS   C1B33256  17.793   8.142   7.521  0.0159  0.0716 -0.2651
20421POPS   C2B33257  17.772   8.012   7.906 -0.1122  0.0824 -0.2639
20421POPS   C3B33258  17.836   8.211   8.309  0.2222  0.2521 -0.0138
20421POPS   C4B33259  17.679   8.236   8.706  0.0861  0.0621 -0.2264
20422POPS   CNO33260  14.803  16.350   6.348 -0.1308 -0.3376  0.0806
20422POPS   PO433261  15.193  16.231   6.219  0.3080  0.2480  0.0463
20422POPS   GL133262  15.289  16.550   6.570  0.1394 -0.1567  0.0270
20422POPS   GL233263  15.399  16.767   6.522 -0.0349 -0.0182  0.2107
20422POPS   C1A33264  15.345  16.732   7.047  0.2916  0.0418 -0.1362
20422POPS   D2A33265  15.125  16.991   7.361  0.4459  0.0568  0.1107
20422POPS   C3A33266  15.012  16.805   7.795  0.2785  0.1398  0.2761
20422POPS   C4A33267  14.927  16.551   8.173  0.0308 -0.0349  0.1027
20422POPS   C1B33268  15.266  17.139   6.759 -0.1956 -0.0482 -0.0480
20422POPS   C2B33269  15.281  17.347   7.115 -0.0800 -0.0272 -0.1286
20422POPS   C3B33270  15.330  17.354   7.565  0.2882  0.0180  0.3325
20422POPS   C4B33271  15.351  17.130   8.033 -0.3776 -0.0223 -0.0748
20423POPS   CNO33272  17.269   9.301   5.785 -0.0152 -0.1297 -0.0787
20423POPS   PO433273  17.177   9.201   6.222  0.1546  0.0273 -0.0540
20423POPS   GL133274  17.210   9.188   6.676 -0.2409 -0.2059  0.0017
20423POPS   GL233275  17.139   8.890   6.845 -0.3171 -0.1844 -0.2539
20423POPS   C1A33276  17.248   9.440   7.035  0.1332 -0.1402 -0.1994
20423POPS   D2A33277  16.953   9.434   7.461 -0.0719  0.0693  0.1337
20423POPS   C3A33278  16.823   9.826   7.676  0.1329  0.1956 -0.0077
20423POPS   C4A33279  16.605   9.917   7.999 -0.0279  0.1311  0.0194
20423POPS   C1B33280  16.815   9.090   6.951  0.0264 -0.1280  0.1002
20423POPS   C2B33281  16.553   9.130   7.328  0.3322  0.3933 -0.1542
20423POPS   C3B33282  16.520   9.432   7.790 -0.2534  0.1381  0.1983
20423POPS   C4B33283  16.378   9.148   8.170 -0.0985 -0.2345 -0.0162
20424POPS   CNO33284  15.148  15.020   6.399 -0.1795 -0.1210  0.1817
20424POPS   PO433285  14.984  15.420   6.446  0.1014  0.0514 -0.0384
20424POPS   GL133286  15.170  15.469   6.822  0.0890 -0.0330  0.0544
20424POPS   GL233287  15.532  15.331   6.797  0.3922 -0.1167 -0.2848
20424POPS   C1A33288  15.166  15.762   7.170 -0.1398  0.1310  0.1713
20424POPS   D2A33289  15.436  15.919   7.451  0.0019 -0.3925  0.1276
20424POPS   C3A33290  15.224  15.877   7.819 -0.0553 -0.1188  0.0329
20424POPS   C4A33291  15.217  16.103   8.273 -0.0323 -0.0993  0.1510
20424POPS   C1B33292  15.561  15.462   7.166 -0.0549  0.2060 -0.2587
20424POPS   C2B33293  15.600  15.459   7.625  0.1463  0.2202 -0.0252
20424POPS   C3B33294  15.478  15.450   8.022  0.0439 -0.2207  0.2959
20424POPS   C4B33295  15.214  15.604   8.286  0.2170 -0.0087 -0.0548
20425POPS   CNO33296  10.853   7.834   6.615 -0.0837  0.1894  0.0517
20425POPS   PO433297  11.172   7.827   7.007 -0.0651  0.1408  0.2450
20425POPS   GL133298  11.524   7.671   7.355 -0.2457 -0.1341  0.2404
20425POPS   GL233299  11.640   7.980   7.452  0.3634 -0.1046  0.3889
20425POPS   C1A33300  11.495   7.524   7.707  0.1626 -0.0092 -0.0253
20425POPS   D2A33301  11.492   7.281   7.925  0.2586 -0.2386  0.2595
20425POPS   C3A33302  11.489   7.395   8.334 -0.1959  0.4360 -0.2106
20425POPS   C4A33303  11.531   7.495   8.783 -0.3156  0.0411  0.0018
20425POPS   C1B33304  11.650   8.083   7.799  0.1961 -0.0638 -0.0874
20425POPS   C2B33305  11.655   8.265   8.117  0.0206 -0.3080  0.1550
20425POPS   C3B33306  11.259   8.381   8.169 -0.2700  0.1966 -0.1631
20425POPS   C4B33307  11.009   8.315   8.352 -0.3389 -0.0686 -0.1327
20426POPS   CNO33308  13.251  16.566   6.467 -0.2572  0.0252 -0.1995
20426POPS   PO433309  12.988  16.808   6.270 -0.1712 -0.0700  0.2169
20426POPS   GL133310  12.803  16.947   6.605 -0.0917  0.2836 -0.0781
20426POPS   GL233311  12.677  17.324   6.641 -0.1317 -0.1551  0.0067
20426POPS   C1A33312  12.529  16.835   6.898 -0.1414 -0.2380 -0.0106
20426POPS   D2A33313  12.434  17.008   7.307  0.5310  0.0147 -0.0442
20426POPS   C3A33314  12.572  16.793   7.639 -0.3001 -0.0295  0.0354
20426POPS   C4A33315  12.506  16.505   7.941 -0.1757 -0.0895 -0.0084
20426POPS   C1B33316  12.901  17.234   7.043  0.1151  0.2794 -0.0332
20426POPS   C2B33317  12.813  17.205   7.512 -0.2671 -0.2956 -0.0524
20426POPS   C3B33318  12.738  17.104   7.969  0.0064 -0.0315  0.0593
20426POPS   C4B33319  12.696  16.941   8.355 -0.2491  0.3967  0.1062
20427POPS   CNO33320  16.812   6.660   6.354 -0.0481 -0.4720  0.2179
20427POPS   PO433321  17.036   6.758   6.544  0.1551  0.0078 -0.1273
20427POPS   GL133322  16.850   6.838   6.982 -0.0132 -0.1881  0.2531
20427POPS   GL233323  16.684   6.651   7.214  0.1905 -0.1874 -0.5093
20427POPS   C1A33324  16.601   7.140   7.144  0.0599  0.1018 -0.1034
20427POPS   D2A33325  16.599   7.587   7.252  0.2044 -0.0975  0.0054
20427POPS   C3A33326  16.607   7.954   7.436  0.2311  0.1886  0.0149
20427POPS   C4A33327  16.764   8.421   7.659 -0.0959 -0.0583  0.0187
20427POPS   C1B33328  17.118   6.856   7.464 -0.0825 -0.0493 -0.2423
20427POPS   C2B33329  17.229   6.853   7.856 -0.2190  0.2535 -0.0106
20427POPS   C3B33330  17.483   6.800   8.120  0.2049  0.2268 -0.0278
20427POPS   C4B33331  17.775   6.835   8.189 -0.0210  0.1633  0.4176
20428POPS   CNO33332   0.162  13.400   6.019 -0.1230 -0.1778  0.2076
20428POPS   PO433333  -0.005  13.113   6.369  0.1196 -0.0735  0.2059
20428POPS   GL133334   0.030  13.158   6.722  0.1196 -0.0256  0.0836
20428POPS   GL233335  -0.013  13.541   6.663 -0.3132  0.2314 -0.1515
20428POPS   C1A33336  -0.136  13.037   7.239  0.0824  0.3466 -0.1692
20428POPS   D2A33337  -0.315  12.742   7.499  0.3636 -0.1676  0.2589
20428POPS   C3A33338  -0.271  12.774   7.877  0.1215 -0.0255 -0.0067
20428POPS   C4A33339  -0.250  13.024   8.215  0.0906  0.0863  0.0367
20428POPS   C1B33340   0.217  13.441   7.049  0.0663 -0.0938  0.4552
20428POPS   C2B33341   0.293  13.266   7.471  0.1168 -0.2707  0.3127
20428POPS   C3B33342   0.499  13.371   7.867  0.2199 -0.1143  0.1005
20428POPS   C4B33343   0.273  13.415   8.320  0.1950  0.1410  0.0494
20429YOPS   CNO33344  12.095  16.357   5.836  0.0925 -0.0602  0.2576
20429YOPS   PO433345  12.273  16.328   6.147  0.0261  0.0252  0.1383
20429YOPS   GL133346  12.194  16.475   6.467 -0.0064  0.1200 -0.1548
20429YOPS   GL233347  12.318  16.385   6.695  0.1342  0.0736  0.1067
20429YOPS   C1A33348  11.967  16.679   6.853 -0.0412  0.4638  0.4333
20429YOPS   D2A33349  12.054  16.732   7.189  0.0474 -0.1984 -0.0282
20429YOPS   C3A33350  12.093  16.701   7.671  0.3315 -0.0629 -0.0111
20429YOPS   C4A33351  12.234  16.973   8.039  0.4071  0.0733  0.2973
20429YOPS   C1B33352  12.441  16.412   7.080  0.3067 -0.2124  0.2532
20429YOPS   C2B33353  12.174  16.233   7.436 -0.2086  0.2514 -0.0962
20429YOPS   D3B33354  11.892  16.108   7.811  0.1601  0.1605  0.0617
20429YOPS   C4B33355  11.882  16.368   8.141 -0.1456  0.0705 -0.0919
20430YOPS   CNO33356  12.035  17.968   6.325 -0.0051  0.1733 -0.0413
20430YOPS   PO433357  11.704  18.195   6.207  0.0100  0.0532 -0.1200
20430YOPS   GL133358  11.715  18.243   6.576  0.3576 -0.3451  0.0388
20430YOPS   GL233359  12.028  18.170   6.768 -0.0288 -0.0431 -0.0648
20430YOPS   C1A33360  11.510  18.176   6.963 -0.1174 -0.0231  0.0656
20430YOPS   D2A33361  11.593  18.137   7.433  0.0550 -0.1969 -0.3749
20430YOPS   C3A33362  11.537  18.031   7.800  0.0648 -0.0317 -0.1531
20430YOPS   C4A33363  11.751  17.878   8.208  0.1090  0.0104 -0.2933
20430YOPS   C1B33364  12.024  18.330   7.243 -0.0399 -0.4853  0.1408
20430YOPS   C2B33365  11.974  18.340   7.711  0.0503 -0.1811  0.1097
20430YOPS   D3B33366  11.932  18.340   8.087  0.2838 -0.0006 -0.3966
20430YOPS   C4B33367  11.933  18.648   8.356  0.0541  0.2746 -0.2742
20431YOPS   CNO33368   9.921  17.613   6.365 -0.1574  0.0614  0.2364
20431YOPS   PO433369  10.142  17.244   6.345  0.1451 -0.0579  0.0321
20431YOPS   GL133370  10.041  17.327   6.793 -0.3144  0.2742 -0.2234
20431YOPS   GL233371   9.831  17.639   6.903 -0.4815  0.0995 -0.0579
20431YOPS   C1A33372  10.421  17.192   7.094  0.1318 -0.1450  0.0412
20431YOPS   D2A33373  10.562  17.026   7.515 -0.0148  0.2410  0.0844
20431YOPS   C3A33374  10.582  17.200   7.959  0.1190  0.0331  0.7853
20431YOPS   C4A33375  10.844  17.436   8.239  0.0523 -0.3508  0.0089
20431YOPS   C1B33376   9.715  17.574   7.332 -0.1011  0.4396  0.0788
20431YOPS   C2B33377   9.662  17.697   7.830 -0.1588  0.2241  0.3666
20431YOPS   D3B33378   9.698  17.849   8.194 -0.2745 -0.0899 -0.0058
20431YOPS   C4B33379   9.656  17.549   8.542  0.1804 -0.0831  0.2914
20432YOPS   CNO33380  16.026  15.046   6.271  0.0771 -0.4699 -0.1680
20432YOPS   PO433381  15.600  15.146   6.296 -0.3646  0.2496 -0.0040
20432YOPS   GL133382  15.560  14.878   6.583 -0.0472  0.0897  0.1682
20432YOPS   GL233383  15.487  14.555   6.551 -0.1884 -0.2771 -0.2258
20432YOPS   C1A33384  15.843  14.949   6.950 -0.1168 -0.1869 -0.1051
20432YOPS   D2A33385  15.841  14.993   7.458 -0.2648  0.1306  0.1716
20432YOPS   C3A33386  16.043  14.721   7.852 -0.0849 -0.0666  0.0431
20432YOPS   C4A33387  16.407  14.455   7.752  0.0984  0.0630  0.1069
20432YOPS   C1B33388  15.626  14.466   7.005 -0.2484  0.2859 -0.0631
20432YOPS   C2B33389  15.635  14.531   7.377 -0.0601 -0.1095 -0.2715
20432YOPS   D3B33390  15.307  14.552   7.602 -0.2543  0.0982  0.1029
20432YOPS   C4B33391  15.370  14.523   8.067 -0.2720 -0.1097  0.2324
20433YOPS   CNO33392  10.917   8.542   7.217 -0.0512 -0.1834  0.4021
20433YOPS   PO433393  11.223   8.287   7.219  0.0691  0.0548  0.2345
20433YOPS   GL133394  11.555   8.483   7.437 -0.1390  0.0465  0.1971
20433YOPS   GL233395  11.826   8.393   7.193 -0.1000  0.3091 -0.0463
20433YOPS   C1A33396  11.555   8.674   7.737 -0.0450 -0.3376 -0.1206
20433YOPS   D2A33397  11.540   8.845   8.127  0.0802 -0.0730  0.1995
20433YOPS   C3A33398  11.631   8.657   8.474 -0.1215  0.2733  0.1077
20433YOPS   C4A33399  11.377   8.394   8.703  0.0187  0.1074 -0.2846
20433YOPS   C1B33400  11.999   8.348   7.595 -0.0646  0.0822 -0.2077
20433YOPS   C2B33401  12.157   8.413   7.952  0.0955  0.0889  0.1332
20433YOPS   D3B33402  12.098   8.256   8.354  0.0359  0.2655  0.0945
20433YOPS   C4B33403  12.229   7.853   8.423  0.2913 -0.2750  0.0307
20434YOPS   CNO33404  13.275   7.805   6.047 -0.1086 -0.1505  0.2052
20434YOPS   PO433405  13.429   7.557   6.379 -0.0736  0.0002 -0.2508
20434YOPS   GL133406  13.262   7.467   6.840 -0.0259  0.1291 -0.1168
20434YOPS   GL233407  12.910   7.375   6.917  0.0648  0.0664 -0.0961
20434YOPS   C1A33408  13.345   7.459   7.293  0.1215  0.0997 -0.3743
20434YOPS   D2A33409  13.481   7.535   7.777 -0.0279  0.1710 -0.1080
20434YOPS   C3A33410  13.472   7.554   8.208  0.0381  0.4035  0.1712
20434YOPS   C4A33411  13.882   7.583   8.420  0.0337 -0.1855 -0.2107
20434YOPS   C1B33412  12.872   7.293   7.333 -0.1259  0.0427  0.2490
20434YOPS   C2B33413  12.975   7.341   7.861 -0.0781  0.0925  0.1962
20434YOPS   D3B33414  12.998   7.546   8.259  0.0795 -0.0529 -0.0847
20434YOPS   C4B33415  12.874   7.888   8.422  0.0429  0.3590  0.1381
20435YOPS   CNO33416  14.043   2.773   6.405  0.1074  0.0744 -0.1465
20435YOPS   PO433417  13.813   2.453   6.722  0.0142 -0.0633  0.1445
20435YOPS   GL133418  14.065   2.499   7.059  0.0508  0.0162 -0.0962
20435YOPS   GL233419  13.761   2.379   7.294 -0.0534 -0.1884 -0.0584
20435YOPS   C1A33420  14.186   2.547   7.489  0.0112 -0.0383 -0.2533
20435YOPS   D2A33421  14.219   2.347   7.864 -0.1888 -0.1221  0.1239
20435YOPS   C3A33422  14.347   2.189   8.272  0.3802 -0.1345  0.0068
20435YOPS   C4A33423  14.755   1.977   8.498 -0.0388  0.0086  0.0216
20435YOPS   C1B33424  13.732   2.073   7.588  0.0221 -0.3718 -0.1635
20435YOPS   C2B33425  13.519   1.729   7.976  0.2418 -0.1557 -0.1440
20435YOPS   D3B33426  13.345   1.365   8.110 -0.0225 -0.0983 -0.0378
20435YOPS   C4B33427  12.925   1.359   8.380  0.0671 -0.0515 -0.0177
20436YOPS   CNO33428  16.224  15.338   5.636 -0.2536  0.2371  0.0606
20436YOPS   PO433429  16.409  15.337   6.041  0.3154  0.0626  0.1265
20436YOPS   GL133430  16.424  15.376   6.529 -0.2673 -0.0380  0.1949
20436YOPS   GL233431  16.313  15.056   6.733  0.0060  0.1164  0.2089
20436YOPS   C1A33432  16.617  15.448   6.890 -0.1029 -0.1012  0.0199
20436YOPS   D2A33433  16.611  15.414   7.362 -0.0011 -0.1437 -0.1731
20436YOPS   C3A33434  16.511  15.532   7.892 -0.1286 -0.1888  0.0266
20436YOPS   C4A33435  16.737  15.889   8.073  0.0646 -0.0547  0.1159
20436YOPS   C1B33436  16.365  15.064   7.167  0.1356  0.0577 -0.1345
20436YOPS   C2B33437  16.413  14.989   7.649  0.1595 -0.0734 -0.0086
20436YOPS   D3B33438  16.769  15.119   7.830  0.2747 -0.1095  0.1378
20436YOPS   C4B33439  16.888  15.074   8.299 -0.0276  0.0418  0.3028
20437YOPS   CNO33440  15.515  10.266   5.887 -0.1638  0.1837 -0.1524
20437YOPS   PO433441  15.504   9.880   5.776 -0.1273 -0.4330 -0.0006
20437YOPS   GL133442  15.676   9.847   6.243 -0.3063  0.1216 -0.1240
20437YOPS   GL233443  15.762  10.188   6.423  0.2341  0.1789  0.0724
20437YOPS   C1A33444  15.902   9.488   6.448 -0.1767  0.0603 -0.1428
20437YOPS   D2A33445  15.717   9.297   6.742 -0.0700 -0.0839  0.1758
20437YOPS   C3A33446  15.502   9.448   7.112 -0.0608  0.0692 -0.2207
20437YOPS   C4A33447  15.649   9.451   7.546  0.1689 -0.0257 -0.1928
20437YOPS   C1B33448  15.642  10.102   6.804 -0.1490  0.1978  0.1627
20437YOPS   C2B33449  15.449   9.916   7.196  0.0467 -0.3863 -0.0237
20437YOPS   D3B33450  15.218   9.739   7.532  0.0599 -0.3447  0.1485
20437YOPS   C4B33451  14.824   9.814   7.410 -0.2118 -0.0509  0.0598
20438YOPS   CNO33452  17.884  11.140   5.917 -0.0896 -0.0451 -0.1460
20438YOPS   PO433453  17.773  10.778   6.110  0.2411  0.2592 -0.1395
20438YOPS   GL133454  17.908  10.736   6.485 -0.1153 -0.0194 -0.1664
20438YOPS   GL233455  18.049  10.468   6.585  0.2220 -0.3446  0.1233
20438YOPS   C1A33456  17.960  10.793   6.951 -0.1471 -0.2766  0.0554
20438YOPS   D2A33457  17.967  10.642   7.431 -0.0075 -0.0746  0.2084
20438YOPS   C3A33458  17.816  10.846   7.835 -0.2585  0.3191  0.0006
20438YOPS   C4A33459  17.503  10.812   8.171 -0.5141  0.0426  0.1345
20438YOPS   C1B33460  18.116  10.289   7.023 -0.0383  0.0322 -0.2052
20438YOPS   C2B33461  18.068  10.151   7.445 -0.0726 -0.0517  0.4067
20438YOPS   D3B33462  18.124  10.145   7.863 -0.3105 -0.3136  0.0007
20438YOPS   C4B33463  18.133  10.545   8.090 -0.2568 -0.0931  0.0674
20439YOPS   CNO33464  12.998  12.859   6.550  0.0986  0.4022  0.1174
20439YOPS   PO433465  12.916  12.507   6.222  0.1940  0.0414  0.3322
20439YOPS   GL133466  12.949  12.202   6.532  0.0742 -0.3650  0.0316
20439YOPS   GL233467  12.741  11.932   6.618 -0.1693 -0.1248  0.0621
20439YOPS   C1A33468  13.129  12.371   7.011  0.0970  0.0126  0.0158
20439YOPS   D2A33469  13.296  12.595   7.323  0.1488 -0.2648  0.2446
20439YOPS   C3A33470  13.626  12.773   7.638 -0.0147  0.1743  0.0148
20439YOPS   C4A33471  13.535  12.443   7.970 -0.1110  0.1313 -0.4540
20439YOPS   C1B33472  12.889  11.938   6.992  0.0379  0.2316 -0.0612
20439YOPS   C2B33473  12.788  12.160   7.344  0.1573  0.3460  0.1208
20439YOPS   D3B33474  13.087  12.312   7.680 -0.4245 -0.1907  0.2707
20439YOPS   C4B33475  13.038  12.228   8.037  0.0907 -0.0523  0.0712
20440POPE   NH333476  15.763  11.334   5.948  0.2621  0.1097 -0.3011
20440POPE   PO433477  16.161  11.450   5.977  0.0006  0.0018 -0.1162
20440POPE   GL133478  16.223  11.322   6.317  0.2290  0.0209 -0.2659
20440POPE   GL233479  16.586  11.274   6.422  0.0722 -0.0307  0.0723
20440POPE   C1A33480  16.070  11.166   6.677 -0.0342  0.2813  0.0968
20440POPE   D2A33481  15.956  11.008   7.053  0.3004  0.1325  0.0836
20440POPE   C3A33482  15.888  10.757   7.425  0.1255  0.0346 -0.2622
20440POPE   C4A33483  16.117  10.489   7.697  0.0038 -0.1248  0.0402
20440POPE   C1B33484  16.718  11.239   6.862 -0.2009  0.0418 -0.4240
20440POPE   C2B33485  16.745  11.273   7.226 -0.1711  0.0324  0.1173
20440POPE   C3B33486  16.468  11.347   7.596 -0.2919  0.5969 -0.1306
20440POPE   C4B33487  16.098  11.312   7.741 -0.1809 -0.3229  0.3018
20441POPE   NH333488  11.122   3.000   6.441 -0.0503 -0.3872 -0.2738
20441POPE   PO433489  11.293   3.435   6.489  0.0109  0.2965  0.0411
20441POPE   GL133490  11.346   3.414   6.911 -0.3786 -0.1629  0.0132
20441POPE   GL233491  11.442   3.110   6.929 -0.2603  0.2428  0.0080
20441POPE   C1A33492  11.278   3.530   7.332  0.0611  0.1648 -0.2859
20441POPE   D2A33493  11.066   3.766   7.725  0.0669 -0.1052  0.0020
20441POPE   C3A33494  11.101   4.008   8.168 -0.0504  0.2253  0.3861
20441POPE   C4A33495  11.121   4.293   8.468  0.3033 -0.0898 -0.0269
20441POPE   C1B33496  11.529   3.047   7.293  0.1977  0.2614  0.0618
20441POPE   C2B33497  11.444   3.144   7.601  0.1719  0.0743 -0.3079
20441POPE   C3B33498  11.266   3.329   8.024  0.0632  0.3512 -0.0962
20441POPE   C4B33499  11.310   3.167   8.436 -0.2347  0.2500  0.1071
20442POPE   NH333500  12.959  14.187   6.218  0.2194 -0.3131 -0.0509
20442POPE   PO433501  12.912  14.654   6.322  0.0535 -0.1614  0.0724
20442POPE   GL133502  12.996  14.878   6.759  0.1884  0.2785 -0.1993
20442POPE   GL233503  12.792  15.190   6.768  0.0016 -0.0230 -0.1413
20442POPE   C1A33504  13.104  15.157   7.186 -0.2236  0.2321  0.1343
20442POPE   D2A33505  13.162  15.096   7.604  0.0693  0.2117  0.1603
20442POPE   C3A33506  13.430  15.224   7.999  0.2358 -0.1221  0.3048
20442POPE   C4A33507  13.811  15.251   8.181 -0.0544 -0.1886  0.0033
20442POPE   C1B33508  12.718  15.479   7.107  0.1040 -0.2004 -0.1212
20442POPE   C2B33509  12.895  15.571   7.434 -0.3127  0.0037 -0.0082
20442POPE   C3B33510  12.947  15.450   7.829 -0.0200 -0.0720  0.3084
20442POPE   C4B33511  12.660  15.644   8.145 -0.2252  0.0121 -0.0276
20443POPE   NH333512  15.128   0.257   5.887 -0.1749  0.3571 -0.1689
20443POPE   PO433513  15.217   0.648   6.197  0.0439 -0.1577 -0.0198
20443POPE   GL133514  15.384   0.567   6.611 -0.1078  0.0186 -0.1008
20443POPE   GL233515  15.510   0.360   6.507  0.2931 -0.1603 -0.0226
20443POPE   C1A33516  15.208   0.660   7.046 -0.1891  0.0470 -0.0650
20443POPE   D2A33517  15.149   0.640   7.499  0.1773 -0.0023 -0.2022
20443POPE   C3A33518  15.014   0.746   7.916  0.0884  0.2977  0.2437
20443POPE   C4A33519  15.213   0.989   8.194 -0.0158 -0.0916 -0.2067
20443POPE   C1B33520  15.418   0.157   6.954  0.2499  0.0533  0.1786
20443POPE   C2B33521  15.388   0.212   7.327  0.1663 -0.0140 -0.4534
20443POPE   C3B33522  15.507   0.376   7.640 -0.0324 -0.0391 -0.0486
20443POPE   C4B33523  15.478   0.659   7.955 -0.0217  0.0310  0.1308
20444POPE   NH333524  11.843   3.469   6.519 -0.0001 -0.1280 -0.0864
20444POPE   PO433525  12.266   3.356   6.662  0.0728 -0.1288 -0.1022
20444POPE   GL133526  12.471   3.318   7.068 -0.1200  0.0867 -0.0263
20444POPE   GL233527  12.551   3.056   7.183  0.1669  0.0229 -0.0953
20444POPE   C1A33528  12.348   3.553   7.436  0.0014  0.2525 -0.1210
20444POPE   D2A33529  12.268   3.647   7.822 -0.0359 -0.2006  0.0472
20444POPE   C3A33530  12.473   3.992   8.006  0.2289 -0.1579 -0.0739
20444POPE   C4A33531  12.925   4.057   7.945  0.2155 -0.1365  0.1797
20444POPE   C1B33532  12.490   3.009   7.633 -0.1048 -0.0962 -0.1404
20444POPE   C2B33533  12.587   2.983   8.040 -0.0955  0.1702 -0.0869
20444POPE   C3B33534  12.627   2.616   8.259 -0.1549 -0.1135  0.0962
20444POPE   C4B33535  12.363   2.198   8.141  0.4478 -0.1491  0.0001
20445POPE   NH333536  15.828   5.059   6.195 -0.1248  0.5777  0.1348
20445POPE   PO433537  15.645   5.108   6.666  0.0216  0.1502  0.2535
20445POPE   GL133538  15.889   5.098   7.001 -0.0880  0.2512 -0.1453
20445POPE   GL233539  15.961   5.431   6.940  0.1094 -0.0551 -0.0302
20445POPE   C1A33540  15.771   4.970   7.461 -0.1467  0.2586  0.1089
20445POPE   D2A33541  15.639   4.977   7.853  0.0303  0.0948 -0.0412
20445POPE   C3A33542  15.828   4.967   8.095 -0.1511 -0.1168 -0.3489
20445POPE   C4A33543  15.800   5.155   8.470 -0.0072 -0.2007 -0.1777
20445POPE   C1B33544  15.993   5.423   7.341  0.1584 -0.0068 -0.1558
20445POPE   C2B33545  15.962   5.430   7.693 -0.1181  0.1268  0.0870
20445POPE   C3B33546  15.894   5.489   8.097  0.1096  0.0622  0.0330
20445POPE   C4B33547  16.064   5.773   8.418 -0.4354 -0.0304 -0.1850
20446POPE   NH333548  17.630  10.159   6.380  0.1459 -0.1775 -0.2354
20446POPE   PO433549  17.215  10.102   6.474  0.0232 -0.0400  0.2261
20446POPE   GL133550  17.238   9.978   6.840 -0.0505 -0.1969  0.1554
20446POPE   GL233551  17.469   9.913   6.871  0.1978 -0.0887  0.2111
20446POPE   C1A33552  17.164   9.890   7.332  0.1235  0.1444  0.1183
20446POPE   D2A33553  17.341   9.783   7.672  0.0289  0.0331  0.1557
20446POPE   C3A33554  17.136   9.546   7.938 -0.1279 -0.1077  0.4406
20446POPE   C4A33555  16.811   9.394   8.212  0.0678 -0.1555  0.2954
20446POPE   C1B33556  17.624   9.798   7.219 -0.0415 -0.2034  0.0756
20446POPE   C2B33557  17.827   9.808   7.691 -0.1279  0.1545  0.3230
20446POPE   C3B33558  18.085   9.621   7.854 -0.1322  0.0181  0.1129
20446POPE   C4B33559  18.365   9.754   8.095  0.0944  0.0963  0.1422
20447POPE   NH333560  14.019   6.581   6.270  0.0733 -0.0539 -0.0122
20447POPE   PO433561  14.104   7.036   6.045 -0.1647 -0.1860  0.0600
20447POPE   GL133562  14.050   7.147   6.468 -0.1653  0.2453  0.1155
20447POPE   GL233563  13.747   7.150   6.722  0.2083 -0.0264  0.0360
20447POPE   C1A33564  14.333   7.205   6.783  0.0798 -0.0230  0.5445
20447POPE   D2A33565  14.278   7.376   7.202 -0.0618 -0.0402 -0.0636
20447POPE   C3A33566  14.396   7.269   7.544  0.2336  0.1134 -0.1976
20447POPE   C4A33567  14.442   7.419   7.951  0.1822  0.2069  0.1635
20447POPE   C1B33568  13.901   7.051   7.125  0.0722 -0.0028 -0.1842
20447POPE   C2B33569  14.026   6.999   7.591  0.1935  0.1545 -0.1075
20447POPE   C3B33570  14.289   6.828   7.852 -0.1967 -0.1469  0.1010
20447POPE   C4B33571  14.368   6.702   8.275 -0.3316  0.0855  0.0256
20448POPE   NH333572  12.591  17.133   6.153  0.0652  0.1871 -0.0484
20448POPE   PO433573  12.987  17.325   6.217  0.0510  0.1347  0.1966
20448POPE   GL133574  13.066  17.639   6.522  0.0500  0.2883 -0.1447
20448POPE   GL233575  13.087  18.049   6.502 -0.0406  0.0737  0.1480
20448POPE   C1A33576  13.351  17.649   6.819 -0.0655 -0.2820 -0.0659
20448POPE   D2A33577  13.664  17.591   7.116  0.1533 -0.0729  0.0199
20448POPE   C3A33578  13.612  17.572   7.612 -0.1294  0.1771  0.0780
20448POPE   C4A33579  13.713  17.521   8.160  0.2710  0.0598  0.2715
20448POPE   C1B33580  12.878  17.765   6.966  0.0601 -0.5834  0.0607
20448POPE   C2B33581  12.844  17.828   7.415 -0.2407 -0.0905 -0.0195
20448POPE   C3B33582  12.832  18.103   7.801  0.4335  0.2466  0.1348
20448POPE   C4B33583  12.712  18.297   8.226  0.1962 -0.1312 -0.1175
20449POPE   NH333584  17.007   4.096   6.349 -0.1972 -0.0996 -0.1278
20449POPE   PO433585  16.666   3.902   6.094  0.2562 -0.2232 -0.3399
20449POPE   GL133586  16.565   3.957   6.474 -0.0604 -0.5975  0.1523
20449POPE   GL233587  16.483   4.235   6.435  0.0880  0.0049 -0.2469
20449POPE   C1A33588  16.699   3.637   6.898 -0.2255 -0.1536  0.3120
20449POPE   D2A33589  16.669   3.769   7.350  0.1705  0.0635  0.2291
20449POPE   C3A33590  17.007   3.941   7.610 -0.1974  0.0751  0.2918
20449POPE   C4A33591  17.334   4.130   7.832 -0.0658  0.0746 -0.1310
20449POPE   C1B33592  16.624   4.224   6.910  0.0908 -0.1174 -0.0223
20449POPE   C2B33593  16.685   4.223   7.405 -0.1463 -0.1220 -0.0927
20449POPE   C3B33594  16.576   4.092   7.807  0.0386  0.0527  0.0531
20449POPE   C4B33595  16.520   3.954   8.163  0.3972 -0.2221 -0.0491
20450POPE   NH333596  14.260  15.216   6.456 -0.0686  0.0074  0.0768
20450POPE   PO433597  14.673  15.030   6.288  0.1840  0.2144  0.0694
20450POPE   GL133598  14.708  15.167   6.781 -0.0008  0.1308  0.5372
20450POPE   GL233599  14.355  15.188   6.959  0.3838  0.1260 -0.1006
20450POPE   C1A33600  14.795  15.243   7.193 -0.3020 -0.0144 -0.0073
20450POPE   D2A33601  15.087  15.507   7.572  0.2480  0.2130 -0.1474
20450POPE   C3A33602  14.837  15.490   8.021 -0.1164  0.0161  0.0871
20450POPE   C4A33603  14.809  15.180   8.392  0.0130  0.0149 -0.0392
20450POPE   C1B33604  14.303  15.099   7.435  0.3220 -0.0370 -0.0326
20450POPE   C2B33605  14.631  15.164   7.696  0.2753  0.1419  0.0797
20450POPE   C3B33606  15.049  15.021   7.912 -0.1534  0.1314  0.1853
20450POPE   C4B33607  15.334  15.001   8.294 -0.0820  0.0898  0.0344
20451YOPE   NH333608  10.370   6.362   6.993 -0.2602  0.1608 -0.1436
20451YOPE   PO433609  10.815   6.352   7.077 -0.3674  0.4703  0.0107
20451YOPE   GL133610  11.009   6.200   7.385  0.4085  0.3538  0.2021
20451YOPE   GL233611  11.184   5.979   7.314  0.1130  0.4598  0.1623
20451YOPE   C1A33612  11.287   6.044   7.783 -0.0606  0.0404  0.3698
20451YOPE   D2A33613  11.332   6.113   8.219 -0.0349  0.0102 -0.0972
20451YOPE   C3A33614  11.245   6.297   8.384  0.0619  0.0319  0.0791
20451YOPE   C4A33615  11.534   6.527   8.720  0.0148  0.3720  0.1748
20451YOPE   C1B33616  11.388   5.643   7.513 -0.0618 -0.0280  0.0534
20451YOPE   C2B33617  11.356   5.533   7.899 -0.2323 -0.0156  0.1100
20451YOPE   D3B33618  11.547   5.464   8.337 -0.2609 -0.3158 -0.0820
20451YOPE   C4B33619  11.458   5.166   8.571 -0.0126  0.1394  0.0652
20452YOPE   NH333620   0.019  13.925   6.275  0.0509  0.0253  0.4193
20452YOPE   PO433621  -0.431  14.111   6.134 -0.0708  0.1704  0.0505
20452YOPE   GL133622  -0.390  13.935   6.524  0.1249  0.0999  0.0668
20452YOPE   GL233623  -0.683  13.845   6.628  0.1652 -0.0389  0.1960
20452YOPE   C1A33624  -0.330  13.924   6.964  0.0129  0.0196  0.0303
20452YOPE   D2A33625  -0.407  13.974   7.423 -0.0125 -0.0727  0.0603
20452YOPE   C3A33626  -0.235  14.087   7.670  0.0480  0.2455  0.1114
20452YOPE   C4A33627  -0.284  14.117   8.119 -0.2493  0.2584  0.2522
20452YOPE   C1B33628  -0.921  13.811   7.050 -0.1812 -0.1162 -0.0857
20452YOPE   C2B33629  -0.891  13.801   7.490 -0.0952 -0.2449  0.0104
20452YOPE   D3B33630  -0.684  13.845   7.747 -0.0776 -0.0324  0.1006
20452YOPE   C4B33631  -0.713  13.837   8.183 -0.0262  0.1202 -0.0055
20453YOPE   NH333632  11.861  17.439   6.335  0.0166 -0.1312 -0.0611
20453YOPE   PO433633  12.227  17.390   6.362  0.1511 -0.1329 -0.2652
20453YOPE   GL133634  12.240  17.573   6.753  0.1163 -0.1605  0.1559
20453YOPE   GL233635  12.417  17.820   6.644 -0.1938  0.0977  0.4240
20453YOPE   C1A33636  12.458  17.507   7.206 -0.1076  0.1096 -0.1434
20453YOPE   D2A33637  12.466  17.596   7.730  0.0811 -0.0383  0.2453
20453YOPE   C3A33638  12.779  17.614   7.949  0.1446 -0.2432  0.2186
20453YOPE   C4A33639  13.037  17.328   8.339  0.0810 -0.1454  0.0312
20453YOPE   C1B33640  12.400  18.007   7.140  0.3081  0.2445  0.2852
20453YOPE   C2B33641  12.388  18.054   7.524  0.0428 -0.2193 -0.3006
20453YOPE   D3B33642  12.339  18.062   7.932  0.0743  0.0198  0.2679
20453YOPE   C4B33643  12.396  17.889   8.189 -0.1330  0.0165  0.1464
20454YOPE   NH333644  12.403   4.818   6.288  0.0387  0.0207  0.1669
20454YOPE   PO433645  12.494   5.242   6.271 -0.0938 -0.1667 -0.2200
20454YOPE   GL133646  12.444   5.181   6.660 -0.0458  0.0788  0.1580
20454YOPE   GL233647  12.345   5.341   6.950 -0.1257  0.1208 -0.0207
20454YOPE   C1A33648  12.082   4.926   7.073  0.1923  0.0730 -0.2428
20454YOPE   D2A33649  11.645   4.912   7.189  0.0173  0.0747  0.1544
20454YOPE   C3A33650  11.471   4.648   7.500 -0.3915  0.2177  0.1311
20454YOPE   C4A33651  10.954   4.681   7.465 -0.0069 -0.0025 -0.2657
20454YOPE   C1B33652  12.548   5.402   7.315 -0.0067  0.0648  0.0855
20454YOPE   C2B33653  12.767   5.461   7.593  0.1359 -0.0792 -0.0336
20454YOPE   D3B33654  12.934   5.355   7.920  0.0918 -0.0667  0.1175
20454YOPE   C4B33655  12.931   5.318   8.336  0.2336  0.2057 -0.1656
20455YOPE   NH333656  16.063  14.152   6.091 -0.0502 -0.2454  0.0942
20455YOPE   PO433657  16.310  13.748   6.144 -0.2901 -0.0088 -0.1365
20455YOPE   GL133658  16.356  13.396   6.478 -0.0123 -0.0672 -0.2380
20455YOPE   GL233659  16.284  13.087   6.403 -0.1165  0.2769 -0.0972
20455YOPE   C1A33660  16.351  13.224   6.960  0.2544  0.2508  0.1337
20455YOPE   D2A33661  16.256  13.013   7.417  0.1521  0.2595 -0.0413
20455YOPE   C3A33662  15.842  13.113   7.581 -0.1905 -0.1619 -0.4514
20455YOPE   C4A33663  15.689  13.116   8.087  0.0854  0.0838  0.1213
20455YOPE   C1B33664  16.125  12.841   6.644 -0.2005  0.1181 -0.2668
20455YOPE   C2B33665  16.243  12.654   7.027 -0.1480 -0.0988  0.1542
20455YOPE   D3B33666  16.507  12.485   7.429  0.2980 -0.0239  0.2744
20455YOPE   C4B33667  16.602  12.264   7.696 -0.2060 -0.0250 -0.2160
20456YOPE   NH333668  10.981  17.204   6.269  0.1994 -0.0709 -0.1041
20456YOPE   PO433669  11.389  17.422   6.326 -0.2810 -0.1500  0.0948
20456YOPE   GL133670  11.533  17.493   6.700  0.1894 -0.1640  0.1031
20456YOPE   GL233671  11.697  17.764   6.652 -0.1257 -0.0899 -0.3809
20456YOPE   C1A33672  11.519  17.370   7.139  0.1133 -0.0886 -0.1419
20456YOPE   D2A33673  11.610  17.568   7.517 -0.3524 -0.1788 -0.1407
20456YOPE   C3A33674  11.667  17.392   7.866  0.3193 -0.0320 -0.0652
20456YOPE   C4A33675  11.634  17.430   8.413 -0.0446 -0.2564 -0.0689
20456YOPE   C1B33676  11.811  17.802   7.018  0.1957  0.0381 -0.1311
20456YOPE   C2B33677  12.037  17.768   7.361 -0.1717 -0.5465 -0.4093
20456YOPE   D3B33678  11.991  17.792   7.759  0.1490  0.2319  0.1450
20456YOPE   C4B33679  12.089  17.478   8.140 -0.2901  0.1882  0.2022
20457YOPE   NH333680  14.996   2.897   6.446 -0.1592  0.2801 -0.0225
20457YOPE   PO433681  15.014   3.188   6.543  0.2635  0.1096 -0.1499
20457YOPE   GL133682  15.292   3.257   6.915  0.0552  0.0143  0.2920
20457YOPE   GL233683  15.257   2.908   6.920 -0.1347  0.1607 -0.0603
20457YOPE   C1A33684  15.411   3.521   7.243 -0.0393 -0.2158 -0.3330
20457YOPE   D2A33685  15.282   3.568   7.661  0.0625 -0.0767 -0.2133
20457YOPE   C3A33686  15.416   3.761   7.991 -0.0756 -0.0455 -0.0401
20457YOPE   C4A33687  15.691   3.527   8.272 -0.1890 -0.2675 -0.0435
20457YOPE   C1B33688  14.995   3.072   7.313  0.1177 -0.2064  0.3776
20457YOPE   C2B33689  14.934   3.197   7.709  0.0406 -0.0131 -0.1902
20457YOPE   D3B33690  14.942   3.369   8.082  0.4125  0.2410 -0.2843
20457YOPE   C4B33691  15.157   3.531   8.336  0.2279  0.0602 -0.1351
20458YOPE   NH333692  14.230   8.103   5.955  0.1041 -0.1285 -0.0203
20458YOPE   PO433693  14.218   8.278   6.277  0.1370  0.1042 -0.5893
20458YOPE   GL133694  13.843   8.321   6.547 -0.1015 -0.0361  0.1990
20458YOPE   GL233695  13.751   8.127   6.755  0.1648  0.1701  0.2472
20458YOPE   C1A33696  13.428   8.507   6.766 -0.0982 -0.1504 -0.1141
20458YOPE   D2A33697  13.271   8.473   7.033 -0.0762 -0.1680  0.0888
20458YOPE   C3A33698  13.205   8.281   7.456 -0.0176  0.0106 -0.1069
20458YOPE   C4A33699  13.378   8.386   7.855  0.0575 -0.1495  0.3359
20458YOPE   C1B33700  13.723   8.315   7.186  0.0348  0.1761 -0.3047
20458YOPE   C2B33701  13.731   8.461   7.477 -0.0008  0.0040 -0.1755
20458YOPE   D3B33702  14.067   8.879   7.659  0.0482 -0.2125 -0.2869
20458YOPE   C4B33703  14.396   9.091   7.865 -0.1153  0.1251  0.0604
20459YOPE   NH333704  17.148  17.729   6.246  0.4216 -0.0628  0.2941
20459YOPE   PO433705  17.238  18.097   6.253  0.1372  0.3390  0.1536
20459YOPE   GL133706  17.387  18.185   6.729 -0.3159 -0.3804  0.2092
20459YOPE   GL233707  17.291  18.482   6.934  0.0827 -0.1361  0.0941
20459YOPE   C1A33708  17.375  17.950   7.074 -0.0320  0.2380  0.3084
20459YOPE   D2A33709  17.272  17.572   7.326 -0.4433  0.3764 -0.4520
20459YOPE   C3A33710  17.290  17.341   7.712  0.2488 -0.1756 -0.2364
20459YOPE   C4A33711  17.286  17.099   8.026 -0.1786 -0.0718  0.0321
20459YOPE   C1B33712  17.507  18.374   7.294 -0.1884  0.0752  0.1652
20459YOPE   C2B33713  17.671  18.189   7.601 -0.0578  0.2509 -0.0082
20459YOPE   D3B33714  17.785  18.123   8.082  0.1898 -0.0335  0.1480
20459YOPE   C4B33715  17.762  17.926   8.545  0.1113 -0.3178 -0.2365
20460YOPE   NH333716  13.568   7.114   6.266 -0.0131  0.2391  0.0103
20460YOPE   PO433717  13.558   6.734   6.508  0.1549  0.1644 -0.0920
20460YOPE   GL133718  13.552   6.562   6.984 -0.0173  0.1210 -0.4759
20460YOPE   GL233719  13.735   6.157   7.114 -0.0723 -0.1606 -0.3343
20460YOPE   C1A33720  13.790   6.607   7.411  0.1266  0.0448 -0.0403
20460YOPE   D2A33721  13.830   6.548   7.853 -0.1232 -0.2415  0.3066
20460YOPE   C3A33722  13.859   6.832   8.175  0.0573 -0.0480  0.0420
20460YOPE   C4A33723  13.694   7.123   8.527 -0.1184  0.1495 -0.2874
20460YOPE   C1B33724  13.707   5.939   7.474  0.1197 -0.1533 -0.1562
20460YOPE   C2B33725  13.877   6.057   7.805 -0.1880  0.2484 -0.0938
20460YOPE   D3B33726  14.106   6.249   8.184  0.1770 -0.2342 -0.2986
20460YOPE   C4B33727  14.286   6.171   8.511 -0.2509 -0.0345  0.2172
20461YOPE   NH333728  16.982   3.548   6.276 -0.0495  0.0506 -0.2781
20461YOPE   PO433729  17.369   3.567   6.348 -0.0960  0.1353 -0.0624
20461YOPE   GL133730  17.141   3.728   6.783  0.3010  0.2663  0.1010
20461YOPE   GL233731  17.070   4.081   6.877  0.2464 -0.1121 -0.0790
20461YOPE   C1A33732  17.159   3.689   7.181  0.1468  0.0734 -0.2668
20461YOPE   D2A33733  17.425   3.656   7.495  0.3246 -0.1163  0.1123
20461YOPE   C3A33734  17.292   3.619   7.884 -0.0166 -0.1548 -0.1871
20461YOPE   C4A33735  17.122   3.918   8.237 -0.1635  0.1551  0.4354
20461YOPE   C1B33736  17.289   4.144   7.269  0.0159 -0.1440  0.0966
20461YOPE   C2B33737  17.699   4.166   7.484 -0.1279 -0.1803 -0.0596
20461YOPE   D3B33738  17.873   3.946   7.808 -0.0619  0.2252  0.0488
20461YOPE   C4B33739  17.692   3.894   8.158 -0.2953  0.0834  0.0682
20462YOPE   NH333740  16.539  17.027   6.478 -0.1380  0.1488 -0.1579
20462YOPE   PO433741  16.953  16.942   6.252  0.3935 -0.1251 -0.0290
20462YOPE   GL133742  17.084  16.846   6.609  0.1404  0.2549 -0.2044
20462YOPE   GL233743  16.908  17.034   6.889 -0.0432 -0.0887 -0.0080
20462YOPE   C1A33744  17.200  16.642   6.961  0.0976 -0.2097  0.0022
20462YOPE   D2A33745  17.239  16.710   7.352 -0.0519 -0.1151 -0.2978
20462YOPE   C3A33746  17.429  16.723   7.705  0.0928  0.2660 -0.0545
20462YOPE   C4A33747  17.500  16.483   8.059 -0.0225  0.0077 -0.0699
20462YOPE   C1B33748  16.920  17.108   7.316 -0.2230  0.2677  0.1896
20462YOPE   C2B33749  16.876  17.019   7.650  0.0195  0.2153 -0.0241
20462YOPE   D3B33750  16.731  17.055   8.036  0.2059  0.4566 -0.0793
20462YOPE   C4B33751  16.250  16.906   8.074 -0.1494 -0.0510  0.1611
20463YOPE   NH333752  11.247   4.222   6.548 -0.0481 -0.0520 -0.1432
20463YOPE   PO433753  11.519   3.856   6.680  0.0562  0.0246  0.0021
20463YOPE   GL133754  11.575   3.876   7.089 -0.2265  0.0755  0.1573
20463YOPE   GL233755  11.439   4.198   7.034  0.4138  0.1641 -0.2262
20463YOPE   C1A33756  11.605   4.091   7.519  0.0750  0.2373 -0.2224
20463YOPE   D2A33757  11.402   4.124   7.816 -0.3250 -0.1296 -0.1504
20463YOPE   C3A33758  11.577   4.273   8.259  0.1709 -0.0699 -0.0091
20463YOPE   C4A33759  11.649   4.774   8.302  0.1714 -0.1812  0.2289
20463YOPE   C1B33760  11.141   4.154   7.318  0.0229 -0.0686 -0.0996
20463YOPE   C2B33761  10.854   4.271   7.664 -0.0567  0.3943  0.1474
20463YOPE   D3B33762  10.763   4.414   8.071 -0.2448 -0.2426  0.0281
20463YOPE   C4B33763  10.568   4.336   8.476 -0.2350 -0.5087  0.0139
20464YOPE   NH333764  16.521   0.903   6.073 -0.0495 -0.2456  0.0261
20464YOPE   PO433765  16.208   0.722   6.082 -0.0453  0.0705 -0.0520
20464YOPE   GL133766  16.315   0.880   6.557 -0.0942 -0.1835 -0.1270
20464YOPE   GL233767  16.478   1.278   6.503  0.0106 -0.5950 -0.2319
20464YOPE   C1A33768  16.365   0.683   6.943 -0.3115 -0.2110 -0.1255
20464YOPE   D2A33769  16.372   0.431   7.217 -0.2568 -0.3791 -0.1237
20464YOPE   C3A33770  16.458   0.588   7.694 -0.0175  0.2653 -0.2496
20464YOPE   C4A33771  16.434   0.532   8.148 -0.2060 -0.1148 -0.0529
20464YOPE   C1B33772  16.675   1.141   6.887 -0.1829 -0.1369 -0.0828
20464YOPE   C2B33773  16.892   1.264   7.250 -0.0228 -0.0679 -0.1927
20464YOPE   D3B33774  17.261   1.209   7.670 -0.1497 -0.1374  0.0823
20464YOPE   C4B33775  17.664   1.327   7.805  0.1640  0.1361 -0.2267
20465YOPE   NH333776  11.401   6.357   7.013 -0.3900  0.0308 -0.0446
20465YOPE   PO433777  11.493   6.763   6.811  0.0061  0.0459  0.0792
20465YOPE   GL133778  11.866   6.740   7.122 -0.1512  0.1239 -0.0297
20465YOPE   GL233779  12.154   6.700   7.030 -0.2452  0.1144  0.2522
20465YOPE   C1A33780  12.011   6.440   7.479 -0.1475  0.0765 -0.0568
20465YOPE   D2A33781  12.167   6.138   7.852  0.2010  0.3766 -0.3073
20465YOPE   C3A33782  12.480   5.913   7.853 -0.2972 -0.1450  0.1830
20465YOPE   C4A33783  12.777   5.823   8.147  0.1287  0.3247  0.1556
20465YOPE   C1B33784  12.345   6.803   7.449 -0.1517 -0.3832  0.2268
20465YOPE   C2B33785  12.281   6.615   7.880 -0.1565  0.2331 -0.0784
20465YOPE   D3B33786  12.387   6.794   8.295  0.0496 -0.1119  0.1315
20465YOPE   C4B33787  12.281   7.023   8.586 -0.0850 -0.1550 -0.1376
20466YOPE   NH333788   0.707   2.779   6.306 -0.0223  0.0001 -0.1515
20466YOPE   PO433789   0.351   3.139   6.205  0.0784 -0.0659 -0.0792
20466YOPE   GL133790   0.429   3.166   6.594 -0.1208  0.2282  0.0392
20466YOPE   GL233791   0.381   2.929   6.692 -0.2164  0.1813 -0.0878
20466YOPE   C1A33792   0.643   3.315   6.925  0.1250  0.0241  0.0866
20466YOPE   D2A33793   0.598   3.335   7.429 -0.0373 -0.1164  0.0632
20466YOPE   C3A33794   0.585   2.993   7.605  0.0147 -0.2326  0.1950
20466YOPE   C4A33795   0.612   2.981   7.988  0.1440  0.0543 -0.1267
20466YOPE   C1B33796   0.350   2.809   7.136 -0.4009  0.0708 -0.0768
20466YOPE   C2B33797   0.328   2.532   7.422  0.0181 -0.2882  0.0735
20466YOPE   D3B33798   0.478   2.508   7.769 -0.2787  0.3156 -0.0522
20466YOPE   C4B33799   0.513   2.380   8.082  0.2730 -0.3119  0.1766
20467YOPE   NH333800  17.356  11.061   6.124 -0.0762 -0.0652 -0.0885
20467YOPE   PO433801  16.938  10.919   6.191 -0.0354  0.4989  0.1505
20467YOPE   GL133802  17.024  10.913   6.529 -0.0617  0.0464  0.0113
20467YOPE   GL233803  16.928  10.596   6.661  0.1371  0.1539 -0.1371
20467YOPE   C1A33804  17.101  10.981   6.970  0.0410 -0.0133  0.4177
20467YOPE   D2A33805  17.024  10.769   7.313 -0.0820 -0.2957 -0.1884
20467YOPE   C3A33806  16.991  11.009   7.655  0.0340  0.2446 -0.0063
20467YOPE   C4A33807  17.399  11.163   7.850 -0.2236 -0.2249 -0.1005
20467YOPE   C1B33808  16.915  10.321   7.068  0.1309 -0.0243 -0.2267
20467YOPE   C2B33809  16.951  10.336   7.556  0.2272  0.2436 -0.0054
20467YOPE   D3B33810  17.091  10.189   7.930 -0.0333  0.0659  0.1627
20467YOPE   C4B33811  17.486  10.222   8.270 -0.3673  0.0525  0.1354
20468YOPE   NH333812  11.273  17.959   6.380  0.2488  0.3579  0.0280
20468YOPE   PO433813  11.063  17.616   6.023  0.0451 -0.0521 -0.0086
20468YOPE   GL133814  10.923  17.621   6.543 -0.0984 -0.2274 -0.0878
20468YOPE   GL233815  11.110  17.779   6.791  0.0643 -0.1141 -0.1122
20468YOPE   C1A33816  10.738  17.554   6.976 -0.2384  0.0223 -0.2457
20468YOPE   D2A33817  10.717  17.517   7.401 -0.4054  0.0484  0.0518
20468YOPE   C3A33818  10.945  17.639   7.794  0.1484  0.0299  0.0581
20468YOPE   C4A33819  11.332  17.678   8.029  0.1307 -0.1992 -0.0264
20468YOPE   C1B33820  11.102  17.773   7.232 -0.2193 -0.0206 -0.1342
20468YOPE   C2B33821  11.103  18.150   7.664  0.0012 -0.1054  0.0690
20468YOPE   D3B33822  10.977  18.514   7.922 -0.1062  0.3139 -0.0870
20468YOPE   C4B33823  10.674  18.425   8.201 -0.0493  0.0943 -0.1114
20469YOPE   NH333824  11.587  13.292   6.512  0.1127 -0.2601  0.0882
20469YOPE   PO433825  12.066  13.460   6.615 -0.1199 -0.0223  0.2061
20469YOPE   GL133826  12.166  13.649   6.930 -0.1132 -0.1556  0.2602
20469YOPE   GL233827  12.502  13.792   6.974 -0.2772 -0.1645  0.0802
20469YOPE   C1A33828  12.046  13.812   7.334  0.2983  0.1878  0.3009
20469YOPE   D2A33829  11.662  13.754   7.574  0.1286  0.1951  0.3130
20469YOPE   C3A33830  11.613  13.938   8.009  0.2918  0.2571  0.2583
20469YOPE   C4A33831  11.508  14.294   8.208 -0.0069 -0.0462 -0.0450
20469YOPE   C1B33832  12.821  13.494   6.996  0.1061 -0.1288  0.0585
20469YOPE   C2B33833  12.937  13.257   7.391  0.0892 -0.0784  0.1999
20469YOPE   D3B33834  13.127  13.267   7.819 -0.0384 -0.4682  0.0472
20469YOPE   C4B33835  13.256  13.409   8.102  0.1166  0.0127 -0.0527
20470YOPE   NH333836  15.521   3.903   6.317 -0.1314  0.1473 -0.0666
20470YOPE   PO433837  15.650   4.345   6.443 -0.1159 -0.1292  0.2487
20470YOPE   GL133838  15.825   4.227   6.740 -0.4297  0.2133 -0.0365
20470YOPE   GL233839  16.117   4.312   6.810  0.0338 -0.2305 -0.0044
20470YOPE   C1A33840  15.773   3.988   7.186 -0.0690 -0.4366 -0.2609
20470YOPE   D2A33841  15.739   3.896   7.578  0.1678 -0.0222 -0.0533
20470YOPE   C3A33842  15.894   3.908   8.006 -0.1735  0.0233 -0.0305
20470YOPE   C4A33843  15.641   4.067   8.325  0.4728  0.1690 -0.0715
20470YOPE   C1B33844  16.172   4.304   7.111 -0.0388 -0.2663  0.0412
20470YOPE   C2B33845  16.330   4.528   7.431 -0.0494  0.0769  0.1972
20470YOPE   D3B33846  16.575   4.591   7.757 -0.2061  0.2832  0.1880
20470YOPE   C4B33847  16.927   4.346   8.066  0.0878  0.2453 -0.1479
20471YOPE   NH333848  14.458   1.633   6.472  0.6060  0.1117 -0.1316
20471YOPE   PO433849  14.144   1.943   6.421 -0.1445 -0.3433  0.5318
20471YOPE   GL133850  14.084   1.943   6.847 -0.3153 -0.3367 -0.0525
20471YOPE   GL233851  13.811   2.012   6.929  0.0964  0.2890  0.1244
20471YOPE   C1A33852  14.142   1.962   7.285 -0.1558  0.1110  0.1252
20471YOPE   D2A33853  14.279   1.928   7.660 -0.2807  0.1733  0.2510
20471YOPE   C3A33854  13.999   1.809   8.002 -0.1385 -0.0910  0.1716
20471YOPE   C4A33855  13.836   1.806   8.422 -0.2133 -0.1137  0.1813
20471YOPE   C1B33856  13.743   1.725   7.225  0.3599 -0.0001  0.0871
20471YOPE   C2B33857  13.837   1.562   7.566 -0.2738 -0.2682 -0.0246
20471YOPE   D3B33858  13.874   1.350   7.865  0.0425 -0.1957 -0.3555
20471YOPE   C4B33859  13.838   1.298   8.249  0.1192 -0.0288  0.1246
20472YOPE   NH333860  15.858   7.619   6.639  0.1372  0.1977  0.0934
20472YOPE   PO433861  15.432   7.620   6.461 -0.0798  0.4039 -0.2550
20472YOPE   GL133862  15.443   7.547   6.893  0.1655  0.0512  0.4276
20472YOPE   GL233863  15.284   7.237   6.948 -0.3445  0.0395 -0.0009
20472YOPE   C1A33864  15.686   7.564   7.340  0.1044  0.0257 -0.0482
20472YOPE   D2A33865  15.708   7.449   7.760 -0.1096 -0.2371  0.1981
20472YOPE   C3A33866  16.050   7.464   8.041  0.3057  0.2528  0.2554
20472YOPE   C4A33867  16.129   7.712   8.413  0.2787  0.2160  0.0568
20472YOPE   C1B33868  15.283   7.171   7.413  0.2280  0.2553  0.2791
20472YOPE   C2B33869  15.344   7.144   7.882 -0.0548  0.0137  0.1422
20472YOPE   D3B33870  15.305   7.087   8.321  0.1337 -0.1386  0.0520
20472YOPE   C4B33871  15.327   7.423   8.570 -0.0495 -0.0626 -0.0861
20473YOPE   NH333872  13.790   7.934   6.209  0.0237 -0.2484 -0.0658
20473YOPE   PO433873  14.127   7.639   6.096 -0.0560  0.2288  0.1577
20473YOPE   GL133874  14.195   7.796   6.496 -0.2024  0.0335  0.0150
20473YOPE   GL233875  13.962   7.641   6.663  0.3402 -0.1306 -0.2266
20473YOPE   C1A33876  14.450   7.717   6.795 -0.1004 -0.1230  0.1532
20473YOPE   D2A33877  14.670   7.868   7.127  0.1057  0.2054 -0.0235
20473YOPE   C3A33878  14.610   7.759   7.559  0.0226  0.1150  0.0176
20473YOPE   C4A33879  14.629   7.895   7.973  0.0324  0.3390 -0.4474
20473YOPE   C1B33880  13.792   7.566   7.037 -0.2147 -0.1709  0.2895
20473YOPE   C2B33881  13.813   7.474   7.455  0.2941  0.1288  0.0401
20473YOPE   D3B33882  13.947   7.372   7.922  0.2775  0.0476 -0.0667
20473YOPE   C4B33883  14.148   7.175   8.306  0.0162 -0.0557 -0.0988
20474YOPE   NH333884  13.409  17.013   6.175  0.1634  0.1772  0.1692
20474YOPE   PO433885  13.770  17.191   6.058 -0.0428  0.2752 -0.3567
20474YOPE   GL133886  13.862  17.049   6.454 -0.0162  0.0712  0.1454
20474YOPE   GL233887  13.711  16.801   6.556 -0.0548 -0.2098  0.2705
20474YOPE   C1A33888  13.833  17.187   6.853 -0.2203  0.2771  0.0954
20474YOPE   D2A33889  13.715  17.129   7.233  0.0285  0.1368  0.1352
20474YOPE   C3A33890  13.386  17.218   7.175  0.4388  0.3765  0.0524
20474YOPE   C4A33891  13.193  17.512   7.330  0.0456  0.0989 -0.0275
20474YOPE   C1B33892  13.474  16.705   6.887 -0.0483 -0.0335  0.0127
20474YOPE   C2B33893  13.551  16.694   7.348 -0.1195  0.1118 -0.3540
20474YOPE   D3B33894  13.391  17.040   7.696  0.1408  0.1892  0.2506
20474YOPE   C4B33895  13.227  17.336   7.894  0.0903  0.2697  0.3137
20475YOPE   NH333896  11.962   5.555   6.646 -0.0876 -0.2345  0.1463
20475YOPE   PO433897  11.704   5.188   6.603 -0.0612 -0.0151  0.0573
20475YOPE   GL133898  11.557   5.342   6.923 -0.1159  0.1611 -0.2528
20475YOPE   GL233899  11.321   5.558   6.948 -0.0464 -0.1509  0.0342
20475YOPE   C1A33900  11.271   5.184   7.286  0.0101 -0.0435  0.0541
20475YOPE   D2A33901  11.467   5.046   7.749 -0.2222  0.0167 -0.0435
20475YOPE   C3A33902  11.935   4.924   7.676 -0.0490  0.1124  0.0709
20475YOPE   C4A33903  12.160   4.706   8.064 -0.0071  0.0875 -0.0597
20475YOPE   C1B33904  10.961   5.531   7.317  0.3573  0.0212 -0.0428
20475YOPE   C2B33905  10.976   5.266   7.698  0.0314  0.1459 -0.0730
20475YOPE   D3B33906  10.929   4.890   7.917  0.2789  0.0958 -0.3042
20475YOPE   C4B33907  11.227   4.556   7.989 -0.3386  0.0519 -0.0518
20476YOPE   NH333908  13.300   0.391   6.128 -0.1614 -0.1642 -0.0558
20476YOPE   PO433909  13.689   0.666   6.035 -0.0405 -0.0727 -0.1894
20476YOPE   GL133910  13.650   0.489   6.474  0.0101 -0.1908  0.2213
20476YOPE   GL233911  13.865   0.420   6.636  0.2136 -0.1998  0.1901
20476YOPE   C1A33912  13.385   0.377   6.771  0.3722  0.1529  0.0685
20476YOPE   D2A33913  13.029   0.257   6.984  0.0113  0.1261 -0.2158
20476YOPE   C3A33914  12.945   0.467   7.440  0.0480 -0.2047  0.0007
20476YOPE   C4A33915  12.899   0.677   7.650 -0.0424  0.1622 -0.0052
20476YOPE   C1B33916  14.159   0.338   6.989  0.0365  0.0497  0.0314
20476YOPE   C2B33917  14.011   0.464   7.347 -0.0716  0.0481 -0.3250
20476YOPE   D3B33918  14.000   0.491   7.706 -0.3593  0.0294 -0.0670
20476YOPE   C4B33919  13.731   0.498   8.050 -0.2108  0.0825 -0.0240
20477YOPE   NH333920  13.666   1.769   6.433 -0.1470 -0.2807  0.0732
20477YOPE   PO433921  13.545   1.414   6.357 -0.2388  0.0253  0.0436
20477YOPE   GL133922  13.674   1.300   6.818 -0.1940  0.0582  0.2789
20477YOPE   GL233923  13.874   1.489   6.796  0.0174  0.0600 -0.1877
20477YOPE   C1A33924  13.570   1.220   7.162 -0.2761 -0.1423 -0.1305
20477YOPE   D2A33925  13.465   1.229   7.597  0.0353  0.3800 -0.2578
20477YOPE   C3A33926  13.561   0.979   7.988  0.2311  0.0959  0.0918
20477YOPE   C4A33927  13.495   0.906   8.443  0.1479  0.0270  0.2498
20477YOPE   C1B33928  14.130   1.421   7.205 -0.0125 -0.1863 -0.3274
20477YOPE   C2B33929  14.317   1.322   7.525 -0.0224  0.0737 -0.1473
20477YOPE   D3B33930  14.473   1.235   7.910  0.1176 -0.1289 -0.1602
20477YOPE   C4B33931  14.591   0.984   8.145 -0.0622 -0.0131 -0.0769
20478POPC   NC333932  11.503   5.593   6.447  0.1038 -0.2245  0.2694
20478POPC   PO433933  11.562   5.977   6.717  0.1356  0.1496 -0.1384
20478POPC   GL133934  11.638   5.880   7.153 -0.1082 -0.1091 -0.1133
20478POPC   GL233935  11.926   5.544   7.145 -0.1305 -0.0613 -0.1307
20478POPC   C1A33936  11.780   6.019   7.564 -0.0776  0.0497  0.1257
20478POPC   D2A33937  11.794   5.874   7.960 -0.1344 -0.0100  0.0008
20478POPC   C3A33938  12.112   5.807   8.225  0.3341 -0.1661  0.0622
20478POPC   C4A33939  12.410   5.959   8.483  0.1002  0.0500 -0.2001
20478POPC   C1B33940  11.771   5.335   7.462 -0.0699 -0.1538  0.1054
20478POPC   C2B33941  11.902   5.315   7.923 -0.0133 -0.0530  0.0344
20478POPC   C3B33942  12.026   5.202   8.283  0.0972  0.1056  0.1695
20478POPC   C4B33943  12.122   5.134   8.738 -0.2570 -0.0933 -0.0573
20479POPC   NC333944  14.254  13.700   5.978 -0.2249  0.1391 -0.2426
20479POPC   PO433945  14.378  13.254   5.994 -0.3623 -0.1965 -0.1646
20479POPC   GL133946  14.459  13.054   6.299  0.0787 -0.0293 -0.1035
20479POPC   GL233947  14.214  13.077   6.566  0.2975  0.1123 -0.1725
20479POPC   C1A33948  14.707  13.204   6.646  0.2476  0.2175 -0.0392
20479POPC   D2A33949  14.801  13.314   7.081  0.1868 -0.0680  0.1989
20479POPC   C3A33950  14.932  13.044   7.352 -0.0989 -0.2131 -0.0819
20479POPC   C4A33951  14.666  12.782   7.562 -0.2616  0.2168  0.4328
20479POPC   C1B33952  14.478  12.895   6.952 -0.1134  0.1269  0.2355
20479POPC   C2B33953  14.904  12.812   6.934  0.0016 -0.2104  0.0176
20479POPC   C3B33954  15.396  12.818   6.775  0.1507 -0.1551  0.1819
20479POPC   C4B33955  15.710  12.516   6.791 -0.1210 -0.2967  0.2028
20480POPC   NC333956  14.415  11.756   5.938 -0.1784  0.1461 -0.5576
20480POPC   PO433957  14.844  11.712   5.818  0.2813 -0.0139 -0.1163
20480POPC   GL133958  14.867  11.654   6.259  0.0398  0.0752 -0.0537
20480POPC   GL233959  14.653  11.427   6.441  0.0369  0.1123 -0.2260
20480POPC   C1A33960  14.983  11.975   6.519  0.0011  0.3892  0.1168
20480POPC   D2A33961  14.912  11.997   7.034  0.0377  0.1484  0.3911
20480POPC   C3A33962  15.162  11.921   7.245 -0.0537  0.2069  0.3385
20480POPC   C4A33963  15.228  11.840   7.688 -0.2781  0.1819 -0.1960
20480POPC   C1B33964  14.793  11.593   6.765 -0.2260  0.1332  0.0734
20480POPC   C2B33965  14.677  11.556   7.230  0.0876 -0.2488  0.1218
20480POPC   C3B33966  14.338  11.642   7.634  0.1827 -0.1876 -0.0097
20480POPC   C4B33967  14.286  11.761   8.052  0.1610 -0.0241 -0.1974
20481POPC   NC333968  11.547   1.308   6.230  0.0171  0.0066  0.0344
20481POPC   PO433969  11.873   1.236   6.508 -0.2893  0.0949  0.5174
20481POPC   GL133970  11.873   1.264   6.901 -0.2465 -0.0873 -0.1266
20481POPC   GL233971  12.165   1.369   7.029  0.0384  0.1505  0.1388
20481POPC   C1A33972  11.721   1.166   7.297  0.0876  0.0619  0.0523
20481POPC   D2A33973  11.519   1.340   7.657 -0.0316  0.1924 -0.1414
20481POPC   C3A33974  11.278   1.047   7.849  0.3077 -0.0111 -0.3678
20481POPC   C4A33975  10.963   0.944   8.247 -0.3478  0.0331 -0.0929
20481POPC   C1B33976  12.127   1.365   7.503  0.1027  0.1015  0.3048
20481POPC   C2B33977  11.942   1.389   7.921  0.1401 -0.4096  0.1264
20481POPC   C3B33978  11.647   1.414   8.151 -0.1267  0.0128 -0.0845
20481POPC   C4B33979  11.389   1.394   8.451  0.0015  0.1426  0.1132
20482POPC   NC333980  16.023  10.400   6.051  0.0810 -0.1826 -0.0554
20482POPC   PO433981  15.697  10.744   5.837 -0.0582  0.2884 -0.1355
20482POPC   GL133982  15.744  10.726   6.321  0.3046 -0.1743  0.0584
20482POPC   GL233983  15.551  10.905   6.507  0.1728 -0.3204 -0.0500
20482POPC   C1A33984  15.887  10.614   6.765 -0.2351 -0.3530 -0.0523
20482POPC   D2A33985  15.939  10.421   7.067 -0.3155 -0.1879 -0.1215
20482POPC   C3A33986  15.650  10.328   7.369 -0.3717  0.0003 -0.2905
20482POPC   C4A33987  15.676  10.484   7.842  0.0209 -0.0708  0.1225
20482POPC   C1B33988  15.470  10.843   7.046 -0.2076  0.0318 -0.2036
20482POPC   C2B33989  15.330  10.699   7.479  0.4816  0.0366 -0.1346
20482POPC   C3B33990  15.178  10.639   7.846  0.2451 -0.2474  0.0302
20482POPC   C4B33991  15.218  10.476   8.249  0.1699 -0.1002 -0.0596
20483POPC   NC333992   0.010   1.233   5.807  0.4370 -0.2741 -0.2826
20483POPC   PO433993  -0.073   1.620   5.929  0.0189 -0.1759 -0.2682
20483POPC   GL133994  -0.421   1.464   6.147 -0.2600  0.0963 -0.0248
20483POPC   GL233995  -0.617   1.728   6.329  0.0419  0.0298 -0.0253
20483POPC   C1A33996  -0.570   1.171   6.587 -0.2086 -0.0457  0.6235
20483POPC   D2A33997  -0.793   1.025   6.907  0.0581 -0.1242 -0.0978
20483POPC   C3A33998  -0.739   0.851   7.273 -0.0462  0.0950  0.0048
20483POPC   C4A33999  -0.745   0.593   7.637  0.0123 -0.2194  0.4074
20483POPC   C1B34000  -0.630   2.057   6.630 -0.0488  0.2250 -0.2316
20483POPC   C2B34001  -0.525   2.328   6.905  0.1148 -0.1644 -0.0281
20483POPC   C3B34002  -0.502   2.341   7.270  0.0205 -0.1053  0.0933
20483POPC   C4B34003  -0.448   2.389   7.688 -0.0289 -0.2741  0.1495
20484POPC   NC334004  12.785   3.356   6.686 -0.3251 -0.1133  0.0938
20484POPC   PO434005  13.157   3.432   6.645 -0.0627  0.2740  0.1795
20484POPC   GL134006  13.094   3.731   7.030 -0.0909 -0.0079 -0.1449
20484POPC   GL234007  13.201   3.981   7.097  0.0981 -0.2693  0.0934
20484POPC   C1A34008  12.861   3.586   7.399 -0.0883 -0.2651 -0.0080
20484POPC   D2A34009  12.794   3.439   7.757 -0.0615 -0.1392 -0.0000
20484POPC   C3A34010  12.860   3.647   8.210  0.1599  0.0714 -0.1922
20484POPC   C4A34011  12.805   4.079   8.414 -0.0718  0.0361 -0.0537
20484POPC   C1B34012  13.093   4.030   7.515  0.0001  0.0787  0.1400
20484POPC   C2B34013  13.270   4.399   7.722  0.2975 -0.0246 -0.1211
20484POPC   C3B34014  13.438   4.694   8.029  0.2224  0.0781  0.0684
20484POPC   C4B34015  13.643   4.681   8.381  0.2852  0.0731 -0.0613
20485POPC   NC334016  16.301   2.619   6.147 -0.3819 -0.0338 -0.1298
20485POPC   PO434017  16.404   3.022   6.233  0.1443  0.2128  0.0767
20485POPC   GL134018  16.215   3.049   6.614 -0.2616 -0.2798 -0.0167
20485POPC   GL234019  16.384   3.244   6.861  0.1535 -0.0756  0.1648
20485POPC   C1A34020  16.015   2.856   7.005 -0.3726 -0.3234  0.0055
20485POPC   D2A34021  16.047   2.936   7.431 -0.2078 -0.0575  0.3162
20485POPC   C3A34022  15.834   2.705   7.734  0.4091 -0.2052  0.1501
20485POPC   C4A34023  15.873   2.304   7.920 -0.0142  0.3218 -0.3693
20485POPC   C1B34024  16.369   3.314   7.314 -0.1040 -0.2182  0.2399
20485POPC   C2B34025  16.332   3.166   7.754  0.0737  0.0696 -0.0824
20485POPC   C3B34026  16.608   3.094   8.153  0.3114  0.0509 -0.1874
20485POPC   C4B34027  16.717   2.784   8.392  0.0423 -0.1530 -0.1499
20486POPC   NC334028  15.227  13.508   5.598 -0.1256 -0.1199  0.0710
20486POPC   PO434029  15.264  13.512   5.954 -0.4190 -0.2636 -0.0848
20486POPC   GL134030  15.037  13.569   6.310 -0.0333 -0.0875  0.2169
20486POPC   GL234031  15.094  13.327   6.462  0.2166 -0.0101  0.1526
20486POPC   C1A34032  14.891  13.685   6.768 -0.4732 -0.0284 -0.2364
20486POPC   D2A34033  14.780  13.868   7.136  0.0260 -0.0747 -0.1670
20486POPC   C3A34034  14.669  13.659   7.452 -0.0989 -0.0366 -0.1434
20486POPC   C4A34035  14.678  13.792   7.880  0.1688 -0.0061 -0.1456
20486POPC   C1B34036  15.284  13.252   6.971  0.0815  0.2171  0.0106
20486POPC   C2B34037  15.426  13.199   7.337 -0.0067  0.0927 -0.1171
20486POPC   C3B34038  15.393  13.218   7.746 -0.0019 -0.3783 -0.2118
20486POPC   C4B34039  15.108  13.032   7.937 -0.3523 -0.2067 -0.1780
20487POPC   NC334040  13.884   0.198   6.082  0.2757  0.1472  0.1101
20487POPC   PO434041  13.591   0.035   6.264 -0.3590  0.3172  0.0050
20487POPC   GL134042  13.675  -0.008   6.627 -0.0641 -0.0390  0.2749
20487POPC   GL234043  13.845  -0.312   6.695 -0.3611 -0.1381 -0.1702
20487POPC   C1A34044  13.692   0.145   7.019  0.0351  0.2522 -0.0469
20487POPC   D2A34045  13.349   0.024   7.379 -0.0363  0.1380  0.2270
20487POPC   C3A34046  13.210  -0.163   7.776  0.1186  0.1485  0.3204
20487POPC   C4A34047  13.182  -0.180   8.192 -0.1981 -0.1809 -0.0903
20487POPC   C1B34048  14.066  -0.133   7.061  0.1357 -0.0829  0.0489
20487POPC   C2B34049  13.844   0.017   7.478 -0.1762  0.0591 -0.2421
20487POPC   C3B34050  13.647   0.046   7.873  0.6201  0.1896 -0.2223
20487POPC   C4B34051  13.786   0.032   8.280  0.3889 -0.2483  0.1112
20488POPC   NC334052  15.221   7.146   6.467  0.0098 -0.2822  0.0426
20488POPC   PO434053  15.616   7.108   6.586 -0.1960  0.0043  0.0855
20488POPC   GL134054  15.769   7.132   7.009  0.1720  0.4541  0.2210
20488POPC   GL234055  15.818   6.876   7.103  0.0737 -0.0524 -0.2750
20488POPC   C1A34056  16.090   7.350   7.217 -0.1887 -0.0999 -0.0509
20488POPC   D2A34057  16.332   7.309   7.600 -0.1072  0.1262  0.1690
20488POPC   C3A34058  16.571   7.577   7.822  0.5882 -0.5313 -0.0219
20488POPC   C4A34059  16.573   7.518   8.324 -0.2279 -0.2520 -0.1127
20488POPC   C1B34060  15.776   6.995   7.500  0.1144 -0.2426  0.1544
20488POPC   C2B34061  15.809   6.958   7.988 -0.2237  0.0792 -0.1395
20488POPC   C3B34062  15.755   7.218   8.483  0.1138  0.1220 -0.1612
20488POPC   C4B34063  15.573   7.131   8.910  0.4505  0.3437 -0.2410
20489POPC   NC334064  15.424  11.703   5.677  0.2046  0.2012 -0.0430
20489POPC   PO434065  15.292  11.436   6.010  0.0496 -0.0745  0.3184
20489POPC   GL134066  15.317  11.620   6.403  0.0795  0.0224  0.1673
20489POPC   GL234067  15.693  11.404   6.461 -0.1995 -0.1464 -0.2197
20489POPC   C1A34068  15.291  11.700   6.799  0.1379  0.0462 -0.0810
20489POPC   D2A34069  15.166  11.407   7.143  0.1471 -0.1104  0.1329
20489POPC   C3A34070  15.148  11.281   7.497  0.0902  0.0031  0.0553
20489POPC   C4A34071  14.849  11.503   7.767  0.1749  0.0917  0.0270
20489POPC   C1B34072  15.592  11.293   6.898  0.0643 -0.0827 -0.1869
20489POPC   C2B34073  15.657  11.228   7.340  0.1734  0.0199 -0.0772
20489POPC   C3B34074  15.515  11.090   7.791  0.1358 -0.1424 -0.0321
20489POPC   C4B34075  15.263  11.376   8.027  0.5793  0.0496 -0.1047
20490POPC   NC334076  15.687  12.728   5.712 -0.0906  0.1686 -0.1522
20490POPC   PO434077  16.112  12.515   5.764  0.1227 -0.4167  0.3382
20490POPC   GL134078  16.238  12.467   6.201  0.1809  0.2447 -0.1296
20490POPC   GL234079  16.501  12.620   6.366  0.4939  0.0920  0.2729
20490POPC   C1A34080  16.276  12.325   6.647  0.1652  0.0765 -0.0619
20490POPC   D2A34081  16.198  12.113   7.049  0.0372  0.0494 -0.1147
20490POPC   C3A34082  16.036  12.238   7.403 -0.0886  0.0941 -0.1822
20490POPC   C4A34083  15.998  12.555   7.657  0.0728  0.1947 -0.0017
20490POPC   C1B34084  16.598  12.853   6.685 -0.1290 -0.1197 -0.1153
20490POPC   C2B34085  16.696  12.837   7.036 -0.0092 -0.3115 -0.2531
20490POPC   C3B34086  16.782  12.866   7.515 -0.2246 -0.3426 -0.0309
20490POPC   C4B34087  16.892  12.616   7.877  0.3485  0.2471 -0.0652
20491POPC   NC334088   0.987  13.686   6.185  0.0421  0.2493  0.1172
20491POPC   PO434089   0.882  14.063   6.283  0.1662  0.0813  0.0957
20491POPC   GL134090   0.666  14.106   6.646 -0.0800 -0.0322  0.0467
20491POPC   GL234091   0.496  13.943   6.604 -0.0058  0.1387  0.0990
20491POPC   C1A34092   0.510  14.132   7.129 -0.0347  0.3569 -0.4723
20491POPC   D2A34093   0.468  14.210   7.531 -0.2034 -0.0189  0.0637
20491POPC   C3A34094   0.204  14.310   7.752 -0.1401 -0.1211  0.2820
20491POPC   C4A34095   0.129  14.588   8.074 -0.1780 -0.0981  0.1770
20491POPC   C1B34096   0.125  13.917   6.964 -0.3200 -0.0115 -0.5020
20491POPC   C2B34097   0.078  13.824   7.373 -0.0534  0.2681  0.0831
20491POPC   C3B34098   0.138  13.737   7.703 -0.0319  0.1064 -0.0801
20491POPC   C4B34099   0.195  13.789   8.074 -0.0456  0.0807  0.0962
20492POPC   NC334100  13.028   5.226   6.104 -0.1658  0.1866  0.1498
20492POPC   PO434101  12.883   4.926   6.452  0.1783  0.2604  0.1427
20492POPC   GL134102  12.832   5.051   6.902 -0.3230  0.0816  0.0523
20492POPC   GL234103  12.936   5.385   7.036  0.1546  0.3329 -0.2198
20492POPC   C1A34104  12.576   4.944   7.212  0.2530  0.1884 -0.1572
20492POPC   D2A34105  12.490   4.966   7.706 -0.0549 -0.0001 -0.1644
20492POPC   C3A34106  12.583   4.938   8.187 -0.1610  0.1384  0.1425
20492POPC   C4A34107  12.603   4.977   8.623 -0.0876 -0.1962  0.3036
20492POPC   C1B34108  13.050   5.027   7.427 -0.1995 -0.0644  0.0163
20492POPC   C2B34109  12.953   4.814   7.808 -0.1679  0.2675  0.0895
20492POPC   C3B34110  13.051   4.814   8.278  0.0504  0.1943  0.2213
20492POPC   C4B34111  12.976   4.604   8.605 -0.0417  0.0697 -0.2950
20493YOPC   NC334112  12.288   6.697   6.597  0.0074  0.4331 -0.0625
20493YOPC   PO434113  11.952   7.038   6.730  0.3022  0.1623  0.3111
20493YOPC   GL134114  12.126   7.210   7.128 -0.1630  0.0723 -0.0132
20493YOPC   GL234115  12.402   7.403   7.180  0.0570  0.0344  0.0501
20493YOPC   C1A34116  11.897   7.010   7.524 -0.2334 -0.0389 -0.0929
20493YOPC   D2A34117  11.883   6.933   8.032 -0.4467  0.0577 -0.2291
20493YOPC   C3A34118  11.810   6.937   8.494  0.1787  0.1903  0.0719
20493YOPC   C4A34119  12.006   6.672   8.746 -0.1041 -0.1048 -0.2195
20493YOPC   C1B34120  12.473   7.294   7.603 -0.2482  0.1116  0.0015
20493YOPC   C2B34121  12.410   7.113   7.941  0.0705  0.1809  0.1247
20493YOPC   D3B34122  12.668   7.211   8.309  0.0539  0.2683  0.0105
20493YOPC   C4B34123  12.789   7.018   8.705  0.3073 -0.1063 -0.2749
20494YOPC   NC334124  15.785   0.409   6.092  0.1685  0.0797  0.0824
20494YOPC   PO434125  15.412   0.004   6.168 -0.1910 -0.1960  0.1472
20494YOPC   GL134126  15.432  -0.148   6.563 -0.0269 -0.0767  0.0131
20494YOPC   GL234127  15.072  -0.296   6.602 -0.0776 -0.2209  0.0319
20494YOPC   C1A34128  15.617  -0.412   6.877  0.2443  0.0223 -0.0222
20494YOPC   D2A34129  15.594  -0.240   7.333 -0.3993  0.5472  0.1073
20494YOPC   C3A34130  15.479  -0.149   7.679  0.2293  0.2065 -0.0445
20494YOPC   C4A34131  15.153  -0.284   7.883 -0.2455 -0.0411  0.0160
20494YOPC   C1B34132  15.047  -0.147   7.045 -0.3036  0.0951  0.0504
20494YOPC   C2B34133  15.052  -0.180   7.427  0.2213 -0.0828  0.4117
20494YOPC   D3B34134  14.684  -0.193   7.668  0.2757 -0.1558  0.1487
20494YOPC   C4B34135  14.667  -0.101   8.079  0.0617 -0.0790 -0.1621
20495YOPC   NC334136  14.107  12.919   5.785 -0.3830  0.1419  0.1141
20495YOPC   PO434137  13.826  12.562   5.902 -0.0976 -0.2575 -0.0103
20495YOPC   GL134138  13.671  12.450   6.291  0.0713  0.0365 -0.1125
20495YOPC   GL234139  13.405  12.451   6.512 -0.2655  0.3431  0.1648
20495YOPC   C1A34140  13.837  12.204   6.696 -0.2652  0.0788  0.1299
20495YOPC   D2A34141  13.784  11.996   7.098  0.0886  0.1097  0.1261
20495YOPC   C3A34142  14.126  12.082   7.411 -0.0339  0.0909  0.0316
20495YOPC   C4A34143  13.974  12.103   7.860  0.1780 -0.0570 -0.5251
20495YOPC   C1B34144  13.643  12.639   6.878 -0.0954 -0.2088  0.1396
20495YOPC   C2B34145  13.806  12.485   7.248  0.0315 -0.0858 -0.1023
20495YOPC   D3B34146  13.588  12.204   7.558 -0.1491  0.1982  0.1242
20495YOPC   C4B34147  13.343  11.887   7.768  0.4013 -0.2824 -0.0472
20496YOPC   NC334148  14.226   4.265   6.728 -0.0056  0.0948  0.1691
20496YOPC   PO434149  14.413   4.603   6.447 -0.2750  0.0758 -0.0356
20496YOPC   GL134150  14.494   4.748   6.818 -0.2467  0.1617  0.1168
20496YOPC   GL234151  14.625   5.129   6.838 -0.2929 -0.2734  0.2497
20496YOPC   C1A34152  14.492   4.773   7.197  0.0839 -0.0344  0.0087
20496YOPC   D2A34153  14.801   4.653   7.452 -0.0706  0.0650 -0.2754
20496YOPC   C3A34154  14.919   4.306   7.710 -0.1747  0.0168  0.1431
20496YOPC   C4A34155  15.088   4.100   8.117  0.2403  0.0329  0.2377
20496YOPC   C1B34156  14.380   5.344   7.117 -0.0117  0.1310  0.0417
20496YOPC   C2B34157  14.279   5.481   7.575  0.1037 -0.0657 -0.1525
20496YOPC   D3B34158  14.293   5.321   8.006 -0.0476  0.2056 -0.0921
20496YOPC   C4B34159  14.399   5.173   8.395 -0.1543  0.0453 -0.3058
20497YOPC   NC334160  11.775   9.564   6.227  0.0999 -0.0783 -0.3175
20497YOPC   PO434161  11.693   9.869   6.519  0.1738 -0.1927  0.0891
20497YOPC   GL134162  11.889   9.775   6.899 -0.2725 -0.0962  0.2002
20497YOPC   GL234163  11.806   9.463   7.047 -0.1426 -0.0942 -0.0891
20497YOPC   C1A34164  12.179   9.842   7.281  0.2019  0.0803 -0.1774
20497YOPC   D2A34165  12.355   9.821   7.693  0.0457  0.0553  0.1335
20497YOPC   C3A34166  12.592  10.215   7.899 -0.4373 -0.0976  0.1542
20497YOPC   C4A34167  12.875  10.555   7.973  0.0460  0.0636 -0.3518
20497YOPC   C1B34168  11.831   9.481   7.526 -0.0680  0.3028  0.2637
20497YOPC   C2B34169  11.975   9.629   7.891 -0.1540 -0.0974  0.0873
20497YOPC   D3B34170  12.319   9.860   8.319  0.0249  0.2312 -0.2177
20497YOPC   C4B34171  12.676  10.189   8.417  0.2094  0.1423 -0.3244
20498YOPC   NC334172  12.261  10.737   6.074 -0.0678 -0.2711  0.1200
20498YOPC   PO434173  12.522  10.345   6.140 -0.2282  0.2203 -0.1103
20498YOPC   GL134174  12.473  10.193   6.568  0.0608 -0.0762 -0.0960
20498YOPC   GL234175  12.757  10.149   6.657 -0.1521 -0.0427  0.2089
20498YOPC   C1A34176  12.408  10.265   7.038  0.0267 -0.2108 -0.1686
20498YOPC   D2A34177  12.343  10.312   7.446 -0.0555 -0.0258 -0.0469
20498YOPC   C3A34178  12.454  10.674   7.715 -0.2277 -0.2770  0.1638
20498YOPC   C4A34179  12.869  10.911   7.641 -0.1739  0.2762  0.2403
20498YOPC   C1B34180  12.871  10.367   6.991 -0.2232  0.0910  0.1458
20498YOPC   C2B34181  12.778  10.571   7.282  0.1552  0.0307  0.0893
20498YOPC   D3B34182  12.952  10.341   7.534 -0.0620  0.0878 -0.0223
20498YOPC   C4B34183  13.132  10.105   7.841  0.2055 -0.0704 -0.1492
20499YOPC   NC334184  16.944   3.050   6.197  0.3200  0.2848  0.1941
20499YOPC   PO434185  17.259   2.743   6.103 -0.3421 -0.0588  0.2266
20499YOPC   GL134186  17.211   2.798   6.590  0.2220 -0.0949 -0.2522
20499YOPC   GL234187  17.012   2.741   6.770 -0.3003 -0.0428  0.1896
20499YOPC   C1A34188  17.460   3.069   6.846 -0.0510 -0.0754 -0.2146
20499YOPC   D2A34189  17.562   3.226   7.212 -0.1418 -0.1962 -0.2150
20499YOPC   C3A34190  17.464   3.061   7.537  0.0799 -0.0740 -0.1077
20499YOPC   C4A34191  17.612   2.844   7.953  0.0071 -0.1942  0.2794
20499YOPC   C1B34192  17.189   2.715   7.205  0.1935 -0.1061  0.1376
20499YOPC   C2B34193  17.102   2.712   7.611  0.1445  0.2129 -0.0314
20499YOPC   D3B34194  17.074   3.024   7.903  0.3158  0.0418 -0.0351
20499YOPC   C4B34195  17.071   3.348   8.238  0.3060 -0.0315  0.2476
20500YOPC   NC334196  11.545   2.126   5.948 -0.1423  0.0058  0.1777
20500YOPC   PO434197  11.356   1.752   6.206  0.3176 -0.0330  0.0379
20500YOPC   GL134198  11.550   1.636   6.695  0.0429  0.3558  0.1904
20500YOPC   GL234199  11.740   1.845   6.854  0.0343  0.2830  0.1420
20500YOPC   C1A34200  11.432   1.547   7.114  0.1547 -0.1738  0.2012
20500YOPC   D2A34201  11.122   1.665   7.364 -0.0709  0.1468 -0.0965
20500YOPC   C3A34202  11.083   1.530   7.686 -0.1756  0.1254 -0.0017
20500YOPC   C4A34203  11.129   1.501   8.049 -0.0645 -0.0323  0.0454
20500YOPC   C1B34204  11.866   1.750   7.249 -0.0731 -0.1004 -0.1360
20500YOPC   C2B34205  11.572   1.795   7.515  0.0042  0.1067 -0.0066
20500YOPC   D3B34206  11.509   1.810   7.883  0.0494  0.1795 -0.0327
20500YOPC   C4B34207  11.490   1.946   8.309 -0.4245  0.2684 -0.1552
20501YOPC   NC334208  13.602  12.991   5.714  0.0474 -0.3279 -0.3642
20501YOPC   PO434209  13.770  13.004   6.086  0.1040 -0.3698 -0.1738
20501YOPC   GL134210  13.732  12.942   6.539 -0.0890 -0.1282 -0.2849
20501YOPC   GL234211  13.430  13.119   6.532 -0.2048  0.0797  0.0593
20501YOPC   C1A34212  13.800  13.153   6.889  0.0153  0.3991 -0.0675
20501YOPC   D2A34213  14.023  12.975   7.223  0.2918  0.0958  0.0095
20501YOPC   C3A34214  14.442  13.163   7.375 -0.0665  0.1247 -0.0989
20501YOPC   C4A34215  14.665  13.273   7.737  0.1987 -0.0829 -0.1012
20501YOPC   C1B34216  13.306  13.103   6.954 -0.2318  0.1721 -0.1681
20501YOPC   C2B34217  13.413  13.149   7.328 -0.0257  0.1221 -0.1468
20501YOPC   D3B34218  13.270  13.636   7.485 -0.2445 -0.0227 -0.2556
20501YOPC   C4B34219  13.460  13.776   7.797  0.0801 -0.1575 -0.0797
20502YOPC   NC334220  14.925   1.735   5.928 -0.2302 -0.1851 -0.1504
20502YOPC   PO434221  14.857   1.466   6.260  0.1748 -0.0589 -0.2274
20502YOPC   GL134222  14.941   1.404   6.597 -0.0955 -0.1130 -0.0569
20502YOPC   GL234223  15.056   1.659   6.841  0.0679 -0.0218  0.1450
20502YOPC   C1A34224  15.110   1.173   6.885  0.1461  0.2278 -0.0716
20502YOPC   D2A34225  15.327   1.063   7.278 -0.0213 -0.0334 -0.0600
20502YOPC   C3A34226  15.429   1.142   7.811 -0.0330 -0.2506 -0.4418
20502YOPC   C4A34227  15.464   1.415   8.096 -0.1420 -0.1737  0.1838
20502YOPC   C1B34228  15.296   1.559   7.202  0.2815  0.0489  0.2115
20502YOPC   C2B34229  15.318   1.615   7.608  0.2992  0.1995 -0.3198
20502YOPC   D3B34230  15.652   1.866   7.876  0.0196 -0.0589  0.1931
20502YOPC   C4B34231  16.025   1.843   8.044  0.0934  0.0802 -0.1174
20503YOPC   NC334232  14.417   1.019   6.256  0.0313  0.0792 -0.1728
20503YOPC   PO434233  14.068   1.411   6.287 -0.1284  0.3401 -0.2953
20503YOPC   GL134234  14.230   1.169   6.721  0.0956  0.2762  0.2343
20503YOPC   GL234235  14.487   1.306   6.854  0.0750 -0.0016  0.2570
20503YOPC   C1A34236  14.117   0.914   7.098  0.0487  0.0272 -0.0278
20503YOPC   D2A34237  13.967   1.036   7.496 -0.1286 -0.0875 -0.1200
20503YOPC   C3A34238  14.086   0.893   7.999  0.1493  0.0610  0.1184
20503YOPC   C4A34239  14.085   0.847   8.442 -0.0016 -0.0203  0.1286
20503YOPC   C1B34240  14.794   1.335   7.259  0.2122 -0.0441 -0.1133
20503YOPC   C2B34241  14.901   1.134   7.616  0.0795  0.0932  0.0871
20503YOPC   D3B34242  15.012   1.384   7.989 -0.1667  0.1024  0.5178
20503YOPC   C4B34243  15.073   1.857   8.121 -0.5008  0.0952  0.1674
20504YOPC   NC334244  14.779   4.522   6.100 -0.1126 -0.1328  0.0889
20504YOPC   PO434245  14.905   4.710   6.492  0.0349  0.0609  0.0398
20504YOPC   GL134246  14.931   4.541   6.855  0.1249 -0.3292  0.0949
20504YOPC   GL234247  14.979   4.838   7.002  0.2989  0.2170 -0.1296
20504YOPC   C1A34248  14.761   4.259   7.193 -0.2724  0.0498 -0.0689
20504YOPC   D2A34249  14.457   4.321   7.646  0.0917 -0.0034 -0.0940
20504YOPC   C3A34250  14.551   4.282   8.103 -0.0259  0.0735 -0.0512
20504YOPC   C4A34251  14.305   4.104   8.444  0.2928  0.1460 -0.0688
20504YOPC   C1B34252  14.888   5.195   7.246 -0.0884 -0.2389 -0.0668
20504YOPC   C2B34253  14.717   5.222   7.668 -0.1455 -0.2286 -0.1373
20504YOPC   D3B34254  14.845   5.237   8.185  0.2075 -0.1161  0.0749
20504YOPC   C4B34255  14.845   4.950   8.534 -0.2744 -0.2206 -0.0314
20505YOPC   NC334256  14.172   3.285   6.388  0.1660  0.1115 -0.1493
20505YOPC   PO434257  14.487   2.936   6.430 -0.1895  0.1611 -0.1900
20505YOPC   GL134258  14.408   2.968   6.832 -0.0623  0.3131  0.2580
20505YOPC   GL234259  14.717   2.853   6.882  0.1196  0.0570 -0.1397
20505YOPC   C1A34260  14.107   2.965   7.150 -0.1461  0.1335 -0.0582
20505YOPC   D2A34261  13.666   2.939   7.460 -0.0635  0.1997  0.2004
20505YOPC   C3A34262  13.726   2.660   7.776  0.1032  0.2120  0.1649
20505YOPC   C4A34263  13.788   2.363   8.092 -0.0476  0.0273 -0.1061
20505YOPC   C1B34264  14.592   2.761   7.287 -0.0553 -0.0233 -0.0767
20505YOPC   C2B34265  14.619   2.791   7.745  0.1557 -0.0273 -0.1620
20505YOPC   D3B34266  15.037   2.829   8.023  0.0930 -0.1895 -0.1437
20505YOPC   C4B34267  15.384   2.716   8.020 -0.0555  0.3153  0.2400
20506YOPC   NC334268  14.875  13.185   6.030  0.0274  0.1106 -0.1251
20506YOPC   PO434269  14.751  12.716   5.978 -0.1646 -0.2408 -0.1003
20506YOPC   GL134270  14.401  12.535   6.154  0.4143 -0.0396 -0.3059
20506YOPC   GL234271  14.157  12.712   6.240  0.0449  0.1877 -0.0925
20506YOPC   C1A34272  14.107  12.148   6.263 -0.1375 -0.0035  0.2852
20506YOPC   D2A34273  14.062  11.713   6.369 -0.0163 -0.0743 -0.0888
20506YOPC   C3A34274  14.010  11.740   6.735  0.1607  0.0625  0.2131
20506YOPC   C4A34275  14.266  11.749   7.060 -0.0328 -0.2471  0.0126
20506YOPC   C1B34276  14.249  12.611   6.590 -0.2218 -0.0884 -0.1864
20506YOPC   C2B34277  14.255  12.367   6.965 -0.2274  0.3332  0.0548
20506YOPC   D3B34278  14.624  12.258   7.323 -0.0959 -0.1898  0.1249
20506YOPC   C4B34279  14.758  11.984   7.615  0.1748 -0.3065 -0.2479
20507YOPC   NC334280  15.470  14.652   6.069 -0.2854  0.0773  0.3820
20507YOPC   PO434281  15.522  14.295   5.832 -0.0501  0.0307 -0.0128
20507YOPC   GL134282  15.603  14.182   6.274  0.2381  0.2615 -0.3347
20507YOPC   GL234283  15.444  13.912   6.278  0.2314 -0.1624  0.0172
20507YOPC   C1A34284  15.763  14.116   6.707 -0.1487  0.0724 -0.1265
20507YOPC   D2A34285  15.893  14.034   7.127  0.2778 -0.1384  0.1503
20507YOPC   C3A34286  16.215  13.918   7.247 -0.3003 -0.3166  0.0347
20507YOPC   C4A34287  16.360  13.849   7.732 -0.0288 -0.0986 -0.1646
20507YOPC   C1B34288  15.477  13.674   6.650 -0.1419 -0.1444  0.1238
20507YOPC   C2B34289  15.565  13.636   7.001 -0.0722 -0.1148 -0.2274
20507YOPC   D3B34290  15.227  13.617   7.260  0.0814 -0.4034 -0.2076
20507YOPC   C4B34291  15.092  13.595   7.645  0.1611  0.1326  0.0271
20508YOPC   NC334292  11.181   9.790   6.489  0.1901  0.1421  0.0144
20508YOPC   PO434293  10.842  10.028   6.666 -0.0127  0.2181 -0.0953
20508YOPC   GL134294  10.896   9.854   7.079  0.0938  0.0853 -0.0901
20508YOPC   GL234295  10.639   9.793   7.166  0.2340  0.0851 -0.1505
20508YOPC   C1A34296  11.080   9.993   7.469 -0.2604  0.1134 -0.2024
20508YOPC   D2A34297  10.997  10.090   7.941 -0.2189  0.1042 -0.0979
20508YOPC   C3A34298  11.136  10.110   8.343  0.0776  0.0830 -0.0524
20508YOPC   C4A34299  11.437  10.162   8.673  0.2671 -0.0670  0.1667
20508YOPC   C1B34300  10.389  10.204   7.275 -0.0253  0.0187 -0.0158
20508YOPC   C2B34301  10.178  10.524   7.566  0.3617 -0.3014 -0.1800
20508YOPC   D3B34302  10.248  10.532   8.001  0.0566 -0.1436 -0.2379
20508YOPC   C4B34303  10.717  10.466   8.214  0.1212  0.3321  0.4291
20509YOPC   NC334304  11.067  10.747   6.999 -0.1270  0.0961  0.0493
20509YOPC   PO434305  11.400  10.884   6.641 -0.1453 -0.0259  0.4938
20509YOPC   GL134306  11.537  10.892   7.002 -0.0447 -0.1871 -0.2656
20509YOPC   GL234307  11.789  11.132   7.147  0.1997 -0.2392 -0.0774
20509YOPC   C1A34308  11.565  10.585   7.346  0.2749  0.0440 -0.1437
20509YOPC   D2A34309  11.919  10.554   7.658 -0.0507 -0.1842  0.3282
20509YOPC   C3A34310  12.097  10.839   7.993 -0.0303  0.1537  0.3049
20509YOPC   C4A34311  12.451  10.696   8.228 -0.1692  0.0772 -0.0791
20509YOPC   C1B34312  11.703  10.983   7.614  0.1233  0.0427  0.1771
20509YOPC   C2B34313  11.535  11.017   8.129  0.0246  0.2064 -0.2540
20509YOPC   D3B34314  11.791  11.118   8.384 -0.1345  0.2957 -0.0912
20509YOPC   C4B34315  12.050  11.000   8.497  0.1393 -0.0742  0.2545
20510YOPC   NC334316  13.098  10.379   6.240  0.1483 -0.0021  0.0148
20510YOPC   PO434317  13.193  10.773   6.279  0.0813  0.2050  0.4679
20510YOPC   GL134318  13.355  11.001   6.531  0.1427  0.3018  0.2465
20510YOPC   GL234319  13.178  10.976   6.728  0.1015 -0.1683  0.0282
20510YOPC   C1A34320  13.669  10.964   6.937 -0.1306  0.0381 -0.0555
20510YOPC   D2A34321  13.908  10.933   7.333 -0.2468  0.1372 -0.3814
20510YOPC   C3A34322  14.059  11.246   7.660 -0.2122  0.1785 -0.0868
20510YOPC   C4A34323  13.908  11.187   8.086  0.0088  0.0269  0.0660
20510YOPC   C1B34324  13.144  10.792   7.008  0.0316  0.0205 -0.1041
20510YOPC   C2B34325  13.422  10.788   7.339 -0.0848  0.0359 -0.2567
20510YOPC   D3B34326  13.326  10.667   7.785  0.1577 -0.2910 -0.4159
20510YOPC   C4B34327  13.286  10.441   8.277 -0.1015  0.0840 -0.1620
20511YOPC   NC334328  16.275  17.640   6.086 -0.2562  0.0002  0.4025
20511YOPC   PO434329  16.338  17.593   6.469  0.0206 -0.0521 -0.1057
20511YOPC   GL134330  16.178  17.460   6.800  0.1530 -0.0611 -0.0444
20511YOPC   GL234331  16.267  17.133   6.909  0.0909 -0.1555 -0.4009
20511YOPC   C1A34332  16.110  17.511   7.223 -0.1745  0.1811  0.1886
20511YOPC   D2A34333  16.144  17.694   7.627  0.3383  0.1503  0.1536
20511YOPC   C3A34334  15.862  17.827   7.965 -0.1090  0.1526  0.0934
20511YOPC   C4A34335  15.439  18.014   8.160 -0.2017  0.0785  0.3041
20511YOPC   C1B34336  16.432  17.186   7.313 -0.1448  0.1068  0.1269
20511YOPC   C2B34337  16.344  17.226   7.703 -0.1303 -0.0033 -0.1212
20511YOPC   D3B34338  16.299  17.472   8.073 -0.2018 -0.1073 -0.2534
20511YOPC   C4B34339  16.513  17.769   8.299 -0.0031  0.1847 -0.0414
20512YOPC   NC334340  16.657   6.382   6.828 -0.0453 -0.1560  0.0712
20512YOPC   PO434341  16.726   6.005   6.679  0.1010 -0.1324  0.4498
20512YOPC   GL134342  17.008   5.871   6.925 -0.1301  0.1968  0.0646
20512YOPC   GL234343  17.005   5.877   7.240 -0.0655  0.1265  0.1761
20512YOPC   C1A34344  17.271   5.532   7.045 -0.2564 -0.0366  0.3537
20512YOPC   D2A34345  17.266   5.059   7.033 -0.0927  0.0172 -0.0791
20512YOPC   C3A34346  17.258   4.862   7.369  0.0639 -0.2660 -0.1519
20512YOPC   C4A34347  17.120   4.502   7.518 -0.1709  0.1447  0.0171
20512YOPC   C1B34348  17.071   5.852   7.716 -0.0802  0.0957 -0.3113
20512YOPC   C2B34349  17.046   5.848   8.186  0.2064 -0.0904 -0.0035
20512YOPC   D3B34350  17.018   6.149   8.420  0.2191 -0.1996  0.0367
20512YOPC   C4B34351  17.139   6.509   8.301 -0.0363  0.1542  0.2383
20513YOPC   NC334352  12.446   4.133   6.584  0.4009 -0.0301  0.2829
20513YOPC   PO434353  12.203   4.391   6.350 -0.2075 -0.0794 -0.1977
20513YOPC   GL134354  12.142   4.372   6.910 -0.1905 -0.0334  0.0131
20513YOPC   GL234355  12.325   4.347   7.110 -0.1286 -0.4087  0.3560
20513YOPC   C1A34356  11.826   4.402   7.242 -0.4156 -0.2337  0.1715
20513YOPC   D2A34357  11.835   4.394   7.786  0.3164  0.1706  0.1397
20513YOPC   C3A34358  11.935   4.056   7.961 -0.1523  0.1551 -0.0907
20513YOPC   C4A34359  12.129   3.843   8.277  0.0561 -0.1143  0.2450
20513YOPC   C1B34360  12.313   4.515   7.565  0.1176  0.3266  0.0708
20513YOPC   C2B34361  12.605   4.503   7.939  0.0278 -0.1104  0.1005
20513YOPC   D3B34362  12.505   4.513   8.442 -0.0479 -0.0431  0.0918
20513YOPC   C4B34363  12.316   4.623   8.849  0.1100 -0.3356  0.1270
20514YOPC   NC334364  13.812   3.925   6.551 -0.1817 -0.2843 -0.2767
20514YOPC   PO434365  13.565   3.793   6.761  0.0414 -0.1127  0.0747
20514YOPC   GL134366  13.563   3.602   7.107  0.0660 -0.3504 -0.2794
20514YOPC   GL234367  13.716   3.267   7.053 -0.3369 -0.0118  0.2098
20514YOPC   C1A34368  13.359   3.587   7.463  0.0999 -0.1770  0.1857
20514YOPC   D2A34369  13.266   3.610   7.771  0.1941 -0.0733 -0.2819
20514YOPC   C3A34370  13.390   3.930   8.065 -0.1589 -0.1482 -0.1599
20514YOPC   C4A34371  13.263   4.280   8.217 -0.1093 -0.1369  0.1000
20514YOPC   C1B34372  13.915   3.463   7.374 -0.2661  0.1352 -0.0394
20514YOPC   C2B34373  14.207   3.539   7.638 -0.1071  0.1252  0.1601
20514YOPC   D3B34374  14.452   3.332   7.941 -0.0950 -0.1278 -0.3120
20514YOPC   C4B34375  14.572   3.040   8.196 -0.0180  0.1731  0.1549
20515YOPC   NC334376  13.599  16.260   6.290 -0.0232 -0.0775  0.2047
20515YOPC   PO434377  13.176  16.103   6.219 -0.2143 -0.0024 -0.2276
20515YOPC   GL134378  13.159  15.916   6.630  0.0491  0.1310  0.0227
20515YOPC   GL234379  12.927  15.684   6.687  0.1072 -0.1868  0.0689
20515YOPC   C1A34380  13.291  16.171   6.989 -0.1135 -0.3305  0.0598
20515YOPC   D2A34381  13.688  16.219   7.247  0.4529 -0.1082  0.1054
20515YOPC   C3A34382  13.760  15.964   7.614 -0.1065 -0.2448 -0.1354
20515YOPC   C4A34383  13.798  15.736   8.006  0.2194  0.2905  0.3613
20515YOPC   C1B34384  13.241  15.648   7.063 -0.3160  0.0101  0.2387
20515YOPC   C2B34385  13.448  15.462   7.446 -0.0869  0.0706  0.3544
20515YOPC   D3B34386  13.400  15.608   7.725 -0.0275 -0.0340  0.0311
20515YOPC   C4B34387  13.306  15.841   7.989 -0.2597  0.4175 -0.3288
20516YOPC   NC334388  12.157   1.635   6.594  0.1835  0.0694  0.1847
20516YOPC   PO434389  12.379   1.180   6.434 -0.0947  0.0658 -0.2732
20516YOPC   GL134390  12.377   1.018   6.759  0.1385  0.0416  0.1941
20516YOPC   GL234391  12.164   0.759   6.825 -0.1083 -0.2168 -0.2734
20516YOPC   C1A34392  12.623   1.176   7.131 -0.1473  0.3334 -0.0077
20516YOPC   D2A34393  12.548   1.126   7.509  0.0600  0.2100  0.1411
20516YOPC   C3A34394  12.558   1.078   7.791 -0.0060  0.2057  0.0017
20516YOPC   C4A34395  12.855   0.842   8.142  0.1053 -0.1481  0.1449
20516YOPC   C1B34396  12.120   0.898   7.267 -0.0561  0.2568  0.0359
20516YOPC   C2B34397  12.073   0.882   7.719 -0.2143  0.0995 -0.1910
20516YOPC   D3B34398  11.752   0.951   7.930 -0.1395 -0.1053  0.0734
20516YOPC   C4B34399  11.485   0.864   8.309  0.1994  0.1626  0.0771
20517YOPC   NC334400  14.160   9.466   5.675  0.2779 -0.1875  0.1003
20517YOPC   PO434401  14.528   9.367   6.017 -0.1488 -0.2363  0.4013
20517YOPC   GL134402  14.446   9.193   6.306 -0.1420 -0.1227 -0.0225
20517YOPC   GL234403  14.430   9.423   6.474  0.0265 -0.1252  0.2993
20517YOPC   C1A34404  14.267   9.139   6.804 -0.1137 -0.1687 -0.3518
20517YOPC   D2A34405  14.321   9.183   7.268  0.0546  0.1816 -0.2969
20517YOPC   C3A34406  14.371   9.544   7.588  0.2899  0.2053 -0.0566
20517YOPC   C4A34407  14.396   9.760   7.975  0.0543 -0.1618 -0.2222
20517YOPC   C1B34408  14.712   9.789   6.614  0.1120 -0.0218 -0.1105
20517YOPC   C2B34409  14.801  10.068   6.959  0.0873 -0.0140  0.0783
20517YOPC   D3B34410  14.622  10.241   7.192 -0.3816 -0.1877 -0.1930
20517YOPC   C4B34411  14.481  10.115   7.576 -0.3011  0.1182 -0.2023
20518YOPC   NC334412  12.490   0.692   6.307  0.0388 -0.3639  0.4096
20518YOPC   PO434413  12.846   0.697   6.114  0.1743  0.0791  0.0473
20518YOPC   GL134414  12.941   0.553   6.498 -0.0911  0.0929 -0.0280
20518YOPC   GL234415  12.604   0.340   6.755  0.0274  0.0989  0.1851
20518YOPC   C1A34416  12.970   0.762   6.856  0.4329 -0.1948  0.0349
20518YOPC   D2A34417  13.090   0.944   7.263  0.1033  0.1538  0.0676
20518YOPC   C3A34418  13.055   1.467   7.249  0.1581 -0.0237 -0.3483
20518YOPC   C4A34419  13.149   1.796   7.457 -0.0200 -0.0702  0.3879
20518YOPC   C1B34420  12.546   0.477   7.136  0.1633 -0.1325  0.2560
20518YOPC   C2B34421  12.405   0.560   7.543 -0.1108 -0.1313 -0.2104
20518YOPC   D3B34422  12.345   0.627   8.032 -0.1830  0.0055 -0.5774
20518YOPC   C4B34423  12.318   1.049   8.211 -0.1725  0.1442  0.0117
20519YOPC   NC334424  12.684   9.015   6.276 -0.3726  0.2215  0.1503
20519YOPC   PO434425  12.886   9.438   6.173 -0.0798  0.2749 -0.4934
20519YOPC   GL134426  13.041   9.793   6.470 -0.2428  0.2868  0.0709
20519YOPC   GL234427  13.380   9.976   6.428  0.1048  0.0807 -0.1243
20519YOPC   C1A34428  13.207  10.064   6.865 -0.0300  0.0021  0.2481
20519YOPC   D2A34429  13.341  10.329   7.181 -0.3900 -0.0032 -0.2502
20519YOPC   C3A34430  13.551  10.225   7.545  0.0462 -0.4544 -0.0134
20519YOPC   C4A34431  13.598  10.089   7.935  0.1616  0.0972 -0.2654
20519YOPC   C1B34432  13.661  10.051   6.666  0.1689 -0.0849 -0.2417
20519YOPC   C2B34433  13.836  10.015   7.050 -0.0022 -0.0662  0.0247
20519YOPC   D3B34434  13.884   9.852   7.493 -0.2951  0.0874 -0.3002
20519YOPC   C4B34435  13.950   9.759   7.813 -0.0686  0.2388 -0.1997
20520YOPC   NC334436  13.997   5.110   5.889 -0.1682  0.0320 -0.0619
20520YOPC   PO434437  13.648   5.299   6.135  0.1916  0.1969 -0.0346
20520YOPC   GL134438  13.706   5.013   6.610  0.1213  0.0855 -0.1845
20520YOPC   GL234439  13.969   4.864   6.811  0.2319 -0.1861 -0.0901
20520YOPC   C1A34440  13.570   5.018   7.068 -0.0011 -0.2171  0.3927
20520YOPC   D2A34441  13.544   4.833   7.575  0.0229 -0.0627  0.1942
20520YOPC   C3A34442  13.780   4.878   7.754 -0.4050 -0.2442  0.0303
20520YOPC   C4A34443  13.915   4.961   8.153  0.0742 -0.2986 -0.0046
20520YOPC   C1B34444  14.059   4.987   7.206  0.4435 -0.1819  0.5206
20520YOPC   C2B34445  14.253   5.008   7.569 -0.0368 -0.0036 -0.0843
20520YOPC   D3B34446  14.345   4.728   7.886  0.1541  0.0076  0.1463
20520YOPC   C4B34447  14.311   4.693   8.306 -0.0894 -0.0395  0.1318
20521YOPC   NC334448  11.465   8.669   6.987  0.0443  0.0494 -0.2554
20521YOPC   PO434449  11.092   8.863   6.730 -0.1110 -0.1433  0.0660
20521YOPC   GL134450  11.360   9.200   7.051 -0.1089 -0.0675 -0.1366
20521YOPC   GL234451  11.232   8.999   7.298  0.5142  0.1323  0.1542
20521YOPC   C1A34452  11.333   9.486   7.362 -0.0481 -0.0780 -0.1644
20521YOPC   D2A34453  11.396   9.756   7.709 -0.2106 -0.2357 -0.0840
20521YOPC   C3A34454  11.478   9.874   8.045  0.1115  0.0980 -0.5550
20521YOPC   C4A34455  11.820  10.077   8.362 -0.0916  0.3863 -0.3312
20521YOPC   C1B34456  11.397   9.133   7.743  0.1503  0.2433  0.0907
20521YOPC   C2B34457  11.522   9.389   8.090 -0.4681  0.0987 -0.0143
20521YOPC   D3B34458  11.980   9.449   8.304 -0.5794  0.0967 -0.0123
20521YOPC   C4B34459  12.481   9.370   8.430 -0.0181  0.0265  0.1684
20522YOPC   NC334460  15.474   5.593   6.736  0.0892 -0.2188  0.0783
20522YOPC   PO434461  15.739   5.938   6.749 -0.0335 -0.1127 -0.2021
20522YOPC   GL134462  15.816   6.012   7.098 -0.0519 -0.1671  0.2148
20522YOPC   GL234463  16.091   5.849   7.145  0.0384  0.0886 -0.0139
20522YOPC   C1A34464  15.688   5.854   7.530  0.2535  0.4577  0.0643
20522YOPC   D2A34465  15.502   6.092   7.908 -0.1802  0.4436 -0.1790
20522YOPC   C3A34466  15.524   5.968   8.320  0.2550 -0.1596  0.3663
20522YOPC   C4A34467  15.647   5.710   8.683 -0.0376 -0.0946 -0.0416
20522YOPC   C1B34468  16.160   5.939   7.533  0.1211 -0.0465  0.1152
20522YOPC   C2B34469  16.052   5.994   7.931 -0.2095  0.0369  0.0312
20522YOPC   D3B34470  15.888   6.234   8.217  0.1982 -0.2648  0.1701
20522YOPC   C4B34471  15.715   6.307   8.632 -0.3684  0.1630  0.1859
20523YOPC   NC334472  14.530   7.344   5.907 -0.3388  0.1489  0.0126
20523YOPC   PO434473  14.837   7.059   6.147 -0.1624 -0.3500 -0.0838
20523YOPC   GL134474  14.718   6.987   6.571  0.0850  0.1298  0.0929
20523YOPC   GL234475  14.494   6.787   6.441 -0.0086  0.2274  0.0083
20523YOPC   C1A34476  14.743   7.114   7.070 -0.1208 -0.1801 -0.1546
20523YOPC   D2A34477  14.830   7.356   7.335  0.0655  0.0080 -0.0676
20523YOPC   C3A34478  15.117   7.646   7.274  0.1843 -0.1003 -0.0647
20523YOPC   C4A34479  15.177   7.996   7.013  0.1055  0.1626  0.0313
20523YOPC   C1B34480  14.605   6.596   6.846  0.2725 -0.1575  0.2091
20523YOPC   C2B34481  14.912   6.398   7.025  0.3177  0.0038  0.0801
20523YOPC   D3B34482  14.717   6.249   7.482  0.2701 -0.0064  0.2052
20523YOPC   C4B34483  14.407   5.953   7.602  0.5712  0.0330  0.0180
20524YOPC   NC334484  15.454   2.033   5.980  0.2496  0.2968  0.0696
20524YOPC   PO434485  15.100   2.255   6.162  0.2919 -0.0411 -0.2745
20524YOPC   GL134486  15.215   2.394   6.548  0.0701 -0.2589 -0.1206
20524YOPC   GL234487  15.084   2.186   6.810 -0.1503  0.0847  0.1366
20524YOPC   C1A34488  15.584   2.527   6.864  0.0842 -0.2274 -0.2259
20524YOPC   D2A34489  15.550   2.684   7.257 -0.2318  0.2060  0.0792
20524YOPC   C3A34490  15.438   2.978   7.561 -0.0983 -0.2665 -0.0875
20524YOPC   C4A34491  15.411   3.196   7.889 -0.2143  0.0725  0.2059
20524YOPC   C1B34492  15.087   2.473   7.096  0.1850 -0.0580 -0.0534
20524YOPC   C2B34493  15.083   2.597   7.574 -0.0770 -0.0059  0.2648
20524YOPC   D3B34494  15.158   2.271   7.801  0.3308  0.0169 -0.1876
20524YOPC   C4B34495  15.476   2.227   8.158 -0.3060  0.0225  0.3154
20525YOPC   NC334496  14.686   5.972   6.586  0.1171 -0.1165  0.4332
20525YOPC   PO434497  14.551   6.290   6.230  0.2177  0.2482  0.0001
20525YOPC   GL134498  14.278   6.337   6.595  0.0746 -0.0814  0.0219
20525YOPC   GL234499  14.079   6.624   6.799 -0.1403 -0.1489 -0.1904
20525YOPC   C1A34500  14.254   6.194   7.094  0.2132  0.0436  0.0271
20525YOPC   D2A34501  14.269   6.405   7.565 -0.0125 -0.2157  0.0365
20525YOPC   C3A34502  14.529   6.308   7.955  0.0224  0.2436  0.0683
20525YOPC   C4A34503  14.836   6.276   8.233 -0.0263 -0.3379 -0.0011
20525YOPC   C1B34504  14.337   6.748   7.247 -0.2340  0.0926 -0.0583
20525YOPC   C2B34505  14.689   6.762   7.490 -0.1169  0.1675 -0.2012
20525YOPC   D3B34506  14.772   7.060   7.821 -0.0577  0.0411  0.3358
20525YOPC   C4B34507  14.891   7.296   8.162  0.3056 -0.0431 -0.0127
20526YOPC   NC334508  13.849   4.700   6.306 -0.0637  0.1867 -0.0057
20526YOPC   PO434509  13.785   4.415   6.616 -0.3108  0.1605 -0.2135
20526YOPC   GL134510  13.701   4.235   7.027 -0.0366  0.0521  0.1695
20526YOPC   GL234511  13.589   4.484   7.153 -0.3829 -0.0780 -0.1142
20526YOPC   C1A34512  13.582   4.065   7.408  0.1079 -0.1006 -0.0025
20526YOPC   D2A34513  13.739   3.895   7.691 -0.1646  0.1905  0.5139
20526YOPC   C3A34514  13.777   3.596   7.929  0.0601  0.1336  0.1721
20526YOPC   C4A34515  13.692   3.148   7.886 -0.1675  0.2079  0.1910
20526YOPC   C1B34516  13.151   4.537   7.265  0.1358 -0.1720  0.1807
20526YOPC   C2B34517  12.781   4.414   7.489  0.0658 -0.1015 -0.0840
20526YOPC   D3B34518  12.552   4.063   7.455 -0.2358 -0.1586  0.0622
20526YOPC   C4B34519  12.115   3.964   7.400  0.0360 -0.1668  0.1882
20527YOPC   NC334520  13.618  14.865   6.056  0.3166  0.0006  0.1339
20527YOPC   PO434521  13.775  15.018   6.441  0.0603 -0.1563  0.0116
20527YOPC   GL134522  13.999  14.841   6.773  0.2415  0.1798  0.0986
20527YOPC   GL234523  14.335  14.579   6.740  0.0748 -0.1772 -0.2365
20527YOPC   C1A34524  14.082  14.737   7.175 -0.0154 -0.0444  0.4375
20527YOPC   D2A34525  13.914  14.491   7.429  0.0499  0.0891  0.0358
20527YOPC   C3A34526  13.759  14.413   7.883 -0.1622  0.0949  0.1063
20527YOPC   C4A34527  13.598  14.293   8.271  0.0084  0.0525 -0.0233
20527YOPC   C1B34528  14.595  14.755   7.139  0.0026 -0.1260 -0.0587
20527YOPC   C2B34529  14.834  14.778   7.530 -0.2659 -0.1968  0.2214
20527YOPC   D3B34530  14.869  14.521   7.852  0.0904 -0.4182  0.2718
20527YOPC   C4B34531  14.558  14.302   8.010  0.0301  0.0381  0.0818
20528YOPC   NC334532  14.883   1.003   6.080  0.1136  0.2839 -0.0562
20528YOPC   PO434533  14.994   1.240   5.812 -0.0398  0.3267 -0.1443
20528YOPC   GL134534  15.330   1.347   6.238 -0.1709  0.1650  0.0250
20528YOPC   GL234535  15.255   1.082   6.371  0.2991 -0.0938 -0.0210
20528YOPC   C1A34536  15.577   1.509   6.585  0.0696 -0.0248  0.1310
20528YOPC   D2A34537  15.960   1.292   6.570  0.3230  0.1870 -0.1976
20528YOPC   C3A34538  16.103   1.101   6.987 -0.0046  0.1477 -0.2570
20528YOPC   C4A34539  16.257   0.912   7.398 -0.1876  0.0281  0.2351
20528YOPC   C1B34540  15.560   1.015   6.747 -0.0703 -0.0998  0.1053
20528YOPC   C2B34541  15.675   1.317   7.000  0.0476 -0.1111 -0.4040
20528YOPC   D3B34542  15.724   1.317   7.421 -0.3472  0.0089  0.0752
20528YOPC   C4B34543  15.920   1.352   7.766  0.2160  0.1980 -0.3261
20529YOPC   NC334544  16.107  13.299   6.027 -0.0364 -0.0312  0.0103
20529YOPC   PO434545  15.637  13.244   5.750  0.1299 -0.2681  0.0582
20529YOPC   GL134546  15.658  13.413   6.215 -0.0329  0.1480 -0.2009
20529YOPC   GL234547  15.902  13.669   6.429 -0.1043  0.2018 -0.1002
20529YOPC   C1A34548  15.698  13.187   6.667  0.0971  0.1430 -0.3119
20529YOPC   D2A34549  15.770  13.067   7.036 -0.0280  0.2010 -0.1208
20529YOPC   C3A34550  15.588  12.691   7.240  0.4476  0.1045  0.2019
20529YOPC   C4A34551  15.336  12.778   7.588 -0.1552  0.2631  0.0161
20529YOPC   C1B34552  16.024  13.589   6.883 -0.0777  0.1594 -0.1319
20529YOPC   C2B34553  15.926  13.527   7.375 -0.0056  0.2181 -0.2480
20529YOPC   D3B34554  15.650  13.622   7.513  0.1165 -0.4087 -0.1231
20529YOPC   C4B34555  15.475  13.695   7.945  0.2286  0.0821  0.0998
20530YOPC   NC334556  11.419  11.381   6.919 -0.1172 -0.0696 -0.1296
20530YOPC   PO434557  10.999  11.244   7.012  0.2616 -0.4005 -0.3826
20530YOPC   GL134558  11.259  11.142   7.370 -0.0174  0.3682  0.2008
20530YOPC   GL234559  11.374  11.386   7.449  0.1392  0.1136  0.0137
20530YOPC   C1A34560  11.225  10.943   7.737  0.4052 -0.2845  0.0227
20530YOPC   D2A34561  11.073  10.767   8.043  0.0492 -0.0468  0.0752
20530YOPC   C3A34562  11.367  10.710   8.482 -0.1206 -0.2545  0.3210
20530YOPC   C4A34563  11.694  10.702   8.761 -0.0152 -0.0997 -0.1229
20530YOPC   C1B34564  11.439  11.433   7.824  0.1146  0.0247 -0.2782
20530YOPC   C2B34565  11.068  11.281   8.113  0.2477  0.1603 -0.0006
20530YOPC   D3B34566  11.327  11.319   8.497  0.1526 -0.2843  0.2144
20530YOPC   C4B34567  11.678  11.218   8.866  0.0702  0.1833 -0.3443
20531YOPC   NC334568  15.603  16.574   6.106 -0.0037 -0.0098 -0.2172
20531YOPC   PO434569  16.000  16.696   6.239 -0.2831 -0.0990 -0.3169
20531YOPC   GL134570  16.227  16.689   6.724  0.0557 -0.2689  0.1553
20531YOPC   GL234571  16.591  16.565   6.800 -0.0913 -0.2377  0.0230
20531YOPC   C1A34572  16.192  16.571   7.190 -0.0457  0.0648 -0.0995
20531YOPC   D2A34573  16.246  16.710   7.578  0.0701 -0.1830 -0.4752
20531YOPC   C3A34574  16.042  16.420   7.939 -0.1890 -0.2552  0.2699
20531YOPC   C4A34575  16.241  16.037   8.238  0.1067 -0.2296  0.1205
20531YOPC   C1B34576  16.703  16.609   7.258  0.2429  0.1188  0.3380
20531YOPC   C2B34577  16.763  16.556   7.650 -0.0753 -0.0799  0.1220
20531YOPC   D3B34578  17.001  16.633   8.008 -0.3016 -0.1995  0.1581
20531YOPC   C4B34579  17.093  16.502   8.399 -0.0068  0.1214 -0.0843
20532YOPC   NC334580  15.907   6.699   6.619  0.1133 -0.0685 -0.0739
20532YOPC   PO434581  16.343   6.692   6.573 -0.2904 -0.0353  0.0125
20532YOPC   GL134582  16.260   6.757   6.988 -0.0655 -0.1369 -0.2243
20532YOPC   GL234583  16.173   6.429   7.085 -0.0302  0.2998  0.1029
20532YOPC   C1A34584  16.253   6.883   7.376  0.0834 -0.0133 -0.0341
20532YOPC   D2A34585  16.682   6.874   7.678  0.2628  0.1748  0.1838
20532YOPC   C3A34586  16.738   6.807   8.057 -0.0388 -0.3154 -0.2083
20532YOPC   C4A34587  16.592   6.662   8.396  0.1901  0.0144 -0.1544
20532YOPC   C1B34588  16.306   6.417   7.492  0.1197  0.1646  0.0258
20532YOPC   C2B34589  16.223   6.614   7.897  0.0858 -0.0871 -0.0377
20532YOPC   D3B34590  16.321   7.042   8.053  0.0159  0.1236  0.0026
20532YOPC   C4B34591  16.205   7.152   8.426 -0.0322 -0.1299 -0.1701
20533YOPC   NC334592  13.188   9.326   5.799  0.0118  0.1323  0.2548
20533YOPC   PO434593  13.600   9.117   6.041 -0.2408 -0.1526  0.3178
20533YOPC   GL134594  13.670   8.984   6.462 -0.0182  0.3198  0.1565
20533YOPC   GL234595  13.754   9.274   6.593  0.0141  0.0060  0.1728
20533YOPC   C1A34596  13.885   8.757   6.844  0.0033  0.2475  0.0866
20533YOPC   D2A34597  14.357   8.686   7.167 -0.1690  0.1963  0.1703
20533YOPC   C3A34598  14.353   8.504   7.468  0.1136 -0.4416  0.3731
20533YOPC   C4A34599  14.414   8.610   7.933 -0.2852 -0.1454 -0.1578
20533YOPC   C1B34600  13.476   9.577   6.787 -0.0827 -0.2048  0.2092
20533YOPC   C2B34601  13.175   9.567   7.008  0.1226 -0.0373 -0.0619
20533YOPC   D3B34602  13.416   9.675   7.373  0.0461 -0.1089 -0.0669
20533YOPC   C4B34603  13.423   9.647   7.803 -0.2460 -0.5301  0.2161
20534YOPC   NC334604  15.159  17.153   5.863 -0.1131  0.2755  0.2222
20534YOPC   PO434605  14.787  17.179   6.080  0.1134 -0.0578  0.2724
20534YOPC   GL134606  14.794  17.172   6.486  0.0553  0.2696  0.1103
20534YOPC   GL234607  14.830  16.779   6.610  0.0335  0.0000 -0.1677
20534YOPC   C1A34608  14.821  17.371   6.943 -0.2451  0.0573  0.1631
20534YOPC   D2A34609  14.767  17.395   7.295  0.0526  0.2854  0.0082
20534YOPC   C3A34610  14.799  17.313   7.777 -0.1794  0.4629 -0.2807
20534YOPC   C4A34611  14.863  17.159   8.182  0.0838  0.0738  0.0068
20534YOPC   C1B34612  14.782  16.796   7.076 -0.5707 -0.3173 -0.2464
20534YOPC   C2B34613  14.771  16.500   7.448  0.2056 -0.0856  0.3232
20534YOPC   D3B34614  14.454  16.431   7.786  0.2834  0.2326 -0.1401
20534YOPC   C4B34615  14.323  16.629   8.193  0.2178 -0.0234  0.1076
20535YOPC   NC334616  17.335   7.118   6.659  0.0424 -0.1080 -0.0185
20535YOPC   PO434617  17.411   7.494   6.606 -0.1606  0.0734  0.1071
20535YOPC   GL134618  17.511   7.476   6.967  0.1276 -0.0423 -0.3405
20535YOPC   GL234619  17.601   7.752   7.187 -0.1455  0.2918 -0.2810
20535YOPC   C1A34620  17.585   7.287   7.340  0.0420 -0.3820 -0.3024
20535YOPC   D2A34621  17.651   7.158   7.754  0.0262  0.0023  0.0990
20535YOPC   C3A34622  17.504   7.267   8.083  0.0287 -0.2111 -0.1171
20535YOPC   C4A34623  17.343   7.372   8.381 -0.1189  0.3478  0.1872
20535YOPC   C1B34624  17.476   7.773   7.632  0.0972 -0.1690 -0.1096
20535YOPC   C2B34625  17.376   7.731   8.071 -0.0028 -0.0244 -0.0538
20535YOPC   D3B34626  17.262   8.191   8.313 -0.0414 -0.1393  0.1297
20535YOPC   C4B34627  17.085   8.467   8.650  0.2373 -0.1717 -0.0716
20536YOPC   NC334628  10.179   0.415   6.435  0.1479  0.3023  0.0553
20536YOPC   PO434629  10.295  -0.042   6.262  0.1468  0.1834  0.1905
20536YOPC   GL134630  10.214  -0.038   6.671 -0.1397 -0.0298 -0.5358
20536YOPC   GL234631  10.517   0.049   6.674 -0.1501 -0.0676 -0.2822
20536YOPC   C1A34632  10.284  -0.331   7.122  0.1894  0.4233  0.0680
20536YOPC   D2A34633  10.182  -0.567   7.440 -0.0128 -0.2157  0.2898
20536YOPC   C3A34634  10.089  -1.048   7.406 -0.1642 -0.1402 -0.3246
20536YOPC   C4A34635   9.806  -1.415   7.343 -0.0217  0.2158 -0.0253
20536YOPC   C1B34636  10.605   0.140   7.031  0.0591 -0.0460  0.1191
20536YOPC   C2B34637  10.646  -0.013   7.394  0.4094 -0.3062 -0.1662
20536YOPC   D3B34638  10.522   0.206   7.781 -0.0262 -0.2482 -0.1925
20536YOPC   C4B34639  10.189   0.118   8.100 -0.2979  0.1404  0.6429
20537YOPC   NC334640  12.998   2.473   6.582  0.2557  0.1250 -0.2732
20537YOPC   PO434641  12.951   2.181   6.459  0.1535 -0.1685 -0.0988
20537YOPC   GL134642  12.971   2.054   6.907  0.0964  0.2101 -0.0689
20537YOPC   GL234643  13.298   2.143   7.168  0.2348  0.0097  0.2660
20537YOPC   C1A34644  12.777   2.125   7.413  0.2840 -0.0981 -0.2658
20537YOPC   D2A34645  12.843   2.157   7.909  0.0738 -0.1442  0.0281
20537YOPC   C3A34646  12.970   1.758   8.031  0.1790 -0.2572  0.3215
20537YOPC   C4A34647  12.937   1.370   7.772  0.4318  0.0057 -0.0863
20537YOPC   C1B34648  13.230   2.434   7.649  0.2819  0.0264  0.1624
20537YOPC   C2B34649  13.110   2.586   8.048  0.0290 -0.0615  0.2075
20537YOPC   D3B34650  12.986   2.328   8.416  0.3711 -0.1674 -0.1233
20537YOPC   C4B34651  13.067   2.198   8.862 -0.2653 -0.2271  0.1135
20538YOPC   NC334652  10.686  17.923   5.944 -0.4014  0.0522  0.0026
20538YOPC   PO434653  10.796  18.298   6.317  0.1804 -0.1244  0.1834
20538YOPC   GL134654  10.942  18.354   6.711 -0.2273  0.1052 -0.0813
20538YOPC   GL234655  11.050  18.643   6.783 -0.0336 -0.2312  0.0309
20538YOPC   C1A34656  11.045  18.299   7.149  0.0800  0.2014 -0.0686
20538YOPC   D2A34657  10.795  18.496   7.402 -0.2512  0.4298  0.2193
20538YOPC   C3A34658  10.276  18.332   7.356 -0.2760 -0.2430  0.1741
20538YOPC   C4A34659   9.864  18.479   7.209  0.1956 -0.0776 -0.1055
20538YOPC   C1B34660  10.971  18.977   6.971  0.0681 -0.1641 -0.1140
20538YOPC   C2B34661  11.169  19.116   7.366  0.0669 -0.0382  0.1698
20538YOPC   D3B34662  10.896  18.964   7.606 -0.0164  0.0176 -0.2469
20538YOPC   C4B34663  10.698  19.172   7.862  0.0236  0.0213 -0.3804
20539YOPC   NC334664  17.707   2.101   5.938 -0.0660 -0.0963  0.1590
20539YOPC   PO434665  18.120   2.363   6.183  0.0574  0.2761  0.0353
20539YOPC   GL134666  17.966   2.151   6.523 -0.3700 -0.2550  0.1267
20539YOPC   GL234667  17.846   1.858   6.365  0.1505  0.0107  0.1995
20539YOPC   C1A34668  17.758   1.990   6.947 -0.3085  0.0533 -0.2230
20539YOPC   D2A34669  17.647   1.714   7.323 -0.2774 -0.0661  0.4383
20539YOPC   C3A34670  17.706   1.780   7.733 -0.3694 -0.0641  0.1425
20539YOPC   C4A34671  17.448   2.046   8.045  0.0011  0.0713 -0.2682
20539YOPC   C1B34672  17.737   1.602   6.627  0.1999  0.1043  0.2415
20539YOPC   C2B34673  17.359   1.566   6.836  0.1830 -0.1260  0.0735
20539YOPC   D3B34674  17.256   1.946   7.111 -0.3727 -0.0217  0.2230
20539YOPC   C4B34675  17.232   1.912   7.576 -0.1309  0.0412 -0.3161
20540YOPC   NC334676  16.304   1.721   6.281 -0.3616  0.0504  0.0317
20540YOPC   PO434677  16.214   2.057   6.068  0.2106 -0.0888  0.0046
20540YOPC   GL134678  16.211   2.208   6.501 -0.0562 -0.1428 -0.1382
20540YOPC   GL234679  16.502   2.210   6.631  0.0923 -0.1735  0.2823
20540YOPC   C1A34680  16.075   2.336   6.913 -0.2295  0.1183 -0.3149
20540YOPC   D2A34681  15.981   2.405   7.314 -0.3679 -0.0418 -0.0930
20540YOPC   C3A34682  15.553   2.189   7.465 -0.2025  0.0248  0.0891
20540YOPC   C4A34683  15.139   2.032   7.348 -0.2082 -0.0736 -0.2945
20540YOPC   C1B34684  16.448   1.997   6.930  0.0098 -0.2165 -0.2870
20540YOPC   C2B34685  16.413   2.136   7.310  0.3344  0.0779 -0.2201
20540YOPC   D3B34686  16.340   2.334   7.744  0.0822 -0.3733  0.2923
20540YOPC   C4B34687  16.392   2.297   8.185  0.0762  0.0805  0.0490
20541YOPC   NC334688  15.876   9.041   5.691  0.0715 -0.0494 -0.0920
20541YOPC   PO434689  15.502   9.378   5.692  0.2388 -0.0976 -0.0497
20541YOPC   GL134690  15.523   9.186   6.138 -0.1472  0.3449 -0.0149
20541YOPC   GL234691  15.381   8.931   6.326 -0.2273  0.0012 -0.0411
20541YOPC   C1A34692  15.388   9.520   6.510 -0.1316 -0.1969  0.0778
20541YOPC   D2A34693  15.206   9.781   6.801  0.0733 -0.0358  0.2084
20541YOPC   C3A34694  15.040   9.444   7.165 -0.2048  0.0843 -0.4098
20541YOPC   C4A34695  14.769   9.309   7.420  0.0386  0.1462 -0.0717
20541YOPC   C1B34696  15.294   9.022   6.859 -0.1538 -0.0755  0.1083
20541YOPC   C2B34697  15.255   9.064   7.359  0.0497  0.3916 -0.0512
20541YOPC   D3B34698  15.118   9.138   7.815  0.0304 -0.0528  0.1517
20541YOPC   C4B34699  14.820   9.155   8.115  0.1553 -0.1709 -0.0614
20542YOPC   NC334700  13.051  15.609   6.219 -0.1784  0.1836  0.2385
20542YOPC   PO434701  13.329  15.225   6.287 -0.0014  0.2164  0.1665
20542YOPC   GL134702  13.444  15.066   6.773 -0.2330  0.0146  0.1825
20542YOPC   GL234703  13.585  15.384   6.928 -0.0494 -0.1794 -0.4101
20542YOPC   C1A34704  13.607  14.820   7.120 -0.3526  0.1703  0.1641
20542YOPC   D2A34705  13.602  14.919   7.543  0.0324  0.1787  0.1932
20542YOPC   C3A34706  13.973  14.869   7.843  0.1175  0.0686  0.2012
20542YOPC   C4A34707  13.951  14.825   8.276  0.0793 -0.0696  0.1237
20542YOPC   C1B34708  13.901  15.231   7.154  0.1240 -0.1743  0.3685
20542YOPC   C2B34709  13.889  15.430   7.598 -0.0256 -0.0212  0.2148
20542YOPC   D3B34710  14.241  15.452   7.834  0.1109  0.3475  0.1677
20542YOPC   C4B34711  14.371  15.697   8.144 -0.2715 -0.1480  0.0464
20543YOPC   NC334712  16.186  12.132   5.409  0.2981  0.1185 -0.3096
20543YOPC   PO434713  15.720  12.145   5.755 -0.0036  0.0944 -0.1272
20543YOPC   GL134714  15.627  12.375   6.118 -0.0235  0.1805 -0.0580
20543YOPC   GL234715  15.755  12.264   6.368  0.0333  0.1429 -0.0735
20543YOPC   C1A34716  15.283  12.528   6.349  0.0032 -0.4692 -0.0053
20543YOPC   D2A34717  14.887  12.654   6.449 -0.0621 -0.0541 -0.2720
20543YOPC   C3A34718  14.679  12.405   6.724 -0.0291  0.0242  0.0875
20543YOPC   C4A34719  14.450  11.992   6.630 -0.1110 -0.0774  0.2105
20543YOPC   C1B34720  15.471  12.081   6.533  0.2747  0.1529 -0.1368
20543YOPC   C2B34721  15.223  12.391   6.854  0.0956 -0.1280  0.0346
20543YOPC   D3B34722  15.136  12.380   7.377 -0.0021  0.1166  0.1085
20543YOPC   C4B34723  14.988  12.397   7.722  0.0096  0.1797  0.0322
20544YOPC   NC334724  14.685   3.598   6.514  0.3744  0.0843  0.0130
20544YOPC   PO434725  15.115   3.750   6.615 -0.3748 -0.0842 -0.1367
20544YOPC   GL134726  15.119   3.920   6.971  0.3971  0.1402  0.0749
20544YOPC   GL234727  15.347   4.178   6.997  0.2298 -0.0575  0.0455
20544YOPC   C1A34728  15.184   4.018   7.453 -0.0471  0.0738 -0.1836
20544YOPC   D2A34729  15.433   4.248   7.818  0.0599  0.3666  0.0723
20544YOPC   C3A34730  15.364   4.556   7.957  0.0851 -0.3253  0.0407
20544YOPC   C4A34731  15.280   4.904   8.297  0.3343  0.0737  0.1182
20544YOPC   C1B34732  15.232   4.518   7.274  0.1325 -0.0361  0.1922
20544YOPC   C2B34733  15.299   4.894   7.432 -0.0192  0.0350 -0.0365
20544YOPC   D3B34734  15.091   4.938   7.740 -0.0741 -0.0285 -0.6636
20544YOPC   C4B34735  14.871   4.698   8.087 -0.0397 -0.0754  0.1199
20545YOPC   NC334736  17.703   7.893   6.741 -0.1362 -0.1702  0.3293
20545YOPC   PO434737  17.578   8.326   6.791  0.1925  0.3097 -0.0860
20545YOPC   GL134738  17.567   8.640   6.942  0.0582  0.1968  0.0225
20545YOPC   GL234739  17.884   8.696   6.993 -0.1911  0.0091  0.0847
20545YOPC   C1A34740  17.517   8.964   7.228  0.2330  0.2024  0.2420
20545YOPC   D2A34741  17.476   9.296   7.459 -0.2478 -0.2016  0.0418
20545YOPC   C3A34742  17.605   9.369   7.851 -0.3443  0.0527 -0.0164
20545YOPC   C4A34743  17.599   9.692   8.121 -0.1128 -0.0613 -0.0010
20545YOPC   C1B34744  18.084   8.620   7.388 -0.1582  0.0513 -0.0300
20545YOPC   C2B34745  17.977   8.526   7.871 -0.1850 -0.0303  0.0476
20545YOPC   D3B34746  18.283   8.524   8.304 -0.1499 -0.0606 -0.1540
20545YOPC   C4B34747  18.631   8.338   8.500 -0.1249  0.2436  0.0647
20546YOPC   NC334748  16.294   8.541   6.445  0.4845 -0.1041  0.1412
20546YOPC   PO434749  16.173   8.045   6.478  0.3087 -0.2104  0.0267
20546YOPC   GL134750  15.839   8.143   6.688  0.0129  0.0144  0.2704
20546YOPC   GL234751  15.570   8.068   6.667  0.1286  0.0796 -0.3165
20546YOPC   C1A34752  15.988   8.399   7.086  0.0440 -0.0365  0.3942
20546YOPC   D2A34753  15.920   8.516   7.471  0.0615 -0.0919  0.0969
20546YOPC   C3A34754  15.740   8.401   7.744  0.0974  0.0430 -0.0161
20546YOPC   C4A34755  15.468   8.235   8.161  0.4097  0.1068 -0.1349
20546YOPC   C1B34756  15.605   8.047   7.192 -0.1425  0.0398 -0.1889
20546YOPC   C2B34757  15.415   8.074   7.571  0.1883  0.2066 -0.1309
20546YOPC   D3B34758  15.354   7.735   7.704  0.1202 -0.1326 -0.0225
20546YOPC   C4B34759  15.070   7.521   7.756  0.3474  0.1589 -0.0944
20547YOPC   NC334760  13.566  11.260   5.753  0.1952  0.2384 -0.1450
20547YOPC   PO434761  13.341  11.698   5.856 -0.0237 -0.1988 -0.0108
20547YOPC   GL134762  13.567  11.547   6.288 -0.0535  0.1325  0.0806
20547YOPC   GL234763  13.481  11.817   6.440 -0.2828  0.1096 -0.3458
20547YOPC   C1A34764  13.698  11.389   6.674 -0.3085 -0.1651 -0.0382
20547YOPC   D2A34765  13.886  11.415   7.111  0.1916  0.0241 -0.0691
20547YOPC   C3A34766  13.831  11.698   7.545  0.4471  0.2114 -0.1495
20547YOPC   C4A34767  13.746  11.610   7.886 -0.0264  0.0870  0.0684
20547YOPC   C1B34768  13.373  12.019   6.783 -0.0242 -0.3770  0.0639
20547YOPC   C2B34769  13.253  11.983   7.276  0.0322 -0.0939 -0.0657
20547YOPC   D3B34770  12.968  11.721   7.431  0.0147 -0.0880  0.0321
20547YOPC   C4B34771  12.767  11.930   7.776 -0.0502  0.2812  0.2357
20548YOPC   NC334772  11.454  10.932   6.140  0.0088 -0.1077  0.2489
20548YOPC   PO434773  11.440  10.480   6.189  0.1881 -0.0684 -0.1164
20548YOPC   GL134774  11.515  10.323   6.580  0.1388  0.1117  0.1268
20548YOPC   GL234775  11.841  10.332   6.634 -0.0010  0.1549  0.2094
20548YOPC   C1A34776  11.375  10.147   7.015  0.1459 -0.2107  0.2119
20548YOPC   D2A34777  11.634   9.894   7.290 -0.0056 -0.1532 -0.2212
20548YOPC   C3A34778  11.842  10.059   7.631  0.1739  0.2086 -0.0789
20548YOPC   C4A34779  12.138  10.230   7.983 -0.0497  0.0068  0.4077
20548YOPC   C1B34780  11.931  10.279   7.132 -0.0237  0.0357 -0.0995
20548YOPC   C2B34781  12.047  10.705   7.212 -0.0497 -0.1382  0.0731
20548YOPC   D3B34782  12.438  10.823   7.081 -0.0170 -0.1280  0.0328
20548YOPC   C4B34783  12.740  11.042   7.173 -0.1493  0.0958 -0.4107
20549YOPC   NC334784  13.354   3.063   6.234 -0.2550 -0.1965 -0.0356
20549YOPC   PO434785  13.095   2.941   6.642  0.1272  0.0932 -0.3215
20549YOPC   GL134786  12.910   2.771   7.011 -0.0076 -0.0436  0.5150
20549YOPC   GL234787  12.804   2.560   7.239 -0.2795 -0.2886  0.0843
20549YOPC   C1A34788  13.090   2.938   7.467  0.2697 -0.0951 -0.1717
20549YOPC   D2A34789  12.994   3.036   7.849 -0.3404 -0.1226 -0.0895
20549YOPC   C3A34790  13.320   3.338   8.179  0.2482 -0.2917 -0.0904
20549YOPC   C4A34791  13.491   3.670   8.476  0.1530  0.1470 -0.0060
20549YOPC   C1B34792  12.705   2.571   7.647  0.1372 -0.0519 -0.1891
20549YOPC   C2B34793  12.345   2.538   7.798  0.0130 -0.0597 -0.0117
20549YOPC   D3B34794  12.145   2.732   8.158  0.3809  0.0394 -0.1397
20549YOPC   C4B34795  12.172   2.652   8.545 -0.1761 -0.2006 -0.0069
20550YOPC   NC334796  12.063  12.537   6.054  0.1050 -0.0253  0.1537
20550YOPC   PO434797  11.997  12.612   6.451 -0.0671 -0.0965  0.0789
20550YOPC   GL134798  12.293  12.581   6.843 -0.0007  0.1652  0.0590
20550YOPC   GL234799  12.557  12.712   6.845 -0.4060 -0.2828 -0.3041
20550YOPC   C1A34800  12.487  12.541   7.324 -0.0262  0.2093 -0.0794
20550YOPC   D2A34801  12.605  12.434   7.784  0.3430 -0.2826  0.1770
20550YOPC   C3A34802  12.386  12.268   8.105  0.1800  0.0861 -0.1197
20550YOPC   C4A34803  12.411  12.322   8.576 -0.1285 -0.0698 -0.2040
20550YOPC   C1B34804  12.943  12.801   7.139 -0.0211 -0.1936 -0.0094
20550YOPC   C2B34805  12.837  12.877   7.660  0.1869 -0.0365 -0.1051
20550YOPC   D3B34806  13.189  12.793   7.939 -0.0557 -0.3344  0.2132
20550YOPC   C4B34807  13.572  12.972   8.125 -0.1128  0.0923 -0.1007
20551YOPC   NC334808  11.978  11.572   6.198 -0.1911  0.1080 -0.2044
20551YOPC   PO434809  12.195  11.183   6.279 -0.1181 -0.2083 -0.1153
20551YOPC   GL134810  12.287  11.364   6.750  0.0399 -0.1833 -0.1124
20551YOPC   GL234811  12.311  11.685   6.714 -0.0960  0.0512 -0.1101
20551YOPC   C1A34812  12.254  11.335   7.182  0.2490  0.0307  0.3295
20551YOPC   D2A34813  12.162  11.042   7.532 -0.0336 -0.2949  0.0359
20551YOPC   C3A34814  12.540  11.132   7.889  0.2867  0.0794  0.0562
20551YOPC   C4A34815  12.924  11.062   8.108 -0.0578 -0.0170  0.1280
20551YOPC   C1B34816  12.605  11.583   7.017 -0.1317 -0.0535 -0.1082
20551YOPC   C2B34817  12.633  11.409   7.512  0.1935  0.1733 -0.2268
20551YOPC   D3B34818  12.945  11.507   7.869  0.0391  0.0846  0.1219
20551YOPC   C4B34819  13.321  11.401   8.059 -0.0841 -0.1193 -0.0697
20552YOPC   NC334820  15.020   8.019   5.917  0.0258 -0.2324  0.3077
20552YOPC   PO434821  14.659   8.348   5.808  0.2257  0.0077  0.3990
20552YOPC   GL134822  14.712   8.330   6.287  0.2169 -0.1567  0.0199
20552YOPC   GL234823  14.612   8.586   6.367 -0.1854 -0.0979  0.0580
20552YOPC   C1A34824  14.776   8.167   6.714  0.0085 -0.0826  0.2822
20552YOPC   D2A34825  14.788   8.409   7.103  0.2735 -0.0063 -0.0934
20552YOPC   C3A34826  14.818   8.234   7.523 -0.0559 -0.0815  0.2206
20552YOPC   C4A34827  15.024   8.147   7.877 -0.1060  0.0508 -0.1354
20552YOPC   C1B34828  14.569   8.788   6.731 -0.1543  0.0338 -0.1519
20552YOPC   C2B34829  14.850   8.918   7.079 -0.3737 -0.1003 -0.1573
20552YOPC   D3B34830  14.836   8.801   7.547 -0.4270  0.0198 -0.2122
20552YOPC   C4B34831  14.903   8.613   7.929 -0.0266 -0.0118  0.1985
20553YOPC   NC334832  11.979   8.653   6.226  0.0227  0.1172 -0.0424
20553YOPC   PO434833  12.331   8.766   6.527 -0.0362  0.0129  0.0761
20553YOPC   GL134834  12.359   8.433   6.992 -0.2119  0.2682  0.2407
20553YOPC   GL234835  12.271   8.751   7.244  0.2120 -0.0234 -0.2378
20553YOPC   C1A34836  12.525   8.299   7.419 -0.0018 -0.1065 -0.1411
20553YOPC   D2A34837  12.807   8.270   7.772 -0.0887  0.0343 -0.2183
20553YOPC   C3A34838  12.524   8.036   8.059  0.0303 -0.3847 -0.1323
20553YOPC   C4A34839  12.503   7.602   8.067 -0.0363 -0.2785 -0.3645
20553YOPC   C1B34840  12.506   8.700   7.726 -0.6288  0.0341  0.1571
20553YOPC   C2B34841  12.564   8.589   8.113 -0.2371 -0.0479 -0.3017
20553YOPC   D3B34842  12.899   8.388   8.280 -0.2595 -0.1147 -0.1948
20553YOPC   C4B34843  13.188   8.343   8.351 -0.4673  0.1511 -0.3737
20554YOPC   NC334844  10.143  11.127   6.955  0.0967  0.0096 -0.0191
20554YOPC   PO434845  10.481  10.905   6.997  0.2292 -0.0534 -0.4069
20554YOPC   GL134846  10.636  10.755   7.378 -0.1975 -0.1067  0.3020
20554YOPC   GL234847  10.809  10.944   7.455 -0.0452 -0.1649  0.1865
20554YOPC   C1A34848  10.684  10.507   7.710  0.0359  0.2979  0.1955
20554YOPC   D2A34849  10.480  10.173   7.758 -0.1693  0.2672 -0.0097
20554YOPC   C3A34850  10.483  10.010   8.176  0.3826  0.0501  0.2572
20554YOPC   C4A34851  10.626  10.099   8.511 -0.0072 -0.0823 -0.2215
20554YOPC   C1B34852  10.850  11.274   7.643 -0.0345 -0.0546 -0.2758
20554YOPC   C2B34853  10.665  11.501   7.880  0.2262 -0.1287 -0.2103
20554YOPC   D3B34854  10.392  11.559   8.207  0.1326  0.1606 -0.0255
20554YOPC   C4B34855  10.047  11.281   8.395 -0.1274 -0.1892 -0.2447
20555ERGO   ROH34856  15.241  14.120   6.749 -0.4135 -0.0922  0.2148
20555ERGO    R134857  15.217  14.035   7.018 -0.3647 -0.0119  0.2447
20555ERGO    R234858  15.422  14.062   7.201 -0.2145 -0.2431  0.1187
20555ERGO    R334859  15.231  14.191   7.346  0.0336  0.0351  0.2080
20555ERGO    R434860  15.377  14.028   7.542 -0.2620 -0.3545  0.1026
20555ERGO    R534861  15.161  14.030   7.509 -0.2643  0.0718  0.1166
20555ERGO    C134862  15.172  14.130   7.877 -0.0569 -0.1582  0.1771
20555ERGO    C234863  15.052  13.995   8.181  0.0399 -0.1968  0.1036
20556ERGO   ROH34864  17.390   0.697   6.421 -0.0205 -0.1230  0.0352
20556ERGO    R134865  17.631   0.704   6.570  0.0137 -0.0960 -0.0202
20556ERGO    R234866  17.653   0.838   6.811  0.0662 -0.0616 -0.0439
20556ERGO    R334867  17.740   0.597   6.900  0.0923 -0.0461 -0.0293
20556ERGO    R434868  17.849   0.790   7.092  0.0039 -0.0237  0.0055
20556ERGO    R534869  17.961   0.640   6.981  0.0638  0.0007  0.0283
20556ERGO    C134870  18.045   0.536   7.339 -0.0079  0.0129  0.0479
20556ERGO    C234871  18.096   0.447   7.682 -0.0789  0.0889  0.1056
20557ERGO   ROH34872  10.940   8.801   7.652 -0.4160  0.0154  0.1409
20557ERGO    R134873  11.046   8.763   7.911 -0.2537  0.0533  0.0799
20557ERGO    R234874  11.056   8.965   8.099 -0.2245  0.0517  0.0723
20557ERGO    R334875  10.924   8.785   8.253 -0.0655  0.0009  0.1538
20557ERGO    R434876  11.005   8.995   8.440 -0.3553  0.2353  0.0391
20557ERGO    R534877  11.045   8.782   8.459 -0.1148  0.2841  0.1960
20557ERGO    C134878  10.851   8.843   8.782 -0.2822  0.2945  0.0962
20557ERGO    C234879  10.652   8.827   9.028  0.1125 -0.0842  0.0312
20558ERGO   ROH34880  14.488  13.577   6.371 -0.1700  0.2777  0.0670
20558ERGO    R134881  14.399  13.661   6.626 -0.2226  0.1143  0.1029
20558ERGO    R234882  14.167  13.564   6.742 -0.0471 -0.2481  0.1596
20558ERGO    R334883  14.333  13.504   6.948  0.1049 -0.0247  0.1068
20558ERGO    R434884  14.090  13.607   7.076 -0.0447 -0.4451  0.1870
20558ERGO    R534885  14.294  13.677   7.109 -0.1440 -0.1171  0.1532
20558ERGO    C134886  14.202  13.575   7.465  0.0995 -0.3501  0.1533
20558ERGO    C234887  14.228  13.594   7.818  0.0007  0.0022  0.1775
20559ERGO   ROH34888  15.884  17.030   6.587  0.1278  0.0615 -0.0238
20559ERGO    R134889  15.740  17.015   6.830  0.2427 -0.1165  0.0355
20559ERGO    R234890  15.853  16.922   7.064  0.4550  0.0225 -0.0061
20559ERGO    R334891  15.766  17.160   7.163  0.1987 -0.0803  0.0221
20559ERGO    R434892  15.896  17.028   7.390  0.2923  0.0149  0.0181
20559ERGO    R534893  15.693  17.109   7.385  0.2126 -0.1883 -0.0000
20559ERGO    C134894  15.839  17.314   7.673 -0.0432 -0.0861  0.0587
20559ERGO    C234895  15.867  17.242   8.087  0.2192 -0.0361 -0.3423
20560ERGO   ROH34896  10.844  15.329   7.026 -0.0634  0.0477 -0.0515
20560ERGO    R134897  11.061  15.196   7.149  0.0957  0.2051 -0.1580
20560ERGO    R234898  11.275  15.330   7.260 -0.1072  0.3774  0.0254
20560ERGO    R334899  11.211  15.184   7.480  0.0480  0.0480 -0.1404
20560ERGO    R434900  11.474  15.297   7.541 -0.1548  0.4362  0.0674
20560ERGO    R534901  11.418  15.087   7.549  0.1906  0.3239 -0.1622
20560ERGO    C134902  11.530  15.141   7.910 -0.0368  0.1612 -0.0637
20560ERGO    C234903  11.762  15.188   8.227 -0.0074  0.0521  0.0914
20561ERGO   ROH34904  16.864  14.935   6.632  0.2133  0.0616  0.0942
20561ERGO    R134905  16.810  14.931   6.909  0.0738  0.0319  0.0677
20561ERGO    R234906  16.672  14.724   7.031  0.0309  0.0062 -0.0187
20561ERGO    R334907  16.891  14.715   7.191 -0.0465  0.0140  0.0882
20561ERGO    R434908  16.670  14.637   7.365 -0.0896 -0.2254 -0.0780
20561ERGO    R534909  16.814  14.795   7.403 -0.1947 -0.1746  0.1055
20561ERGO    C134910  16.874  14.578   7.710 -0.2323 -0.3528 -0.0123
20561ERGO    C234911  16.777  14.654   8.093 -0.0872 -0.1852  0.4527
20562ERGO   ROH34912  16.598   6.157   7.266  0.1101  0.3636 -0.0660
20562ERGO    R134913  16.680   6.094   7.529 -0.0147  0.0909 -0.0892
20562ERGO    R234914  16.704   6.286   7.728  0.1674 -0.0679  0.0420
20562ERGO    R334915  16.538   6.118   7.863 -0.0539  0.0304 -0.1005
20562ERGO    R434916  16.639   6.304   8.066  0.0737 -0.1706  0.0305
20562ERGO    R534917  16.646   6.086   8.075 -0.1535 -0.1881 -0.0775
20562ERGO    C134918  16.445   6.158   8.391 -0.1886 -0.1381 -0.1100
20562ERGO    C234919  16.192   6.194   8.573  0.1950  0.1635 -0.0627
20563ERGO   ROH34920  14.300  16.984   6.738 -0.0316 -0.1415  0.1697
20563ERGO    R134921  14.376  17.090   6.989 -0.0988  0.0225  0.1217
20563ERGO    R234922  14.329  17.354   7.059 -0.2032  0.0455 -0.0255
20563ERGO    R334923  14.207  17.241   7.274 -0.1869  0.1158  0.0205
20563ERGO    R434924  14.245  17.523   7.348 -0.3157  0.1735 -0.1321
20563ERGO    R534925  14.308  17.348   7.463 -0.2593  0.2647 -0.0244
20563ERGO    C134926  14.080  17.515   7.719 -0.3659  0.3140 -0.1509
20563ERGO    C234927  14.195  17.607   8.023 -0.3192 -0.0362  0.1700
20564ERGO   ROH34928  16.593   2.721   6.555  0.2316 -0.1579  0.0312
20564ERGO    R134929  16.523   2.775   6.824  0.1998 -0.0170 -0.0051
20564ERGO    R234930  16.509   2.578   7.016 -0.0338  0.0509  0.0476
20564ERGO    R334931  16.680   2.741   7.150  0.0725 -0.0629  0.0531
20564ERGO    R434932  16.501   2.634   7.357 -0.1168  0.1761  0.0261
20564ERGO    R534933  16.544   2.844   7.318  0.1001  0.1273 -0.0353
20564ERGO    C134934  16.657   2.819   7.682 -0.0654  0.1420  0.0186
20564ERGO    C234935  16.678   2.613   7.954  0.0138  0.0398  0.3896
20565ERGO   ROH34936  13.161  11.454   6.647  0.0390 -0.0574 -0.1217
20565ERGO    R134937  13.251  11.491   6.912  0.0443 -0.0389 -0.1273
20565ERGO    R234938  13.132  11.368   7.129  0.0805 -0.0589 -0.1252
20565ERGO    R334939  13.385  11.282   7.179  0.0994 -0.0094 -0.1298
20565ERGO    R434940  13.250  11.270   7.439 -0.0107 -0.3916 -0.1903
20565ERGO    R534941  13.437  11.373   7.394 -0.0325 -0.2484  0.0109
20565ERGO    C134942  13.556  11.133   7.666 -0.0463 -0.5387 -0.2326
20565ERGO    C234943  13.781  10.792   7.769 -0.1808  0.0387 -0.1280
20566ERGO   ROH34944  13.629   0.816   6.827  0.1360  0.1535  0.1056
20566ERGO    R134945  13.667   0.670   7.066  0.0539  0.0231  0.0407
20566ERGO    R234946  13.602   0.772   7.315  0.1177 -0.0490  0.0877
20566ERGO    R334947  13.457   0.543   7.335 -0.0175  0.0264 -0.0132
20566ERGO    R434948  13.480   0.642   7.611  0.0724 -0.1251  0.0357
20566ERGO    R534949  13.533   0.443   7.539 -0.0543 -0.1224 -0.0710
20566ERGO    C134950  13.272   0.351   7.802 -0.0808 -0.0987 -0.0893
20566ERGO    C234951  13.145   0.422   8.034 -0.3165 -0.4159 -0.0161
20567ERGO   ROH34952  16.498  16.012   6.885  0.1978 -0.2363  0.1938
20567ERGO    R134953  16.391  16.081   7.138  0.1470 -0.0154  0.1132
20567ERGO    R234954  16.455  15.943   7.369 -0.1633 -0.0284  0.1907
20567ERGO    R334955  16.524  16.190   7.459  0.1132 -0.0877  0.1530
20567ERGO    R434956  16.449  16.042   7.700 -0.1513  0.0525  0.1678
20567ERGO    R534957  16.369  16.234   7.637  0.1036  0.1421  0.0947
20567ERGO    C134958  16.511  16.331   7.977  0.1152  0.0439  0.1191
20567ERGO    C234959  16.519  16.532   8.158 -0.2254  0.0153  0.0926
20568ERGO   ROH34960  16.608   5.701   7.099  0.0074 -0.1788 -0.0047
20568ERGO    R134961  16.478   5.663   7.347  0.0727 -0.1267  0.0374
20568ERGO    R234962  16.569   5.483   7.536  0.2296  0.0489  0.1288
20568ERGO    R334963  16.563   5.701   7.699  0.0982  0.1402  0.0048
20568ERGO    R434964  16.584   5.472   7.882  0.4499  0.2595  0.1288
20568ERGO    R534965  16.434   5.630   7.888  0.2833  0.1083  0.1242
20568ERGO    C134966  16.588   5.670   8.235  0.4547  0.4679  0.0125
20568ERGO    C234967  16.703   5.699   8.559 -0.2673 -0.0840 -0.0014
20569ERGO   ROH34968   1.251   7.860   8.790  0.0659  0.1293  0.0695
20569ERGO    R134969   1.155   7.905   9.053  0.1000  0.3902  0.0400
20569ERGO    R234970   1.231   7.750   9.269 -0.3147  0.2280  0.0837
20569ERGO    R334971   1.299   7.990   9.376  0.2260  0.0965  0.0620
20569ERGO    R434972   1.248   7.819   9.607 -0.4451  0.3026  0.0755
20569ERGO    R534973   1.159   8.013   9.567  0.1005  0.5373 -0.0759
20569ERGO    C134974   1.322   8.085   9.904 -0.0135  0.2226  0.0503
20569ERGO    C234975   1.242   8.245  10.170  0.3410  0.2065  0.1704
20570ERGO   ROH34976  11.868   2.295   7.096 -0.1198 -0.1009 -0.1466
20570ERGO    R134977  11.793   2.410   7.343 -0.0024 -0.0156 -0.1482
20570ERGO    R234978  11.655   2.269   7.537 -0.1740  0.1324 -0.1487
20570ERGO    R334979  11.862   2.348   7.695 -0.0829 -0.0999 -0.1495
20570ERGO    R434980  11.647   2.280   7.882 -0.2231  0.3546 -0.1559
20570ERGO    R534981  11.757   2.468   7.874  0.0736  0.1725 -0.2430
20570ERGO    C134982  11.837   2.360   8.232 -0.1661  0.2659 -0.1610
20570ERGO    C234983  11.893   2.235   8.507  0.0811  0.0416  0.4809
20571ERGO   ROH34984  12.197  15.874   6.460  0.0558 -0.2902 -0.0197
20571ERGO    R134985  11.975  15.978   6.602  0.0390 -0.1972 -0.1149
20571ERGO    R234986  11.914  15.899   6.861 -0.0095 -0.0510 -0.0874
20571ERGO    R334987  11.923  16.167   6.909 -0.0060 -0.0242 -0.2256
20571ERGO    R434988  11.790  16.055   7.144  0.1349  0.0697 -0.0882
20571ERGO    R534989  11.716  16.215   7.018  0.0456  0.0051 -0.1298
20571ERGO    C134990  11.727  16.396   7.353  0.2224  0.1652 -0.2184
20571ERGO    C234991  11.562  16.509   7.665  0.5074  0.0619  0.1384
20572ERGO   ROH34992  11.711   8.942   7.376  0.0360 -0.2113 -0.0511
20572ERGO    R134993  11.935   8.965   7.548  0.0710 -0.1375 -0.1059
20572ERGO    R234994  11.921   9.090   7.794  0.1192 -0.0381 -0.1537
20572ERGO    R334995  12.022   8.855   7.884  0.1419 -0.0003 -0.0787
20572ERGO    R434996  12.000   9.021   8.124  0.0323  0.0396 -0.1163
20572ERGO    R534997  12.178   8.917   8.055  0.0762  0.0645 -0.0418
20572ERGO    C134998  12.140   8.760   8.400  0.0031  0.1205 -0.0240
20572ERGO    C234999  12.244   8.598   8.774 -0.1454 -0.1400  0.0364
20573ERGO   ROH35000  14.115   4.444   7.200 -0.0650  0.1237 -0.0040
20573ERGO    R135001  14.046   4.515   7.465  0.1330  0.0533  0.0677
20573ERGO    R235002  13.811   4.432   7.585  0.0308  0.3520  0.0760
20573ERGO    R335003  13.980   4.340   7.777 -0.0571 -0.0618 -0.0342
20573ERGO    R435004  13.714   4.331   7.901 -0.0230  0.5404  0.1216
20573ERGO    R535005  13.891   4.429   7.981  0.2627  0.1291  0.0300
20573ERGO    C135006  13.816   4.186   8.265 -0.1369  0.2618  0.0449
20573ERGO    C235007  13.785   4.111   8.623 -0.3976 -0.1454 -0.2985
20574ERGO   ROH35008  17.428  13.402   6.727 -0.0273  0.2750 -0.0694
20574ERGO    R135009  17.484  13.326   6.994 -0.2689 -0.0056 -0.0940
20574ERGO    R235010  17.661  13.465   7.155  0.0610 -0.5261  0.0136
20574ERGO    R335011  17.449  13.476   7.324  0.0413 -0.0751 -0.0267
20574ERGO    R435012  17.682  13.442   7.499 -0.0501 -0.4715  0.0254
20574ERGO    R535013  17.503  13.318   7.497 -0.2908 -0.1349  0.0284
20574ERGO    C135014  17.496  13.439   7.859 -0.1332 -0.0164 -0.0056
20574ERGO    C235015  17.343  13.330   8.148  0.1524 -0.1788 -0.1540
20575ERGO   ROH35016  11.986   3.504   7.077  0.0687  0.0486 -0.0268
20575ERGO    R135017  11.812   3.508   7.301  0.0056  0.0891 -0.0760
20575ERGO    R235018  11.889   3.421   7.551 -0.1075  0.0028 -0.0687
20575ERGO    R335019  11.803   3.668   7.627 -0.0104  0.0302 -0.0478
20575ERGO    R435020  11.715   3.488   7.842 -0.1616  0.0333 -0.1080
20575ERGO    R535021  11.591   3.627   7.730 -0.0603  0.1151 -0.1185
20575ERGO    C135022  11.534   3.759   8.083 -0.1019  0.0768 -0.1112
20575ERGO    C235023  11.493   3.820   8.431  0.0264  0.1712 -0.1456
20576ERGO   ROH35024  11.094  10.466   7.363  0.2437 -0.0800 -0.2790
20576ERGO    R135025  11.173  10.427   7.632  0.1402 -0.0098 -0.2383
20576ERGO    R235026  11.410  10.304   7.702  0.1030 -0.0121 -0.1135
20576ERGO    R335027  11.449  10.532   7.844  0.0709  0.0247 -0.1654
20576ERGO    R435028  11.621  10.333   7.973 -0.1671 -0.0139  0.1014
20576ERGO    R535029  11.471  10.457   8.071 -0.2072  0.1047 -0.1084
20576ERGO    C135030  11.781  10.564   8.266 -0.3544  0.0195  0.1780
20576ERGO    C235031  12.110  10.504   8.441 -0.2549 -0.2023  0.0853
20577ERGO   ROH35032  15.374   5.279   7.095 -0.1546 -0.0227  0.0351
20577ERGO    R135033  15.380   5.454   7.317 -0.0425 -0.0731  0.0719
20577ERGO    R235034  15.191   5.445   7.519 -0.1058  0.0679  0.0190
20577ERGO    R335035  15.410   5.421   7.678 -0.1681 -0.1772  0.0743
20577ERGO    R435036  15.186   5.448   7.865 -0.1646  0.3876  0.0185
20577ERGO    R535037  15.367   5.569   7.862  0.0565  0.0711 -0.0639
20577ERGO    C135038  15.388   5.428   8.215 -0.2573  0.3438  0.0703
20577ERGO    C235039  15.243   5.361   8.557 -0.1572 -0.0321  0.3044
20578ERGO   ROH35040  10.814   9.415   7.473 -0.0350  0.1678  0.0133
20578ERGO    R135041  10.955   9.541   7.684 -0.1254  0.2189  0.0436
20578ERGO    R235042  10.831   9.629   7.914 -0.1835  0.0369  0.0824
20578ERGO    R335043  11.019   9.475   8.036 -0.0414  0.1558  0.0171
20578ERGO    R435044  10.857   9.583   8.256 -0.1005 -0.0298  0.0674
20578ERGO    R535045  11.074   9.595   8.236 -0.1113  0.1502  0.0404
20578ERGO    C135046  11.049   9.411   8.569  0.0813  0.0430 -0.0026
20578ERGO    C235047  11.071   9.300   8.851 -0.2162  0.0973 -0.0279
20579ERGO   ROH35048  11.622   0.735   6.757 -0.1361 -0.2100 -0.0082
20579ERGO    R135049  11.567   0.804   7.025 -0.1216 -0.0907 -0.0349
20579ERGO    R235050  11.376   0.675   7.176 -0.1181 -0.0220  0.0329
20579ERGO    R335051  11.582   0.639   7.349 -0.1090  0.0499  0.0365
20579ERGO    R435052  11.340   0.609   7.514 -0.0965  0.1485  0.0686
20579ERGO    R535053  11.508   0.744   7.552 -0.0856  0.1550 -0.0103
20579ERGO    C135054  11.513   0.538   7.873 -0.0752  0.3153  0.0928
20579ERGO    C235055  11.455   0.320   8.171 -0.1927 -0.0719  0.2046
20580ERGO   ROH35056  10.989   2.998   6.974  0.3636  0.1100  0.1862
20580ERGO    R135057  11.030   3.033   7.252  0.1979  0.1044  0.2124
20580ERGO    R235058  10.886   3.214   7.403  0.0383  0.0298  0.1498
20580ERGO    R335059  10.833   2.995   7.555  0.0485 -0.0056  0.1031
20580ERGO    R435060  10.860   3.215   7.748  0.0797 -0.0513  0.1535
20580ERGO    R535061  10.967   3.025   7.751  0.0737 -0.0571  0.0947
20580ERGO    C135062  10.795   3.010   8.091  0.1134 -0.1317  0.1117
20580ERGO    C235063  10.756   3.055   8.494  0.2765 -0.1208 -0.0480
20581ERGO   ROH35064  13.136  13.882   6.853 -0.1472 -0.2674  0.0763
20581ERGO    R135065  13.244  13.945   7.107  0.0700 -0.0730 -0.0596
20581ERGO    R235066  13.359  14.191   7.163 -0.0133  0.0308 -0.2979
20581ERGO    R335067  13.180  14.190   7.368  0.1824  0.0244 -0.1255
20581ERGO    R435068  13.416  14.325   7.476  0.3182 -0.0960 -0.3008
20581ERGO    R535069  13.313  14.155   7.564  0.3479 -0.0835 -0.2623
20581ERGO    C135070  13.282  14.404   7.851  0.6949 -0.1759 -0.1406
20581ERGO    C235071  13.311  14.750   7.946 -0.2758  0.2257 -0.0210
20582ERGO   ROH35072  16.006   0.444   6.555 -0.0929  0.1176 -0.0659
20582ERGO    R135073  15.893   0.629   6.737  0.0861  0.0597  0.1067
20582ERGO    R235074  15.726   0.552   6.944  0.0756  0.0197  0.0809
20582ERGO    R335075  15.906   0.689   7.096  0.2111 -0.2325  0.1539
20582ERGO    R435076  15.670   0.662   7.267  0.1092  0.0709  0.0701
20582ERGO    R535077  15.773   0.847   7.217  0.3786 -0.0606  0.1195
20582ERGO    C135078  15.805   0.854   7.597  0.2560 -0.1360  0.1323
20582ERGO    C235079  16.126   0.928   7.931 -0.0443 -0.4737  0.1080
20583ERGO   ROH35080  14.328   8.323   6.738  0.0147  0.0139  0.0089
20583ERGO    R135081  14.191   8.272   6.980 -0.0069 -0.0497 -0.0163
20583ERGO    R235082  14.107   8.019   7.054  0.0981 -0.0877 -0.0317
20583ERGO    R335083  14.248   8.073   7.279  0.0292 -0.0226 -0.0039
20583ERGO    R435084  14.046   7.880   7.364  0.0679 -0.0892 -0.0387
20583ERGO    R535085  14.085   8.074   7.454 -0.0168 -0.0653 -0.0428
20583ERGO    C135086  14.143   7.850   7.757 -0.0144 -0.0289 -0.0166
20583ERGO    C235087  14.153   7.846   8.116 -0.3301  0.1012 -0.1260
20584ERGO   ROH35088  13.056   6.295   7.083 -0.0062 -0.1611 -0.0663
20584ERGO    R135089  13.086   6.306   7.364  0.0006 -0.1086 -0.0691
20584ERGO    R235090  13.325   6.250   7.490 -0.0124 -0.1434 -0.0613
20584ERGO    R335091  13.287   6.495   7.601  0.0529 -0.1095 -0.1121
20584ERGO    R435092  13.395   6.330   7.819 -0.0029 -0.0976 -0.0742
20584ERGO    R535093  13.211   6.447   7.824  0.0299 -0.0436 -0.1053
20584ERGO    C135094  13.399   6.606   8.115  0.0641 -0.0389 -0.1293
20584ERGO    C235095  13.501   6.665   8.479 -0.4268  0.0092 -0.0740
20585ERGO   ROH35096  14.821  14.627   6.643 -0.0095 -0.0927  0.0492
20585ERGO    R135097  15.067  14.660   6.780  0.0249 -0.0058 -0.0340
20585ERGO    R235098  15.154  14.906   6.870 -0.0647  0.0129 -0.0046
20585ERGO    R335099  15.173  14.776   7.108  0.0916 -0.0377 -0.0434
20585ERGO    R435100  15.269  15.049   7.163 -0.1768  0.0511  0.0215
20585ERGO    R535101  15.375  14.863   7.206  0.0187  0.1413 -0.0429
20585ERGO    C135102  15.354  15.011   7.557 -0.0951  0.0259  0.0002
20585ERGO    C235103  15.574  14.948   7.848 -0.1736  0.0663 -0.1104
20586ERGO   ROH35104  17.020   7.371   6.964 -0.1759  0.2047 -0.0931
20586ERGO    R135105  17.098   7.358   7.236  0.0022  0.2792 -0.1404
20586ERGO    R235106  17.033   7.555   7.418 -0.2661  0.1136 -0.0601
20586ERGO    R335107  16.930   7.346   7.558  0.2016 -0.1204 -0.0438
20586ERGO    R435108  17.053   7.519   7.761 -0.5669  0.4416 -0.0020
20586ERGO    R535109  17.091   7.306   7.732  0.1383  0.5096  0.1914
20586ERGO    C135110  16.968   7.302   8.093 -0.3026  0.4128  0.0471
20586ERGO    C235111  16.791   7.088   8.479 -0.0188 -0.0532  0.1786
20587ERGO   ROH35112  10.900   7.962   7.465  0.1393 -0.0312 -0.0285
20587ERGO    R135113  10.984   7.830   7.701 -0.0140 -0.0514  0.0164
20587ERGO    R235114  11.218   7.895   7.833  0.0790 -0.2945 -0.0168
20587ERGO    R335115  11.052   7.924   8.046  0.1188 -0.0063 -0.0225
20587ERGO    R435116  11.313   7.860   8.163  0.0177 -0.4015 -0.0108
20587ERGO    R535117  11.125   7.756   8.201 -0.1464 -0.1020  0.0003
20587ERGO    C135118  11.213   7.867   8.556  0.0194 -0.1933 -0.0127
20587ERGO    C235119  11.204   7.938   8.953  0.2884  0.5359 -0.0939
20588ERGO   ROH35120  16.655  17.449   6.979 -0.0659  0.2520  0.0862
20588ERGO    R135121  16.770  17.578   7.203  0.0145  0.0721  0.1518
20588ERGO    R235122  16.622  17.655   7.423  0.0506  0.1004  0.1705
20588ERGO    R335123  16.808  17.509   7.558 -0.0767 -0.1035  0.1274
20588ERGO    R435124  16.676  17.671   7.764  0.0277 -0.0977  0.1835
20588ERGO    R535125  16.890  17.658   7.726  0.0209 -0.2454  0.2043
20588ERGO    C135126  16.882  17.543   8.090 -0.1051 -0.4044  0.1507
20588ERGO    C235127  17.022  17.515   8.306  0.1211 -0.3578 -0.0206
20589ERGO   ROH35128  17.947   4.988   6.648  0.0001  0.3873 -0.0588
20589ERGO    R135129  17.950   5.081   6.915 -0.0658  0.1251  0.0365
20589ERGO    R235130  17.763   5.259   7.014 -0.0153  0.1334  0.1298
20589ERGO    R335131  17.727   5.067   7.203 -0.2006 -0.0383 -0.0755
20589ERGO    R435132  17.627   5.312   7.327  0.0671 -0.0704  0.2012
20589ERGO    R535133  17.776   5.176   7.409 -0.0690 -0.3171  0.0432
20589ERGO    C135134  17.514   5.163   7.687 -0.0585 -0.3502  0.0501
20589ERGO    C235135  17.305   4.954   7.942  0.2919  0.0952  0.1226
20590ERGO   ROH35136  15.165   8.504   6.511  0.0226  0.2728 -0.0846
20590ERGO    R135137  15.186   8.423   6.781  0.0973  0.2253 -0.1046
20590ERGO    R235138  15.409   8.477   6.935  0.0287  0.4382 -0.0776
20590ERGO    R335139  15.226   8.587   7.104 -0.1086  0.1877 -0.0588
20590ERGO    R435140  15.451   8.512   7.277 -0.0597  0.3386 -0.0560
20590ERGO    R535141  15.242   8.455   7.303 -0.0091  0.1196 -0.1108
20590ERGO    C135142  15.303   8.635   7.633 -0.2400  0.0455 -0.0257
20590ERGO    C235143  15.444   8.735   7.971 -0.3216  0.2381  0.0856
20591ERGO   ROH35144  13.328   7.020   7.030  0.2531 -0.0175  0.0283
20591ERGO    R135145  13.325   6.931   7.299  0.0728  0.0141  0.0374
20591ERGO    R235146  13.516   7.009   7.483  0.0917 -0.1612  0.0884
20591ERGO    R335147  13.298   7.084   7.628  0.1205  0.0781  0.0130
20591ERGO    R435148  13.502   7.020   7.829  0.0080 -0.0905  0.0837
20591ERGO    R535149  13.300   6.938   7.818 -0.0740  0.1038  0.0399
20591ERGO    C135150  13.289   7.096   8.165 -0.0137  0.1754  0.0101
20591ERGO    C235151  13.203   7.117   8.406 -0.3084 -0.1040 -0.1258
20592ERGO   ROH35152  14.885   0.844   6.622  0.1739  0.0426  0.1349
20592ERGO    R135153  14.710   0.847   6.844  0.1646  0.0316  0.1277
20592ERGO    R235154  14.652   0.620   6.991  0.0782  0.0038  0.0518
20592ERGO    R335155  14.733   0.774   7.200  0.1224 -0.0923  0.1056
20592ERGO    R435156  14.490   0.640   7.295  0.0192  0.0308  0.0186
20592ERGO    R535157  14.529   0.855   7.296  0.1478  0.0077  0.0765
20592ERGO    C135158  14.471   0.796   7.669  0.0263 -0.0436  0.0496
20592ERGO    C235159  14.458   0.488   7.910 -0.1694  0.0283 -0.2790
20593ERGO   ROH35160  16.939   8.555   7.195 -0.3084  0.0907 -0.0430
20593ERGO    R135161  17.083   8.746   7.345 -0.3562  0.1143 -0.0271
20593ERGO    R235162  16.960   8.924   7.517 -0.3842 -0.0585  0.1350
20593ERGO    R335163  17.135   8.822   7.697 -0.2089 -0.0309 -0.0163
20593ERGO    R435164  17.035   9.068   7.822 -0.4306 -0.2398  0.2333
20593ERGO    R535165  17.244   9.014   7.790 -0.3809  0.0091  0.1095
20593ERGO    C135166  17.244   9.055   8.169 -0.2931 -0.3195  0.1484
20593ERGO    C235167  17.087   8.979   8.424  0.0399 -0.2931 -0.0059
20594ERGO   ROH35168  12.420   9.697   6.755  0.0353  0.0485  0.1184
20594ERGO    R135169  12.624   9.648   6.946  0.0612  0.1400  0.1147
20594ERGO    R235170  12.720   9.845   7.114 -0.1010  0.1581  0.1891
20594ERGO    R335171  12.657   9.665   7.308  0.0236  0.0413  0.1227
20594ERGO    R435172  12.869   9.829   7.426 -0.0553  0.1112  0.1648
20594ERGO    R535173  12.866   9.611   7.410  0.0656  0.1159  0.0755
20594ERGO    C135174  12.895   9.650   7.789  0.0882 -0.0256  0.0884
20594ERGO    C235175  12.790   9.792   8.063 -0.0788 -0.0494  0.1901
20595ERGO   ROH35176  12.525  14.675   6.872 -0.0217 -0.0954  0.0502
20595ERGO    R135177  12.614  14.845   7.081  0.0099 -0.0082 -0.0331
20595ERGO    R235178  12.466  15.061   7.170 -0.0557 -0.0712  0.0123
20595ERGO    R335179  12.496  14.940   7.412  0.1518 -0.0108  0.0188
20595ERGO    R435180  12.481  15.226   7.473 -0.0761 -0.0138 -0.0179
20595ERGO    R535181  12.638  15.088   7.535  0.0730  0.1333 -0.0618
20595ERGO    C135182  12.518  15.210   7.876  0.1068  0.0763 -0.0294
20595ERGO    C235183  12.287  15.159   8.175 -0.1514 -0.1546  0.0910
20596ERGO   ROH35184  17.690   9.108   6.678 -0.2057 -0.2147  0.0795
20596ERGO    R135185  17.905   9.184   6.847 -0.0926 -0.2621 -0.0411
20596ERGO    R235186  17.865   9.304   7.093  0.0787  0.0462 -0.1591
20596ERGO    R335187  18.020   9.100   7.182 -0.1249 -0.0295  0.0301
20596ERGO    R435188  18.002   9.283   7.409  0.0761  0.2150 -0.1459
20596ERGO    R535189  18.185   9.205   7.320 -0.0073 -0.0612 -0.0841
20596ERGO    C135190  18.228   9.079   7.677 -0.1166  0.2420  0.0394
20596ERGO    C235191  18.352   9.048   7.999 -0.1487 -0.0388 -0.2054
20597ERGO   ROH35192  15.299  10.473   6.303  0.0647  0.1655 -0.0908
20597ERGO    R135193  15.317  10.494   6.584  0.1211  0.0805 -0.0871
20597ERGO    R235194  15.095  10.523   6.746  0.1576  0.1233 -0.0392
20597ERGO    R335195  15.198  10.305   6.872  0.0951  0.0465 -0.1211
20597ERGO    R435196  15.062  10.458   7.084  0.2719  0.0799 -0.0365
20597ERGO    R535197  15.270  10.389   7.085  0.2332 -0.0318 -0.1383
20597ERGO    C135198  15.139  10.216   7.399  0.2799 -0.0174 -0.1119
20597ERGO    C235199  15.013  10.161   7.700  0.0932 -0.1715 -0.3669
20598ERGO   ROH35200  17.169   6.418   6.906 -0.1056  0.1493 -0.0136
20598ERGO    R135201  17.220   6.452   7.182 -0.3254  0.1248  0.0324
20598ERGO    R235202  17.045   6.365   7.378 -0.2707 -0.3176 -0.1016
20598ERGO    R335203  17.265   6.236   7.472 -0.0561  0.0705 -0.0476
20598ERGO    R435204  17.135   6.344   7.711 -0.2757 -0.1081 -0.0857
20598ERGO    R535205  17.342   6.373   7.652 -0.3126  0.2371 -0.0604
20598ERGO    C135206  17.393   6.209   7.993 -0.0771  0.3783 -0.0257
20598ERGO    C235207  17.454   6.118   8.159  0.1734 -0.1984 -0.0659
20599ERGO   ROH35208  15.570   1.978   6.785 -0.2660  0.0259  0.0708
20599ERGO    R135209  15.682   2.018   7.042 -0.3080 -0.0198  0.0954
20599ERGO    R235210  15.709   1.813   7.226 -0.0339 -0.1230 -0.0612
20599ERGO    R335211  15.969   1.894   7.228 -0.1333  0.2160 -0.0089
20599ERGO    R435212  15.931   1.758   7.485  0.0916 -0.2287 -0.1887
20599ERGO    R535213  16.009   1.959   7.454 -0.1752 -0.0681  0.0893
20599ERGO    C135214  16.304   1.801   7.638  0.0716  0.0280 -0.2138
20599ERGO    C235215  16.494   1.883   7.945  0.1008 -0.0360  0.1182
20600ERGO   ROH35216  15.980  15.522   6.717 -0.1330  0.2119  0.1370
20600ERGO    R135217  16.093  15.434   6.962 -0.0300  0.2183  0.0895
20600ERGO    R235218  16.153  15.607   7.169 -0.1874  0.1845  0.1476
20600ERGO    R335219  15.998  15.436   7.313 -0.0030 -0.0291  0.1038
20600ERGO    R435220  16.152  15.584   7.514 -0.3846  0.3506  0.1623
20600ERGO    R535221  16.138  15.367   7.494  0.0064  0.2970  0.2404
20600ERGO    C135222  16.006  15.411   7.850 -0.3266  0.2469  0.1297
20600ERGO    C235223  16.140  15.557   8.243 -0.1880  0.0979 -0.1474
20601ERGO   ROH35224  11.089   7.301   7.501  0.0951  0.1502  0.0839
20601ERGO    R135225  10.941   7.309   7.742  0.0088  0.3043  0.0263
20601ERGO    R235226  10.993   7.139   7.955 -0.3203  0.1711  0.0037
20601ERGO    R335227  11.010   7.372   8.093 -0.0358  0.1136  0.0714
20601ERGO    R435228  10.996   7.165   8.299 -0.3155  0.0679  0.0123
20601ERGO    R535229  10.868   7.340   8.283 -0.0951  0.2384  0.0504
20601ERGO    C135230  11.015   7.399   8.630 -0.0456 -0.0461  0.0809
20601ERGO    C235231  10.886   7.536   8.854 -0.0055 -0.1415 -0.1482
20602ERGO   ROH35232  13.844  11.166   6.236 -0.0151  0.1318 -0.1089
20602ERGO    R135233  14.056  11.086   6.404 -0.1459 -0.0202 -0.0141
20602ERGO    R235234  14.212  11.267   6.543  0.0618 -0.1167 -0.1206
20602ERGO    R335235  14.139  11.117   6.758 -0.1702  0.1294 -0.0202
20602ERGO    R435236  14.342  11.302   6.862  0.1044 -0.0913 -0.1404
20602ERGO    R535237  14.344  11.085   6.879 -0.2158 -0.0891  0.0057
20602ERGO    C135238  14.349  11.182   7.248 -0.0884  0.1547 -0.0576
20602ERGO    C235239  14.601  11.208   7.534  0.0391  0.2886  0.1343
20603ERGO   ROH35240  11.414   6.964   7.524  0.4600 -0.2666  0.1778
20603ERGO    R135241  11.244   6.843   7.715  0.3578 -0.2653  0.0876
20603ERGO    R235242  10.989   6.757   7.654  0.1554  0.2953  0.0968
20603ERGO    R335243  11.078   6.521   7.756 -0.2056 -0.0460 -0.3304
20603ERGO    R435244  10.825   6.573   7.896  0.2744  0.5695  0.3933
20603ERGO    R535245  11.019   6.531   7.988  0.4373 -0.0398 -0.1467
20603ERGO    C135246  10.814   6.244   8.134  0.0049  0.4088  0.1649
20603ERGO    C235247  10.545   6.089   8.232 -0.0667  0.1566 -0.1854
20604ERGO   ROH35248  16.962   3.263   6.665 -0.0084 -0.2529 -0.1102
20604ERGO    R135249  16.908   3.152   6.920 -0.1159 -0.1534 -0.0893
20604ERGO    R235250  17.066   3.203   7.141 -0.0262 -0.3184 -0.1175
20604ERGO    R335251  16.830   3.279   7.252  0.0775 -0.0120 -0.0949
20604ERGO    R435252  17.023   3.291   7.472  0.1168 -0.3047 -0.1014
20604ERGO    R535253  16.834   3.183   7.471 -0.0365 -0.0521 -0.1070
20604ERGO    C135254  16.776   3.413   7.769  0.2979 -0.0090 -0.0708
20604ERGO    C235255  16.787   3.632   7.945 -0.0368  0.1901  0.0982
20605ERGO   ROH35256  16.795  17.914   6.705 -0.1869 -0.2081  0.0277
20605ERGO    R135257  16.926  18.016   6.934 -0.0656 -0.2083 -0.0401
20605ERGO    R235258  16.814  18.210   7.096  0.0571 -0.1438 -0.0283
20605ERGO    R335259  16.861  18.028   7.292  0.0759 -0.1261 -0.0170
20605ERGO    R435260  16.925  18.286   7.415 -0.0689 -0.1040  0.0062
20605ERGO    R535261  17.054  18.111   7.406  0.0063 -0.0481  0.0422
20605ERGO    C135262  17.033  18.158   7.784 -0.1245 -0.0642  0.0371
20605ERGO    C235263  16.911  18.024   8.074  0.0273 -0.2946 -0.0670
20606ERGO   ROH35264  11.921  12.297   7.271 -0.1936  0.0420 -0.0361
20606ERGO    R135265  11.818  12.270   7.533 -0.0294  0.0802  0.0340
20606ERGO    R235266  11.975  12.301   7.758  0.1110  0.1266 -0.0664
20606ERGO    R335267  11.784  12.483   7.827  0.1432  0.1283  0.0196
20606ERGO    R435268  11.848  12.343   8.077 -0.0318 -0.1395 -0.0860
20606ERGO    R535269  11.650  12.368   7.989  0.0217  0.0178 -0.1579
20606ERGO    C135270  11.595  12.537   8.327 -0.0845 -0.2927 -0.0168
20606ERGO    C235271  11.389  12.671   8.585 -0.0526 -0.3842  0.1422
20607ERGO   ROH35272  12.232  13.135   7.132  0.0969 -0.0457 -0.0382
20607ERGO    R135273  12.430  13.255   7.295  0.0401  0.1245 -0.0924
20607ERGO    R235274  12.397  13.505   7.409 -0.1732  0.0683 -0.0273
20607ERGO    R335275  12.453  13.371   7.639  0.0579  0.0763 -0.0767
20607ERGO    R435276  12.565  13.637   7.681 -0.3050  0.2287 -0.0227
20607ERGO    R535277  12.670  13.449   7.703 -0.0338  0.3641 -0.0973
20607ERGO    C135278  12.715  13.588   8.054 -0.1649  0.3297 -0.0665
20607ERGO    C235279  12.659  13.734   8.330  0.0134  0.1079  0.0571
20608ERGO   ROH35280  16.504  10.778   6.397  0.1863 -0.0153  0.0000
20608ERGO    R135281  16.437  10.828   6.667  0.1988 -0.0329  0.0058
20608ERGO    R235282  16.393  10.626   6.850  0.1729 -0.0435 -0.0159
20608ERGO    R335283  16.583  10.758   6.994  0.1936 -0.0861 -0.0024
20608ERGO    R435284  16.394  10.656   7.194  0.2168 -0.1480 -0.0060
20608ERGO    R535285  16.460  10.863   7.171  0.2147 -0.1384  0.0461
20608ERGO    C135286  16.572  10.798   7.530  0.2614 -0.2490  0.0125
20608ERGO    C235287  16.476  10.980   7.897 -0.0177  0.1512 -0.0271
20609ERGO   ROH35288  12.558   1.646   7.253  0.0650  0.1147 -0.0079
20609ERGO    R135289  12.603   1.624   7.532  0.0250  0.0506 -0.0070
20609ERGO    R235290  12.499   1.804   7.714  0.1493  0.1120  0.0012
20609ERGO    R335291  12.398   1.579   7.830 -0.0348  0.1768 -0.0280
20609ERGO    R435292  12.469   1.753   8.055  0.0879  0.1010 -0.0052
20609ERGO    R535293  12.533   1.547   8.025 -0.0704  0.0513 -0.0220
20609ERGO    C135294  12.357   1.512   8.361 -0.1205  0.1553 -0.0362
20609ERGO    C235295  12.424   1.395   8.653 -0.1391  0.1271  0.2474
20610ERGO   ROH35296  17.755  16.736   6.995 -0.0254 -0.1990  0.0685
20610ERGO    R135297  17.763  16.713   7.277 -0.1499  0.1267  0.1023
20610ERGO    R235298  17.972  16.590   7.410 -0.3583  0.0027  0.3154
20610ERGO    R335299  17.983  16.825   7.544 -0.0859  0.1546  0.0395
20610ERGO    R435300  18.142  16.639   7.706 -0.4070  0.1137  0.3259
20610ERGO    R535301  17.976  16.762   7.775 -0.2700  0.4337  0.1168
20610ERGO    C135302  18.252  16.890   8.005 -0.1797  0.3207  0.0729
20610ERGO    C235303  18.413  16.948   8.210  0.0947 -0.2218  0.1227
20611ERGO   ROH35304  12.812  16.454   6.664  0.4146 -0.1393  0.0687
20611ERGO    R135305  12.965  16.488   6.899  0.2031  0.0337  0.1842
20611ERGO    R235306  12.972  16.726   7.040 -0.0543  0.0838  0.1064
20611ERGO    R335307  12.900  16.567   7.248 -0.1269  0.1167  0.1085
20611ERGO    R435308  13.074  16.770   7.367 -0.1462  0.1305  0.1303
20611ERGO    R535309  13.096  16.555   7.384 -0.1630  0.1267  0.1682
20611ERGO    C135310  13.065  16.647   7.753 -0.2678  0.1884  0.1461
20611ERGO    C235311  12.973  16.606   8.145  0.2960 -0.0771  0.2451
20612ERGO   ROH35312   0.434   1.913   6.404  0.2732  0.0888  0.1108
20612ERGO    R135313   0.305   1.815   6.636  0.1788  0.2310  0.1199
20612ERGO    R235314   0.403   1.600   6.781 -0.1135  0.0388  0.0399
20612ERGO    R335315   0.388   1.776   6.988  0.2147  0.0148  0.0894
20612ERGO    R435316   0.264   1.530   7.090 -0.1769  0.1843  0.0454
20612ERGO    R535317   0.176   1.730   7.090  0.1503  0.3365  0.1139
20612ERGO    C135318   0.169   1.654   7.464  0.0943  0.2466  0.0951
20612ERGO    C235319   0.218   1.540   7.817  0.4428  0.0828 -0.0814
20613ERGO   ROH35320  16.053   1.804   6.695 -0.0317  0.1179  0.0996
20613ERGO    R135321  16.097   1.625   6.910 -0.2127  0.1034  0.1268
20613ERGO    R235322  16.344   1.512   6.962 -0.3782 -0.3618 -0.0255
20613ERGO    R335323  16.304   1.618   7.210  0.0097 -0.1867 -0.0305
20613ERGO    R435324  16.444   1.365   7.259 -0.2293 -0.3169 -0.0530
20613ERGO    R535325  16.256   1.429   7.348 -0.0598 -0.0561  0.1204
20613ERGO    C135326  16.465   1.379   7.663  0.2219 -0.1264 -0.0738
20613ERGO    C235327  16.405   1.360   7.970 -0.4837 -0.0145 -0.0273
20614ERGO   ROH35328  12.623   7.930   6.848  0.1058  0.3184  0.0086
20614ERGO    R135329  12.679   7.798   7.092 -0.0724  0.2486  0.0128
20614ERGO    R235330  12.935   7.770   7.191 -0.1228  0.0253  0.0823
20614ERGO    R335331  12.828   7.887   7.412 -0.0870  0.0943  0.0639
20614ERGO    R435332  13.078   7.767   7.506 -0.1376  0.0025  0.0891
20614ERGO    R535333  12.879   7.736   7.590 -0.1559  0.0919  0.0834
20614ERGO    C135334  13.059   7.875   7.897 -0.1127  0.0541  0.0757
20614ERGO    C235335  13.245   7.961   8.045 -0.0231 -0.0483  0.3565
20615ERGO   ROH35336  11.902  12.787   7.206  0.0268  0.2638 -0.0426
20615ERGO    R135337  11.992  12.880   7.458  0.0433  0.0281  0.0432
20615ERGO    R235338  12.126  12.718   7.638  0.1116 -0.1316 -0.1345
20615ERGO    R335339  12.313  12.916   7.627  0.0608 -0.0764  0.0264
20615ERGO    R435340  12.313  12.829   7.907 -0.1179 -0.0874  0.0072
20615ERGO    R535341  12.287  13.033   7.834 -0.1219 -0.0986  0.0094
20615ERGO    C135342  12.596  13.079   8.053 -0.2989 -0.0097  0.2408
20615ERGO    C235343  12.763  13.096   8.292 -0.0677 -0.2888 -0.0273
20616ERGO   ROH35344  17.738  14.472   6.450  0.0462  0.0393  0.0988
20616ERGO    R135345  17.680  14.401   6.718  0.1121 -0.0331  0.0947
20616ERGO    R235346  17.878  14.352   6.904  0.1611  0.1083  0.0855
20616ERGO    R335347  17.745  14.540   7.048  0.0121 -0.0103  0.1041
20616ERGO    R435348  17.873  14.370   7.249  0.2296  0.1344  0.0848
20616ERGO    R535349  17.662  14.422   7.239  0.1770 -0.0747  0.1350
20616ERGO    C135350  17.745  14.558   7.585  0.1296  0.0382  0.1018
20616ERGO    C235351  17.718  14.840   7.832 -0.0821  0.0970  0.2348
20617ERGO   ROH35352  16.929   9.544   6.477 -0.1586  0.0237 -0.0835
20617ERGO    R135353  16.864   9.554   6.752 -0.0842  0.0007 -0.0642
20617ERGO    R235354  16.830   9.791   6.889  0.0280 -0.0076 -0.0146
20617ERGO    R335355  16.590   9.681   6.956  0.0098  0.0585  0.0262
20617ERGO    R435356  16.683   9.814   7.201  0.1072 -0.0034  0.0215
20617ERGO    R535357  16.621   9.605   7.181  0.0379  0.0198  0.0081
20617ERGO    C135358  16.373   9.723   7.446  0.1365  0.0613  0.0809
20617ERGO    C235359  16.111   9.814   7.766 -0.0533  0.0800  0.0074
20618ERGO   ROH35360  12.395  12.107   6.973  0.0843 -0.0659 -0.0091
20618ERGO    R135361  12.266  11.988   7.195 -0.0087 -0.0279 -0.0413
20618ERGO    R235362  12.405  11.857   7.394 -0.1052 -0.1670 -0.0592
20618ERGO    R335363  12.271  12.029   7.557  0.0023 -0.1072 -0.0334
20618ERGO    R435364  12.287  11.779   7.710 -0.2105 -0.1523 -0.0947
20618ERGO    R535365  12.106  11.892   7.665 -0.1162 -0.0054 -0.0897
20618ERGO    C135366  12.093  11.894   8.046 -0.1708 -0.0877 -0.0913
20618ERGO    C235367  12.092  12.043   8.392  0.1958 -0.1160 -0.1787
20619ERGO   ROH35368  15.497   6.397   6.918  0.2432 -0.2292  0.0300
20619ERGO    R135369  15.450   6.414   7.196  0.1321 -0.0775  0.0031
20619ERGO    R235370  15.408   6.655   7.325  0.0924 -0.0043 -0.1419
20619ERGO    R335371  15.182   6.531   7.412  0.0505  0.0533 -0.1679
20619ERGO    R435372  15.268   6.698   7.638  0.0431  0.0527 -0.1712
20619ERGO    R535373  15.226   6.484   7.643 -0.0035  0.0651 -0.1572
20619ERGO    C135374  14.974   6.607   7.902 -0.0250  0.1400 -0.2128
20619ERGO    C235375  14.950   6.769   8.186  0.0049  0.0673  0.1588
20620ERGO   ROH35376  14.727  15.747   6.826  0.0948  0.3014 -0.1700
20620ERGO    R135377  14.645  15.859   7.073  0.0984  0.1906 -0.1182
20620ERGO    R235378  14.644  15.714   7.308  0.1040  0.0850 -0.1821
20620ERGO    R335379  14.796  15.921   7.398  0.1040  0.0467 -0.0930
20620ERGO    R435380  14.650  15.827   7.635  0.0089  0.0280 -0.1603
20620ERGO    R535381  14.657  16.032   7.559  0.0660  0.0398 -0.1219
20620ERGO    C135382  14.796  16.087   7.910 -0.0465 -0.0411 -0.0639
20620ERGO    C235383  14.538  16.161   8.230 -0.1381 -0.3809 -0.1456
20621ERGO   ROH35384  16.121  11.786   6.430  0.0603  0.2385  0.1224
20621ERGO    R135385  15.884  11.834   6.577  0.0386  0.0781  0.1401
20621ERGO    R235386  15.853  11.753   6.839  0.1225  0.0749  0.1456
20621ERGO    R335387  15.793  12.016   6.879 -0.0673  0.0357  0.1349
20621ERGO    R435388  15.718  11.883   7.130  0.2626  0.0236  0.2359
20621ERGO    R535389  15.591  12.011   7.007  0.0433 -0.1104  0.3129
20621ERGO    C135390  15.583  12.205   7.336  0.1661 -0.0431  0.2784
20621ERGO    C235391  15.568  12.299   7.652  0.0910 -0.2409  0.2625
20622ERGO   ROH35392  15.926   0.011   6.483 -0.1031  0.0890  0.0747
20622ERGO    R135393  15.828   0.066   6.743 -0.0049  0.1904  0.0917
20622ERGO    R235394  15.933  -0.054   6.970 -0.0848  0.0855  0.0757
20622ERGO    R335395  15.962   0.204   7.052  0.1888  0.0595  0.0680
20622ERGO    R435396  15.968   0.047   7.299 -0.1405  0.0687  0.0864
20622ERGO    R535397  15.838   0.216   7.257  0.0896  0.2286 -0.0003
20622ERGO    C135398  16.016   0.347   7.567  0.0838  0.0345  0.0855
20622ERGO    C235399  15.890   0.428   8.015 -0.0824 -0.0029 -0.0202
20623ERGO   ROH35400  16.837  12.311   6.733 -0.0386  0.1017  0.1369
20623ERGO    R135401  16.702  12.134   6.907  0.0036  0.1384  0.2055
20623ERGO    R235402  16.833  11.942   7.056  0.0348  0.1549  0.1898
20623ERGO    R335403  16.704  12.061   7.263  0.1073  0.1894  0.2172
20623ERGO    R435404  16.743  11.783   7.350  0.0751  0.1777  0.2156
20623ERGO    R535405  16.554  11.892   7.345  0.0916  0.2173  0.2564
20623ERGO    C135406  16.570  11.803   7.716  0.1665  0.2233  0.2565
20623ERGO    C235407  16.410  11.755   7.956  0.4833 -0.2122  0.1682
20624ERGO   ROH35408  11.456   6.497   7.449  0.2698  0.1785 -0.1474
20624ERGO    R135409  11.616   6.545   7.678  0.2367  0.1118 -0.1097
20624ERGO    R235410  11.524   6.507   7.935  0.1408  0.2026 -0.1284
20624ERGO    R335411  11.745   6.350   7.957  0.0400  0.0694 -0.0481
20624ERGO    R435412  11.706   6.461   8.225  0.0013  0.0712 -0.0599
20624ERGO    R535413  11.888   6.469   8.106  0.0529 -0.0293  0.0159
20624ERGO    C135414  12.020   6.286   8.414 -0.1745 -0.1302  0.0554
20624ERGO    C235415  12.102   6.206   8.814  0.1538  0.2884  0.0657
20625ERGO   ROH35416  13.108   9.233   6.608  0.0902  0.1650 -0.0423
20625ERGO    R135417  13.254   9.046   6.763  0.0727  0.1047 -0.0978
20625ERGO    R235418  13.470   9.118   6.919  0.0532  0.0443 -0.0411
20625ERGO    R335419  13.328   8.995   7.115  0.0293 -0.0344 -0.1080
20625ERGO    R435420  13.588   9.057   7.238  0.0470 -0.1555 -0.0764
20625ERGO    R535421  13.491   8.862   7.231  0.0047 -0.1327 -0.1837
20625ERGO    C135422  13.523   8.906   7.608  0.0211 -0.3459 -0.1598
20625ERGO    C235423  13.650   8.776   7.892 -0.0453  0.0051  0.0689
20626ERGO   ROH35424  15.126  11.136   6.444  0.0513 -0.1578  0.0467
20626ERGO    R135425  15.100  11.122   6.725  0.3393 -0.2563  0.0726
20626ERGO    R235426  14.855  11.101   6.851  0.4093  0.2927  0.3356
20626ERGO    R335427  14.970  10.884   6.968  0.0041 -0.0839  0.0682
20626ERGO    R435428  14.762  10.970   7.157  0.5603  0.4843  0.4660
20626ERGO    R535429  14.973  10.938   7.202  0.5720 -0.1400  0.0875
20626ERGO    C135430  14.815  10.690   7.445  0.2677  0.2423  0.2909
20626ERGO    C235431  14.672  10.492   7.841  0.0505 -0.0523 -0.2397
20627ERGO   ROH35432  14.820   3.499   7.033 -0.1262 -0.0953 -0.1315
20627ERGO    R135433  14.883   3.616   7.283 -0.1118  0.0812 -0.2156
20627ERGO    R235434  14.723   3.807   7.403 -0.2353 -0.0107 -0.2277
20627ERGO    R335435  14.729   3.634   7.612  0.0299  0.0880 -0.1494
20627ERGO    R435436  14.677   3.896   7.733 -0.1525  0.0941 -0.2438
20627ERGO    R535437  14.836   3.757   7.788  0.0040  0.2663 -0.2573
20627ERGO    C135438  14.656   3.785   8.123  0.1446  0.2478 -0.1797
20627ERGO    C235439  14.698   3.778   8.432 -0.2312  0.2182 -0.0852
20628ERGO   ROH35440  17.486  10.913   6.599 -0.0718 -0.1034 -0.0811
20628ERGO    R135441  17.410  10.688   6.752 -0.2248  0.0280  0.0395
20628ERGO    R235442  17.593  10.507   6.851 -0.3611 -0.1512 -0.0337
20628ERGO    R335443  17.473  10.563   7.088 -0.1355  0.0588  0.0347
20628ERGO    R435444  17.619  10.313   7.136 -0.4132 -0.1174 -0.0057
20628ERGO    R535445  17.407  10.349   7.174 -0.3482  0.1577  0.1277
20628ERGO    C135446  17.521  10.254   7.525 -0.2319  0.0995  0.0748
20628ERGO    C235447  17.688  10.325   7.824 -0.2090  0.0478 -0.1292
20629ERGO   ROH35448  17.153  15.252   6.544  0.0382 -0.1841  0.0044
20629ERGO    R135449  17.220  15.356   6.798  0.0663 -0.1309 -0.0246
20629ERGO    R235450  17.069  15.307   7.025  0.0958 -0.0890  0.0026
20629ERGO    R335451  17.306  15.220   7.125  0.1095 -0.0618 -0.0064
20629ERGO    R435452  17.168  15.340   7.354 -0.0165 -0.3183  0.0620
20629ERGO    R535453  17.368  15.388   7.283 -0.0164 -0.1616  0.1555
20629ERGO    C135454  17.449  15.279   7.640 -0.0686 -0.4262  0.0881
20629ERGO    C235455  17.437  15.320   7.972 -0.0947  0.4821 -0.3964
20630ERGO   ROH35456   0.072   7.578   6.907 -0.1962 -0.1077  0.0704
20630ERGO    R135457   0.099   7.503   7.179 -0.2351 -0.1287  0.0677
20630ERGO    R235458   0.184   7.679   7.374  0.0350 -0.2269  0.0372
20630ERGO    R335459  -0.047   7.604   7.497 -0.0385  0.0774  0.0959
20630ERGO    R435460   0.138   7.665   7.716  0.1404 -0.2525  0.0516
20630ERGO    R535461   0.026   7.481   7.689 -0.1463 -0.0869  0.0364
20630ERGO    C135462  -0.106   7.587   8.031  0.1325  0.0182  0.1151
20630ERGO    C235463  -0.068   7.570   8.280  0.0546 -0.1380 -0.1612
20631ERGO   ROH35464  16.306   7.981   6.938  0.0374  0.2117  0.0615
20631ERGO    R135465  16.098   7.925   7.122  0.0741  0.1035  0.0684
20631ERGO    R235466  16.140   7.781   7.354  0.1728  0.1851  0.0943
20631ERGO    R335467  16.027   7.999   7.471  0.0108  0.1273  0.0521
20631ERGO    R435468  16.060   7.805   7.689  0.3626  0.2655  0.1366
20631ERGO    R535469  15.875   7.907   7.632  0.2092  0.0398  0.1977
20631ERGO    C135470  15.907   8.024   7.994  0.3209  0.2582  0.1215
20631ERGO    C235471  16.014   8.239   8.203  0.4100  0.1596  0.2920
20632ERGO   ROH35472  15.751   4.518   7.168 -0.0109  0.1297 -0.1282
20632ERGO    R135473  15.722   4.471   7.445 -0.1181  0.2906 -0.1100
20632ERGO    R235474  15.918   4.349   7.597 -0.3224  0.0357 -0.0365
20632ERGO    R335475  15.893   4.572   7.750  0.0152  0.1477 -0.1373
20632ERGO    R435476  16.071   4.396   7.903 -0.3464 -0.1033 -0.0034
20632ERGO    R535477  15.887   4.489   7.975 -0.2100  0.2506 -0.1056
20632ERGO    C135478  16.136   4.632   8.226 -0.0433 -0.0792 -0.0788
20632ERGO    C235479  16.490   4.650   8.309 -0.0140  0.0636  0.0577
20633W        W35480  14.332   4.631  15.016 -0.0965  0.2007  0.2211
20634W        W35481  15.673   2.346  16.348 -0.1344 -0.0741  0.4136
20635W        W35482  15.312   1.527  15.566 -0.1702  0.3548 -0.1181
20636W        W35483   1.559   4.701   4.723  0.0206 -0.1196  0.1094
20637W        W35484  15.342   8.298  16.443 -0.2211  0.1561  0.0459
20638W        W35485   5.190  14.596   4.875 -0.0957 -0.2680  0.0170
20639W        W35486  12.726  16.228  14.515  0.1758 -0.0361 -0.1292
20640W        W35487  15.904   2.061   2.819 -0.0622  0.6435  0.1481
20641W        W35488   8.294  12.300  15.916 -0.1403 -0.0785 -0.1536
20642W        W35489  15.821  13.765  14.247 -0.3940  0.0205 -0.2814
20643W        W35490  15.891   0.568   2.191 -0.1760  0.2639  0.0088
20644W        W35491  11.445   7.637  12.147 -0.0258 -0.2324 -0.0278
20645W        W35492  13.449  10.346   2.775 -0.0007 -0.0118 -0.1003
20646W        W35493  17.282  10.928   1.080  0.1545  0.1490  0.2196
20647W        W35494   8.746  11.490   3.376  0.0345  0.1333 -0.1927
20648W        W35495  15.647  14.750   1.243 -0.2694 -0.2059 -0.2676
20649W        W35496   7.490   1.468  13.798 -0.2049  0.0226  0.1818
20650W        W35497   6.481   8.924  15.082 -0.3111 -0.3015  0.1427
20651W        W35498  16.931  16.656  13.620 -0.0797  0.1446  0.0282
20652W        W35499   9.179  13.150   2.859 -0.1386  0.1770 -0.0149
20653W        W35500  16.931   4.500  15.531 -0.2243 -0.0380  0.1679
20654W        W35501  17.944  10.391  12.093  0.1076 -0.2984 -0.0136
20655W        W35502  17.587  14.646   2.978  0.0668  0.3425  0.2292
20656W        W35503  15.393   9.554  11.720  0.0090  0.1444 -0.0020
20657W        W35504  12.454   9.794   0.448 -0.2648  0.3515 -0.2929
20658W        W35505  12.136  14.162   0.079  0.0894 -0.0480 -0.1126
20659W        W35506   9.077   3.455   5.084  0.4622  0.1903  0.0104
20660W        W35507  16.336   8.791   5.635 -0.0004  0.1656 -0.0658
20661W        W35508  14.203   9.949   3.378 -0.2786  0.1122  0.2334
20662W        W35509  14.176   0.976   4.415 -0.1010  0.2005 -0.2865
20663W        W35510   7.357   6.427   0.101  0.2715  0.0005 -0.1153
20664W        W35511  15.699   2.734  15.174  0.2659 -0.0253  0.0380
20665W        W35512  14.403   6.751  12.773 -0.1678  0.0587  0.0617
20666W        W35513  14.061   4.952  16.652  0.2023  0.1368  0.1565
20667W        W35514  12.817   4.777  15.476 -0.1261  0.1120 -0.0812
20668W        W35515   4.888  14.967   3.736 -0.2167  0.1599  0.2225
20669W        W35516  14.871   5.997   2.438  0.0143  0.0989  0.4447
20670W        W35517  10.640  13.113   1.512 -0.0835 -0.1130  0.0706
20671W        W35518   0.862  16.167  14.875  0.0599  0.2047  0.2757
20672W        W35519   3.971  11.475   7.201  0.2782 -0.0841  0.0618
20673W        W35520   7.288   0.729   4.229  0.0579 -0.0882 -0.0055
20674W        W35521  12.262  13.764   4.680 -0.0442 -0.1195  0.0710
20675W        W35522  17.866  15.155  11.009  0.0901 -0.1760 -0.0886
20676W        W35523  13.523  10.390  12.818 -0.0812  0.2189  0.4205
20677W        W35524  15.304   8.002  15.947 -0.0588 -0.0816 -0.0309
20678W        W35525   3.538  15.115  16.361  0.1879  0.2743  0.0731
20679W        W35526  10.574  13.391   1.073  0.1834  0.1710  0.0398
20680W        W35527  10.485  12.730  14.098 -0.1287 -0.0862 -0.0106
20681W        W35528  15.624   7.898  11.015  0.1322  0.1476 -0.1395
20682W        W35529  13.385   9.476   6.263  0.1860 -0.0560  0.0456
20683W        W35530   2.567   9.062   5.926 -0.0003  0.3101 -0.0170
20684W        W35531  10.000  11.329  14.856 -0.0383  0.1397  0.2089
20685W        W35532  16.050  15.844  14.704  0.0746 -0.2043  0.0162
20686W        W35533  15.642   9.095  15.131  0.0447  0.0347 -0.5000
20687W        W35534  16.816  13.259  14.930  0.2714  0.2233  0.4354
20688W        W35535  12.705   8.913   4.831  0.0100  0.1514 -0.1890
20689W        W35536  17.018  16.351   2.191  0.1185 -0.1090  0.1932
20690W        W35537   1.179   7.884  14.602 -0.0178  0.0272  0.1753
20691W        W35538  13.793   9.475  11.487  0.2129  0.0928  0.1620
20692W        W35539  14.483  17.800  13.665  0.0991  0.0393  0.0836
20693W        W35540  16.438   8.059  15.285 -0.1744  0.3908  0.3448
20694W        W35541  17.528   5.757  16.245  0.1659 -0.0387 -0.2754
20695W        W35542   6.241  14.721  15.541 -0.1798  0.1064  0.1522
20696W        W35543  15.672   5.760  13.733 -0.1112  0.0050  0.2126
20697W        W35544  16.655   3.416  16.405 -0.3270 -0.0270 -0.0692
20698W        W35545  12.149   8.027  11.731  0.1474  0.0936 -0.0251
20699W        W35546   4.417   4.937   0.787  0.1116 -0.0274  0.1068
20700W        W35547   8.550  15.388  15.286  0.0564  0.0464  0.1757
20701W        W35548  15.558  11.526  14.333 -0.3898 -0.1021  0.2708
20702W        W35549   3.205   4.693   1.487 -0.1542  0.0248  0.0796
20703W        W35550   2.832  14.270   2.820 -0.4203  0.0256  0.3762
20704W        W35551   1.629  15.867  11.049 -0.1571  0.0516 -0.2120
20705W        W35552   1.688  17.594  13.449 -0.0462 -0.0061 -0.1557
20706W        W35553   0.044   7.798   3.747 -0.1075  0.2573 -0.1405
20707W        W35554  15.620   0.122  15.135  0.0691 -0.2472 -0.0349
20708W        W35555  12.891  11.201   3.673  0.1177 -0.0947  0.2893
20709W        W35556  10.434   1.770   2.571  0.0193  0.0270 -0.1110
20710W        W35557  14.771  14.240   4.029  0.2888  0.0367  0.0322
20711W        W35558   7.770   2.061   5.417  0.0348  0.1864  0.4008
20712W        W35559   2.098   5.915   1.838 -0.0041 -0.1639  0.2519
20713W        W35560  16.443   2.860   5.744 -0.0596 -0.0815  0.0514
20714W        W35561   9.531  12.256  16.337 -0.0055 -0.0664  0.1460
20715W        W35562  12.217   3.155   5.555 -0.0442 -0.1889  0.2492
20716W        W35563  13.096  13.831  16.187  0.2545  0.1631  0.0250
20717W        W35564  13.911   1.997  15.528  0.1572 -0.2059 -0.2985
20718W        W35565  12.402  10.058   2.933 -0.0811 -0.1730  0.1735
20719W        W35566  17.211   8.889  12.140  0.1009  0.0690 -0.1063
20720W        W35567  16.211   3.204   2.297 -0.1531 -0.1490 -0.0259
20721W        W35568   1.851  14.255  15.402  0.1103 -0.2569  0.0931
20722W        W35569  10.793   8.870  11.921  0.1467 -0.1238  0.1649
20723W        W35570  10.366  11.094   3.253 -0.0434 -0.1377  0.1938
20724W        W35571  13.337   4.101  10.702  0.0775  0.0352 -0.0412
20725W        W35572  11.679  17.810  11.745  0.2012 -0.0299 -0.0752
20726W        W35573  14.575  16.958   0.482 -0.3603 -0.0579  0.3693
20727W        W35574  13.697   1.220   3.760 -0.1299 -0.0071 -0.3051
20728W        W35575   0.659   9.764   2.238  0.0563 -0.4630  0.3087
20729W        W35576  15.303   1.500  15.079  0.1061  0.0343 -0.1674
20730W        W35577  16.703   2.558  16.334 -0.0542  0.0379 -0.2883
20731W        W35578   0.619   7.564   2.515  0.2735  0.1526  0.0003
20732W        W35579  12.649   8.739   1.856 -0.1013  0.3895  0.1558
20733W        W35580   8.818  10.957  12.943  0.3178  0.4126  0.0797
20734W        W35581  17.930   0.566   0.787 -0.0769  0.1151 -0.0121
20735W        W35582   9.314   1.219   3.021  0.0180 -0.3094 -0.3670
20736W        W35583  16.042   7.345  11.954 -0.1788 -0.1585 -0.1614
20737W        W35584  10.696   1.277  13.217  0.0053 -0.3191 -0.0155
20738W        W35585  10.321   9.409   5.030  0.3772  0.1096  0.0556
20739W        W35586   7.985   7.806  14.548  0.1169  0.1094 -0.0421
20740W        W35587   8.436  10.047   4.417 -0.1562  0.3018  0.2167
20741W        W35588  16.873   2.574   5.780 -0.4343  0.0128  0.1971
20742W        W35589  10.242   5.845   3.485 -0.2409 -0.0560  0.0404
20743W        W35590   3.132  12.631   4.018 -0.2551  0.0516 -0.2121
20744W        W35591  13.467   7.963  14.269 -0.0108 -0.1288  0.3638
20745W        W35592  10.107   5.357  12.868  0.2741  0.1611  0.2111
20746W        W35593  13.101   5.665  14.345 -0.1747 -0.1887 -0.0135
20747W        W35594  13.259  11.636   3.373 -0.0551  0.1511  0.0342
20748W        W35595  16.710   6.392  12.546  0.1158  0.1243 -0.0135
20749W        W35596   6.963  15.076   0.462  0.3092 -0.0719  0.0816
20750W        W35597  10.921   8.795  12.785  0.1171  0.1695  0.1945
20751W        W35598   2.249   8.268  10.744 -0.1700  0.1009  0.1990
20752W        W35599  12.861   5.596  16.673  0.2532 -0.1076 -0.1354
20753W        W35600  13.551   3.066  14.447  0.0457  0.1660  0.0280
20754W        W35601  14.623   3.155   5.639 -0.1634  0.1790  0.0670
20755W        W35602  17.963   9.515   0.041 -0.0325 -0.1278  0.1329
20756W        W35603  14.817   8.689  11.948  0.1452  0.1285 -0.1113
20757W        W35604  13.326  13.355   2.793  0.0542  0.0013  0.2638
20758W        W35605  10.888  17.304  10.960 -0.2493 -0.2553 -0.1883
20759W        W35606  13.339  16.394  12.810 -0.0240  0.1046 -0.0631
20760W        W35607  15.652  11.948  12.658 -0.0165 -0.1387 -0.1670
20761W        W35608  14.571  13.614  15.345  0.0974 -0.4737 -0.3361
20762W        W35609  12.525   6.468   2.487  0.1243 -0.1249 -0.2594
20763W        W35610   3.162   3.180  13.707  0.3447  0.0352  0.1533
20764W        W35611  13.087   6.382   0.441  0.1628 -0.0636 -0.3356
20765W        W35612   7.604   4.807   3.311 -0.1430 -0.0276 -0.0140
20766W        W35613   0.581   6.208   5.449 -0.2688 -0.1063  0.2056
20767W        W35614   2.707  11.347  13.891 -0.0700  0.0999 -0.1283
20768W        W35615  11.832  11.952   1.873  0.1033 -0.2842  0.0316
20769W        W35616   7.519   7.542   3.056 -0.1073  0.0501 -0.1093
20770W        W35617  12.387   2.343   2.074 -0.1692  0.1975  0.3900
20771W        W35618  14.846   4.590   5.160 -0.0877  0.0834 -0.0195
20772W        W35619   8.107  17.518  16.805 -0.1100  0.1529  0.1022
20773W        W35620  10.911  10.513  13.302  0.1254  0.0867 -0.0190
20774W        W35621   2.283  11.942  11.650 -0.1099 -0.2789 -0.0627
20775W        W35622  14.535   5.095  12.987 -0.2434 -0.0353  0.2565
20776W        W35623   1.419   1.404   4.689  0.0069  0.2081  0.1060
20777W        W35624  13.208   9.774  12.050 -0.0158  0.0246  0.4438
20778W        W35625  16.883  17.427  13.245 -0.0270 -0.0172 -0.0737
20779W        W35626   3.480   2.794  14.798 -0.1048 -0.2303 -0.0144
20780W        W35627   2.749   4.159   6.394  0.1992  0.2986 -0.0017
20781W        W35628  16.226  17.792  12.163 -0.3663  0.0251 -0.2349
20782W        W35629   3.912   4.421   2.547  0.2063  0.2191  0.2300
20783W        W35630  15.920  12.850  12.654  0.1626  0.3524  0.2371
20784W        W35631   8.380  16.527  13.460  0.2956 -0.2315 -0.0502
20785W        W35632   1.518   0.907   1.777 -0.0145 -0.2498 -0.2011
20786W        W35633   0.490  16.456   1.088 -0.0005  0.1587 -0.1620
20787W        W35634  15.073  14.699  16.731  0.0064  0.1834  0.3433
20788W        W35635  14.710  13.568  11.861 -0.2359 -0.1104 -0.0390
20789W        W35636  12.898  17.259   1.076 -0.1211 -0.0003 -0.4857
20790W        W35637   1.963  15.265  14.105  0.1791 -0.1977  0.1006
20791W        W35638   9.646   2.194  12.011 -0.3200 -0.1503  0.0289
20792W        W35639  15.256   6.690   1.737  0.0416  0.0024 -0.0329
20793W        W35640   4.531  10.980  14.345  0.1070 -0.1806 -0.2687
20794W        W35641  14.456   7.914  16.560 -0.0009 -0.1295 -0.0815
20795W        W35642  17.550   7.903  13.145 -0.0253  0.0634 -0.3532
20796W        W35643  15.528   8.433  12.521 -0.1596 -0.3477 -0.1506
20797W        W35644  10.971  11.884   5.243 -0.0241 -0.3199  0.2703
20798W        W35645  14.580   4.285  17.048  0.0344 -0.1441 -0.1167
20799W        W35646   0.116   9.668  16.159  0.2547  0.1529 -0.1851
20800W        W35647  14.820  13.113  16.606  0.2248 -0.0207  0.2565
20801W        W35648  14.798  15.287  13.340 -0.1027 -0.2096 -0.1492
20802W        W35649  16.479   0.264  16.280  0.0874  0.2381 -0.1002
20803W        W35650  12.329  17.588   1.288 -0.0856  0.0098  0.1795
20804W        W35651  10.826   0.571   3.246  0.0553 -0.1888 -0.1925
20805W        W35652   5.752  17.503   1.393 -0.2358 -0.0732 -0.0441
20806W        W35653   4.003   6.975  12.021  0.2969 -0.3169  0.0433
20807W        W35654  16.956   5.613  14.610 -0.2390 -0.1698 -0.0705
20808W        W35655  16.133   8.803  15.571 -0.1323  0.1273  0.1375
20809W        W35656   1.769  12.177   4.468  0.0685  0.1085 -0.1130
20810W        W35657  10.226   3.425  16.547  0.1330  0.1223 -0.2131
20811W        W35658  13.153   3.321   3.424  0.2395  0.0812 -0.0324
20812W        W35659   3.405   3.090   1.341 -0.1494 -0.2509 -0.2653
20813W        W35660   0.464   7.844  13.052  0.0858 -0.1306  0.3601
20814W        W35661  15.210   8.659  11.545  0.2089 -0.3056 -0.0687
20815W        W35662  14.505  14.308   4.438  0.0777  0.0443  0.0491
20816W        W35663  16.260   2.342  17.085  0.0151  0.0474  0.0320
20817W        W35664  12.073  10.314  14.015 -0.2080 -0.0307  0.1036
20818W        W35665  17.388   0.433  11.651  0.3073 -0.3541 -0.0414
20819W        W35666  16.070   3.990   6.365  0.0153  0.0373 -0.0393
20820W        W35667   8.904   9.067  12.376 -0.3125  0.2516  0.1264
20821W        W35668  12.099  14.753   0.116  0.0838 -0.2680 -0.0930
20822W        W35669  11.091   7.291   1.753  0.0897  0.2143  0.3138
20823W        W35670  15.153   4.403   1.379 -0.1696  0.0663 -0.0816
20824W        W35671  10.279   9.233   1.761  0.3334 -0.1583 -0.3213
20825W        W35672  15.026  11.727  16.630  0.0271  0.0696  0.0380
20826W        W35673  11.511  13.103   0.575 -0.1108 -0.0579 -0.1558
20827W        W35674  15.210   3.804  11.657 -0.0881 -0.2103 -0.1646
20828W        W35675  16.921   3.388  15.984 -0.2202  0.2603  0.2009
20829W        W35676  13.893  15.164  13.403 -0.0346  0.0328 -0.0810
20830W        W35677  12.431   2.679   4.299 -0.1495  0.0258  0.4850
20831W        W35678   2.393  15.291  12.302 -0.1022  0.1058  0.0097
20832W        W35679  17.231   1.351  17.032  0.2645  0.1725 -0.2633
20833W        W35680   9.522  14.915   0.187  0.1172 -0.0310  0.0462
20834W        W35681  12.610   5.464   0.467 -0.3051  0.1890  0.0700
20835W        W35682  17.533   3.450   3.976  0.0080 -0.1633  0.0555
20836W        W35683   8.063   9.151  16.856 -0.0635  0.1190 -0.0842
20837W        W35684   1.182  13.038   4.528  0.1458  0.2207  0.0302
20838W        W35685  11.813   4.753  13.396  0.2098 -0.1138  0.2048
20839W        W35686  16.013  16.497  16.979  0.0062 -0.4472  0.0052
20840W        W35687  17.445  13.258  16.996 -0.0576 -0.0149 -0.1346
20841W        W35688  17.826   7.181   6.721 -0.0942  0.3307 -0.2166
20842W        W35689   9.894   9.412  16.457  0.3468  0.1956 -0.0041
20843W        W35690   5.136   0.220   1.236 -0.1543 -0.0059 -0.5912
20844W        W35691  14.007   8.799   4.745  0.0162 -0.0356 -0.1729
20845W        W35692   0.169   0.451   2.093 -0.1786  0.0993 -0.0466
20846W        W35693   0.355  12.599   4.311  0.2812  0.1174  0.2420
20847W        W35694   4.577   9.350  14.625 -0.0772 -0.0291  0.0552
20848W        W35695  14.546   8.623   2.182  0.3708 -0.2311 -0.3882
20849W        W35696   9.451  17.643  14.671  0.0102 -0.1281  0.0191
20850W        W35697   3.147  12.839  15.791  0.0844 -0.2626  0.3488
20851W        W35698  17.606   6.276   4.996 -0.0956  0.1958 -0.1194
20852W        W35699  11.336   6.432  12.744 -0.1613 -0.0802  0.1502
20853W        W35700   6.205   5.495  16.041  0.0952 -0.0357 -0.1030
20854W        W35701  16.522   3.338   5.502  0.1205 -0.2024 -0.3595
20855W        W35702   0.745   6.577   2.540  0.2605 -0.0677  0.0113
20856W        W35703  12.703  15.789   4.565 -0.1712 -0.0675  0.0693
20857W        W35704  11.227   7.674  11.498 -0.1555 -0.2808 -0.1367
20858W        W35705   0.699   9.569   4.224 -0.1109 -0.0913  0.2554
20859W        W35706  14.675  14.333  10.659 -0.2304  0.0335 -0.0264
20860W        W35707   6.246   4.137   2.421 -0.1352  0.0582  0.1351
20861W        W35708  13.381  14.839  15.801 -0.1214 -0.1380 -0.0618
20862W        W35709  12.805  15.313  12.634  0.0695  0.0325  0.0813
20863W        W35710  11.319   7.384   3.975 -0.1976  0.1049  0.2727
20864W        W35711   1.079   9.772   0.299  0.2430  0.3646 -0.0699
20865W        W35712  13.709   8.965  11.559  0.0682 -0.0079  0.3535
20866W        W35713  14.646   4.454  14.640 -0.2072 -0.0316  0.1202
20867W        W35714  16.299   7.585   3.445  0.2872 -0.1888 -0.2814
20868W        W35715  12.354  13.112  15.349  0.2521  0.0342  0.2793
20869W        W35716   1.369  15.023   3.036  0.0045  0.1663  0.4217
20870W        W35717  14.329   0.894  15.984 -0.3024 -0.0785  0.0621
20871W        W35718  16.412   2.248   3.309 -0.2546 -0.1845  0.0532
20872W        W35719  11.576   7.534  15.462  0.0482 -0.1592 -0.1568
20873W        W35720  14.262  16.945  11.193 -0.0870 -0.2320 -0.0422
20874W        W35721  16.756  16.723  12.243  0.2110  0.3084  0.3407
20875W        W35722  16.321  13.337  15.092  0.0078 -0.0227  0.1507
20876W        W35723   1.472   0.067  10.657 -0.0692 -0.0090 -0.2725
20877W        W35724   2.891   0.770   2.319 -0.2678 -0.1571  0.2836
20878W        W35725  16.778   0.493  11.893 -0.0033  0.0919 -0.0455
20879W        W35726   9.943  15.544   5.778 -0.0590 -0.0774  0.1912
20880W        W35727   0.387  17.749   3.007 -0.0384  0.0482  0.1957
20881W        W35728   9.726  12.686   0.229  0.1907  0.1990  0.3680
20882W        W35729  12.905  17.215   4.468  0.1124 -0.1618 -0.0493
20883W        W35730  13.216   8.802  15.538  0.0727  0.1818  0.3043
20884W        W35731  15.429  17.808  13.605  0.0283 -0.0428 -0.2083
20885W        W35732  15.930  12.356   0.289  0.0616 -0.2113  0.1125
20886W        W35733  14.543   1.343   4.318 -0.2839 -0.0812  0.1812
20887W        W35734  13.329   4.480  11.021  0.0469  0.2358 -0.0003
20888W        W35735   6.048   2.384  14.877  0.0789  0.1455  0.1018
20889W        W35736  13.099  17.872  15.818  0.0790  0.1565  0.0352
20890W        W35737   8.348   6.929   6.842 -0.1519  0.1060 -0.0548
20891W        W35738  14.391  13.086  15.389 -0.3349 -0.0383  0.1640
20892W        W35739   9.332   2.592   3.821 -0.1728  0.2970  0.0928
20893W        W35740  16.653   2.700   2.611  0.1317 -0.1853  0.0114
20894W        W35741  16.633  15.252  16.296  0.0859  0.4310  0.2393
20895W        W35742  14.672  15.053  15.926  0.1784  0.1746 -0.1480
20896W        W35743  11.375   8.073   1.480  0.0291 -0.0032  0.1338
20897W        W35744  15.303   2.668   1.679  0.0894 -0.2210  0.1228
20898W        W35745   0.864   5.811  15.230 -0.2131 -0.2159  0.1960
20899W        W35746   3.808   2.145   5.649  0.0728 -0.1240 -0.0133
20900W        W35747  16.154  14.941   4.296 -0.1065 -0.3681 -0.0836
20901W        W35748   9.716  17.319   4.716 -0.0115  0.0939 -0.0601
20902W        W35749  12.821  17.665  13.009 -0.4513  0.1334 -0.0110
20903W        W35750   9.394   6.228  15.151  0.3346 -0.2990  0.0167
20904W        W35751  16.967  17.211   1.512  0.3693  0.4064  0.2313
20905W        W35752  12.453  12.299   6.432 -0.0396 -0.1555  0.3289
20906W        W35753   1.234   9.427  14.975  0.0475  0.0526 -0.1428
20907W        W35754  17.385   0.894  16.904 -0.1666 -0.3177 -0.1138
20908W        W35755  13.796  16.562   3.280  0.0666  0.0897 -0.0368
20909W        W35756  16.647   3.663   0.513  0.1419  0.3290  0.1205
20910W        W35757  16.354   7.225   2.645  0.5742 -0.1414  0.0350
20911W        W35758   9.594   4.832   5.286  0.0781  0.2213 -0.3214
20912W        W35759   6.747   2.397   0.042 -0.1283 -0.2151 -0.2262
20913W        W35760  11.839   1.452   1.244 -0.0801 -0.1229  0.0344
20914W        W35761  12.485  14.736  11.543  0.1471 -0.2776  0.0529
20915W        W35762  12.569   2.167  13.899  0.0638 -0.0651 -0.1764
20916W        W35763  10.977  12.956  16.411  0.0032  0.0931 -0.4282
20917W        W35764  15.688  10.380  10.983  0.1948 -0.1100  0.0289
20918W        W35765  16.822   1.857  13.856  0.2963  0.0625 -0.0200
20919W        W35766  10.029  12.956   4.686  0.1395 -0.0138 -0.1363
20920W        W35767   7.494  11.301   0.067  0.0439 -0.0035 -0.1667
20921W        W35768   2.285   5.651   0.125 -0.2497 -0.2745  0.2070
20922W        W35769  13.925  16.250  14.708  0.3030 -0.4083  0.1298
20923W        W35770  12.181   7.629  11.375  0.0560  0.2001  0.1159
20924W        W35771  11.429   2.823   4.822 -0.3492 -0.1030 -0.0740
20925W        W35772  15.775   9.749   0.485  0.0531  0.1063 -0.1410
20926W        W35773   9.105   2.823  16.686 -0.0940  0.1565 -0.1344
20927W        W35774  12.775   4.550   5.466  0.0138 -0.3584 -0.0163
20928W        W35775  10.186   5.967   2.689 -0.0842  0.0616 -0.0395
20929W        W35776   0.794   5.732  10.346  0.0132 -0.1131 -0.0128
20930W        W35777  11.246   7.738   4.749  0.2459 -0.3082  0.4173
20931W        W35778  17.628  16.023  12.955  0.1884 -0.1141 -0.1250
20932W        W35779   7.409  17.807   2.366  0.0502 -0.0577 -0.1358
20933W        W35780   6.204   5.774  11.275  0.0549 -0.0304  0.3560
20934W        W35781  15.479  15.332  12.418 -0.1078 -0.0457  0.0679
20935W        W35782   7.512  14.790   6.001 -0.1391  0.2255  0.1346
20936W        W35783   0.594   4.321   2.762  0.1643 -0.0958  0.0214
20937W        W35784  10.945  13.826  13.014  0.0890  0.0790 -0.2458
20938W        W35785   5.675   0.019   1.395 -0.0812  0.0513  0.0931
20939W        W35786   1.023   6.247  11.897 -0.0572 -0.1019  0.1362
20940W        W35787  17.342   5.903   3.584  0.2529  0.1040 -0.3616
20941W        W35788  15.190  14.529  14.316 -0.3557  0.0394  0.3515
20942W        W35789  17.364   2.492  12.860 -0.0011  0.2285  0.1083
20943W        W35790  16.831  17.063   5.228 -0.0787 -0.0617  0.0651
20944W        W35791  17.094   6.731  16.008  0.1825  0.0128  0.1539
20945W        W35792   6.315   2.091  17.100 -0.2136  0.0532  0.1814
20946W        W35793  13.933  10.616  15.485 -0.0305 -0.1432 -0.1558
20947W        W35794  16.696   5.992   4.174  0.1000 -0.3331 -0.1071
20948W        W35795  16.376  14.254   1.459  0.3257  0.0950 -0.1733
20949W        W35796  10.655  13.107  11.465  0.1594 -0.1437  0.1948
20950W        W35797   7.588   2.092   3.201 -0.5589  0.0169 -0.1246
20951W        W35798  14.619   5.767  16.813 -0.1924 -0.0454  0.1660
20952W        W35799   1.560   0.200   0.026 -0.1723 -0.1668  0.0399
20953W        W35800   1.877   6.446   2.305  0.1562 -0.1070 -0.1900
20954W        W35801   8.589  15.476  11.874  0.0839 -0.1457 -0.2157
20955W        W35802   8.714   8.289  14.033  0.1977  0.1134 -0.1124
20956W        W35803  15.521   2.870   6.500 -0.0713  0.0405 -0.1088
20957W        W35804   0.123  17.585  16.794  0.0357  0.0038 -0.0030
20958W        W35805  13.268  12.649   5.888  0.0604  0.0291  0.0345
20959W        W35806  16.772   5.921  12.176 -0.0624  0.2913 -0.1056
20960W        W35807   0.527   1.449  12.987 -0.1541 -0.0637  0.1412
20961W        W35808  14.981   3.467   0.074 -0.0799 -0.2526  0.3077
20962W        W35809  17.031  10.056  12.387  0.0236 -0.1495 -0.0075
20963W        W35810   5.749   3.086   3.849  0.2242 -0.1026 -0.1728
20964W        W35811  13.055   6.807   3.391 -0.1983 -0.1316 -0.0519
20965W        W35812   9.293   7.906  11.863 -0.0096 -0.0223 -0.0203
20966W        W35813  13.597   8.992  12.754 -0.0590  0.1614  0.1061
20967W        W35814  12.320  17.640   3.137 -0.1192 -0.0088  0.1618
20968W        W35815  14.246   5.069   4.528 -0.1335  0.2183 -0.0073
20969W        W35816  14.007   9.255  11.908  0.2561  0.0046 -0.3169
20970W        W35817   5.068   7.078  15.234  0.3506 -0.1779  0.0127
20971W        W35818  11.953  12.851   1.789 -0.2197  0.3205 -0.5283
20972W        W35819  13.040  10.943   2.278 -0.1188  0.0343 -0.0524
20973W        W35820  10.507  13.883  11.497  0.0924  0.0504  0.0551
20974W        W35821   7.574   9.511  12.305 -0.1494  0.1157  0.0980
20975W        W35822  15.123   5.526  13.417 -0.4014  0.0959 -0.1438
20976W        W35823  15.655   4.659  11.109 -0.1036 -0.0220  0.2923
20977W        W35824   2.135   9.885  11.595 -0.1997  0.1472  0.0680
20978W        W35825  13.988  10.342  10.880 -0.0330 -0.0707 -0.1829
20979W        W35826  13.547   2.862  12.564  0.0230  0.0777 -0.1108
20980W        W35827  16.696  10.994  12.472  0.1956  0.2499  0.2592
20981W        W35828   3.300   8.652  13.592 -0.1993  0.3044  0.0407
20982W        W35829  11.374   4.023   0.746 -0.1397 -0.1120  0.1707
20983W        W35830  13.495   8.475   5.377 -0.1936 -0.1364  0.1755
20984W        W35831   1.037  16.395  14.428  0.0894 -0.0121  0.3105
20985W        W35832  15.114   2.998  14.311 -0.1003 -0.2027  0.1318
20986W        W35833  13.945  10.371  11.693 -0.0965  0.0808 -0.1376
20987W        W35834   0.268  13.931   3.840  0.1274 -0.2557 -0.1393
20988W        W35835  13.289  16.069  15.192  0.1776  0.1512 -0.0512
20989W        W35836  14.820  14.902   4.479 -0.2260  0.0544  0.2368
20990W        W35837  13.313  12.595  11.832  0.0223  0.1000 -0.0285
20991W        W35838   7.662   2.837   0.355  0.2128 -0.3569  0.0580
20992W        W35839   7.400  14.901  16.119 -0.3282  0.0615 -0.2073
20993W        W35840   4.186  10.212   2.147  0.1981  0.1458 -0.0401
20994W        W35841  17.160  16.561   9.885  0.0228 -0.0491  0.2750
20995W        W35842  15.950   0.836  12.364 -0.0192 -0.1269 -0.0786
20996W        W35843  14.036  14.402  10.073  0.5014  0.1537  0.0355
20997W        W35844   0.134   6.605   0.320  0.0034 -0.1631 -0.1991
20998W        W35845  13.165   6.719   6.203 -0.0309 -0.2400  0.1666
20999W        W35846  11.784  14.438   4.003  0.2281  0.0271 -0.0222
21000W        W35847  16.869   0.911  11.437 -0.0354 -0.0029  0.1617
21001W        W35848  16.027  10.635   4.726  0.3507 -0.1922 -0.2407
21002W        W35849  14.933   1.063   2.320 -0.1795 -0.0611 -0.3589
21003W        W35850   2.035   4.402  13.657  0.0310 -0.0990  0.1161
21004W        W35851  17.349  11.429   0.040 -0.1339 -0.0311 -0.1362
21005W        W35852  17.158   1.403   3.470  0.0565 -0.3030 -0.1136
21006W        W35853   9.098   2.638   1.834  0.1697 -0.1111 -0.1257
21007W        W35854  16.185   4.396  11.836 -0.0583  0.1105 -0.0762
21008W        W35855  14.924   5.688   5.010 -0.5310  0.0380 -0.0182
21009W        W35856  11.763   4.334  14.172 -0.0293  0.0765  0.0301
21010W        W35857  12.196   1.518  14.358 -0.0259 -0.1029  0.0224
21011W        W35858  12.230   2.494  16.616 -0.1353 -0.1999  0.0750
21012W        W35859  13.392  16.931   1.244 -0.1027  0.0961  0.3092
21013W        W35860   5.532  17.317  15.706 -0.1663  0.2012  0.0445
21014W        W35861  16.488   0.502   3.979  0.2440  0.1894 -0.2234
21015W        W35862  17.609   5.367  12.068 -0.1343  0.1582 -0.1178
21016W        W35863  10.176  11.428  15.310 -0.1195 -0.1261  0.0592
21017W        W35864  11.348   1.234  15.249  0.0858  0.1264  0.0464
21018W        W35865  16.144  17.674   0.317 -0.1454  0.0854  0.0847
21019W        W35866   6.812  13.684   3.850 -0.0640 -0.1756 -0.0380
21020W        W35867  11.881   1.990   4.459 -0.2314 -0.3685  0.0415
21021W        W35868   2.842  12.000   2.170 -0.0959 -0.0624  0.1650
21022W        W35869   7.335   4.663  12.742  0.0823 -0.1924 -0.1515
21023W        W35870   1.809   4.798  14.936  0.1288 -0.0295 -0.3216
21024W        W35871  14.737   5.754   6.140 -0.0347  0.1929  0.0647
21025W        W35872   1.538   4.238   5.503  0.0555 -0.0260 -0.0259
21026W        W35873  17.205   5.321  15.061  0.0467  0.0951 -0.1006
21027W        W35874   5.890   5.785  14.046 -0.4212 -0.3339  0.3143
21028W        W35875   0.645  16.248  17.038 -0.1173  0.2288  0.1932
21029W        W35876  14.050   8.957   1.557  0.0863  0.0281 -0.0389
21030W        W35877   0.707  17.616  16.546  0.1149  0.3490 -0.2789
21031W        W35878  12.354   2.822   5.875 -0.1375 -0.0172  0.0391
21032W        W35879  17.286  14.993  12.138  0.1042  0.0228 -0.2406
21033W        W35880  15.223   2.223   4.953 -0.0765  0.0603  0.0073
21034W        W35881  12.375   6.041   4.418  0.2140 -0.1416  0.0020
21035W        W35882  12.894   1.636   2.034  0.1392 -0.2657  0.0306
21036W        W35883  12.009  10.313  15.470 -0.2519 -0.1298  0.0202
21037W        W35884   6.024   8.933   5.829 -0.0963  0.1422 -0.0070
21038W        W35885  11.568  13.318  12.908 -0.0888 -0.0090  0.3286
21039W        W35886  15.008   5.891  17.051  0.0710 -0.0903 -0.1180
21040W        W35887   0.239   8.429  15.535 -0.0292 -0.2549  0.0646
21041W        W35888   1.526   0.672  15.324 -0.4142  0.1051 -0.0127
21042W        W35889  11.446   3.485   3.460 -0.0946 -0.1822 -0.4135
21043W        W35890  14.287  10.764   0.220 -0.0635  0.1667  0.2495
21044W        W35891   7.714   9.790  15.496  0.3647 -0.0781 -0.2570
21045W        W35892  11.534   5.144   1.522  0.1301 -0.2960 -0.0363
21046W        W35893  13.679  12.523  16.680 -0.2653  0.3028 -0.3348
21047W        W35894  12.026  17.660  12.330  0.1107 -0.2342  0.0413
21048W        W35895  12.331  12.555   3.516 -0.1155  0.1441 -0.1428
21049W        W35896  17.202  14.553   3.296  0.0966 -0.1030  0.0457
21050W        W35897  13.296   5.789  11.841  0.1076  0.0553  0.0202
21051W        W35898   3.411  13.055   6.666 -0.0195 -0.1284  0.2879
21052W        W35899  16.710   0.077   1.711 -0.2341  0.1871  0.3138
21053W        W35900  13.087   1.517   5.066  0.0594  0.0343  0.0946
21054W        W35901  16.161  13.058  12.151  0.1839  0.2427 -0.0314
21055W        W35902  13.597  10.250  16.205 -0.1197  0.0911  0.1379
21056W        W35903   1.089  15.031   3.580  0.0603 -0.3006  0.0543
21057W        W35904   9.418   0.153  14.530  0.0316 -0.3535  0.0961
21058W        W35905  16.392   6.266   2.762 -0.0276 -0.1717 -0.2178
21059W        W35906   5.640  14.407  15.224 -0.0992 -0.2368  0.0228
21060W        W35907  14.821   6.830  13.202  0.1607  0.0058 -0.0020
21061W        W35908  16.551  14.721  15.976  0.2495 -0.0796 -0.1323
21062W        W35909   1.166   0.795  12.952  0.0730  0.1838  0.1070
21063W        W35910  12.199  17.574   2.281  0.0513  0.2674 -0.2464
21064W        W35911   9.818   8.616  15.647 -0.0565 -0.0124  0.2087
21065W        W35912  14.129   1.156   3.018 -0.0549  0.0552 -0.0507
21066W        W35913  15.764  10.373   5.400  0.0623 -0.0192  0.0997
21067W        W35914  14.349   3.545   0.692 -0.0896 -0.1065 -0.0215
21068W        W35915  13.969   6.759  14.994  0.3035 -0.0280  0.0367
21069W        W35916   7.497   4.705  16.188  0.2403 -0.1359 -0.1692
21070W        W35917  11.599  11.300  13.865  0.3701  0.3569 -0.1855
21071W        W35918   7.839  11.639  12.304  0.0008  0.2196  0.0267
21072W        W35919   9.640   9.933  13.091 -0.0374  0.3968  0.1698
21073W        W35920  13.157   9.937   4.251 -0.1448  0.1586 -0.2207
21074W        W35921  15.084   8.331  15.702 -0.0284  0.1105 -0.1460
21075W        W35922  14.479  10.939  12.063  0.1104 -0.0277  0.2143
21076W        W35923   9.286   5.684   1.384 -0.0231  0.4232 -0.1094
21077W        W35924  14.057   9.795  12.554 -0.0437  0.3188 -0.1560
21078W        W35925   1.645  11.914   2.353 -0.2266 -0.1067  0.2055
21079W        W35926   0.242  14.182  15.947  0.4124  0.2872 -0.0309
21080W        W35927  16.622  12.617   0.724 -0.0743  0.0030 -0.0669
21081W        W35928  16.281  13.153   0.139 -0.2572 -0.0377 -0.1197
21082W        W35929  13.656  14.494   2.278 -0.1807  0.0192  0.0783
21083W        W35930   1.976   9.493  14.787  0.0398 -0.0352  0.2288
21084W        W35931  13.896  15.843  10.307 -0.1031 -0.0953 -0.0313
21085W        W35932  16.790  12.014   1.952 -0.0173  0.0989  0.0936
21086W        W35933  16.227   1.394   4.213 -0.0529 -0.0120  0.0465
21087W        W35934  10.479   7.466  12.809 -0.0930  0.3852  0.0845
21088W        W35935   1.632   6.383  12.115 -0.1461  0.2150 -0.1760
21089W        W35936  17.089   6.495  12.260 -0.0372 -0.2066 -0.1595
21090W        W35937  12.229   9.387  11.891 -0.0194  0.2884 -0.0948
21091W        W35938  13.975  15.788   2.893  0.1149  0.0863  0.1069
21092W        W35939   1.718  17.524  12.124  0.1148  0.2318  0.1204
21093W        W35940  16.434   4.803  11.660  0.1530  0.0356  0.1435
21094W        W35941  13.597   3.018   1.413  0.3123  0.1659 -0.1278
21095W        W35942  14.285  15.398  17.114  0.4070 -0.0061 -0.1875
21096W        W35943  16.852   2.735  13.046 -0.0271  0.0371 -0.0792
21097W        W35944   8.672  15.916   3.954  0.0805 -0.0457  0.2452
21098W        W35945   4.964   5.442   2.407 -0.0574  0.0576  0.0708
21099W        W35946   1.322  15.770   4.806  0.2032 -0.1516  0.0213
21100W        W35947   0.812  14.143   4.244  0.0443 -0.1912  0.1212
21101W        W35948   2.939  11.013  13.463 -0.1378  0.1126  0.3224
21102W        W35949  17.464   1.795   2.500  0.2720 -0.1861 -0.1165
21103W        W35950   3.676   1.793   4.295 -0.2197  0.0842 -0.1009
21104W        W35951  13.307  16.509   4.136 -0.0393  0.3039 -0.0354
21105W        W35952   1.929   0.214   3.431 -0.3395 -0.1796  0.1174
21106W        W35953   9.698  17.514  15.149  0.1076 -0.1170 -0.1255
21107W        W35954  12.910  15.887   1.432  0.2783 -0.2924  0.1533
21108W        W35955   9.094   9.383   3.599  0.0402 -0.2176 -0.0594
21109W        W35956   8.577   4.676   0.906  0.3009 -0.0879  0.0068
21110W        W35957  13.278   1.558   1.061 -0.2712 -0.3217 -0.0610
21111W        W35958   0.922  10.293  15.027 -0.1248  0.1410 -0.1784
21112W        W35959  12.757   8.737   5.386 -0.2725 -0.0529  0.0120
21113W        W35960   2.232  14.607   3.559  0.4104  0.2038  0.0886
21114W        W35961  10.197  15.142  13.018  0.0512  0.2241  0.1043
21115W        W35962   8.860   8.758  13.013  0.0549 -0.1340 -0.3574
21116W        W35963  12.885  10.278   2.904  0.0781  0.2180  0.0767
21117W        W35964   3.973   2.740  14.862 -0.2752  0.2754  0.1093
21118W        W35965  16.012  15.631  12.183 -0.1400  0.1480  0.0132
21119W        W35966   9.897   2.866   5.655 -0.0413  0.0224  0.2108
21120W        W35967  11.924   7.679  15.094 -0.0009  0.0639 -0.1210
21121W        W35968  10.717   2.801  13.266  0.1309  0.1023  0.0166
21122W        W35969   8.258   9.689   5.737 -0.1245 -0.1268  0.0970
21123W        W35970  14.516   5.397   4.762  0.1573  0.3112  0.2803
21124W        W35971  14.503  10.029  16.823 -0.3079  0.2776  0.0599
21125W        W35972  13.344  17.289  16.343  0.1243 -0.3002  0.1840
21126W        W35973   8.625   8.847   6.901  0.2634  0.1109  0.0150
21127W        W35974  11.730   5.160  11.698 -0.1137 -0.1273 -0.1409
21128W        W35975   8.917  17.402   5.321 -0.0912 -0.0057  0.1333
21129W        W35976   0.819   1.655   2.931 -0.0673 -0.1341  0.2277
21130W        W35977  11.391  11.553   1.625  0.0861 -0.0472  0.2091
21131W        W35978   0.249   7.029   4.711 -0.1557  0.1711 -0.1716
21132W        W35979   9.842   1.393   3.058  0.0987  0.0990 -0.2162
21133W        W35980  10.487   6.983   5.507  0.0513  0.3559  0.2223
21134W        W35981  16.566  12.495   5.542 -0.0201 -0.0292 -0.1846
21135W        W35982   4.515  10.264  16.403 -0.0839  0.1115 -0.0767
21136W        W35983   0.921   9.979   2.918 -0.1794 -0.3297 -0.1754
21137W        W35984   0.040   0.173   4.392  0.3245 -0.0252 -0.2649
21138W        W35985   8.181   7.521   1.814 -0.3441  0.3795  0.0435
21139W        W35986  15.713   6.674  15.304  0.0554  0.0055  0.1887
21140W        W35987   1.869  14.842   4.901  0.2380 -0.1617 -0.0600
21141W        W35988  15.902   9.144  13.618  0.2503 -0.1788 -0.0819
21142W        W35989  12.551   1.129   5.986 -0.1351  0.0263 -0.0877
21143W        W35990  15.112   0.316   5.310 -0.0335 -0.0277 -0.3181
21144W        W35991  11.022  14.054   3.478 -0.0098 -0.1280  0.4274
21145W        W35992  14.963   6.430  11.431  0.2600  0.0347  0.0825
21146W        W35993  16.943  14.939  14.630 -0.1150  0.0196  0.1866
21147W        W35994  10.982   1.695   3.460 -0.1450 -0.1074 -0.1614
21148W        W35995  10.433  12.447   6.502  0.0428  0.0277  0.0428
21149W        W35996  17.421  12.596  14.245  0.0904  0.0108 -0.0288
21150W        W35997  13.386   2.326  15.652  0.0642  0.3466 -0.1240
21151W        W35998  11.359   1.395   3.453 -0.2778  0.1267 -0.1677
21152W        W35999   2.610  17.756   0.554  0.0961  0.0448  0.3082
21153W        W36000  16.102   1.929  15.500 -0.1025  0.0577 -0.2052
21154W        W36001  15.718  13.839  11.890 -0.0024 -0.0081  0.2087
21155W        W36002  17.231  17.247  14.434 -0.0820 -0.1721 -0.2188
21156W        W36003   0.278  13.192   1.076  0.0600  0.2370  0.0655
21157W        W36004  11.353  15.798  11.865  0.1357  0.1176  0.1165
21158W        W36005  17.555   7.418   3.312 -0.2347 -0.0762 -0.0241
21159W        W36006  12.339   9.739  13.199  0.1006 -0.3802 -0.3004
21160W        W36007  13.462   3.821  13.651 -0.0544  0.1452 -0.0180
21161W        W36008  11.192  14.101   2.455 -0.3793 -0.1879  0.0168
21162W        W36009   0.051   7.148  11.529 -0.1852 -0.2326 -0.0930
21163W        W36010  11.666  16.677  12.418  0.0795 -0.2140  0.0718
21164W        W36011  14.271  12.339  11.934 -0.3880  0.1212  0.1163
21165W        W36012  14.635   9.136  15.413 -0.1203 -0.0218  0.4263
21166W        W36013  11.663   3.154  13.428 -0.0844 -0.0437  0.0680
21167W        W36014  16.582   4.654  15.919  0.0797  0.2426  0.0250
21168W        W36015  17.753   9.554   3.058  0.2062  0.0977  0.0828
21169W        W36016  13.236   0.236  16.898 -0.0306 -0.1010  0.0017
21170W        W36017  13.197   7.802  15.188  0.3047  0.0846  0.0813
21171W        W36018  14.514  16.493  10.286 -0.0390 -0.1516  0.1558
21172W        W36019  10.702   5.919   6.190 -0.0039 -0.1708 -0.1925
21173W        W36020   0.500   7.183  15.006  0.2578  0.2552 -0.0634
21174W        W36021  10.952  12.302   1.005  0.2638  0.4059 -0.2577
21175W        W36022   2.600   7.198   4.032 -0.1027  0.1398 -0.1770
21176W        W36023   2.116  16.953   3.705 -0.1498 -0.3531 -0.0478
21177W        W36024   0.577  12.134   2.917 -0.1661 -0.0324 -0.2234
21178W        W36025   5.808  13.317  15.075  0.0359 -0.1399 -0.4597
21179W        W36026  14.506  13.413  10.788 -0.3066  0.1446  0.2382
21180W        W36027  14.012   3.236   1.514 -0.1836 -0.2206  0.0272
21181W        W36028   5.345   4.455   6.007  0.0419 -0.1465 -0.1504
21182W        W36029   9.336   2.324   5.160 -0.0158 -0.0174  0.0255
21183W        W36030  17.745   6.198  11.320  0.2894 -0.0287 -0.0518
21184W        W36031  14.776   1.156   3.680 -0.1031  0.5009  0.0892
21185W        W36032  11.604  10.399  14.015  0.0849 -0.1687 -0.0362
21186W        W36033   8.792   6.217  12.918  0.3265  0.0587 -0.0360
21187W        W36034   4.220   0.217   2.159 -0.1140  0.3284  0.0264
21188W        W36035   2.032   7.916   5.779  0.0708  0.2435  0.0243
21189W        W36036   0.012   8.552   0.860 -0.3215  0.0950  0.1032
21190W        W36037   1.949   6.043   3.513 -0.0159  0.1049  0.1653
21191W        W36038  14.185   0.946  14.789 -0.0827  0.2520 -0.0058
21192W        W36039  17.579   2.559  14.754  0.1216 -0.3254 -0.0207
21193W        W36040  14.079   1.779  12.627 -0.1968 -0.1087 -0.3731
21194W        W36041  15.709   7.288   0.088 -0.1952  0.2972  0.0661
21195W        W36042  15.751   7.516  14.265  0.0955 -0.1029  0.0712
21196W        W36043   0.689  17.637  16.065  0.0822 -0.0835  0.3426
21197W        W36044  12.919   2.737  11.174  0.2617  0.2239  0.2006
21198W        W36045   7.459  13.890   3.582 -0.0480 -0.0553  0.0970
21199W        W36046  11.446   0.099  11.088 -0.1287  0.0518 -0.2163
21200W        W36047  15.476   9.469   2.538  0.0266  0.0006  0.4059
21201W        W36048  13.369  13.817  10.519  0.6214 -0.2526  0.1291
21202W        W36049  11.448  12.044   1.540 -0.3344 -0.1020 -0.0487
21203W        W36050  15.928  17.321  15.934 -0.1788 -0.0334 -0.0345
21204W        W36051  12.012   7.454  16.741  0.0847  0.1702  0.3222
21205W        W36052   1.231   4.119  15.873  0.1308 -0.0732 -0.1830
21206W        W36053  13.370   3.193   2.166 -0.0461 -0.0016 -0.1689
21207W        W36054  14.527   9.029   3.779  0.3566 -0.0693 -0.0417
21208W        W36055  14.945  11.525   0.521 -0.2321  0.3519 -0.1079
21209W        W36056  15.788  12.780  13.151  0.0816  0.3597  0.0461
21210W        W36057   4.911   2.711   0.288 -0.3104 -0.2489 -0.0272
21211W        W36058   8.693  17.532   6.190  0.1624  0.4361 -0.0755
21212W        W36059   6.149   4.002   4.605 -0.1276  0.2332  0.2329
21213W        W36060   4.142  10.245  16.908 -0.2303  0.0912 -0.0027
21214W        W36061  10.514  14.888   1.389  0.2322  0.0354  0.3725
21215W        W36062   8.813  10.324   2.731  0.0232 -0.4328  0.1549
21216W        W36063   1.819  14.612   3.926 -0.1051  0.2438  0.2451
21217W        W36064  13.943   7.271   4.148 -0.0692  0.0353 -0.2787
21218W        W36065  14.376   9.372  10.153 -0.1457  0.1595 -0.1878
21219W        W36066  15.422   8.159   6.152  0.2316  0.1768  0.1618
21220W        W36067  10.829  17.086  17.102 -0.2757 -0.0213  0.0609
21221W        W36068  16.599  11.820  11.704  0.1973 -0.1171 -0.1993
21222W        W36069   7.712  11.155  16.776  0.0622 -0.0944 -0.3513
21223W        W36070   1.027   0.620   2.278  0.2562 -0.1639 -0.2515
21224W        W36071  13.960   6.776  15.555 -0.0173 -0.1830  0.0097
21225W        W36072  14.284   2.432   3.490  0.0613  0.0256  0.0996
21226W        W36073  12.955   3.975  15.520 -0.0161 -0.0100 -0.2048
21227W        W36074  15.197   7.738  11.913  0.4954 -0.0008 -0.0542
21228W        W36075  12.822   3.862  12.194 -0.0245 -0.0187 -0.2573
21229W        W36076  14.360   0.975  12.980  0.0015  0.0336  0.0183
21230W        W36077   4.017   6.449   1.428 -0.3648  0.1211 -0.0019
21231W        W36078  12.711   8.278  16.036  0.0181  0.0228 -0.0474
21232W        W36079   0.630  17.492  15.602 -0.0430  0.2141 -0.2271
21233W        W36080   9.533   4.015   4.601 -0.1764  0.0135 -0.1797
21234W        W36081   3.369  11.566   1.142 -0.1890 -0.1035 -0.2941
21235W        W36082  10.288   7.508   3.664 -0.1625  0.0600  0.0631
21236W        W36083  17.416   8.137  16.782  0.2887  0.4896  0.0246
21237W        W36084  17.180   2.200   6.036 -0.1036 -0.0338 -0.1729
21238W        W36085   9.518  13.429   3.220 -0.0119 -0.2225  0.0755
21239W        W36086   2.901   6.171  15.059  0.0322 -0.3048 -0.0827
21240W        W36087  12.660   0.358  15.724  0.0237  0.0890  0.1156
21241W        W36088  15.932   2.779  13.814  0.1267 -0.3475  0.0578
21242W        W36089   2.399  13.648   4.167 -0.4656  0.3797 -0.1020
21243W        W36090  13.807  12.572  11.589 -0.0073 -0.3547 -0.0541
21244W        W36091   9.946   4.031   3.052  0.0011 -0.0375  0.0050
21245W        W36092   1.557  16.250  16.908 -0.2620 -0.2583 -0.3285
21246W        W36093  15.234   5.260  12.061 -0.1753 -0.2524  0.2617
21247W        W36094  12.481   2.953  15.151  0.2181  0.1086 -0.0598
21248W        W36095  16.602  14.709   4.341 -0.2352  0.0664  0.0330
21249W        W36096   6.240   0.149   5.447  0.4557 -0.0391  0.1003
21250W        W36097   1.850  17.870   2.463 -0.5405  0.0775 -0.0684
21251W        W36098  11.446   5.127  12.157 -0.1795 -0.1050  0.0830
21252W        W36099   0.978   8.385  14.691 -0.1046 -0.1025  0.1227
21253W        W36100   2.650  10.262   1.041 -0.1661  0.2924 -0.2220
21254W        W36101  11.458  15.030   0.956  0.1030 -0.3045  0.1070
21255W        W36102  16.708  12.885  16.590 -0.1552 -0.2384  0.0357
21256W        W36103  11.976  12.004   4.238  0.1775  0.0438  0.1852
21257W        W36104  10.657   6.954   1.591  0.3294  0.2511  0.0074
21258W        W36105   4.471  14.633  16.605  0.4239 -0.0112  0.1048
21259W        W36106  13.994  11.615  15.085 -0.1959 -0.0477 -0.2135
21260W        W36107  17.111   2.201   0.814  0.1979  0.0279  0.0342
21261W        W36108  13.328   9.217  15.826 -0.0033 -0.0858  0.0640
21262W        W36109  17.320  14.378   3.886  0.0571  0.0309 -0.1988
21263W        W36110   4.378  16.227  15.639 -0.1704  0.2560 -0.2715
21264W        W36111  11.684  12.321  12.285 -0.0282  0.0147  0.3261
21265W        W36112  17.798   9.150  12.895 -0.3298 -0.0961 -0.1685
21266W        W36113   4.525  13.793  14.992  0.0424 -0.2284 -0.0236
21267W        W36114  16.420   7.576   6.664  0.0684  0.2778 -0.0690
21268W        W36115  12.377   9.314   0.147 -0.1650  0.0550 -0.1995
21269W        W36116  17.934   7.008  12.982 -0.0180 -0.0910  0.2519
21270W        W36117   2.921  10.622  12.495 -0.1480  0.0574 -0.4260
21271W        W36118   9.220  16.099   4.745 -0.1888 -0.0644  0.0287
21272W        W36119   6.831   1.964  16.920 -0.0024 -0.0148  0.0526
21273W        W36120  15.215   9.850  15.746  0.2305 -0.0503 -0.0144
21274W        W36121  13.884  14.195  14.743  0.2741  0.1306  0.1345
21275W        W36122  15.913   5.841   4.533  0.2506 -0.1420 -0.1931
21276W        W36123   4.209   5.798  14.317  0.0982  0.1285 -0.1916
21277W        W36124   0.621  16.002  16.569  0.0030 -0.1452 -0.2367
21278W        W36125  16.804   7.674  14.510 -0.4360  0.1670  0.0078
21279W        W36126  17.261  16.508  11.249 -0.2432 -0.1470  0.0043
21280W        W36127  14.918   2.428   2.249  0.0825  0.1182  0.1740
21281W        W36128  16.555  16.438   4.704  0.0477  0.1304 -0.0154
21282W        W36129  15.806  17.338   2.791 -0.0212  0.2240  0.3645
21283W        W36130  17.469   4.417  14.425  0.0901 -0.2689 -0.1686
21284W        W36131  14.846  10.466  11.660 -0.4408  0.0543  0.0061
21285W        W36132  13.183   6.652   4.898  0.0686 -0.0786 -0.0507
21286W        W36133  10.064   9.265   0.295  0.2605  0.0068 -0.2353
21287W        W36134  17.961  13.790  12.369  0.2944  0.1681  0.0387
21288W        W36135   9.173  11.135   3.273  0.2040  0.0285 -0.1112
21289W        W36136  10.173   5.800   0.896 -0.0284  0.1103  0.0215
21290W        W36137  15.505   7.476  10.693 -0.1136  0.0375  0.0454
21291W        W36138  14.186  12.431  10.749  0.1646 -0.1575 -0.2357
21292W        W36139  14.559  16.567   5.372  0.2948  0.1112  0.1478
21293W        W36140  14.857  10.789   1.770 -0.1614 -0.1415 -0.0799
21294W        W36141   9.681   3.077  14.192  0.2205  0.1814  0.0560
21295W        W36142   1.254   8.338   5.714 -0.3249 -0.1887  0.2320
21296W        W36143  12.854  14.731  14.727 -0.1501  0.1882 -0.1355
21297W        W36144  17.501  12.459   0.917  0.0525  0.2710  0.1619
21298W        W36145  11.916   3.917   4.445  0.0600 -0.2501  0.2512
21299W        W36146  12.221   6.254  10.994  0.1394 -0.1543 -0.0579
21300W        W36147  11.844  16.773   5.097 -0.1661  0.2188  0.3525
21301W        W36148  16.242   2.090  13.225 -0.1316 -0.1104 -0.1575
21302W        W36149  12.102   4.556  13.784  0.5262  0.0185  0.0944
21303W        W36150   1.358   7.867   0.325 -0.2174 -0.1706 -0.1936
21304W        W36151  10.369   6.784   4.529  0.0272  0.3585  0.2450
21305W        W36152   9.357  12.498   5.851 -0.0410 -0.0486  0.2273
21306W        W36153   4.306   8.090  12.658  0.1111 -0.0502  0.1564
21307W        W36154  10.802   4.769   4.097 -0.0874  0.0689 -0.2525
21308W        W36155   2.541  10.577  12.936  0.3782 -0.0023 -0.0059
21309W        W36156   0.305   5.508   1.895 -0.1374  0.1701 -0.0796
21310W        W36157  11.812  17.606   5.452  0.2512  0.1252 -0.0122
21311W        W36158  12.526  14.431  13.229  0.0287  0.0966 -0.3914
21312W        W36159   7.129  13.420  13.489  0.0151 -0.3968 -0.1753
21313W        W36160   1.324  12.180  12.037 -0.0894 -0.1304  0.0955
21314W        W36161  15.653   7.963   0.070  0.1829 -0.3106  0.1538
21315W        W36162  14.206   8.552   1.791 -0.0679 -0.3129  0.2945
21316W        W36163  15.797   5.633   3.896 -0.0057  0.0094  0.0511
21317W        W36164  17.771   2.476   3.811  0.2413 -0.3042 -0.0406
21318W        W36165  16.238   3.697   5.950 -0.1830 -0.0853 -0.0210
21319W        W36166  17.563   1.610   4.319  0.2444  0.0764  0.0089
21320W        W36167   7.023  10.474   3.566 -0.0949  0.0433  0.1535
21321W        W36168  13.208   6.511  12.450 -0.0359 -0.0265  0.0722
21322W        W36169   2.103  13.282   6.844  0.0795  0.3133 -0.0421
21323W        W36170  14.183   8.995  15.218 -0.0045 -0.1385  0.2468
21324W        W36171   7.979   7.109   4.284  0.3090  0.1410 -0.1702
21325W        W36172  13.642  15.789  12.174 -0.0626 -0.1747 -0.2818
21326W        W36173   5.684   8.216   4.919 -0.2420 -0.3554 -0.1624
21327W        W36174   5.823  11.643   1.308  0.0791 -0.0902 -0.1921
21328W        W36175   0.796   1.192   1.601  0.0234 -0.0032 -0.0694
21329W        W36176  10.620   7.950   2.097 -0.0580  0.0085  0.1418
21330W        W36177  15.985   6.136  11.988 -0.1556  0.0307 -0.0919
21331W        W36178  11.134   0.026  12.033  0.0112  0.4968 -0.0078
21332W        W36179  14.839   0.181  15.574  0.0189  0.2367 -0.1080
21333W        W36180   5.602   5.180  16.429 -0.1052  0.1525  0.0755
21334W        W36181  17.186  12.683   3.214 -0.1644  0.1373 -0.0330
21335W        W36182   2.239  14.862   2.861  0.0470 -0.0231  0.2698
21336W        W36183  17.919   1.844  16.240 -0.2129 -0.1822  0.3787
21337W        W36184  14.413   5.167  12.446  0.1320 -0.0940  0.2395
21338W        W36185  17.856   9.823  14.252 -0.1536 -0.2690 -0.1323
21339W        W36186   7.954   0.169  15.412 -0.1126 -0.0796 -0.1058
21340W        W36187  10.709  16.712   2.010 -0.2928  0.1580 -0.1206
21341W        W36188  16.548  12.087   6.358 -0.3714 -0.0184 -0.0591
21342W        W36189   9.702   4.510   3.708 -0.1847  0.5222  0.3543
21343W        W36190  15.391  15.705   1.436 -0.1092 -0.1922 -0.0723
21344W        W36191   4.587   6.584  17.080 -0.0465 -0.4565  0.2805
21345W        W36192  16.640   0.953   3.112 -0.2759 -0.0222 -0.1578
21346W        W36193  17.713   8.503  15.527 -0.1812 -0.3288 -0.1038
21347W        W36194  14.342   2.547  14.861  0.0203  0.3063  0.0508
21348W        W36195   9.864  13.760   3.449  0.0736  0.1265  0.0181
21349W        W36196   1.780   4.593   2.477  0.2643  0.3756  0.1155
21350W        W36197  13.348  16.180  13.908  0.2571  0.0689  0.0552
21351W        W36198  12.912  15.288   0.302  0.1364 -0.1291 -0.1108
21352W        W36199  13.161   4.857  16.063  0.0340  0.0832  0.2184
21353W        W36200  13.374  14.006   2.317 -0.1531  0.1692  0.1442
21354W        W36201  15.470   7.483  11.199 -0.0721  0.2046  0.1286
21355W        W36202   0.749  16.014   5.405  0.2452  0.0207  0.0577
21356W        W36203  10.692   7.863  11.998  0.0254  0.2939  0.0448
21357W        W36204  10.377  17.783   5.473  0.0938  0.2604  0.0935
21358W        W36205  13.783   2.497  13.317 -0.2300  0.0237 -0.0695
21359W        W36206  16.302   4.262   1.174 -0.2637 -0.0838 -0.1032
21360W        W36207   1.882  10.878  12.306 -0.1286  0.2037 -0.3200
21361W        W36208  12.445   4.284   5.890 -0.1743  0.0110 -0.0133
21362W        W36209   8.297   8.416   5.354  0.2125 -0.1370  0.0526
21363W        W36210  15.536   5.180   3.894 -0.0220 -0.1440  0.0187
21364W        W36211  14.469  16.547   1.682 -0.0187 -0.3298 -0.0949
21365W        W36212   0.079  10.984  14.794  0.0902  0.0736 -0.0437
21366W        W36213   1.322   3.320  15.449  0.0880 -0.1666 -0.0645
21367W        W36214   9.616   3.886  15.752  0.0872 -0.4157  0.3087
21368W        W36215   6.500   5.338  13.629 -0.0554 -0.0560 -0.3083
21369W        W36216  15.109   4.249   1.872  0.0533 -0.0089 -0.3298
21370W        W36217  14.536  14.566   6.266  0.1896  0.0268 -0.1513
21371W        W36218  17.519  13.166   5.302 -0.1339 -0.3188  0.1239
21372W        W36219   0.020  11.006  12.842  0.2846 -0.0549  0.1540
21373W        W36220  15.912   7.885  15.204 -0.0818 -0.1939 -0.2925
21374W        W36221   3.282   9.270   3.386 -0.0672 -0.2829 -0.0507
21375W        W36222  14.110  16.215   4.149 -0.4064  0.0322  0.0691
21376W        W36223   9.054  10.572   7.098  0.2395 -0.1430  0.0038
21377W        W36224   1.522  10.784  14.409 -0.0228 -0.1989  0.1019
21378W        W36225  16.019  11.145   5.534  0.1085  0.0942  0.2664
21379W        W36226  11.360  10.737  11.798  0.1945 -0.1552 -0.1924
21380W        W36227  15.609   0.173  13.950  0.1430 -0.2527  0.0672
21381W        W36228  14.239   4.583  12.802 -0.4221 -0.2603  0.1562
21382W        W36229  13.956  13.730   5.297 -0.0274 -0.0135  0.1380
21383W        W36230   0.510  13.740   6.162  0.2602 -0.2034  0.1975
21384W        W36231  12.340   2.323   3.321 -0.0028 -0.0303 -0.2775
21385W        W36232  15.800   4.739   3.130  0.1783  0.0058 -0.0561
21386W        W36233  13.235   4.541  15.682 -0.1810  0.2426 -0.0654
21387W        W36234   9.155   5.542   5.722 -0.0320  0.1190 -0.1163
21388W        W36235  11.253   5.776  17.030 -0.0698  0.0077  0.1771
21389W        W36236  10.733  15.394   2.226 -0.3844  0.0581  0.0495
21390W        W36237  15.306  12.031  13.067  0.2785  0.1282  0.2618
21391W        W36238  17.112  15.557  13.238 -0.2371 -0.0580  0.0529
21392W        W36239  12.871  17.857  16.778  0.3519 -0.0102  0.0530
21393W        W36240  11.154   3.839   3.225  0.1035  0.2348  0.1987
21394W        W36241  13.701   9.303   3.442 -0.0129 -0.1481  0.0428
21395W        W36242  14.589  17.891  12.448 -0.1121 -0.1590 -0.0012
21396W        W36243  17.714  15.688  12.033  0.1711 -0.3102 -0.1747
21397W        W36244   9.664   6.691   1.155  0.0495  0.1037  0.2198
21398W        W36245   2.490   0.591  16.560 -0.0710  0.1823 -0.0426
21399W        W36246  16.948   4.433  13.082 -0.2513 -0.0588 -0.1794
21400W        W36247  14.065  13.154   1.111 -0.0076 -0.2883  0.2117
21401W        W36248  11.178   8.557  13.634 -0.3023 -0.0425 -0.1298
21402W        W36249  15.725  10.833  13.547 -0.0082  0.1435 -0.0247
21403W        W36250  16.510   8.416   3.107 -0.1772  0.2669  0.0260
21404W        W36251  13.251   5.370  10.732 -0.1971  0.0046 -0.0495
21405W        W36252  15.821  16.013   0.077  0.0203  0.5419  0.1328
21406W        W36253  12.218  15.298   2.870 -0.3681  0.1308 -0.0761
21407W        W36254   4.921  12.059  16.205 -0.2055  0.1764 -0.0046
21408W        W36255   0.425  14.015   5.496  0.0609  0.0807 -0.1965
21409W        W36256  11.344   2.638  16.815  0.0846  0.1900  0.0603
21410W        W36257   1.778  11.214   4.091 -0.3741 -0.0303 -0.2132
21411W        W36258  10.854   8.098   5.044 -0.1203 -0.0765 -0.0383
21412W        W36259   9.729  14.231  15.207  0.1530 -0.0868  0.1134
21413W        W36260   0.425  17.123  15.211  0.1719 -0.0080 -0.2336
21414W        W36261   8.805   6.359  17.017 -0.1569 -0.0597 -0.2806
21415W        W36262  17.707   3.968   0.571  0.0131  0.0085 -0.3544
21416W        W36263   8.348   1.339  14.509  0.0319  0.1284  0.0710
21417W        W36264  17.544   5.796   2.713 -0.2197  0.0609 -0.1091
21418W        W36265  16.764   1.444   5.480  0.0912  0.2498  0.2789
21419W        W36266   0.952   7.381   4.390 -0.1135 -0.0342 -0.0569
21420W        W36267  10.005  15.552   0.949  0.0877 -0.1295  0.0183
21421W        W36268  14.803  17.581   3.521 -0.1788  0.0620  0.0866
21422W        W36269   3.199  17.387   6.370  0.4057 -0.1398  0.1345
21423W        W36270  15.158   1.528  16.089  0.1332  0.0718  0.1359
21424W        W36271  12.565  11.062  12.134 -0.0608 -0.2367  0.0319
21425W        W36272  14.525  16.213   1.224 -0.0968  0.3137 -0.2336
21426W        W36273  13.487   7.936  13.729  0.1732 -0.1274  0.0341
21427W        W36274   1.796   9.068  17.028  0.1574 -0.2659 -0.0617
21428W        W36275  17.650   5.364   0.497 -0.1948  0.1161 -0.0429
21429W        W36276   6.308   8.913   1.390  0.0528  0.1098 -0.1202
21430W        W36277  13.786  15.047   1.570  0.3700  0.0666  0.4730
21431W        W36278   9.855   7.951  13.268 -0.3931  0.1276  0.1130
21432W        W36279  12.521   7.223   3.917  0.1372  0.2435 -0.0248
21433W        W36280  17.930  12.531  14.332 -0.0971  0.0173 -0.1233
21434W        W36281  15.361  12.965  13.518 -0.0682  0.1369  0.2828
21435W        W36282  12.826   3.207   1.029 -0.1024  0.1499  0.1664
21436W        W36283   3.761   3.271   6.436 -0.1999  0.3254 -0.0193
21437W        W36284   0.159   0.009   3.956 -0.1238  0.0238  0.1738
21438W        W36285  12.801   4.332  16.224 -0.0057 -0.0859  0.0126
21439W        W36286  12.065  15.023  13.592  0.0497 -0.0172 -0.1843
21440W        W36287   1.559  11.381   1.868  0.0320 -0.0886 -0.0764
21441W        W36288   0.854   1.755  16.647 -0.1428 -0.0518 -0.1111
21442W        W36289  10.773  12.076   4.732  0.3741 -0.0004  0.2072
21443W        W36290  13.305  16.482  16.745  0.4914  0.0960 -0.1863
21444W        W36291  12.214  16.699  16.399  0.1309 -0.0067 -0.0529
21445W        W36292  17.528  11.176  13.219  0.0498 -0.0693  0.0425
21446W        W36293  13.981   8.053  15.623  0.3265  0.0005 -0.1253
21447W        W36294   2.019   3.946   4.587 -0.1861  0.0613 -0.1438
21448W        W36295   0.900   5.005  11.968 -0.3292 -0.0827  0.1386
21449W        W36296   2.598   3.922   4.997 -0.0711 -0.2085 -0.1872
21450W        W36297   3.636  14.049  17.051  0.1485  0.1870  0.0499
21451W        W36298  14.879  10.982  13.152 -0.1240  0.1448  0.0479
21452W        W36299  12.895  12.181   3.897 -0.2661 -0.2116  0.1610
21453W        W36300   1.040  17.261  16.859 -0.1920 -0.0029 -0.3324
21454W        W36301  13.057   3.536   2.084 -0.2864  0.2492 -0.0796
21455W        W36302   0.458  16.554  13.235 -0.1292  0.1454  0.0598
21456W        W36303  10.240   7.500  13.251 -0.0893 -0.1467  0.0986
21457W        W36304  13.908  16.127   5.736 -0.0350 -0.2443  0.1926
21458W        W36305  13.808  17.250  16.141 -0.2409 -0.1494 -0.1540
21459W        W36306   6.761  14.743  12.124 -0.0383 -0.0727 -0.1981
21460W        W36307   6.486   5.035  16.497 -0.2314  0.0574 -0.0565
21461W        W36308  17.895   3.088   5.394 -0.1654  0.3035 -0.2141
21462W        W36309  11.686  11.514   4.131  0.1266 -0.2056 -0.1708
21463W        W36310   2.855  13.222  14.195  0.1421 -0.1240  0.1634
21464W        W36311  10.272  17.333   3.576  0.0663 -0.1011  0.1508
21465W        W36312   0.679   2.024   1.418  0.1723  0.1589  0.3353
21466W        W36313   8.701   0.751   5.778 -0.0814  0.0687 -0.0645
21467W        W36314   0.543   5.309  13.542  0.0087  0.0600 -0.0932
21468W        W36315  15.271  13.094   4.168 -0.2089 -0.0938  0.2449
21469W        W36316   0.578   8.255  12.207  0.1722  0.1273  0.1647
21470W        W36317  17.713   3.962  15.568 -0.0131  0.0418 -0.1159
21471W        W36318  17.258   7.383  14.227  0.0355 -0.0387 -0.1283
21472W        W36319  16.687  17.245   0.951 -0.1101  0.0900  0.1413
21473W        W36320   3.305  10.604   5.593 -0.3167 -0.0268  0.0896
21474W        W36321  14.177   4.601  17.102  0.1413  0.0610  0.2539
21475W        W36322  14.857   9.576  13.573 -0.3429  0.0825  0.2874
21476W        W36323  13.601   2.889   4.066  0.1077  0.3039  0.2252
21477W        W36324  11.581   7.058   0.371 -0.2018 -0.0083 -0.1283
21478W        W36325  14.816   6.612  14.051  0.1010  0.0740 -0.2667
21479W        W36326   2.655  17.262   2.525  0.3809 -0.0297  0.2609
21480W        W36327  16.302  10.217  14.358  0.0195  0.2704 -0.1815
21481W        W36328  11.669  15.018  12.878  0.0583  0.1303 -0.0307
21482W        W36329  15.668   9.412  12.684  0.1162 -0.0453 -0.1174
21483W        W36330  14.358   6.593  11.475 -0.1411 -0.1951 -0.0636
21484W        W36331   1.623  17.429  16.135 -0.3352 -0.0049  0.0167
21485W        W36332  10.212   2.844   4.918 -0.2537 -0.0633 -0.0549
21486W        W36333  12.342  17.978  10.680 -0.1037 -0.2219  0.3611
21487W        W36334  14.015   9.497   2.491  0.1978  0.0910  0.3717
21488W        W36335  14.188   4.840   0.933 -0.0024  0.1332  0.0743
21489W        W36336  15.835   1.699  16.901 -0.2830 -0.0988 -0.4035
21490W        W36337  15.636   8.328   3.196 -0.1910 -0.1211 -0.2016
21491W        W36338  15.510   3.506   3.507 -0.0836 -0.0536 -0.0835
21492W        W36339   9.647  13.379   0.919 -0.2829  0.0105  0.1405
21493W        W36340   8.532   0.153  15.202 -0.1411 -0.0482  0.0059
21494W        W36341  16.901  11.320   1.212  0.0635  0.0574 -0.0550
21495W        W36342   8.595  10.397  14.803  0.0208  0.0937 -0.2252
21496W        W36343  11.784   1.854  12.593  0.3504 -0.0679 -0.0786
21497W        W36344  17.435  13.099  11.022  0.0305  0.1410  0.1020
21498W        W36345  14.915   7.346  11.055 -0.0781 -0.0901 -0.2052
21499W        W36346   4.644  16.918  13.808  0.1479 -0.0756 -0.4629
21500W        W36347  16.866   5.451   0.957  0.1849 -0.3063  0.0159
21501W        W36348  14.214   7.201  16.236 -0.0036  0.0205  0.1102
21502W        W36349   9.921   1.246  16.156 -0.0485  0.0273  0.1515
21503W        W36350  13.963  13.362   4.531  0.2277 -0.0121  0.0449
21504W        W36351  16.249  11.263  12.432 -0.1379  0.1418  0.0971
21505W        W36352   6.345  14.502  14.013 -0.0674  0.1155  0.0405
21506W        W36353  10.050   5.252  11.908 -0.2593  0.0010 -0.1569
21507W        W36354  11.897   6.787   4.728 -0.0201 -0.3107 -0.2063
21508W        W36355   3.673   7.900  11.945 -0.1500  0.0560 -0.0263
21509W        W36356   1.213   4.442   5.919 -0.4844 -0.4002  0.0280
21510W        W36357  14.216   9.018   4.140  0.2519  0.0731 -0.1328
21511W        W36358  12.227   7.508  16.205 -0.0376 -0.0806 -0.3645
21512W        W36359  17.743   5.987   1.481  0.1307  0.0119  0.0118
21513W        W36360  13.796   8.128   0.135  0.0112 -0.0371 -0.3262
21514W        W36361  12.238   8.858  17.032 -0.0338 -0.1611 -0.0431
21515W        W36362  11.154   2.281  15.099  0.1071  0.0142  0.0446
21516W        W36363   7.263   8.695   5.107 -0.1650  0.2803  0.2092
21517W        W36364   7.022   1.532  14.185  0.0821 -0.0931 -0.0038
21518W        W36365  14.608  13.395   3.263 -0.0245  0.1298  0.1246
21519W        W36366  11.881   7.975   1.379 -0.1877  0.2728  0.4075
21520W        W36367  16.519   1.602   3.844  0.0789 -0.0885 -0.0147
21521W        W36368   2.895  13.427  12.898  0.1163  0.1256 -0.0852
21522W        W36369  16.625   7.943  12.095  0.1247  0.0285  0.2605
21523W        W36370  16.866  12.295  15.286 -0.0118  0.0408 -0.0934
21524W        W36371  16.653  16.527  15.232 -0.0426  0.0405  0.0149
21525W        W36372  16.302   0.528   0.697 -0.0746 -0.2172  0.3097
21526W        W36373  12.622  11.970  16.951  0.0055  0.0473  0.1901
21527W        W36374  11.754   5.410   5.544 -0.1525 -0.1909  0.3113
21528W        W36375   3.830   7.621  16.725 -0.2920 -0.1055  0.1498
21529W        W36376   7.071  13.744  14.502  0.0237  0.0228 -0.1302
21530W        W36377   0.925   8.584  15.210 -0.2201 -0.3234  0.1132
21531W        W36378   2.627  13.309   0.184  0.0469 -0.5154 -0.2371
21532W        W36379   6.736  11.012   2.881  0.0813  0.3080 -0.1987
21533W        W36380  15.325   9.626   0.796 -0.1585 -0.1499 -0.4204
21534W        W36381  15.832  12.230   2.599  0.2910  0.1830 -0.1079
21535W        W36382   9.807  12.242  16.993  0.0101  0.2247  0.1190
21536W        W36383  15.249  13.545   1.554  0.0136 -0.0562  0.0780
21537W        W36384  17.081  10.221   2.270  0.0540 -0.0789 -0.0334
21538W        W36385  11.799   4.235  10.751 -0.7757  0.1074 -0.1723
21539W        W36386  10.363   9.927   6.784  0.2309 -0.1005 -0.0026
21540W        W36387  12.469  13.146   6.650 -0.1168 -0.2356  0.1073
21541W        W36388  11.931   7.224  11.490 -0.0550  0.1827  0.1118
21542W        W36389   5.967   0.887  12.735 -0.0898 -0.1680 -0.3868
21543W        W36390  11.708  14.420  12.055  0.2034 -0.1679 -0.1590
21544W        W36391   9.675  11.885  12.817  0.2807 -0.1001 -0.1181
21545W        W36392   7.878   2.879  14.266 -0.2340  0.0322 -0.0583
21546W        W36393  12.803   3.023   4.367 -0.0142  0.0572  0.0801
21547W        W36394  14.046   8.325   2.379 -0.0529 -0.0284  0.0943
21548W        W36395  12.926   7.772   5.128 -0.1965 -0.1016 -0.4771
21549W        W36396  12.525   3.780   3.999  0.1250  0.1414 -0.0678
21550W        W36397  13.856   9.054  10.950  0.1989  0.2293  0.0487
21551W        W36398  12.820  14.582  12.725  0.2164  0.0263 -0.2851
21552W        W36399  13.199  11.043  13.361 -0.2539  0.5042 -0.0119
21553W        W36400  13.885   4.847   1.513  0.1621 -0.0339  0.0997
21554W        W36401  12.589   4.195  11.878 -0.1700 -0.0972  0.3372
21555W        W36402   9.692   5.752  13.864 -0.2802  0.1110  0.2108
21556W        W36403   8.921   4.725   5.914 -0.0897 -0.2158  0.2435
21557W        W36404   7.256   4.920   1.321 -0.0574  0.1433  0.0551
21558W        W36405   8.686   9.292  14.391 -0.1841  0.2143 -0.1236
21559W        W36406   7.417  13.109   5.990 -0.1236 -0.3353 -0.1024
21560W        W36407  17.576   5.230   5.103 -0.0974 -0.0647 -0.2536
21561W        W36408   7.598  10.396   2.962  0.2341 -0.1642  0.1875
21562W        W36409   5.893  16.435   0.153 -0.1308 -0.1123  0.1871
21563W        W36410  17.333  16.079   1.957  0.1083  0.2516 -0.2439
21564W        W36411   0.684   2.146   3.024 -0.0063 -0.3302 -0.0618
21565W        W36412  10.028   6.682  14.261  0.0266 -0.0034  0.1340
21566W        W36413  14.959  10.259  12.791  0.1599  0.0743  0.2514
21567W        W36414   9.448   4.699  12.235 -0.0711  0.3264  0.2184
21568W        W36415   0.425  15.536   4.758 -0.0120 -0.2772 -0.0981
21569W        W36416   8.981   8.593  14.857 -0.1378 -0.0075 -0.1614
21570W        W36417  16.321   2.225  14.597 -0.0767 -0.1228 -0.0177
21571W        W36418  17.449  16.678  13.542 -0.1895 -0.1468 -0.0597
21572W        W36419   2.092  11.975  13.987 -0.2062  0.1196  0.0025
21573W        W36420  10.981   3.016  12.100 -0.1198 -0.1501  0.2689
21574W        W36421  13.112   9.443   3.137 -0.1847 -0.2009  0.1121
21575W        W36422  14.940   8.770   3.317  0.1166 -0.2735  0.0290
21576W        W36423  16.698   3.746   4.587  0.3596 -0.0496  0.0736
21577W        W36424  16.187   1.732   1.096  0.0062  0.0889 -0.0839
21578W        W36425   1.708   6.992   1.184 -0.1062 -0.1349  0.2545
21579W        W36426  16.646   8.877   2.950  0.1964 -0.1457 -0.0561
21580W        W36427   0.899  11.066  11.260 -0.0499  0.2255  0.4066
21581W        W36428  15.720   5.525   5.897 -0.0227  0.1506  0.0224
21582W        W36429  13.190  17.817   4.568  0.1105  0.0014  0.0287
21583W        W36430  15.843   5.277  12.464  0.2390 -0.2471  0.2682
21584W        W36431  14.131   9.839  14.039  0.3045  0.0654  0.1795
21585W        W36432  12.603  12.011   0.356  0.2143 -0.0344 -0.2476
21586W        W36433  13.659  12.024   4.200  0.1490  0.4676 -0.1015
21587W        W36434  16.394   0.720   4.805  0.0181  0.1855 -0.1139
21588W        W36435   4.799   3.733   0.260  0.3765 -0.4562 -0.4074
21589W        W36436  14.246  15.048  16.247 -0.0299 -0.2178 -0.3214
21590W        W36437  14.551   0.940   2.663  0.0007  0.2484 -0.1047
21591W        W36438  10.897   3.433   6.171 -0.1764 -0.1289  0.1413
21592W        W36439  12.454   5.339  14.712 -0.3213 -0.0670  0.0707
21593W        W36440  17.248   0.397   2.275  0.2331 -0.2092 -0.1517
21594W        W36441  10.877  16.967  15.216 -0.0752  0.0316 -0.1511
21595W        W36442  12.707   9.217   4.422 -0.1888 -0.0284 -0.2019
21596W        W36443   6.890  17.174  16.349  0.0876 -0.0725  0.0259
21597W        W36444   1.539   3.192  16.056  0.0451  0.0227  0.0941
21598W        W36445  11.134   3.865   6.238  0.2130  0.0016 -0.3575
21599W        W36446  12.169   8.699   3.441  0.0549  0.0825  0.2395
21600W        W36447   1.880   4.744   1.018  0.0938 -0.0457 -0.1714
21601W        W36448  13.051  16.983   4.921 -0.2260 -0.1709 -0.0249
21602W        W36449  10.898   4.682   1.468  0.1077 -0.1292  0.2224
21603W        W36450  11.955   0.019   3.638 -0.3948  0.2032  0.1169
21604W        W36451  14.971   2.838   5.936  0.0083  0.2748 -0.3006
21605W        W36452   4.939   6.131   1.330  0.1272  0.1938 -0.0998
21606W        W36453  10.839  14.976  14.897  0.0971  0.2975 -0.3014
21607W        W36454  12.508  13.617   1.376  0.1223  0.0707 -0.0792
21608W        W36455  17.175  17.180  16.838 -0.0130  0.2287  0.1029
21609W        W36456  10.850   1.810   6.144  0.0779  0.0459 -0.1593
21610W        W36457  15.341   5.478  13.979 -0.0227 -0.0252  0.2259
21611W        W36458   1.668  16.541   4.138 -0.1241  0.0054  0.1351
21612W        W36459   7.962  13.079  12.707 -0.1947  0.0227 -0.0534
21613W        W36460   6.919  10.634  13.787 -0.1388 -0.1809  0.1186
21614W        W36461  14.997   7.966  12.628  0.0822 -0.1823 -0.0523
21615W        W36462  12.468  12.999  12.440  0.1775 -0.1706 -0.2743
21616W        W36463  14.977   0.992   4.491 -0.1837 -0.2762 -0.0722
21617W        W36464  14.161  10.621   1.022  0.1489  0.2307  0.0226
21618W        W36465   8.069   9.136  12.332 -0.1192 -0.0990  0.0846
21619W        W36466  15.817   1.884   2.008  0.0393 -0.0969  0.1391
21620W        W36467   3.917   2.982   4.370 -0.0645 -0.2550  0.0554
21621W        W36468  15.927  12.445   1.755 -0.2719  0.1764 -0.0033
21622W        W36469   6.378   7.086  12.065  0.3536  0.1489  0.0914
21623W        W36470  12.046  16.666  13.661 -0.1690  0.0506 -0.0682
21624W        W36471  15.335   0.541   2.080  0.0810 -0.1685  0.2765
21625W        W36472  14.726  14.661   3.230 -0.2539 -0.3742  0.1284
21626W        W36473  13.991   8.240  11.984  0.2859 -0.0729  0.0062
21627W        W36474   0.139   0.482   3.992  0.0966 -0.1994  0.0941
21628W        W36475   7.552   6.543  12.513  0.0964 -0.1092 -0.3572
21629W        W36476  14.109  16.725   5.225 -0.0183  0.1142  0.0741
21630W        W36477  12.616  10.462   1.119 -0.2600  0.1646  0.3102
21631W        W36478  10.452   8.989   6.048  0.0865 -0.1439 -0.2507
21632W        W36479  14.683   6.506  10.503  0.1702 -0.0163 -0.1415
21633W        W36480   1.699   4.339  14.699 -0.0379  0.2412  0.0973
21634W        W36481   1.932  17.105  16.449  0.1264  0.0415 -0.1603
21635W        W36482  13.929  10.641  12.088 -0.0072 -0.1184  0.0306
21636W        W36483   8.868   0.298  12.695  0.0734  0.0514  0.0743
21637W        W36484  16.793   2.121  11.417  0.0256  0.5227 -0.2788
21638W        W36485   7.970   5.802   0.000  0.0296  0.4288 -0.0194
21639W        W36486  11.334   1.620  14.738 -0.0931 -0.0130  0.3149
21640W        W36487  15.761  12.398  15.551 -0.1237 -0.2224 -0.0375
21641W        W36488  16.782  14.997  14.118 -0.1099  0.2143  0.1745
21642W        W36489  14.687   4.473   4.188 -0.1050  0.2330 -0.0157
21643W        W36490   7.455  17.027  14.364 -0.0484  0.1602 -0.1997
21644W        W36491  14.757   0.100  11.971  0.4536 -0.2579  0.2045
21645W        W36492   7.222   2.282  14.165  0.1695 -0.1137 -0.0102
21646W        W36493  11.184  17.868   2.596 -0.2048  0.2663  0.1708
21647W        W36494  16.786  15.147   2.606 -0.3491 -0.0943 -0.1532
21648W        W36495  14.040   9.162   5.158 -0.1980  0.1504 -0.3628
21649W        W36496  12.828  16.856   3.274  0.0024 -0.0867  0.0257
21650W        W36497   0.019   5.464   2.873  0.1328 -0.1979  0.1159
21651W        W36498  12.625  14.345  14.333  0.0215  0.0683 -0.0254
21652W        W36499   3.356  15.783   5.419 -0.1622 -0.1745  0.2091
21653W        W36500  15.629   2.415  13.899  0.3242  0.0587 -0.0417
21654W        W36501  17.100  17.423   0.602  0.0062  0.0174  0.0825
21655W        W36502  10.228   0.315   0.408 -0.0688 -0.0856 -0.0580
21656W        W36503  17.254  17.528  14.940  0.0756  0.0060 -0.3194
21657W        W36504   3.777   9.973  14.855 -0.0589 -0.2282  0.0160
21658W        W36505   0.390  10.816  13.413 -0.4060  0.3749  0.1464
21659W        W36506  15.513   6.502   3.371  0.3356 -0.0684 -0.0807
21660W        W36507  15.673   9.015   3.692  0.0142  0.1932  0.0008
21661W        W36508  16.124   1.318  12.628  0.1251 -0.0191  0.2541
21662W        W36509  12.006   9.593  13.654 -0.0708 -0.2146  0.0826
21663W        W36510  12.643   5.846  14.655  0.1774  0.1457 -0.0411
21664W        W36511  16.625  10.370  16.331  0.1216  0.0357 -0.0352
21665W        W36512  16.233   5.879  11.289 -0.0793 -0.1572  0.3009
21666W        W36513  12.388   5.483   5.859 -0.0553 -0.1700 -0.2093
21667W        W36514  13.081  11.835  16.729 -0.2956  0.0968  0.1150
21668W        W36515   4.952  17.409   2.360 -0.0514  0.0586 -0.1364
21669W        W36516   5.009   2.187  16.404  0.2897  0.0343  0.1720
21670W        W36517   8.503   5.024  15.871  0.0768  0.2493 -0.0962
21671W        W36518  13.086  16.895  16.465 -0.0711  0.2386 -0.0042
21672W        W36519  10.920   6.434   5.521 -0.1930 -0.2294  0.1189
21673W        W36520   4.039   4.178   1.517 -0.2484  0.0192  0.2416
21674W        W36521  13.757  16.559  13.792  0.0794  0.1539  0.5041
21675W        W36522   0.805  11.079  15.459 -0.1391 -0.3172  0.0179
21676W        W36523  16.235  16.620   4.324 -0.1645 -0.1534  0.2199
21677W        W36524  14.550  14.859  13.945  0.2203  0.1252  0.0886
21678W        W36525  17.246   3.826   4.205  0.1539 -0.0708  0.0189
21679W        W36526  14.808   9.705  16.553 -0.0683 -0.0047 -0.3044
21680W        W36527  11.401  13.765   1.454 -0.3720  0.3712 -0.0541
21681W        W36528  13.600  16.633  15.617  0.1631 -0.0258  0.2268
21682W        W36529  12.360  17.031  16.796 -0.0426  0.2144  0.0832
21683W        W36530   7.764   7.373   4.858 -0.0641  0.2526 -0.4130
21684W        W36531  16.278   4.039   0.231 -0.0517  0.0033  0.0956
21685W        W36532   0.431  17.395   3.468  0.1937  0.0530  0.0482
21686W        W36533  13.224  17.897  16.440  0.0486  0.1710 -0.1537
21687W        W36534   7.515   8.269   1.834 -0.0801 -0.0680  0.1899
21688W        W36535  15.248   3.704  10.980  0.0131 -0.1580 -0.2744
21689W        W36536  16.114   3.704  16.336  0.1703  0.2871  0.1406
21690W        W36537  13.991  14.596   1.716 -0.5025 -0.1036  0.2658
21691W        W36538  17.770   0.529  15.754 -0.3149 -0.3782  0.2814
21692W        W36539  16.999   9.136  15.002  0.0211 -0.2657  0.2887
21693W        W36540  13.551  14.120   3.508 -0.4633  0.4021  0.1805
21694W        W36541  10.817  11.356  14.685  0.0727  0.1111 -0.0549
21695W        W36542  17.013   5.172   2.988 -0.0647  0.2514  0.2252
21696W        W36543  11.810   1.780   4.003  0.0082 -0.1349  0.1903
21697W        W36544  13.913  11.706   0.103 -0.2925  0.0161  0.0158
21698W        W36545   2.915   7.851  13.790  0.2687  0.4689  0.0352
21699W        W36546   3.427   9.405   2.395  0.2723 -0.0025 -0.3034
21700W        W36547   2.434   9.022   4.655  0.0891 -0.0922  0.5065
21701W        W36548   6.651   2.462   1.627  0.2364  0.2337  0.0967
21702W        W36549  14.657  10.818   3.262 -0.1313 -0.0075 -0.0448
21703W        W36550  14.688  10.896  12.505  0.0033  0.1316  0.0262
21704W        W36551  14.027  16.263   4.650 -0.2222  0.0965  0.3073
21705W        W36552  17.081   0.113   2.722 -0.1666  0.1518 -0.0576
21706W        W36553  11.078  12.382   0.340  0.2817  0.2760  0.3095
21707W        W36554  14.235  16.328  14.283 -0.1074 -0.0656 -0.0061
21708W        W36555  14.230   7.516  12.689  0.1522  0.1589  0.0380
21709W        W36556  16.722  13.746  13.984  0.2595 -0.6832 -0.2422
21710W        W36557  11.961   5.232  16.378  0.1708  0.1553  0.3380
21711W        W36558   0.236   5.164   5.939  0.0473 -0.1333 -0.1476
21712W        W36559  16.202  10.266  12.669 -0.1028 -0.1719  0.0001
21713W        W36560   1.593  10.086   0.911  0.0245 -0.0362 -0.1829
21714W        W36561  12.702   1.781   2.569 -0.2330 -0.0618 -0.2555
21715W        W36562  15.196  16.645   4.359 -0.2072 -0.1487 -0.0527
21716W        W36563  10.887   4.847   5.469  0.0932 -0.0561  0.1407
21717W        W36564   1.546   9.973  12.403 -0.1991  0.1682  0.1636
21718W        W36565   0.804   7.038   4.763 -0.0257  0.2260 -0.1162
21719W        W36566  12.938  12.636   1.954  0.0524  0.1327  0.0443
21720W        W36567  15.295   2.278  13.117 -0.1717 -0.2470  0.0228
21721W        W36568  14.309  14.808  15.721 -0.2483 -0.0659 -0.1156
21722W        W36569   3.439  14.680  15.349 -0.3093  0.0646 -0.2178
21723W        W36570   3.005  15.739   5.010  0.0250 -0.1270  0.3664
21724W        W36571   7.656   6.112  12.236  0.0757  0.2189  0.0437
21725W        W36572  17.931   6.433  15.231  0.1207  0.0022 -0.1947
21726W        W36573  13.863  17.009   5.539 -0.0971  0.2015  0.1371
21727W        W36574   1.331   6.605   4.884 -0.1526  0.0180 -0.1317
21728W        W36575  13.457   2.009   1.067 -0.2510  0.0296  0.4226
21729W        W36576  11.754   5.155   3.654  0.1009  0.0762  0.1517
21730W        W36577  15.234   1.926   0.905 -0.4259  0.0090 -0.0507
21731W        W36578  15.818   4.524  14.800  0.0982 -0.2338 -0.0230
21732W        W36579  14.137   3.571   2.896 -0.1385 -0.0038  0.2986
21733W        W36580  14.505  11.758  15.068  0.2521  0.1698 -0.0611
21734W        W36581  11.102  14.145  12.690  0.2087  0.0611 -0.1685
21735W        W36582   0.119   0.841  14.762  0.4661 -0.0235  0.1792
21736W        W36583  16.589  17.351   3.505  0.3853 -0.2257  0.1564
21737W        W36584  10.121  16.960   1.632 -0.2653  0.2509  0.0926
21738W        W36585  11.309   3.799   2.626  0.1410  0.2800  0.3446
21739W        W36586  10.371  10.478  12.108  0.0624 -0.0957  0.0489
21740W        W36587  11.822   7.774  16.390  0.0279  0.2466 -0.1549
21741W        W36588  17.942  14.793   2.542 -0.1289  0.2198 -0.0080
21742W        W36589  16.905   1.449   3.052  0.0994 -0.1465 -0.3213
21743W        W36590  12.053   2.895   4.043  0.3042 -0.0037 -0.0262
21744W        W36591  16.186   2.969   1.863  0.1239  0.0473 -0.0345
21745W        W36592  17.762   3.838   3.701  0.0706  0.2097 -0.0991
21746W        W36593  11.373   8.087  11.269 -0.0183  0.0356 -0.0500
21747W        W36594  15.877   7.158  10.955  0.3702  0.0575  0.0282
21748W        W36595   9.294   7.833  15.838  0.0233 -0.0213  0.1515
21749W        W36596  17.947  11.746   6.017 -0.3064  0.2294  0.2033
21750W        W36597  11.244   1.941   4.370  0.3708  0.0410 -0.1786
21751W        W36598  11.440   7.148   6.447 -0.0777 -0.1016  0.1488
21752W        W36599  17.848   9.492   2.137  0.0244 -0.0310  0.0915
21753W        W36600  17.029   6.354   5.036 -0.2381 -0.0480  0.0456
21754W        W36601   9.267   1.201  16.499 -0.0865  0.2501  0.0164
21755W        W36602  13.047  14.916  16.335  0.0856  0.0215 -0.1671
21756W        W36603  16.417   0.306   2.587 -0.1807 -0.0691 -0.0807
21757W        W36604  11.629  14.951  12.107  0.0694 -0.1106 -0.0573
21758W        W36605  12.406   4.726   2.418  0.0625 -0.0254  0.0875
21759W        W36606  12.311   0.590   3.568  0.0307  0.0490  0.1557
21760W        W36607   9.591  10.960   1.527 -0.0993 -0.2846  0.0179
21761W        W36608   2.210  13.937  12.535 -0.1245 -0.1758  0.2126
21762W        W36609  15.082  17.293  10.661  0.1716  0.0536  0.0600
21763W        W36610  13.185   5.329  11.529  0.1206  0.1605 -0.3221
21764W        W36611   4.363  11.621  10.943 -0.1898  0.3752  0.4313
21765W        W36612  17.058  11.511  10.830  0.0994  0.1866  0.0312
21766W        W36613  14.238  11.322   3.799  0.1569  0.2740  0.0692
21767W        W36614  12.203   2.448  13.376  0.0497 -0.1995  0.0105
21768W        W36615  11.701   7.614  11.708  0.1345  0.0937 -0.3087
21769W        W36616  16.110  13.878   1.239  0.2872 -0.1556 -0.1053
21770W        W36617  11.864   1.641  15.328  0.0468  0.0997  0.0457
21771W        W36618   4.087   3.762   1.205 -0.3911  0.1709 -0.2273
21772W        W36619   8.857   8.022   2.400 -0.0773  0.0733 -0.1270
21773W        W36620   1.582  12.690   4.561 -0.0131 -0.2507  0.0488
21774W        W36621  14.522   3.926  13.564  0.4975 -0.1998  0.0804
21775W        W36622  13.725   5.082  14.310  0.2139  0.0383 -0.1141
21776W        W36623   2.228  12.704   1.065  0.2502 -0.0827 -0.2715
21777W        W36624  17.753  14.755  12.369  0.0453 -0.2134 -0.2538
21778W        W36625  12.722  17.245   3.979 -0.1521  0.2569 -0.1734
21779W        W36626   3.289   6.735  13.273 -0.0579  0.2966 -0.1401
21780W        W36627  14.619   5.444   5.785 -0.0483  0.2352  0.0457
21781W        W36628  14.277   2.390   0.637  0.0247 -0.0035  0.0352
21782W        W36629  12.207  13.520   3.462 -0.0174  0.2497 -0.2001
21783W        W36630   4.466  15.238  11.693 -0.0500  0.0955 -0.1497
21784W        W36631  12.789  11.099   1.847 -0.1003  0.1331 -0.0628
21785W        W36632  15.945   9.959   2.798 -0.2045 -0.4440  0.1343
21786W        W36633  12.057  15.532   3.289  0.5252 -0.3690  0.2132
21787W        W36634   5.087   6.286  14.094  0.3340  0.1673 -0.2065
21788W        W36635  16.836  15.628  15.990 -0.1557 -0.1424  0.0811
21789W        W36636   0.656  17.964   5.444  0.0821  0.0802 -0.3126
21790W        W36637  14.339  14.230   5.033 -0.1603 -0.1642  0.0532
21791W        W36638  13.877  14.408  12.139 -0.0783 -0.1262  0.0487
21792W        W36639  14.049   2.775  12.968 -0.0527 -0.4021  0.2256
21793W        W36640  16.408   0.809  13.321  0.0558 -0.0345  0.1707
21794W        W36641   2.171   8.831  15.677 -0.1843  0.3222  0.0148
21795W        W36642   2.125   4.593  15.817 -0.3408  0.2138  0.0791
21796W        W36643  13.491  15.671   2.963  0.1482 -0.1464  0.1685
21797W        W36644  13.385   3.612   5.255 -0.0940  0.2265 -0.3701
21798W        W36645   8.217  16.477   3.341  0.2243  0.1790 -0.1702
21799W        W36646  13.235   7.377   0.386 -0.2146  0.2013 -0.1188
21800W        W36647  15.475   4.236  13.572  0.0150  0.0349 -0.3572
21801W        W36648   9.719   7.036  16.478 -0.1446 -0.3623  0.0852
21802W        W36649   8.757   4.594  15.880  0.2236 -0.0347  0.1634
21803W        W36650  10.663   0.445  15.296 -0.2565 -0.1123 -0.0224
21804W        W36651  13.259   2.507   2.863  0.1823  0.1084 -0.2074
21805W        W36652  17.937   2.938  11.560  0.1154 -0.0229 -0.2605
21806W        W36653   8.925   0.041  11.865 -0.0364 -0.0330 -0.3322
21807W        W36654  12.570  10.423  13.685 -0.0496 -0.0046  0.3720
21808W        W36655  17.292   6.653   0.883 -0.4048  0.2955 -0.0066
21809W        W36656   8.414  15.769  15.061  0.1901  0.1287  0.2133
21810W        W36657  10.535   8.575   6.866  0.3863  0.3294  0.2279
21811W        W36658   2.429   6.037  14.273  0.2309 -0.0372 -0.1971
21812W        W36659   3.276   1.036  12.197 -0.1875  0.2766 -0.2277
21813W        W36660  16.639   7.633  16.239  0.2502 -0.0158  0.2097
21814W        W36661  12.167   5.833  13.261  0.0289  0.0916  0.0825
21815W        W36662  11.684   2.854  12.423 -0.0593 -0.1991 -0.0684
21816W        W36663  10.747   8.127   4.276 -0.0630 -0.2379  0.0199
21817W        W36664   3.614  12.657   3.709  0.1247  0.2226 -0.1521
21818W        W36665  16.030  11.379   2.527  0.0555 -0.0859  0.2004
21819W        W36666  14.882  16.145   0.855 -0.2051  0.0595 -0.1594
21820W        W36667  10.589   4.388   2.721  0.0574  0.2253  0.2076
21821W        W36668  14.989  12.223  16.664 -0.0133 -0.0549  0.2381
21822W        W36669  11.225  14.992   6.770 -0.3794  0.0057  0.1253
21823W        W36670  11.707  12.834  15.921  0.1430  0.0829  0.0743
21824W        W36671   1.069  15.078   0.487  0.0792  0.0807 -0.0212
21825W        W36672  11.662  10.167  13.573 -0.1449  0.1659  0.0316
21826W        W36673  13.956   9.401  12.925 -0.0285 -0.0281 -0.0793
21827W        W36674   8.792   6.544   5.362 -0.1160 -0.2738  0.0327
21828W        W36675  13.322   3.513  16.712  0.1340  0.0910  0.1592
21829W        W36676  13.613   8.457  14.492  0.0108  0.1952 -0.1370
21830W        W36677  13.296  10.595   2.033  0.1017  0.4423 -0.0349
21831W        W36678  16.932   8.182  15.290  0.1687  0.1054  0.0289
21832W        W36679  12.901   1.960  13.167 -0.0506 -0.0455 -0.0991
21833W        W36680  15.103  15.780   5.968  0.2122 -0.0467  0.3129
21834W        W36681   0.268   0.902  16.301  0.1051  0.0744 -0.3086
21835W        W36682  17.411   2.823  14.322 -0.3083 -0.2079 -0.2298
21836W        W36683   1.627   4.021   0.414  0.1654  0.1204 -0.2931
21837W        W36684  16.616   9.538  11.432 -0.2546  0.2578 -0.2078
21838W        W36685   4.576  16.868   0.101  0.1090 -0.1869 -0.2161
21839W        W36686  12.264  11.586   1.089  0.2310 -0.3155 -0.0782
21840W        W36687  14.199   6.808  13.325 -0.0910  0.1579 -0.0233
21841W        W36688  13.041  17.126  14.341 -0.1418  0.1130  0.0575
21842W        W36689  11.635   2.183   3.244  0.0193 -0.0413 -0.1047
21843W        W36690  12.275   2.191   0.303 -0.2959 -0.0203 -0.1563
21844W        W36691   9.963  16.568  16.854  0.0646 -0.0294  0.3480
21845W        W36692  15.330   9.141   2.072 -0.2200  0.0868 -0.1207
21846W        W36693  11.061  12.169   3.981  0.3036 -0.1820  0.1219
21847W        W36694  11.222  12.354   2.431  0.1109 -0.0844  0.0545
21848W        W36695   8.346   0.644  15.175  0.2788  0.3522  0.0983
21849W        W36696  15.802  17.814  16.364  0.1334 -0.2462  0.0064
21850W        W36697  13.455   9.874   4.980 -0.0795 -0.1282  0.2005
21851W        W36698  17.177   4.765   2.651  0.2315 -0.0149 -0.0089
21852W        W36699  15.666   9.729   1.753  0.1843  0.0005  0.1506
21853W        W36700   8.011  12.061  14.372  0.0138  0.1142  0.3583
21854W        W36701  11.747  10.723   1.143  0.0244 -0.2660 -0.3013
21855W        W36702  16.520   9.090  16.242 -0.3662  0.2293  0.3205
21856W        W36703  12.306   0.314  11.570 -0.2426 -0.1351  0.0490
21857W        W36704  12.899  10.109  12.220 -0.0603  0.1106  0.1483
21858W        W36705  15.690  16.192   1.220  0.0767 -0.0736 -0.0995
21859W        W36706  13.017   1.457  12.991 -0.1947  0.1878  0.1028
21860W        W36707  10.323   7.922  13.533  0.4058 -0.3243 -0.2899
21861W        W36708   1.485   5.431   2.983 -0.2157 -0.0475  0.2649
21862W        W36709   3.513   5.635   1.174 -0.0859 -0.2238 -0.1352
21863W        W36710   8.380   3.947  16.975 -0.1236  0.1926 -0.1862
21864W        W36711   1.484  11.001  15.304 -0.5179 -0.1197  0.2499
21865W        W36712   4.148  15.353   0.576  0.0160 -0.1501  0.0665
21866W        W36713  17.615   6.156  14.967 -0.0663  0.2147  0.1418
21867W        W36714   3.014  11.247   1.047  0.2615 -0.0062 -0.0215
21868W        W36715  10.478  16.778  11.515  0.0088  0.0469  0.0593
21869W        W36716  14.335  10.021  15.084  0.2772 -0.0956 -0.0957
21870W        W36717   8.364   9.004   1.765  0.0123 -0.1733 -0.2008
21871W        W36718   9.281   1.359   0.640 -0.0032  0.1675  0.1641
21872W        W36719  15.285  12.634  10.519  0.1689 -0.2090 -0.1620
21873W        W36720  12.366  16.852  15.146  0.1176  0.0599  0.4156
21874W        W36721   1.775  16.546  11.752 -0.1167  0.0091 -0.0033
21875W        W36722   9.875  14.581  12.341 -0.4243  0.0099 -0.0286
21876W        W36723   0.205  12.478  12.025  0.1139  0.1206 -0.2705
21877W        W36724  14.846  10.399   4.874  0.2483  0.1225 -0.1213
21878W        W36725   3.601  12.711   1.328  0.0633  0.0076  0.0906
21879W        W36726   3.017   9.259  13.919  0.2254 -0.2078 -0.0102
21880W        W36727   5.568   5.422  12.554  0.0201 -0.0670  0.1441
21881W        W36728  12.069  15.721  13.085  0.2515 -0.4105  0.1281
21882W        W36729  10.710   2.882  11.634  0.1462 -0.3045  0.0292
21883W        W36730  12.243   8.401  14.400  0.1044  0.0440  0.2755
21884W        W36731  16.616  17.630  12.371  0.0699 -0.2210  0.0264
21885W        W36732  11.031   7.529   2.874 -0.0126 -0.3136  0.2495
21886W        W36733   2.808  11.790   4.411  0.1393 -0.2718 -0.1064
21887W        W36734   2.314  10.841   5.041  0.2474 -0.1257 -0.2243
21888W        W36735  13.992   9.032   0.561 -0.1182  0.0445 -0.1657
21889W        W36736  16.469   8.205   1.711 -0.0362 -0.0249  0.3187
21890W        W36737   0.340   0.200   0.665  0.2723  0.2724 -0.0238
21891W        W36738  11.306   5.413   0.252 -0.1753 -0.2493 -0.1989
21892W        W36739  14.753  14.165  15.698 -0.0739 -0.0196 -0.2869
21893W        W36740  14.438   9.558   0.972  0.4258 -0.0580  0.2961
21894W        W36741  15.751   0.795  16.026  0.0680  0.1102  0.1883
21895W        W36742  15.922  15.351  16.145 -0.1082 -0.0322  0.0651
21896W        W36743   8.097   0.407   3.182 -0.0001 -0.1944  0.0094
21897W        W36744  17.038   2.212  12.215  0.3920  0.0007 -0.0983
21898W        W36745   0.019   7.982   5.934  0.0102 -0.0241  0.2206
21899W        W36746   1.083  13.101  16.364 -0.0171 -0.4423  0.0538
21900W        W36747  12.736   2.204  10.973  0.1447 -0.4201 -0.4141
21901W        W36748   8.313   3.928   1.910 -0.1283 -0.0621  0.1156
21902W        W36749  15.674   7.638  11.718 -0.1391  0.0965  0.0774
21903W        W36750  15.706  12.062   3.178 -0.1940  0.0027  0.1587
21904W        W36751  11.211   8.117  11.781  0.0611  0.2211 -0.2803
21905W        W36752  17.724  10.817  15.630 -0.3092 -0.0826  0.0619
21906W        W36753  14.131  14.851  15.248  0.1296 -0.0312 -0.0713
21907W        W36754  16.822  15.343   0.335 -0.2188 -0.1675 -0.0872
21908W        W36755  15.566   6.953  12.311 -0.2591  0.0420 -0.1201
21909W        W36756   5.928   9.101  15.145 -0.1391 -0.1169 -0.2040
21910W        W36757  16.144   1.814   3.398  0.1385 -0.0634  0.0921
21911W        W36758  11.852   8.637   2.927 -0.0874 -0.0708  0.1722
21912W        W36759  17.194   3.534  16.350 -0.0168 -0.1110  0.1386
21913W        W36760  12.865   2.808   6.224 -0.1017  0.0798  0.1035
21914W        W36761  16.693  14.083  12.133  0.0484  0.4616  0.0564
21915W        W36762  17.863   7.048  12.392  0.2423 -0.0399  0.1903
21916W        W36763  13.706  10.185  15.661  0.2255 -0.2050 -0.1997
21917W        W36764   8.919  12.614  12.857  0.0676  0.0391 -0.0869
21918W        W36765  13.136   9.746  13.367 -0.1494  0.0121 -0.0445
21919W        W36766   5.932  14.298   2.374 -0.0394 -0.0739  0.0403
21920W        W36767   4.862   8.961  16.114 -0.0818 -0.1725 -0.2496
21921W        W36768   0.853  10.068   6.165 -0.0128 -0.2228  0.3648
21922W        W36769  10.624   5.596   3.850 -0.3915  0.2244  0.1656
21923W        W36770  11.141   9.696   1.912 -0.0931  0.1270 -0.2349
21924W        W36771  14.005   8.626   5.274 -0.0470  0.0179 -0.0534
21925W        W36772  14.067   5.218  14.674 -0.1067  0.1520 -0.2765
21926W        W36773   3.483   3.757   1.227 -0.0688 -0.0066 -0.2002
21927W        W36774   0.829  10.040   4.321  0.0344  0.0702 -0.0328
21928W        W36775  13.049  11.525  14.740  0.0104  0.4601  0.0734
21929W        W36776   0.975  15.914   3.131  0.0344  0.0008 -0.2457
21930W        W36777  17.284   4.556  12.758 -0.0893  0.0245 -0.0104
21931W        W36778  11.197  11.779   7.156 -0.0345 -0.1518 -0.3358
21932W        W36779  10.646  11.030  16.490 -0.2937  0.0417 -0.3009
21933W        W36780  12.383   6.611   0.503 -0.0496 -0.3000  0.1426
21934W        W36781   4.140   1.991   3.517  0.0802  0.0772 -0.0817
21935W        W36782  11.060  16.719  12.092  0.0211  0.0972  0.2090
21936W        W36783  13.896   2.042  14.158 -0.3209 -0.2326  0.1029
21937W        W36784   6.737   4.864  13.514 -0.0626  0.1050 -0.0733
21938W        W36785  16.171  13.933   1.768  0.0939 -0.0489  0.0306
21939W        W36786   9.604   1.399   2.010  0.0032  0.1150 -0.2468
21940W        W36787  16.706   8.097  14.861 -0.1052  0.5488 -0.2920
21941W        W36788  13.394   9.526  15.379 -0.0398 -0.0245  0.0182
21942W        W36789   9.716  16.233   4.804 -0.2149  0.1334  0.0234
21943W        W36790  10.115  10.082  13.013 -0.1940  0.2163 -0.3259
21944W        W36791  12.155  17.300  11.450  0.0874  0.2798  0.0754
21945W        W36792  17.276   9.915  12.773  0.0463 -0.1707  0.1003
21946W        W36793  14.097   3.060   5.495 -0.0937 -0.4391 -0.2353
21947W        W36794   1.308   2.619   2.417 -0.0963 -0.1031 -0.0154
21948W        W36795  12.537   0.530   0.516  0.2899 -0.0583  0.0426
21949W        W36796   0.124   9.277  13.562  0.0581  0.3632  0.2154
21950W        W36797  14.784   6.206   1.353 -0.0846 -0.0715 -0.1901
21951W        W36798  16.618   6.963  16.840  0.0997  0.1465  0.1444
21952W        W36799  12.784   0.419   3.758  0.2760  0.0931 -0.0374
21953W        W36800  16.293   3.129  13.715 -0.0747 -0.0505 -0.0783
21954W        W36801   9.371  17.979   1.788  0.2863  0.0531 -0.1071
21955W        W36802   0.134   8.217   2.743  0.0132 -0.0664  0.0714
21956W        W36803  16.982   0.517   1.815  0.1288  0.3303 -0.1824
21957W        W36804  12.545   3.705   6.343 -0.0697  0.0454 -0.1253
21958W        W36805  13.356   0.386  15.033 -0.1107 -0.3218  0.0909
21959W        W36806  11.200   1.883  13.400  0.0837  0.0398  0.3508
21960W        W36807  17.754   5.144  12.483  0.0132 -0.1813 -0.0242
21961W        W36808  16.368  14.055  16.407 -0.1862 -0.0207  0.0280
21962W        W36809   5.871  12.411  16.287 -0.1338  0.3455  0.0461
21963W        W36810  14.039  10.438  16.115  0.1108 -0.0833  0.1008
21964W        W36811   3.270  15.995  14.672  0.0554 -0.1831  0.0342
21965W        W36812  12.057  14.671  13.204 -0.1290  0.0411 -0.0650
21966W        W36813  10.630  11.254   6.225 -0.1760  0.0150  0.2520
21967W        W36814  15.566   0.331   1.065 -0.2122 -0.1466  0.0132
21968W        W36815  15.173  15.608   0.452  0.0287 -0.3061  0.1244
21969W        W36816  13.631   6.328  12.733 -0.0922  0.3422 -0.1369
21970W        W36817  12.832  12.020  14.506 -0.0087  0.1470 -0.0742
21971W        W36818  14.576   8.845   5.911  0.0313  0.1937  0.2774
21972W        W36819  11.290   8.360   0.341 -0.0535 -0.2711  0.5190
21973W        W36820  11.652   5.110   0.093  0.0581 -0.1403 -0.2179
21974W        W36821   7.107  15.464  16.820 -0.3261  0.0996 -0.2716
21975W        W36822  15.422   3.176  11.564  0.0646 -0.1135 -0.3411
21976W        W36823   9.673   5.878  15.507 -0.1092  0.3151 -0.2750
21977W        W36824  15.416   4.081   2.747 -0.2471  0.1677  0.2889
21978W        W36825   1.761   3.381   0.996  0.0461 -0.0015  0.4185
21979W        W36826   1.956   6.097   0.263 -0.1897  0.2109 -0.2108
21980W        W36827  16.309  10.139  11.622 -0.1143  0.1084  0.0463
21981W        W36828  17.939   8.815  11.572 -0.0555  0.1263  0.0349
21982W        W36829  14.979   5.252   1.737  0.0084 -0.0129 -0.0417
21983W        W36830  13.298   5.576   4.912 -0.0338 -0.2587  0.0503
21984W        W36831  16.785  16.718   4.233  0.0267 -0.0247 -0.1733
21985W        W36832  12.597  13.387  15.698  0.1066 -0.1053  0.3172
21986W        W36833  16.227   8.759   3.233  0.0680  0.1196 -0.0979
21987W        W36834  10.149   9.003  15.638  0.0199 -0.1577  0.1254
21988W        W36835   1.078   8.657   3.852  0.2204 -0.0041 -0.0085
21989W        W36836  17.361  11.090  15.815  0.1998  0.0121 -0.3463
21990W        W36837   7.016   5.516  12.442  0.0796 -0.1718 -0.0796
21991W        W36838   7.689  15.479  12.255  0.2867  0.3476 -0.1580
21992W        W36839   4.429  17.057  14.812  0.1154  0.1284 -0.2059
21993W        W36840   7.885   3.845  16.791  0.0482 -0.3984 -0.1339
21994W        W36841  12.318  12.802   4.960  0.3711 -0.1388  0.1420
21995W        W36842  11.715  15.564   6.343 -0.2408 -0.4455 -0.1914
21996W        W36843  14.145   0.479   5.644 -0.1545 -0.0724  0.2008
21997W        W36844  10.055   2.595   2.423  0.0338  0.1178 -0.2187
21998W        W36845  14.976   8.302  15.057 -0.1890 -0.1804  0.0341
21999W        W36846  14.968   7.370   2.198 -0.2286  0.2473  0.1465
22000W        W36847  14.548  14.059  13.054 -0.0986  0.1775 -0.2069
22001W        W36848  14.768  15.288   4.105  0.1220  0.0386  0.2098
22002W        W36849   4.850  14.790  13.023  0.4331  0.1034  0.2770
22003W        W36850   0.685  13.352   5.903  0.1960  0.0222  0.0359
22004W        W36851   7.276  11.351  16.036 -0.3022  0.0539 -0.1038
22005W        W36852  14.704   1.241   1.769  0.2199  0.2517 -0.1693
22006W        W36853   9.906   4.929   3.581 -0.1674  0.0572  0.2390
22007W        W36854  16.907  16.639  14.245  0.2314 -0.2882  0.2368
22008W        W36855  12.549  13.774   2.420  0.1171 -0.0030 -0.2652
22009W        W36856   9.226   3.060   3.605 -0.1252  0.0310 -0.0308
22010W        W36857  16.885   3.552   5.175  0.2689 -0.2484  0.2808
22011W        W36858   9.646   9.655  12.188 -0.0618  0.0191 -0.1056
22012W        W36859  10.969   3.465  12.233 -0.0738  0.1104  0.0186
22013W        W36860  11.456   1.777   4.806  0.1455  0.2006 -0.1406
22014W        W36861   0.873  17.824  13.602  0.0608  0.0171  0.0467
22015W        W36862   7.318  16.945  14.841  0.1060  0.1101  0.3889
22016W        W36863  12.628   3.093  12.439  0.0968  0.0129 -0.0823
22017W        W36864  16.787  10.926  13.852 -0.1537 -0.0630 -0.1245
22018W        W36865  13.275  12.466   1.593  0.2055 -0.1656  0.0656
22019W        W36866  15.814  15.098  16.703  0.1333 -0.0413  0.0028
22020W        W36867   8.234   9.316   6.418 -0.0476 -0.0304 -0.0060
22021W        W36868  12.790  12.034  15.002 -0.0318  0.1162 -0.2603
22022W        W36869  17.486   8.945   1.902 -0.1647  0.0086 -0.0403
22023W        W36870  12.933   5.333  15.984 -0.1365 -0.1495 -0.0079
22024W        W36871  17.871   4.257   6.050 -0.0951  0.1086  0.1721
22025W        W36872  12.851  10.010  15.178 -0.1749 -0.2294 -0.3627
22026W        W36873  15.637  16.246   4.186  0.0123 -0.1844 -0.0899
22027W        W36874  15.318   1.148   5.380  0.0002 -0.1372  0.0387
22028W        W36875  11.430   5.466   1.884 -0.0894  0.0092  0.4624
22029W        W36876   2.634   8.597   4.680  0.3479  0.3122 -0.0589
22030W        W36877  17.390   9.343  11.931  0.0049 -0.0173  0.2278
22031W        W36878  17.623   8.921   5.613 -0.1315  0.1963 -0.0075
22032W        W36879  12.920  16.130  13.634  0.0473  0.0245 -0.2311
22033W        W36880  13.556  13.301  10.094 -0.0189 -0.0267  0.2331
22034W        W36881   2.049   9.272  16.034 -0.0765  0.0148  0.1836
22035W        W36882  11.911  13.332  13.711 -0.2122  0.0919  0.0905
22036W        W36883   0.106   8.585   4.288 -0.0525 -0.0163 -0.5140
22037W        W36884  10.842   3.011   1.951 -0.3988 -0.1465  0.0330
22038W        W36885  15.382   5.969  15.894  0.1642 -0.3687 -0.1180
22039W        W36886   9.656   4.481   4.718 -0.1592  0.0203 -0.0895
22040W        W36887  15.335   4.575  11.877  0.0272  0.2264 -0.0571
22041W        W36888  15.786   0.501   3.169  0.0216  0.0836  0.0723
22042W        W36889  11.786   4.244  13.018 -0.0059  0.0166  0.3392
22043W        W36890   1.050   6.668  17.056  0.4541 -0.1945 -0.1449
22044W        W36891  10.905   7.910  14.882  0.0704  0.1891 -0.1162
22045W        W36892   9.416   6.277   0.221  0.2392  0.0570  0.1576
22046W        W36893  17.476  12.583   1.475 -0.1117  0.0639  0.1739
22047W        W36894  15.499   4.005   2.219 -0.1464 -0.1288 -0.2841
22048W        W36895  13.085   5.887   0.016  0.0763 -0.0648  0.1616
22049W        W36896  13.952  17.004  12.452 -0.0110  0.2543 -0.0769
22050W        W36897   3.901  14.126   1.903 -0.1667 -0.1728  0.4108
22051W        W36898   6.896   0.431   0.158  0.1716  0.2634 -0.2005
22052W        W36899   2.255  13.136   5.528 -0.0991  0.0602  0.0485
22053W        W36900  13.264   7.697  14.705  0.2831  0.4986  0.0409
22054W        W36901   1.317  15.180  16.752 -0.1529  0.1233  0.1448
22055W        W36902   5.323   0.650  12.635 -0.0065  0.0135  0.0155
22056W        W36903   1.594  14.793  14.772  0.3194 -0.1614 -0.2088
22057W        W36904   9.989   3.765  17.064 -0.0010  0.0405  0.2033
22058W        W36905  10.475   3.712  11.920 -0.0795  0.1055  0.1245
22059W        W36906   7.975  12.441   2.512  0.1697 -0.0975  0.1140
22060W        W36907   8.635   5.071  15.109 -0.0117  0.2037 -0.1258
22061W        W36908   0.870   8.301   5.965  0.1604 -0.2782  0.2464
22062W        W36909  15.085   3.499   6.073 -0.0715  0.1660  0.1767
22063W        W36910  13.341  14.494  13.606 -0.0047 -0.2012 -0.1317
22064W        W36911   4.903   9.544  12.792 -0.0632  0.0035  0.0761
22065W        W36912   8.656  15.136  12.462 -0.2218  0.1531 -0.1876
22066W        W36913  17.436  14.693   2.486  0.2573  0.4434 -0.2751
22067W        W36914  10.786   3.105  13.665 -0.2926 -0.1805  0.0480
22068W        W36915   0.351  12.392  13.342  0.0967  0.0642 -0.4037
22069W        W36916   0.519   7.036   1.787 -0.1226 -0.2556  0.1839
22070W        W36917  14.102   2.171  10.687  0.0079 -0.0987 -0.2021
22071W        W36918  17.547   5.698   5.166 -0.0802 -0.0883 -0.1704
22072W        W36919  11.015  10.643  13.988 -0.0571  0.0267 -0.1012
22073W        W36920  10.544  17.746   0.834 -0.0885 -0.0389 -0.0566
22074W        W36921  16.551   0.863   0.440 -0.0399 -0.5384  0.1151
22075W        W36922  11.109   5.019   5.908  0.3334  0.0168 -0.1064
22076W        W36923  14.269   6.318  16.615 -0.3253  0.4356 -0.1168
22077W        W36924   4.686  12.169   3.911 -0.1895  0.2369 -0.0591
22078W        W36925  14.633  16.634  14.160 -0.0678 -0.1496  0.1744
22079W        W36926   7.235   6.575   1.945 -0.1560  0.2402 -0.1809
22080W        W36927   7.736  11.499   2.178  0.0419  0.2492  0.4888
22081W        W36928  15.274   1.769   3.364 -0.2483 -0.1318 -0.0432
22082W        W36929  13.226   4.161  16.004  0.1452 -0.3181  0.0689
22083W        W36930  15.652  11.863  15.765  0.1383  0.0362  0.0927
22084W        W36931  13.852  12.114  13.875 -0.2161 -0.0667 -0.1358
22085W        W36932  11.302   1.772   0.471  0.1234 -0.1076 -0.3145
22086W        W36933   0.778  10.300   5.178 -0.0950 -0.4230  0.0346
22087W        W36934  11.112  15.417   0.760 -0.0719  0.2221 -0.0901
22088W        W36935   2.792  15.907  11.882 -0.1886  0.2406 -0.1449
22089W        W36936  16.456   9.877  16.930  0.1190 -0.0927  0.1162
22090W        W36937   9.660   9.344   1.707  0.1423 -0.1462 -0.3077
22091W        W36938  12.473   2.066  16.482 -0.2514  0.0179  0.0770
22092W        W36939  11.032  11.672   0.688  0.2150 -0.1702 -0.2547
22093W        W36940   9.680  14.061  11.602  0.2437 -0.2493  0.0501
22094W        W36941  10.934  11.071   1.336 -0.2596  0.1080 -0.1118
22095W        W36942   9.508   8.207   4.636 -0.0913 -0.0039 -0.0091
22096W        W36943  14.304   0.116   5.229 -0.0006 -0.1651 -0.1861
22097W        W36944  14.842  17.275  12.895  0.1433 -0.0408 -0.1124
22098W        W36945  17.773  16.425  11.475  0.1634  0.1963 -0.0944
22099W        W36946   9.825   5.144  14.643  0.3541 -0.2795 -0.2676
22100W        W36947   7.924   6.953  16.721 -0.0556 -0.1204 -0.1968
22101W        W36948   8.599  14.477   5.028  0.0094  0.0261  0.1290
22102W        W36949   6.359   2.789  13.551  0.0920  0.1808  0.1237
22103W        W36950  17.097   9.447  13.626  0.0329 -0.0815  0.1002
22104W        W36951   8.024   5.606  16.276  0.1457  0.0436 -0.0633
22105W        W36952  14.957   5.860   2.931 -0.0056  0.2352  0.1178
22106W        W36953  14.443  10.627  12.932 -0.0370 -0.1730 -0.0879
22107W        W36954  16.070   0.259  15.934  0.1579  0.0242 -0.1376
22108W        W36955  10.325  17.942   0.137 -0.0425  0.3226 -0.1021
22109W        W36956  12.886  14.526  11.129  0.3684 -0.4182  0.0662
22110W        W36957  14.744   3.434  14.494  0.1135 -0.2017  0.1981
22111W        W36958   7.861  11.208   3.788  0.1157 -0.2616 -0.2115
22112W        W36959  12.804   7.637  11.535 -0.0965 -0.2407  0.0551
22113W        W36960  11.766   0.718  14.741 -0.0111  0.2162 -0.1474
22114W        W36961   7.322   9.011   6.792  0.0522  0.0844 -0.0335
22115W        W36962   8.358   8.002  13.508  0.2758  0.0482 -0.4824
22116W        W36963   3.475  10.022   0.501  0.1378 -0.0992 -0.0037
22117W        W36964   1.880   6.583  15.861 -0.3010  0.1754 -0.0528
22118W        W36965   3.653  10.169   2.395 -0.0975  0.1051  0.2293
22119W        W36966  14.088   3.342  10.462 -0.2557  0.0598  0.0692
22120W        W36967  14.204   6.560  14.582 -0.1001 -0.0217 -0.2063
22121W        W36968   8.588   5.074   3.226  0.2475 -0.1395 -0.0114
22122W        W36969  12.338   5.085   3.413  0.1384 -0.0968 -0.2531
22123W        W36970   9.169   4.201  16.359 -0.1093 -0.1202 -0.1116
22124W        W36971   9.111   8.457   2.436  0.1703  0.1342 -0.2695
22125W        W36972  11.430  17.587   5.145  0.0236  0.1956 -0.1424
22126W        W36973  13.342   1.088   1.401  0.1097  0.0115  0.1808
22127W        W36974  12.407  10.580   2.951  0.2790 -0.0235 -0.2646
22128W        W36975   8.201  10.856   1.610  0.1627 -0.0218  0.0364
22129W        W36976   4.539   0.819   7.034 -0.1321  0.1136 -0.1583
22130W        W36977  13.953  17.964   4.556 -0.0367  0.0300 -0.1541
22131W        W36978  13.484  17.710   2.712 -0.3240 -0.1073 -0.0490
22132W        W36979  12.174   2.199   2.472  0.3274  0.0523 -0.0115
22133W        W36980  16.218   9.902  16.399  0.0805  0.0411 -0.1082
22134W        W36981   6.453  12.836   3.046  0.1290 -0.2261 -0.1509
22135W        W36982  10.474  12.829  15.324  0.0090 -0.0375  0.3520
22136W        W36983  13.918   4.037   3.096 -0.3559  0.1912  0.3575
22137W        W36984  15.013  15.718   4.855 -0.0406 -0.1269  0.0527
22138W        W36985  12.151   6.448   5.058 -0.1092  0.3041 -0.0153
22139W        W36986  17.456   0.349   0.742 -0.2955  0.0904  0.1392
22140W        W36987  13.473  15.701   2.052 -0.0587  0.0303  0.3270
22141W        W36988   9.640   8.574   1.040  0.2257 -0.2949  0.0659
22142W        W36989   9.091  14.207   1.775  0.1910 -0.0045  0.3625
22143W        W36990  14.595  11.689  11.462  0.2767  0.3676 -0.1507
22144W        W36991  11.857  15.351   3.759  0.1191  0.2634  0.0639
22145W        W36992  14.263  13.496   0.681 -0.0808  0.0764  0.0785
22146W        W36993   1.672   4.207  15.739 -0.0295 -0.4883 -0.1837
22147W        W36994  15.409  16.756   1.637  0.0264  0.1852 -0.0405
22148W        W36995  16.770   7.953   2.928 -0.2371  0.3243  0.2451
22149W        W36996   4.894   7.566  15.068  0.2240  0.0243 -0.0491
22150W        W36997  15.347   8.620  15.291  0.0889 -0.2942 -0.0317
22151W        W36998   4.238  12.650   0.126 -0.0300 -0.2263 -0.1282
22152W        W36999  13.619  12.780   1.054  0.0430 -0.1750  0.0328
22153W        W37000  17.971  17.019  14.746  0.1214  0.1465  0.1305
22154W        W37001  10.093  17.692   3.975 -0.0368 -0.1061 -0.0692
22155W        W37002  11.618   4.245   4.047  0.3319  0.1394  0.1022
22156W        W37003   4.022   5.283   3.916  0.1185  0.0497  0.1888
22157W        W37004   0.960   4.023  13.656  0.0760  0.0582  0.1814
22158W        W37005  16.664   3.605  11.194  0.1961  0.2068  0.0993
22159W        W37006  14.558  13.251  12.967  0.2714  0.0426  0.1390
22160W        W37007   1.576  15.301   4.765 -0.2254 -0.1117 -0.0691
22161W        W37008  12.034  15.063   6.257  0.0963 -0.0796 -0.3824
22162W        W37009   8.299  14.672  15.882  0.0732 -0.0334  0.0747
22163W        W37010  10.353  13.619  13.090 -0.2494  0.5137 -0.1285
22164W        W37011  12.348   8.849  14.705 -0.2473 -0.0026  0.1474
22165W        W37012   0.966  12.378   5.035 -0.2922 -0.0639 -0.0955
22166W        W37013  17.760   7.916   3.098 -0.1443  0.2053 -0.0329
22167W        W37014   9.092   4.250   0.056 -0.1354  0.1827 -0.1006
22168W        W37015   4.021   5.988   0.464  0.1329 -0.0510  0.1383
22169W        W37016  13.330  12.551  12.750  0.1192 -0.0364  0.0581
22170W        W37017  13.294   7.187   5.212  0.1499 -0.0093  0.1112
22171W        W37018  10.724   4.926  10.912 -0.0446 -0.0240 -0.3807
22172W        W37019  17.593   3.001   0.604 -0.2895 -0.2349  0.1254
22173W        W37020  17.592   1.402   4.788 -0.0522  0.2756 -0.1469
22174W        W37021   2.521   7.210   6.447  0.4767 -0.0922 -0.0041
22175W        W37022  10.842   6.032   3.950  0.0878 -0.0655 -0.0830
22176W        W37023  16.326  16.459   3.338  0.0802  0.3923  0.1696
22177W        W37024   1.410   0.454  16.736  0.3507 -0.0669  0.2033
22178W        W37025  11.090  17.878  16.752 -0.2289  0.1763  0.2527
22179W        W37026  14.817   9.940  13.190 -0.0882 -0.1059 -0.2153
22180W        W37027   1.753   3.889   4.166  0.1367  0.0431 -0.0718
22181W        W37028  15.997  13.476   4.288  0.0774  0.1364 -0.0259
22182W        W37029  10.450   7.735  14.976  0.3135 -0.0765  0.4142
22183W        W37030  16.658   6.565  14.195 -0.1260 -0.2336  0.1609
22184W        W37031  10.258  10.182   2.692  0.2562 -0.0191  0.1458
22185W        W37032   8.761   7.054   2.201  0.0058 -0.0603  0.2777
22186W        W37033  14.751   0.114  11.167 -0.1801  0.2084 -0.0124
22187W        W37034   4.766  14.697   0.207  0.3823 -0.1926  0.2968
22188W        W37035  13.346   3.545  10.879  0.0788 -0.1423 -0.0299
22189W        W37036  16.883   6.250  11.710 -0.0164  0.0222  0.0456
22190W        W37037  16.834  11.797  12.109  0.1039  0.2631  0.0000
22191W        W37038  14.223  15.644   6.719  0.0780  0.2132  0.1024
22192W        W37039  13.930  15.873  16.689  0.4787  0.4709 -0.1388
22193W        W37040   4.864   4.561  13.134 -0.2778 -0.0668  0.1867
22194W        W37041  14.332  12.151  14.150 -0.3749  0.2697 -0.0157
22195W        W37042  15.283   2.496  11.043 -0.2612  0.2098 -0.1384
22196W        W37043   3.208   4.936   3.804 -0.1172  0.1182  0.0450
22197W        W37044  10.347   9.514  16.618 -0.0869 -0.2680  0.1510
22198W        W37045  15.546  17.405   3.607  0.1534 -0.1344  0.0211
22199W        W37046  15.584   9.283   0.286  0.3591 -0.2156  0.1183
22200W        W37047  14.072   3.742   0.114  0.0137  0.2133 -0.0188
22201W        W37048  12.288  16.662  11.352  0.3310 -0.1415  0.0498
22202W        W37049   5.166  15.029   2.550  0.0656  0.2537 -0.3395
22203W        W37050   2.358   5.936   2.884 -0.0272 -0.3150 -0.1709
22204W        W37051  13.494   0.010   5.334  0.0071 -0.1423  0.0257
22205W        W37052   4.345   5.171   1.923 -0.3313  0.1058  0.0329
22206W        W37053  12.997  16.667   4.548  0.2117 -0.3407 -0.0322
22207W        W37054  16.364   6.003  14.750 -0.0355  0.1888  0.0598
22208W        W37055   3.563  12.176  14.594 -0.1765  0.1110 -0.0617
22209W        W37056  12.448   0.078  16.587 -0.1359 -0.1222  0.0825
22210W        W37057   0.271   5.987  16.718 -0.1807 -0.0271  0.1362
22211W        W37058   2.386   8.350   0.467  0.0329 -0.0611  0.1708
22212W        W37059  17.699   6.400   4.170 -0.2062 -0.0627  0.1255
22213W        W37060  11.828   0.337  11.345  0.0926 -0.4049 -0.1624
22214W        W37061  11.725  12.437  14.670  0.0951 -0.0247 -0.1377
22215W        W37062   3.676  14.943   2.396 -0.0090  0.0161  0.2654
22216W        W37063   0.035  16.548  12.035 -0.0294 -0.4081 -0.1171
22217W        W37064  14.451   7.441  13.882  0.2138 -0.1140 -0.1443
22218W        W37065   1.380   2.665   5.504 -0.3045  0.0186  0.1493
22219W        W37066  14.330   6.170   0.301 -0.1498 -0.1591 -0.2336
22220W        W37067  12.609   9.020  12.982 -0.3865  0.2368 -0.0315
22221W        W37068   4.569   5.812   3.526  0.0469 -0.1321 -0.1737
22222W        W37069  15.430   5.934  13.246 -0.0276  0.5040  0.3759
22223W        W37070  15.805  17.680   1.897 -0.1419  0.2624 -0.0426
22224W        W37071   5.027   6.293  15.479 -0.2033  0.0252 -0.2116
22225W        W37072   5.497   3.971   3.023 -0.2159 -0.2626 -0.1798
22226W        W37073  15.973  14.098  11.042 -0.0079 -0.0274  0.1058
22227W        W37074  12.912  15.391   1.177 -0.1129 -0.0159 -0.1926
22228W        W37075  11.570  10.566   3.119 -0.0354 -0.2012 -0.0224
22229W        W37076  15.183  11.183  14.052  0.2326  0.0195  0.0422
22230W        W37077  13.020  13.560   5.997  0.0877 -0.2121 -0.1141
22231W        W37078  14.245   3.079   2.786  0.0553 -0.3244  0.0429
22232W        W37079  15.168  12.870  14.504  0.0317  0.0141 -0.0946
22233W        W37080   0.144  11.934  13.216 -0.0403 -0.5560 -0.2887
22234W        W37081  14.151   5.216   1.361 -0.1529  0.0862 -0.1035
22235W        W37082  11.992  13.656   1.400  0.3418 -0.0943 -0.2708
22236W        W37083  10.198  14.883  12.103 -0.0492 -0.1819  0.0676
22237W        W37084   6.938  16.997   3.144 -0.1403  0.2085  0.0517
22238W        W37085   1.373   3.370   1.366 -0.0369 -0.3721  0.2351
22239W        W37086  10.685  15.788  15.635  0.1276  0.1989 -0.1300
22240W        W37087  14.458  12.179  14.728 -0.2073 -0.3135  0.1733
22241W        W37088  13.099   0.383   4.553 -0.2904 -0.2247 -0.1335
22242W        W37089  12.735   7.480  14.467  0.0322  0.1369  0.0730
22243W        W37090   5.894   8.696  15.794 -0.0347 -0.3360  0.2681
22244W        W37091  11.133   9.352   4.108 -0.3587  0.4840  0.0229
22245W        W37092  15.890   8.771  14.085  0.1417 -0.0000 -0.0563
22246W        W37093  17.384  13.042   1.627 -0.2695  0.1555 -0.1759
22247W        W37094  13.208   5.164   2.030  0.0984  0.0653  0.0089
22248W        W37095  13.872   4.261   5.763  0.0233 -0.1913  0.1108
22249W        W37096   1.628  14.449  13.856  0.2310 -0.2530 -0.0449
22250W        W37097  13.874   3.803   1.575  0.0163 -0.1473 -0.0549
22251W        W37098  12.425   6.134   0.318  0.1472  0.0680  0.2574
22252W        W37099   0.463   5.795  12.423  0.1412  0.1089  0.1951
22253W        W37100  16.694   8.442  16.604  0.2090  0.0320 -0.3280
22254W        W37101  15.068  10.305   4.434  0.0220 -0.1070  0.0840
22255W        W37102  13.574   9.167  16.390  0.0576  0.0689  0.1905
22256W        W37103  15.010   7.442  16.788  0.0966  0.0592  0.0574
22257W        W37104  10.009  13.065   1.576  0.1466 -0.0266  0.0520
22258W        W37105  17.368   7.671   4.137  0.1074 -0.1620 -0.0841
22259W        W37106  15.653   0.158  11.325  0.1505 -0.3205 -0.3521
22260W        W37107   0.118  15.752   5.997  0.0368  0.1835  0.2873
22261W        W37108  12.013   1.757  12.046  0.2234  0.1704  0.1454
22262W        W37109   2.208   6.942  13.728 -0.0695  0.0934 -0.0449
22263W        W37110   2.317  15.206   2.093 -0.1178  0.0315  0.0734
22264W        W37111   6.684   8.546  13.500  0.0091  0.1867 -0.1107
22265W        W37112  11.309  15.852   0.506 -0.3936 -0.0117  0.1240
22266W        W37113   5.060   8.849   4.382  0.1261 -0.3134 -0.0624
22267W        W37114   2.045   4.388   0.244 -0.1154  0.0902 -0.1779
22268W        W37115   2.550   1.012  14.642  0.1349  0.1087  0.0039
22269W        W37116  17.565  17.775  10.842  0.1958 -0.0894 -0.0555
22270W        W37117  10.068   0.910  12.122 -0.0975  0.1327  0.1778
22271W        W37118   6.445  13.100   0.861 -0.3457 -0.0010  0.1461
22272W        W37119   0.595  16.358  11.221 -0.1130 -0.1237  0.0477
22273W        W37120   8.525  17.413  10.542 -0.1375  0.1497  0.0428
22274W        W37121  10.229  11.907   2.035  0.2133  0.2681  0.1264
22275W        W37122   0.402  10.775   3.412  0.0813 -0.0519 -0.2743
22276W        W37123   9.291  10.232   3.623  0.3167  0.2886  0.0949
22277W        W37124  12.429   2.198   1.339  0.2069  0.0947  0.2005
22278W        W37125  14.283   3.473  13.617 -0.0246  0.0064  0.3381
22279W        W37126  14.082  17.526  13.433  0.1439 -0.2147 -0.1162
22280W        W37127  11.544  13.326   6.008 -0.0100 -0.2345  0.1883
22281W        W37128  10.869  10.233   2.106 -0.2260 -0.0093 -0.0133
22282W        W37129   6.340   9.545   2.071 -0.0220  0.1227 -0.0976
22283W        W37130   5.924  12.605  17.023  0.0189  0.3144 -0.1270
22284W        W37131  16.264   7.000   1.782 -0.0542 -0.1478 -0.1426
22285W        W37132  10.996   2.809  11.094 -0.2300 -0.3534  0.0018
22286W        W37133  17.534   9.625  13.149  0.1580  0.2617 -0.1232
22287W        W37134   7.702   3.323   0.482  0.1476  0.0366 -0.0187
22288W        W37135  10.012  12.036  11.412  0.0537  0.1548 -0.1221
22289W        W37136  11.761   5.993  16.179  0.2104 -0.0741 -0.1202
22290W        W37137  15.409  11.589  12.257 -0.1041  0.3274 -0.0954
22291W        W37138   9.080  14.841  14.994  0.0910  0.0329  0.0074
22292W        W37139   0.870   7.070   2.902 -0.2664 -0.0913 -0.0525
22293W        W37140   7.950   0.126   0.373 -0.1426 -0.2903 -0.1234
22294W        W37141  16.547  15.623  10.790 -0.0088 -0.1114  0.0596
22295W        W37142  11.713   7.562  11.230  0.0590  0.0821 -0.1998
22296W        W37143   1.182   4.206   1.898  0.3030  0.1969 -0.0455
22297W        W37144  14.549  13.822   4.203 -0.3576  0.1232 -0.3796
22298W        W37145  14.189   2.352   5.920  0.0364 -0.0928  0.3024
22299W        W37146  17.745   8.167   5.130 -0.0171 -0.0542 -0.0050
22300W        W37147   6.773   1.954  12.373  0.0688 -0.0504 -0.3145
22301W        W37148  16.024   0.256   4.022 -0.2115  0.0771  0.4897
22302W        W37149  16.520   5.716   2.807  0.0321 -0.4873 -0.2938
22303W        W37150  14.055   0.130   1.950  0.0222 -0.1872  0.0268
22304W        W37151  14.268  11.875   9.660  0.4657 -0.1537 -0.1060
22305W        W37152  16.107   6.326  10.926  0.0827 -0.2415 -0.1020
22306W        W37153  12.718   0.020   1.834  0.2868  0.1353 -0.1128
22307W        W37154  13.195   6.938  12.036  0.0095  0.1666 -0.1316
22308W        W37155  12.010  14.233   6.125  0.2159 -0.0897 -0.0438
22309W        W37156   8.589   9.554   3.601  0.0943  0.0254  0.3724
22310W        W37157   6.391   8.587   5.878  0.4701  0.0697  0.0331
22311W        W37158  14.401  15.596  14.527 -0.0866  0.0156 -0.1884
22312W        W37159  14.031   9.371  14.128 -0.0427  0.3806  0.3709
22313W        W37160  16.548   1.636  13.241  0.0818  0.0094 -0.1099
22314W        W37161   8.345   9.287  13.332  0.2523  0.1547 -0.2659
22315W        W37162  12.824  16.332  13.071 -0.3262 -0.0302  0.1507
22316W        W37163  13.253   7.998  12.343 -0.0137  0.0765  0.0473
22317W        W37164   0.398   1.248   1.904  0.2109 -0.1450 -0.0932
22318W        W37165   6.696   0.813   0.439  0.0345 -0.1214  0.0503
22319W        W37166  16.987  13.737   2.452  0.0988 -0.1244  0.2203
22320W        W37167   3.085  14.413   6.016 -0.0455 -0.1050 -0.1390
22321W        W37168  16.111   7.799  11.897 -0.0099 -0.0195 -0.0956
22322W        W37169   3.071  16.948  11.851  0.1839  0.2069 -0.2553
22323W        W37170   4.719  17.640  16.270 -0.1402  0.0089 -0.0963
22324W        W37171  13.592  17.684   4.350  0.1056 -0.0516 -0.0499
22325W        W37172   0.642   7.703   3.094  0.2293 -0.3068  0.2964
22326W        W37173  17.651  17.442  15.193 -0.0352  0.1208 -0.2149
22327W        W37174   9.002   3.260  12.830 -0.2217 -0.2208 -0.0696
22328W        W37175   6.138   7.121  13.104 -0.1829  0.0420  0.1329
22329W        W37176  16.834   1.726  12.328 -0.0300  0.1711 -0.2816
22330W        W37177   3.283   3.846   5.192 -0.1587 -0.0783  0.1367
22331W        W37178  10.612   3.315   2.631 -0.0999  0.1180 -0.2437
22332W        W37179  13.835   6.992   0.580 -0.2765  0.0037 -0.0341
22333W        W37180  10.430   1.491  15.604 -0.0802 -0.0386  0.1037
22334W        W37181  11.966  15.366  12.624  0.0040 -0.2296  0.2397
22335W        W37182  11.633   0.809   6.266  0.0501  0.1962 -0.1609
22336W        W37183  16.293  12.237  11.973  0.1808  0.0649 -0.0823
22337W        W37184  16.417   6.665   6.059  0.1586  0.2996  0.1439
22338W        W37185   6.105  10.912   5.158 -0.0644 -0.0368  0.4998
22339W        W37186   5.975   6.538   0.281 -0.4570 -0.1190  0.2846
22340W        W37187  12.836  15.407   4.224 -0.1058 -0.5728  0.0602
22341W        W37188  13.234  15.896  13.211 -0.0770 -0.2537  0.0506
22342W        W37189  12.898   7.899  10.864 -0.0503 -0.0390 -0.2929
22343W        W37190   5.642   1.291  16.434  0.1013  0.0385 -0.0340
22344W        W37191   0.683   7.791   5.934  0.1206  0.1992 -0.0575
22345W        W37192  12.225  14.316   3.945  0.0889 -0.0652 -0.2610
22346W        W37193  11.199  17.357  15.482 -0.1519 -0.0702  0.1315
22347W        W37194   5.896  13.568   4.170 -0.1443 -0.1441  0.0377
22348W        W37195   6.047   5.096  16.708 -0.1089 -0.0190  0.0232
22349W        W37196  13.261   4.374   2.054  0.1853 -0.0824 -0.1886
22350W        W37197  13.219   2.315   1.996 -0.0007  0.0375 -0.3503
22351W        W37198  10.810   7.718  13.542  0.0707  0.1505  0.1139
22352W        W37199  17.840   1.935  12.253 -0.1590 -0.0465  0.1620
22353W        W37200  10.087   6.717  16.650  0.1336 -0.1061 -0.2102
22354W        W37201  16.025  11.447   1.389  0.1436  0.1068 -0.0128
22355W        W37202   7.849   2.917   2.644  0.1469 -0.5408  0.0812
22356W        W37203  17.284   8.071   2.714 -0.0530 -0.2238  0.1955
22357W        W37204  13.366  12.018  11.147  0.3167 -0.0861  0.1723
22358W        W37205  15.752   8.103  16.698  0.1620  0.1268 -0.3110
22359W        W37206  12.496   5.247  16.636  0.1486  0.0431  0.0605
22360W        W37207   8.286  15.744  10.717  0.0077 -0.1033 -0.3595
22361W        W37208  16.960   5.876   5.219 -0.2473  0.2767 -0.1387
22362W        W37209  10.618   4.844   1.884  0.1003 -0.3062  0.1151
22363W        W37210  11.462  11.097  12.265 -0.0908 -0.0897  0.0039
22364W        W37211  11.243   5.450  15.361  0.0031 -0.2658  0.2047
22365W        W37212  17.427  10.249   2.691  0.2317  0.1030  0.2384
22366W        W37213  16.539   3.690   2.240  0.1144 -0.1374 -0.0180
22367W        W37214  15.098   7.295  13.326 -0.0561  0.0129 -0.2137
22368W        W37215  13.137  15.741  14.659  0.2787  0.0940 -0.2814
22369W        W37216   8.089   6.685  12.540 -0.3370 -0.2145 -0.0214
22370W        W37217  13.628   0.332   5.665  0.1396  0.0892  0.1519
22371W        W37218  15.980  15.183   3.282  0.1354  0.0350 -0.0057
22372W        W37219  13.839   6.624  11.534  0.2148  0.1682  0.0869
22373W        W37220   3.493  13.297  12.002 -0.1646  0.1482 -0.0817
22374W        W37221  12.716   5.195   5.532  0.0183 -0.0861  0.0366
22375W        W37222   0.089  17.444  15.523  0.1960  0.3276 -0.2585
22376W        W37223  11.299  12.833   1.226  0.2338 -0.1857  0.4085
22377W        W37224  11.789  17.513  14.488 -0.3206  0.1261 -0.2265
22378W        W37225  16.227  15.824  14.158  0.2191 -0.0475  0.3112
22379W        W37226   5.549  12.447   1.602 -0.0982 -0.2431 -0.2738
22380W        W37227  17.468  17.372   1.482 -0.0874 -0.2130  0.0037
22381W        W37228   0.702   8.198   3.145  0.0214 -0.1606  0.0774
22382W        W37229  14.102   2.572  13.857 -0.1357 -0.2579 -0.3880
22383W        W37230   1.963   8.287   4.294  0.0667 -0.3613 -0.5396
22384W        W37231  11.964   6.546  13.296  0.1921 -0.1134  0.1398
22385W        W37232   1.050  15.792   2.560  0.1521 -0.0740 -0.0300
22386W        W37233   7.273   4.547  14.201 -0.1051 -0.1372 -0.1583
22387W        W37234   1.554   4.522   0.553  0.0087 -0.1419 -0.2519
22388W        W37235  13.216   6.137  16.720 -0.1895 -0.1069 -0.0983
22389W        W37236  17.362   7.921   6.388  0.1936  0.3822  0.0133
22390W        W37237  10.890   8.924  13.336  0.0322  0.2234  0.2959
22391W        W37238   0.801   7.827  11.502 -0.1160 -0.3215 -0.0132
22392W        W37239   1.737   2.682  13.129 -0.0794  0.3398  0.1278
22393W        W37240  10.797   0.196  12.871 -0.3234 -0.0582 -0.0970
22394W        W37241   6.912   7.296  13.856 -0.0021 -0.0395  0.0223
22395W        W37242  15.104  15.121   3.715 -0.1618 -0.2091  0.0397
22396W        W37243   0.581  10.049   4.713  0.0192 -0.1057  0.1953
22397W        W37244  11.846  15.330   1.869  0.2385  0.1234  0.1482
22398W        W37245  14.107   5.898  13.945 -0.0037  0.1127 -0.2033
22399W        W37246  16.426  15.024  11.575 -0.0545 -0.1579 -0.1172
22400W        W37247  16.140   8.373  13.821 -0.0580  0.2776 -0.2779
22401W        W37248  13.843  13.327  12.957  0.0256 -0.0149 -0.1088
22402W        W37249  17.496   9.995   2.117  0.1120  0.0225 -0.0609
22403W        W37250   1.343   7.320   3.728 -0.1152 -0.0320 -0.1638
22404W        W37251  14.265  17.203   0.797 -0.4802 -0.0116 -0.3744
22405W        W37252  15.730   2.599   1.489  0.1951  0.0239  0.1904
22406W        W37253   0.719  11.431   0.671 -0.3612 -0.1155 -0.2672
22407W        W37254  14.478  10.045  12.846  0.0366 -0.1017  0.1471
22408W        W37255  12.665   0.522   1.835  0.0783 -0.0046  0.0772
22409W        W37256   6.458  10.939   5.512  0.0938  0.2071 -0.1204
22410W        W37257   9.142   5.871   4.606  0.1932 -0.1020  0.4378
22411W        W37258   1.118   6.167   4.744 -0.1071  0.0983  0.1784
22412W        W37259   5.719   5.827   4.701  0.0130  0.3114  0.1924
22413W        W37260  15.007   4.952  11.676 -0.0038 -0.0896  0.2060
22414W        W37261  13.042   2.929   4.866  0.1496 -0.1956 -0.2133
22415W        W37262   1.254   8.243   1.071  0.1323  0.4276 -0.3024
22416W        W37263   7.849   7.783  15.565 -0.0313 -0.1593 -0.2649
22417W        W37264  14.911   6.372   4.743 -0.1342  0.2655 -0.1097
22418W        W37265  15.682   1.456  15.890 -0.2611  0.2969  0.0067
22419W        W37266   0.409   9.320   2.215  0.0849 -0.0359  0.1432
22420W        W37267   1.857   6.237   5.967 -0.3055  0.1546 -0.1994
22421W        W37268   3.726  16.649   5.189  0.3540  0.0662  0.3737
22422W        W37269   1.692   5.634   0.242 -0.2378  0.0717 -0.2625
22423W        W37270  13.089   9.190  16.292 -0.1753 -0.0223  0.2510
22424W        W37271   0.269   3.546  12.547  0.2456  0.0719 -0.0042
22425W        W37272   0.591  12.023   2.389 -0.0393 -0.2595 -0.0394
22426W        W37273  11.453  17.603  15.834 -0.0627  0.3161  0.0779
22427W        W37274  13.210   7.637  11.199  0.0884  0.2893  0.0726
22428W        W37275   9.919  17.175  12.314 -0.0669  0.1478  0.0239
22429W        W37276   0.684  14.523  12.656 -0.0735  0.2036 -0.1028
22430W        W37277  10.913   0.474   1.276 -0.0076  0.3120  0.0992
22431W        W37278  13.701  12.507  13.594 -0.2637 -0.1244 -0.0673
22432W        W37279   0.226   7.693   2.825  0.0950  0.0698  0.1755
22433W        W37280   7.767   6.225  16.130  0.2093 -0.1133 -0.0590
22434W        W37281   6.888   8.593   5.699 -0.1106 -0.0002 -0.1130
22435W        W37282  13.112   0.173   4.062  0.2709  0.2553 -0.0180
22436W        W37283  16.426   7.130   4.593 -0.3146 -0.0790  0.1528
22437W        W37284  15.400   3.175   2.863 -0.1346 -0.2092 -0.4412
22438W        W37285  12.158   8.943   0.443 -0.2005  0.0270 -0.2009
22439W        W37286  14.527   9.456   2.881 -0.1494 -0.3158  0.0899
22440W        W37287  15.990   5.234   3.697  0.1002 -0.0197 -0.0432
22441W        W37288   4.376  12.046   1.088  0.2841 -0.1501 -0.1956
22442W        W37289   1.912  16.973   1.584  0.1889  0.0805  0.1164
22443W        W37290   1.088   0.604   3.748  0.0061  0.1841 -0.0337
22444W        W37291  11.855   1.822   6.277 -0.2143  0.2870  0.2658
22445W        W37292  12.366  17.057   3.014 -0.0855  0.1981 -0.1687
22446W        W37293   0.217   9.303   4.306  0.1488  0.3846 -0.1475
22447W        W37294  16.080   5.117  15.999 -0.1842 -0.0094 -0.0223
22448W        W37295   7.845   7.618  12.246  0.0264  0.0643  0.0339
22449W        W37296  15.965  15.984  15.273 -0.1358 -0.0520 -0.2515
22450W        W37297  14.864   9.130  11.361 -0.0789  0.3456  0.1470
22451W        W37298  10.682   1.522   0.658 -0.1585  0.0232 -0.1023
22452W        W37299  14.614   8.531  15.872 -0.1569  0.1788  0.0216
22453W        W37300   1.557  15.171   2.620  0.3491  0.0998  0.0680
22454W        W37301  17.410   5.647   2.229  0.0171  0.1411  0.1074
22455W        W37302  10.279   5.903   5.470  0.2421  0.1825  0.0652
22456W        W37303   9.174   2.317  16.766  0.1469  0.1816  0.1734
22457W        W37304   0.864  11.982   3.311 -0.0991 -0.0672 -0.1908
22458W        W37305  16.162  17.202  13.914 -0.0465  0.1153  0.1845
22459W        W37306  13.524   6.932   1.695 -0.1117  0.1607 -0.1451
22460W        W37307  10.273  10.427  15.612 -0.0510  0.1155 -0.0931
22461W        W37308  10.932   3.051  16.415  0.0485  0.1141  0.0996
22462W        W37309  11.695   7.098  15.715 -0.1952  0.0734 -0.1535
22463W        W37310  17.624   1.450   1.519  0.0643 -0.1851 -0.0292
22464W        W37311   3.221  13.153  16.600  0.1985 -0.0490 -0.3598
22465W        W37312  13.340   5.640  16.768 -0.2140 -0.2810  0.0763
22466W        W37313  16.571   9.058   2.471  0.0694 -0.3437  0.3469
22467W        W37314  14.560   4.842  16.892  0.0996 -0.1661 -0.1072
22468W        W37315   2.832  17.231  13.931 -0.2418  0.3031 -0.1666
22469W        W37316  10.644   5.220  16.065 -0.0004 -0.0858  0.0654
22470W        W37317  11.691  12.910  13.776  0.1991 -0.0425 -0.0312
22471W        W37318  15.461   2.038  12.359  0.5047  0.3723  0.2641
22472W        W37319  13.277   2.275  15.154  0.0233 -0.1355  0.1173
22473W        W37320   9.984  12.132  16.260 -0.4873  0.2403 -0.1144
22474W        W37321  13.431  15.369   0.095  0.2026  0.3072  0.0135
22475W        W37322  11.044   3.031  14.221 -0.1372  0.0902  0.0066
22476W        W37323  15.891   3.303   3.151 -0.1192 -0.1944  0.0118
22477W        W37324   1.096  13.041  12.161  0.4040 -0.1786  0.0789
22478W        W37325  15.323  11.195  12.836  0.3009 -0.1915 -0.0239
22479W        W37326   8.237  13.081   1.257  0.0785  0.3429 -0.3107
22480W        W37327  16.726   2.784  10.125 -0.0254  0.0050 -0.1305
22481W        W37328  12.914  14.713   2.687  0.1469 -0.0655  0.0170
22482W        W37329  13.714   0.313  12.351 -0.4747  0.1350 -0.2836
22483W        W37330   7.473  12.178   5.903  0.1408  0.0638 -0.1345
22484W        W37331   6.181  17.804  11.751  0.1190  0.0318  0.1351
22485W        W37332  14.514  10.436  12.487 -0.0826  0.1529 -0.1331
22486W        W37333   0.510  17.492  13.598 -0.2515  0.0409 -0.0867
22487W        W37334  13.491  12.861  13.150 -0.0248  0.0002  0.1623
22488W        W37335  17.319  15.539  16.169 -0.2896 -0.0914 -0.0370
22489W        W37336  17.583  10.001  12.334 -0.1284 -0.2996  0.3214
22490W        W37337  14.351   2.890   4.623  0.2247  0.1269 -0.0921
22491W        W37338   5.775   6.599  14.832  0.2382 -0.1869  0.0482
22492W        W37339   9.608  10.204  17.099 -0.2260  0.0009  0.0487
22493W        W37340  15.158   2.985  11.171  0.2296  0.0849  0.3416
22494W        W37341   0.771   2.451  12.021 -0.0761  0.0324 -0.1616
22495W        W37342  15.413   7.293  12.605 -0.1201 -0.0285  0.0050
22496W        W37343  16.309  14.282   3.449 -0.0966  0.1430  0.0551
22497W        W37344  12.922   0.223  14.796  0.0504  0.1697  0.1745
22498W        W37345  10.939   6.698  16.029 -0.2881  0.0552  0.0115
22499W        W37346   0.309  15.606   0.674  0.1793 -0.2887 -0.0552
22500W        W37347   0.925   8.547   0.887  0.3872 -0.0521 -0.0304
22501W        W37348   0.319   2.794  11.994 -0.1691 -0.0813 -0.1412
22502W        W37349   6.921  14.636   5.256  0.1510  0.0789  0.1680
22503W        W37350  14.563   6.615  12.337 -0.0176 -0.0703 -0.0887
22504W        W37351  15.234  13.033  16.426 -0.3102  0.0904 -0.2064
22505W        W37352   6.174   1.082  12.266  0.0128  0.0442  0.0522
22506W        W37353   8.025   7.278   0.925 -0.2914  0.0977  0.0449
22507W        W37354  13.629  11.319   0.026 -0.0452  0.2627 -0.0301
22508W        W37355   8.609  14.731  17.044 -0.2918  0.2097 -0.0991
22509W        W37356  10.400  15.529  13.378 -0.3851  0.2723 -0.0930
22510W        W37357  15.691  13.419   2.137 -0.1241 -0.1142  0.0716
22511W        W37358  13.710  11.823  12.471  0.0198  0.0019 -0.1817
22512W        W37359  11.637  10.063   3.998 -0.0275 -0.2623 -0.0586
22513W        W37360  13.051  16.330  11.108  0.1785 -0.0796  0.1507
22514W        W37361  11.661   3.352  15.532 -0.1609  0.0779  0.1478
22515W        W37362   6.712  16.114   1.841  0.3218  0.2386 -0.0162
22516W        W37363  14.783   6.890   0.880  0.0512 -0.0378 -0.2918
22517W        W37364   1.622   2.745  14.883  0.1194  0.1283 -0.5973
22518W        W37365  12.931  10.599  13.256 -0.0987 -0.0158 -0.2355
22519W        W37366  16.226   9.614   0.838  0.0418  0.1781 -0.1848
22520W        W37367  14.028  12.973  11.300  0.1717  0.1039 -0.1739
22521W        W37368  11.111   5.073   6.823 -0.0529  0.0565 -0.3408
22522W        W37369  15.277   6.650   5.341  0.0182  0.1688 -0.3105
22523W        W37370  11.423   9.703   6.913  0.3391  0.1226 -0.0502
22524W        W37371  17.608  16.642  12.243 -0.2463 -0.1759  0.4243
22525W        W37372   2.637  16.277   0.376 -0.1347  0.1595  0.3661
22526W        W37373   3.177   5.748   3.478  0.1023 -0.0584 -0.0891
22527W        W37374   0.527   0.187   0.213  0.2117 -0.0101  0.1256
22528W        W37375   0.984   0.799   1.813 -0.2086 -0.3221  0.1751
22529W        W37376  16.675   8.889   1.979 -0.0395 -0.0444 -0.0452
22530W        W37377   4.707  17.070   1.904  0.0445  0.0526 -0.1762
22531W        W37378  12.102   1.120  13.026  0.2296  0.0865 -0.0332
22532W        W37379   6.238  12.325   2.941 -0.0706 -0.0312  0.1147
22533W        W37380  16.083   5.143   5.703  0.1522 -0.0723  0.2353
22534W        W37381  12.352   5.998   5.312 -0.1337  0.2170  0.2123
22535W        W37382  17.024   1.356  13.712  0.2975  0.2337  0.2144
22536W        W37383  17.741  15.685   2.927  0.1369  0.2129 -0.1050
22537W        W37384  15.607   0.315   0.505 -0.1635  0.0392  0.0918
22538W        W37385  13.929   2.204   3.171  0.2041 -0.0474  0.0825
22539W        W37386  15.512   2.612  13.348  0.0478 -0.2803 -0.0251
22540W        W37387  12.482  10.270  13.185  0.1529  0.2420  0.1200
22541W        W37388  15.558   6.976   3.253 -0.1250 -0.0938 -0.0688
22542W        W37389  12.777   2.474   1.137  0.1203  0.0864  0.3520
22543W        W37390  14.069   1.907  16.929 -0.3836  0.1482 -0.2628
22544W        W37391  15.098   9.742   4.276 -0.0241 -0.2066  0.0098
22545W        W37392   2.780  17.913   4.560 -0.3207  0.0116  0.0552
22546W        W37393  12.545   1.014  13.422 -0.0304 -0.2203 -0.2001
22547W        W37394  16.779  14.773   5.279 -0.2310  0.0196 -0.0281
22548W        W37395  17.722  17.579  14.137 -0.3071 -0.1781  0.0057
22549W        W37396  10.178   6.240   3.168  0.2694  0.1712  0.1223
22550W        W37397  12.960   0.813  15.664  0.2008 -0.3291  0.2103
22551W        W37398  13.407  17.965  15.410  0.0134 -0.2673 -0.1331
22552W        W37399  15.530  15.653   2.399  0.2457  0.1623 -0.1136
22553W        W37400  17.762  11.329   6.483  0.3607  0.2072 -0.2013
22554W        W37401  12.325  12.133  12.171 -0.1437  0.0761 -0.1033
22555W        W37402  11.315  13.664   3.717  0.0021  0.1676 -0.1080
22556W        W37403  16.466   2.686  13.959 -0.0810  0.2913 -0.2737
22557W        W37404   9.921   7.389   4.458  0.1399 -0.1907 -0.0589
22558W        W37405   2.066   2.105   0.282  0.0060  0.1860 -0.0463
22559W        W37406  16.004   5.496   2.721  0.0507 -0.2681  0.0793
22560W        W37407   6.966   8.945   1.881  0.0940  0.0951 -0.2171
22561W        W37408  11.520   7.434  14.933 -0.1718 -0.2635  0.2772
22562W        W37409   8.418  17.072   0.000 -0.0472 -0.0666  0.1068
22563W        W37410  15.135  10.797   4.672  0.2858  0.1579  0.0194
22564W        W37411  13.313   8.041   4.973  0.0097 -0.1218  0.1925
22565W        W37412  11.173  13.002   6.983 -0.1426 -0.0185  0.1612
22566W        W37413   8.881  12.329   1.483 -0.1724 -0.0755  0.0922
22567W        W37414  11.054  12.587  14.269 -0.2086 -0.2258 -0.2502
22568W        W37415  14.581   8.508  13.474  0.0174 -0.2921 -0.1343
22569W        W37416   3.120   8.966   1.525  0.1479 -0.2411 -0.0690
22570W        W37417   2.143   0.043  14.587 -0.2545 -0.0463 -0.2939
22571W        W37418  15.852  12.791   6.181  0.0315  0.2571 -0.1225
22572W        W37419  14.402  11.796   3.830 -0.1545 -0.2132 -0.1494
22573W        W37420  13.987   7.234  14.136 -0.2127  0.2161  0.0955
22574W        W37421   0.241   2.403   3.341  0.0061  0.1146 -0.2348
22575W        W37422  12.322  12.468   0.572 -0.4828 -0.0083 -0.0148
22576W        W37423  16.076   1.617   1.584 -0.1096  0.0480  0.1373
22577W        W37424  11.011   2.641  13.703  0.0907  0.0019 -0.1652
22578W        W37425   9.661   3.909  13.862 -0.2156 -0.2213 -0.0471
22579W        W37426  13.222   0.758  14.089 -0.2343  0.2791 -0.0735
22580W        W37427  15.503  17.117  13.522 -0.5274  0.3037 -0.0413
22581W        W37428  13.277  12.193   2.072  0.1626  0.2816  0.1371
22582W        W37429  13.356   9.487   5.307  0.3849  0.0053 -0.1530
22583W        W37430  12.083  16.831   6.192  0.0908 -0.0197  0.0364
22584W        W37431  11.666  16.408   1.050 -0.0260 -0.0738 -0.0787
22585W        W37432  14.343   1.160  12.153  0.0804  0.1886  0.0764
22586W        W37433  14.411   6.681  17.021 -0.0020  0.1084  0.1554
22587W        W37434   0.819  13.541   5.415 -0.0979 -0.0784  0.0840
22588W        W37435   3.929   5.109   1.076 -0.3263  0.0061 -0.1449
22589W        W37436  14.604  15.102   3.564 -0.0224 -0.2817  0.0782
22590W        W37437  12.459  15.552   2.466 -0.0798  0.0607  0.3234
22591W        W37438   4.817   1.397   5.917  0.2537 -0.1752  0.0769
22592W        W37439  10.270   1.012   4.600  0.0878 -0.1577 -0.0367
22593W        W37440   0.669  15.377  14.137 -0.2306 -0.4172 -0.0249
22594W        W37441  12.348   5.572   1.518  0.1776  0.0818  0.0337
22595W        W37442  14.794  13.863  10.794 -0.0638  0.0563 -0.0620
22596W        W37443  15.077   9.622   5.681  0.1826 -0.1513  0.1411
22597W        W37444  17.807  16.032   5.105 -0.3307 -0.0508  0.0197
22598W        W37445   3.511   1.680   3.317 -0.0347  0.4009  0.1836
22599W        W37446  16.419  17.814  14.599 -0.3303  0.1596  0.1417
22600W        W37447  17.476   8.207  13.538  0.0213 -0.4162 -0.0520
22601W        W37448  11.639   6.864  13.609 -0.1059  0.0861 -0.0119
22602W        W37449   3.164  10.230  15.063  0.0689  0.1676 -0.0533
22603W        W37450   7.986  17.011  13.272 -0.3430 -0.0245 -0.1195
22604W        W37451   0.622   5.004   1.133 -0.0944  0.2456  0.2582
22605W        W37452   9.123   6.930  14.009 -0.2788  0.1086  0.2410
22606W        W37453   2.585   9.654   1.711 -0.2366 -0.0079 -0.1619
22607W        W37454   9.189  16.504   5.016 -0.0567  0.2184 -0.0928
22608W        W37455  17.492  11.078   2.807 -0.2157  0.3486 -0.0592
22609W        W37456  17.342   9.417   2.044 -0.1544  0.0090 -0.1083
22610W        W37457  17.328  13.078  16.533  0.1940  0.2163 -0.1449
22611W        W37458  16.658   2.325  11.844  0.2066  0.0483 -0.3051
22612W        W37459   8.678   8.974   2.994 -0.0813 -0.2014 -0.0392
22613W        W37460  11.692  16.032  16.011 -0.4194 -0.2873  0.1594
22614W        W37461   1.876  11.871  12.683  0.1668  0.0223 -0.0891
22615W        W37462  11.418   4.815   3.242 -0.2583  0.1438 -0.0374
22616W        W37463   4.010   4.503   1.967 -0.0813  0.1534 -0.0248
22617W        W37464  14.520   2.758  16.111  0.1568 -0.3323  0.1057
22618W        W37465  12.674  14.245   0.766  0.2671  0.2783 -0.0848
22619W        W37466  11.446  17.329  13.325  0.0635  0.2437 -0.0387
22620W        W37467   3.470  11.268  14.856  0.0929  0.0885 -0.0761
22621W        W37468  16.900   1.837  17.023 -0.3568 -0.1841  0.1169
22622W        W37469  12.660  10.576  14.263  0.1478  0.0521 -0.1511
22623W        W37470  17.360   8.605  15.941  0.0674 -0.2062  0.4001
22624W        W37471   1.442  16.203  15.020 -0.3665 -0.0176  0.1307
22625W        W37472   6.342  10.666   2.834  0.2044 -0.1996  0.0716
22626W        W37473   9.801  17.091   1.048 -0.2096  0.1198 -0.0154
22627W        W37474   2.522   6.117   0.301  0.2485 -0.0693  0.0140
22628W        W37475  13.848  17.108  13.707 -0.1058  0.1692 -0.1968
22629W        W37476  17.177  15.434  12.615  0.0302  0.0086  0.0287
22630W        W37477   2.318   8.691   4.277 -0.2138 -0.1156 -0.1584
22631W        W37478  12.493  17.263  14.866  0.3303 -0.2689 -0.0634
22632W        W37479   7.110   3.923   2.840 -0.1345  0.1158 -0.0245
22633W        W37480  11.565  12.589   1.589  0.4598  0.0129 -0.0451
22634W        W37481   3.489  16.587  13.183 -0.2223 -0.2415 -0.1359
22635W        W37482  12.150   9.421  16.303  0.1241 -0.1236  0.0329
22636W        W37483   8.003   1.867   4.996 -0.0322  0.1309 -0.1213
22637W        W37484  17.745  17.104  15.734  0.0471 -0.0373  0.1525
22638W        W37485   3.281  15.407  12.641  0.0917 -0.3535 -0.0288
22639W        W37486   1.185   0.072   3.594  0.0342  0.2112 -0.0849
22640W        W37487  16.806   6.708   0.786  0.1997 -0.0950 -0.3381
22641W        W37488   8.500   3.892  14.929  0.1036  0.3595  0.0906
22642W        W37489  15.414   4.457  15.151 -0.2370  0.0020 -0.0792
22643W        W37490  12.332  10.825  10.505 -0.0430  0.0304  0.1103
22644W        W37491  17.431  13.460   3.608 -0.0501 -0.0443 -0.1549
22645W        W37492  14.167   8.537   5.729 -0.0263 -0.1459 -0.1177
22646W        W37493  15.543   1.974   2.445 -0.1364 -0.0901  0.1154
22647W        W37494  13.757  11.520   2.323 -0.3145  0.0388  0.0483
22648W        W37495  16.007  10.869   2.574  0.1744 -0.1662 -0.0679
22649W        W37496   9.055   3.247  13.535 -0.1418  0.1585  0.0897
22650W        W37497  15.364   8.188   4.192 -0.3002 -0.0292  0.0959
22651W        W37498  14.145   1.077  16.449  0.1659  0.0304  0.0008
22652W        W37499  13.765  13.231   5.279 -0.0540  0.0611 -0.0381
22653W        W37500   5.079   9.948   0.689  0.3227 -0.1384  0.0028
22654W        W37501  10.073  10.306  14.489  0.1924  0.1238  0.3112
22655W        W37502  17.387   1.941  16.282  0.0066 -0.2897 -0.0574
22656W        W37503  10.222   5.944  13.544 -0.0364  0.0380  0.0787
22657W        W37504  16.540   9.358  16.663 -0.4373  0.0259  0.1427
22658W        W37505  14.569   1.534  16.578 -0.0980 -0.3701  0.0348
22659W        W37506  16.162   5.995   4.048 -0.2116 -0.0270 -0.3230
22660W        W37507  17.529   3.688   3.200  0.0496 -0.2686  0.2205
22661W        W37508  17.561   7.621  11.357 -0.1082  0.1626 -0.2036
22662W        W37509  13.478   2.710   2.225  0.0992  0.0441  0.3357
22663W        W37510  11.529   4.643   1.779 -0.1860 -0.1475  0.0367
22664W        W37511   0.303  14.634  12.235 -0.1079 -0.0541 -0.2109
22665W        W37512  16.152   4.407  13.526 -0.1353  0.2104  0.1735
22666W        W37513  12.366  10.848  13.931 -0.0709  0.1011  0.1043
22667W        W37514   1.876  10.876   0.759  0.0712 -0.0349  0.4798
22668W        W37515   8.509  10.799  12.001 -0.2213  0.0939  0.1081
22669W        W37516  15.353   0.548  15.136  0.3078 -0.0580 -0.1317
22670W        W37517  15.460   0.815   4.502  0.2986  0.0475 -0.0194
22671W        W37518  16.347   4.095  13.866 -0.0377  0.1271  0.1197
22672W        W37519   2.812  11.218   3.864  0.2069  0.0586 -0.0291
22673W        W37520  12.430  12.178  14.223  0.1353 -0.2541 -0.0543
22674W        W37521  15.229  13.791   0.901  0.1978 -0.0666  0.4797
22675W        W37522   8.016   4.303  13.243 -0.2100 -0.1615 -0.1182
22676W        W37523  15.033   6.963  16.610  0.1337 -0.1319 -0.1488
22677W        W37524  14.205   4.653   2.989  0.0290 -0.1224 -0.0005
22678W        W37525   1.398  13.006  13.537 -0.1433  0.1459 -0.1361
22679W        W37526  13.047   2.917   0.239 -0.0391  0.2035 -0.1416
22680W        W37527  12.568   4.930  14.054  0.1320 -0.1725  0.3307
22681W        W37528   0.278   0.541   3.414  0.1146  0.0419  0.1564
22682W        W37529   1.045   6.661   2.179  0.2753 -0.1064  0.1989
22683W        W37530   9.937   0.900  13.510 -0.0578 -0.4293 -0.4212
22684W        W37531  13.043  16.461   5.580 -0.1729  0.1856  0.0062
22685W        W37532  15.791   9.689  16.389 -0.0796 -0.0283  0.1601
22686W        W37533  14.984   0.502   2.489 -0.1289  0.0093  0.1047
22687W        W37534   9.305   3.290   3.046 -0.4067 -0.1227 -0.1240
22688W        W37535  12.914   5.094  13.712  0.0058  0.1823 -0.1664
22689W        W37536  16.793   9.147  12.364 -0.0889  0.1365 -0.0957
22690W        W37537   9.690   8.982   0.576  0.1069  0.1268  0.1462
22691W        W37538  13.807  16.723  11.579 -0.3643  0.0686 -0.0870
22692W        W37539   1.225   1.425  13.925 -0.2131 -0.1066  0.1340
22693W        W37540   2.991  13.551  14.536  0.2109  0.0211 -0.1242
22694W        W37541  12.694  13.313   3.513  0.0472  0.1845  0.2124
22695W        W37542   7.893   9.392  14.519  0.1799 -0.0185 -0.1160
22696W        W37543   4.314  11.335  12.466  0.0521 -0.1391  0.0408
22697W        W37544   9.358   0.488   5.422  0.0543 -0.0842 -0.2043
22698W        W37545   1.202   9.619  12.577  0.2859 -0.2579  0.0612
22699W        W37546  13.829  10.598  14.537 -0.1016 -0.1765  0.1040
22700W        W37547  14.547   2.103  11.371  0.4778 -0.0136  0.5438
22701W        W37548  11.926   9.483   0.271  0.2046 -0.2671  0.1360
22702W        W37549  14.187   3.942  16.035 -0.0269  0.2015 -0.0548
22703W        W37550   0.536   7.823  13.892  0.1594 -0.1606 -0.3554
22704W        W37551   4.338  15.541   2.559 -0.1963 -0.0783  0.1677
22705W        W37552   2.197   1.608  13.783  0.1718  0.0020 -0.5744
22706W        W37553  12.333   2.918  15.668 -0.0362 -0.0022 -0.0436
22707W        W37554  13.356  14.942  13.376 -0.3219 -0.0954 -0.0181
22708W        W37555  13.162  13.758  13.998 -0.0415  0.0294  0.0898
22709W        W37556  13.426   4.994  13.266 -0.0972  0.3513 -0.1168
22710W        W37557   7.436   0.031  15.599 -0.0127 -0.0914 -0.0053
22711W        W37558   1.378  10.647   3.598  0.0572  0.1669 -0.0051
22712W        W37559  16.191   8.308  11.655 -0.1893 -0.0513  0.1330
22713W        W37560   9.948   5.573  12.429  0.0265 -0.1142 -0.1550
22714W        W37561   1.195   8.607   1.439  0.0656  0.1639  0.1210
22715W        W37562   0.690  15.085  10.920  0.3318  0.0759  0.3323
22716W        W37563   7.975   0.736  15.548 -0.1445  0.4218  0.1513
22717W        W37564  15.334  14.205  11.732 -0.0151 -0.2752 -0.1170
22718W        W37565  11.798   7.348  13.720  0.3664 -0.2171 -0.0550
22719W        W37566  12.951  16.762   1.068 -0.2125 -0.1229  0.1517
22720W        W37567  10.966   0.835  11.309  0.1947 -0.2765  0.1603
22721W        W37568   7.325   2.615   4.020  0.0585  0.1597 -0.0930
22722W        W37569  15.116  11.522  14.529 -0.0354  0.1819  0.0398
22723W        W37570  11.078  13.500   0.555  0.0905  0.0316  0.1158
22724W        W37571   1.599   9.295   3.268  0.1074  0.2186 -0.2332
22725W        W37572  14.989   1.399  11.920 -0.2910 -0.0715  0.1172
22726W        W37573  11.520   9.988   0.276 -0.1631 -0.0727 -0.1380
22727W        W37574   9.155   5.558  11.677 -0.2530 -0.3859 -0.0619
22728W        W37575   3.091   2.884  16.550 -0.2432  0.2345 -0.1685
22729W        W37576  10.696  15.177  12.973  0.1175 -0.2206  0.2550
22730W        W37577  12.039  12.021  15.531  0.0723 -0.0427 -0.3978
22731W        W37578   8.754   3.905   2.754  0.0707 -0.3985  0.0364
22732W        W37579  14.359  11.313   6.076  0.3271  0.0021  0.0015
22733W        W37580  15.266   6.122   2.194 -0.0709  0.1993  0.0370
22734W        W37581  13.028  11.045  16.628 -0.1101  0.0180 -0.0019
22735W        W37582  15.577  11.665  11.776  0.1582 -0.1162 -0.1953
22736W        W37583  16.065  11.799  16.718 -0.0317 -0.1297  0.0900
22737W        W37584  14.975  15.901   1.288  0.2727 -0.1858 -0.1042
22738W        W37585   2.383   2.696  11.052  0.0593  0.0500  0.2895
22739W        W37586   1.444   8.888   2.163 -0.2693  0.4107 -0.0747
22740W        W37587  17.574  12.476   4.299  0.1103 -0.6119 -0.2101
22741W        W37588   4.753   1.901   4.132 -0.2644  0.1330 -0.0155
22742W        W37589  16.348   0.247  11.985  0.1556 -0.0686 -0.1592
22743W        W37590   2.630   6.634   3.460 -0.2510  0.1208  0.1345
22744W        W37591  13.801   7.434   0.319 -0.0737  0.1530  0.6669
22745W        W37592  15.869   5.810  16.500  0.1583 -0.0287 -0.1899
22746W        W37593   1.170  11.456  13.981 -0.1125 -0.0890 -0.1158
22747W        W37594  12.811  16.990   0.607  0.1251 -0.1056  0.1032
22748W        W37595   0.057   1.351  14.069  0.0924 -0.0572 -0.0839
22749W        W37596  13.297  16.362   4.759  0.1333  0.2332  0.0260
22750W        W37597   0.662   6.229   6.852  0.0458 -0.0572 -0.1174
22751W        W37598  16.405   6.894   5.066  0.0901  0.2982  0.4273
22752W        W37599  11.644   3.819   5.558 -0.0018 -0.1295  0.0430
22753W        W37600   5.283   3.699  15.343  0.1020  0.1874 -0.1450
22754W        W37601  15.510  17.001  14.207 -0.0166 -0.0550 -0.1178
22755W        W37602   0.296   3.366  13.877  0.0775  0.2156 -0.0784
22756W        W37603   3.390  17.180  14.848 -0.3631 -0.0703  0.1107
22757W        W37604  17.054   6.878  11.646  0.1821  0.0318 -0.3160
22758W        W37605  11.487   8.169  13.570 -0.0167  0.0610 -0.1033
22759W        W37606   9.455  15.664   6.454 -0.0859 -0.0790 -0.2497
22760W        W37607  14.692   9.343  14.962  0.0807  0.0665 -0.0334
22761W        W37608   3.657  11.255  13.590  0.0792  0.0562 -0.2349
22762W        W37609   1.789   5.732  12.137  0.1291  0.0791 -0.1813
22763W        W37610   1.543   0.024   1.147  0.1630  0.0874 -0.0329
22764W        W37611  14.860   1.643  15.205  0.2012 -0.0039  0.1912
22765W        W37612   4.525   4.371   1.501  0.1364  0.0766 -0.0163
22766W        W37613  11.246  13.016  15.947 -0.1400 -0.0010 -0.1444
22767W        W37614   2.959  10.262   2.469 -0.3769 -0.0195 -0.4510
22768W        W37615  15.830  10.363   2.453 -0.0556  0.1436 -0.1416
22769W        W37616  16.431   4.358  14.632 -0.0143 -0.1517  0.1245
22770W        W37617   1.947   9.892   4.531  0.0066 -0.2177 -0.0694
22771W        W37618  12.921  13.537   0.837 -0.0691  0.1027 -0.0589
22772W        W37619  12.915  13.225   4.746  0.0244  0.0296 -0.2001
22773W        W37620   9.137  16.736  16.141 -0.2297  0.2681 -0.0567
22774W        W37621  14.395   4.649  12.216 -0.1236 -0.0959  0.0740
22775W        W37622  16.721   3.556   1.434  0.1795 -0.0672  0.1757
22776W        W37623  15.095  17.027   5.154 -0.2981  0.1333 -0.2342
22777W        W37624  13.990   0.529  13.702 -0.0618  0.2724 -0.0920
22778W        W37625  12.153   2.359   5.853  0.2851 -0.3179  0.1379
22779W        W37626   3.977   6.891  15.032  0.1676 -0.1154 -0.0129
22780W        W37627  15.905   2.476   3.742  0.0301  0.1535 -0.1238
22781W        W37628  15.468  12.955  16.918 -0.2773 -0.1124  0.1586
22782W        W37629  10.356   3.322   4.879  0.0406  0.0989  0.3507
22783W        W37630  14.726   1.130   5.436 -0.2494 -0.2801  0.0569
22784W        W37631  11.353  10.470  16.194 -0.1480  0.1950  0.2884
22785W        W37632  15.373  13.269   0.209  0.0307 -0.2897 -0.0359
22786W        W37633   6.789   6.326   4.096 -0.4132  0.0287  0.1892
22787W        W37634   1.237  11.502   1.078 -0.4017  0.5580  0.0202
22788W        W37635  14.642   3.707   2.542 -0.0859  0.1090 -0.3350
22789W        W37636  15.160   6.240  11.852 -0.0807  0.0005 -0.0819
22790W        W37637  16.088  15.371  12.999  0.0563 -0.2630  0.0653
22791W        W37638  14.350  14.287  13.937  0.3217 -0.0934 -0.2841
22792W        W37639   3.494  13.038  14.115 -0.2454  0.1196 -0.1320
22793W        W37640  16.814  13.742   5.793 -0.1772  0.1328  0.4159
22794W        W37641  13.273   5.072   5.699  0.1547  0.0424 -0.1908
22795W        W37642   0.902  13.278   3.327  0.0873  0.2053  0.1637
22796W        W37643   1.783  16.460  10.945  0.1025 -0.2997 -0.2963
22797W        W37644  12.859   6.723   0.934 -0.1361  0.1315  0.2750
22798W        W37645   1.216  14.030  13.813 -0.3215  0.0188  0.0771
22799W        W37646   1.179  12.879  14.584 -0.0330 -0.1833  0.0285
22800W        W37647  17.106   1.973   2.196  0.0076 -0.0025 -0.1591
22801W        W37648  13.012   8.325   5.385 -0.3162  0.2226 -0.2285
22802W        W37649  13.364  15.052   3.890 -0.1336  0.1551 -0.4056
22803W        W37650   5.300  11.200  12.631  0.2612  0.0201 -0.0697
22804W        W37651   3.142   9.647   0.725  0.2380  0.0942  0.0119
22805W        W37652  11.108   6.317  15.767 -0.0528  0.3214 -0.2319
22806W        W37653  14.316  13.402   2.892  0.0187  0.0321 -0.1096
22807W        W37654  10.277  10.881  13.324 -0.0338  0.0614  0.2774
22808W        W37655   7.774   7.118   3.809 -0.1182 -0.0333 -0.2857
22809W        W37656  16.089   0.568   1.746  0.0607  0.3518 -0.0584
22810W        W37657  16.876  17.965   5.320 -0.3304  0.0473 -0.2431
22811W        W37658  11.570   0.756  13.807  0.1205  0.0945  0.1460
22812W        W37659  12.510  14.344  14.812 -0.1600 -0.2663 -0.0897
22813W        W37660  12.380   9.272   4.076  0.2863 -0.3150  0.0749
22814W        W37661  13.173   7.441  15.864 -0.1571  0.0001  0.1233
22815W        W37662   9.386   1.927   4.663  0.2625 -0.2177  0.0459
22816W        W37663   8.108   4.970  15.501 -0.0385 -0.3352 -0.0892
22817W        W37664   3.604  10.018  16.175  0.1757 -0.1902  0.1869
22818W        W37665   9.151  11.746   3.103  0.0070 -0.1320  0.0134
22819W        W37666   1.902   2.026   3.815  0.0675  0.3030  0.1766
22820W        W37667  15.616   9.913  11.315  0.0278 -0.0637 -0.0088
22821W        W37668  16.012  17.952  14.851  0.0846 -0.2084  0.1923
22822W        W37669   6.553   2.815   1.222  0.4521 -0.4089 -0.1109
22823W        W37670   6.172  15.095   4.188 -0.0578 -0.0286 -0.1055
22824W        W37671  15.289   8.575   0.605 -0.0725 -0.0609  0.1201
22825W        W37672   0.129  13.338  16.094 -0.0212 -0.2693  0.0390
22826W        W37673  17.621  16.165  14.313  0.1915  0.0133  0.0479
22827W        W37674   1.520  17.514   1.175 -0.0913 -0.1113  0.1963
22828W        W37675  11.732   0.118   4.649  0.3643 -0.0878 -0.0473
22829W        W37676  12.228   1.447  15.647 -0.0625  0.1970  0.0933
22830W        W37677  14.455   3.095  11.808  0.0522  0.2187  0.1189
22831W        W37678  15.461   0.239  16.100 -0.3851 -0.2408  0.0442
22832W        W37679   8.476   3.747   4.608  0.3343 -0.1007  0.2388
22833W        W37680   8.872  17.806   3.872  0.0693  0.2091 -0.0089
22834W        W37681   9.877  10.106  15.514  0.0232  0.0721  0.1712
22835W        W37682   0.693   2.267  11.149  0.2958  0.0994 -0.0581
22836W        W37683  16.181   8.958  13.215  0.5594  0.0173  0.3305
22837W        W37684  13.971   4.925  12.465 -0.0703 -0.0125 -0.1796
22838W        W37685  12.088   8.626  15.477 -0.2202  0.1281 -0.1666
22839W        W37686  15.711  17.576  13.932 -0.3978  0.2795 -0.0628
22840W        W37687  16.625   1.286  12.659  0.0409  0.0236  0.1052
22841W        W37688  16.415   2.963  16.482  0.0237 -0.2608 -0.0882
22842W        W37689  17.102  17.246   3.765  0.1790 -0.0558  0.1636
22843W        W37690  11.527   8.358  12.583  0.2013  0.1655 -0.3345
22844W        W37691  11.795  15.420   5.409 -0.0291  0.0708  0.0234
22845W        W37692   3.186   5.005  13.212  0.0568 -0.1636  0.0941
22846W        W37693  14.817  13.154  13.998  0.0560  0.1413 -0.0449
22847W        W37694   9.188  11.148   0.490 -0.1754 -0.1338 -0.0334
22848W        W37695   9.881   5.608  14.870 -0.2581 -0.0394  0.0691
22849W        W37696   5.016  14.159   1.979  0.1277 -0.1120 -0.0526
22850W        W37697  16.609  10.133   3.642  0.2801  0.0717 -0.0130
22851W        W37698   7.493   6.673   5.238 -0.0216  0.1948 -0.2451
22852W        W37699  14.393  15.569   3.441  0.3746  0.1370 -0.2308
22853W        W37700  17.579   2.569   0.905  0.0317 -0.1437  0.0744
22854W        W37701   9.591   0.533   1.769 -0.0721  0.1764  0.0271
22855W        W37702   1.324  17.490   5.867 -0.2094 -0.3113  0.1495
22856W        W37703  14.101  17.032   3.703  0.2105  0.1284  0.1321
22857W        W37704  14.010   2.192   1.373  0.0240  0.1062 -0.1868
22858W        W37705  13.454  10.290   5.755  0.1435 -0.1011 -0.1574
22859W        W37706  16.502  13.235   5.065  0.1960 -0.0576 -0.1321
22860W        W37707   9.284   5.591   3.769 -0.0449 -0.0369  0.0054
22861W        W37708  15.384   9.178   2.962  0.1577 -0.0747  0.0159
22862W        W37709   0.193  14.162   2.314 -0.1875  0.0750 -0.0038
22863W        W37710  14.428  12.004   2.811  0.1265  0.0050 -0.0970
22864W        W37711   9.722  11.297  10.999  0.0417  0.2450  0.1874
22865W        W37712  12.097   4.113   5.410  0.0934  0.1865 -0.2262
22866W        W37713  11.862   4.792  15.458 -0.0756 -0.1522  0.0006
22867W        W37714  14.123  10.040   4.397  0.2632 -0.0851 -0.0827
22868W        W37715  16.234   5.729  10.251  0.0278 -0.1475  0.3377
22869W        W37716   1.420   5.907   0.568  0.0872  0.1218  0.2087
22870W        W37717  12.672  11.935  15.574 -0.1269 -0.4516  0.1460
22871W        W37718  12.212  16.133   4.222  0.0174  0.0921 -0.0624
22872W        W37719   7.199   7.133   0.802 -0.3280  0.0264 -0.0427
22873W        W37720  14.622   0.012  15.003  0.0557  0.0240 -0.0395
22874W        W37721  12.808   0.757   4.402 -0.1757 -0.0609  0.0994
22875W        W37722   0.224   6.816   2.407 -0.1905  0.0029  0.1187
22876W        W37723   9.504  15.510   5.995 -0.0079  0.0067 -0.0739
22877W        W37724  16.723  13.761  13.072  0.2419  0.0686  0.1053
22878W        W37725  11.506   5.864   5.907  0.0777 -0.0027  0.1394
22879W        W37726   3.482   8.162  12.618 -0.0078 -0.2437 -0.1392
22880W        W37727  10.893   5.633  11.595 -0.1992 -0.0488 -0.2639
22881W        W37728  17.081   4.118  11.943  0.1021 -0.2506  0.1412
22882W        W37729   9.967   3.097  11.853 -0.0724  0.0914  0.0979
22883W        W37730   1.788   5.983   5.494 -0.0330  0.1791  0.3289
22884W        W37731  16.922   8.105   1.465  0.5118  0.2344 -0.0187
22885W        W37732  16.828   9.656   3.766 -0.3260  0.1351 -0.0223
22886W        W37733   8.128  14.323   3.201  0.2946  0.0880 -0.0152
22887W        W37734   1.601   2.942  14.041 -0.1095  0.1114  0.0439
22888W        W37735  17.748   0.404   3.512 -0.0307  0.5250  0.3397
22889W        W37736  12.029  17.529  16.833 -0.2506 -0.2241  0.1067
22890W        W37737  11.784   9.261   5.274 -0.0994 -0.1964  0.4651
22891W        W37738   1.145  14.624  14.745 -0.0742 -0.0988  0.0046
22892W        W37739   5.390   0.649  14.908 -0.2244 -0.0108 -0.0216
22893W        W37740  10.441   7.195  12.076 -0.0949 -0.0583  0.0016
22894W        W37741  16.329   8.498   5.241 -0.1074  0.1532 -0.0376
22895W        W37742   2.643  15.943  15.745  0.0558 -0.1234  0.2165
22896W        W37743  17.826  11.873  16.741 -0.0392  0.0451 -0.0222
22897W        W37744   0.728   1.055   2.229  0.2667 -0.2016  0.0466
22898W        W37745  15.597   9.566  13.324  0.0754  0.0913  0.0289
22899W        W37746  16.198  16.175   1.996 -0.1047  0.3173  0.1971
22900W        W37747  11.544   9.105   0.618  0.1608  0.0029 -0.0201
22901W        W37748  16.569   3.233   0.243  0.1226 -0.2345  0.0063
22902W        W37749  12.519   6.606  15.215  0.0417  0.3301 -0.1360
22903W        W37750  13.399  10.020  14.872  0.2962 -0.1633  0.1404
22904W        W37751  14.104  11.032  13.299  0.1120 -0.3151  0.0510
22905W        W37752  16.423   4.644  15.362 -0.0945 -0.0012  0.1602
22906W        W37753  12.329   0.560   2.191 -0.1546 -0.2727 -0.0808
22907W        W37754  13.154   5.808   6.345  0.0689 -0.0498  0.0798
22908W        W37755  12.175  13.284   4.376 -0.1516 -0.1440  0.3334
22909W        W37756  14.959   6.490  13.525 -0.0396 -0.1981  0.0125
22910W        W37757  17.534  16.943  16.567  0.1258 -0.0622 -0.0952
22911W        W37758  16.508   2.747  13.411  0.0437 -0.0554  0.4061
22912W        W37759  11.671  17.134   3.875  0.1716  0.1485  0.2978
22913W        W37760  14.816   5.520  15.597 -0.3415  0.1014 -0.5485
22914W        W37761  14.765   9.950   5.146 -0.1129 -0.0752 -0.1255
22915W        W37762  11.433   7.882  15.166  0.1366 -0.1075  0.2694
22916W        W37763   8.804  17.067  15.111 -0.2113  0.0614 -0.1656
22917W        W37764   2.219   0.123   4.625  0.0267 -0.0687  0.1261
22918W        W37765  10.167   7.964  12.880  0.2377  0.1532 -0.1826
22919W        W37766  14.796  12.892  16.104 -0.0238 -0.0348 -0.0139
22920W        W37767  12.347  15.478   4.865  0.2176 -0.0427 -0.0389
22921W        W37768  17.360  15.572   2.180 -0.0514 -0.3666  0.0098
22922W        W37769  12.429  13.412  14.900  0.2086 -0.0467 -0.1071
22923W        W37770  15.848  13.276  12.947 -0.0755  0.0498 -0.0851
22924W        W37771  14.730  14.040  11.685 -0.5452  0.3005 -0.2731
22925W        W37772  14.697  14.055  13.565 -0.0558 -0.0215 -0.1595
22926W        W37773  12.885   3.087   5.744  0.0796 -0.0786  0.2275
22927W        W37774  12.158  17.164   0.149 -0.0130 -0.0319 -0.4199
22928W        W37775   0.950   7.371   1.553  0.1933  0.0521 -0.3180
22929W        W37776   5.565   2.967  15.483  0.4317 -0.0514  0.0622
22930W        W37777  14.466   4.239  15.625 -0.2215  0.1854 -0.4089
22931W        W37778  17.779  11.368   1.053  0.2053  0.0729 -0.1967
22932W        W37779  11.232   2.903  13.300  0.1712 -0.2205  0.1337
22933W        W37780   0.395  15.752   5.262 -0.0212  0.3757 -0.0826
22934W        W37781  10.914   1.717  14.452 -0.0852 -0.3397  0.0190
22935W        W37782  12.863  17.762   3.231  0.0482 -0.1629 -0.1955
22936W        W37783  13.342  11.209   0.414  0.0750  0.0826  0.1319
22937W        W37784  17.747   3.940   4.618 -0.1986 -0.0695 -0.0688
22938W        W37785  12.400  13.193  16.493  0.1135  0.1089 -0.3450
22939W        W37786  10.650   1.165   1.825  0.1575  0.2012  0.1761
22940W        W37787  14.272   3.965   5.631 -0.0374 -0.1000 -0.2158
22941W        W37788  11.865   2.614  16.197 -0.0696 -0.0793 -0.1559
22942W        W37789  11.384  10.685  13.656 -0.1325 -0.0709  0.1850
22943W        W37790  16.180  12.255   0.721 -0.2307 -0.2188  0.2350
22944W        W37791   1.130  16.142  12.107  0.1971  0.4653 -0.1150
22945W        W37792   6.489  10.187   1.971 -0.0908  0.1837  0.2384
22946W        W37793  11.589   5.954  12.592  0.1404  0.2323  0.0572
22947W        W37794   0.307   4.004   5.258 -0.0192  0.2247 -0.0768
22948W        W37795   1.153  14.121  14.779 -0.0229 -0.3315 -0.0244
22949W        W37796  17.608  14.935  13.711 -0.0162  0.0732 -0.0144
22950W        W37797  12.927  14.890   1.221  0.0174  0.2312 -0.0748
22951W        W37798  16.999   3.090   5.664  0.1699  0.2007 -0.3565
22952W        W37799  16.428  10.701   5.008 -0.2093 -0.0993 -0.0376
22953W        W37800  15.465   7.074   4.978  0.0530  0.3898 -0.0664
22954W        W37801  10.465   5.799  14.784  0.0916  0.1164  0.1190
22955W        W37802  12.489  11.124  14.907  0.2310 -0.2769  0.0111
22956W        W37803  17.476  14.019  13.381 -0.0637  0.0697 -0.1184
22957W        W37804   8.160   8.206  13.969  0.0671 -0.4030 -0.1045
22958W        W37805   9.490   9.215  16.240 -0.0478 -0.1876  0.0363
22959W        W37806  16.383  10.513  13.047  0.2403 -0.0377 -0.0880
22960W        W37807  16.697  13.576  10.913  0.0334 -0.0237 -0.1136
22961W        W37808  14.369   6.392  13.671  0.1684 -0.0205  0.0474
22962W        W37809  14.107   1.246   0.057  0.1742  0.1749 -0.1847
22963W        W37810  13.482   7.724  16.578  0.0765  0.1184  0.0087
22964W        W37811   9.120   2.006  16.345 -0.0424 -0.1743 -0.2161
22965W        W37812   0.400   9.905   5.194 -0.0595  0.0701  0.3295
22966W        W37813   1.214   8.933  15.951 -0.0303  0.3790 -0.0127
22967W        W37814  17.954  16.171  15.298  0.1197 -0.0510 -0.1706
22968W        W37815  15.161  14.394  15.774  0.1153  0.3621 -0.1315
22969W        W37816   6.234   1.894   2.320 -0.3664  0.2814 -0.1514
22970W        W37817   7.727   8.084  15.007 -0.0323  0.1726 -0.1353
22971W        W37818  16.637  17.356  17.015 -0.0600  0.0647  0.3278
22972W        W37819  13.633  13.960   0.317  0.3787  0.0785 -0.0232
22973W        W37820  13.322  15.634   4.349  0.4422  0.2045  0.2266
22974W        W37821  13.003  17.243   3.477 -0.0471 -0.2146  0.0688
22975W        W37822   6.656   6.809   6.618  0.0960 -0.0608  0.0536
22976W        W37823  16.848  17.750  16.798 -0.0092 -0.1533  0.0845
22977W        W37824  15.078   0.043  12.354  0.1593 -0.2099 -0.2965
22978W        W37825  17.011  14.200  12.614  0.1556  0.1702  0.1186
22979W        W37826  10.406  14.369  14.672  0.0399  0.0435 -0.1015
22980W        W37827  13.486  17.322  11.155  0.1377 -0.1634 -0.1536
22981W        W37828  16.448   2.609   1.658 -0.1182  0.0989 -0.0051
22982W        W37829  14.802  13.584   3.708 -0.1540  0.6372  0.2576
22983W        W37830   2.977   3.871   0.626  0.1916 -0.2849 -0.0188
22984W        W37831  16.113   6.255   6.651  0.0124 -0.0377 -0.3000
22985W        W37832  11.667   5.972  14.586 -0.0013  0.0168  0.0893
22986W        W37833   0.574   0.501   0.959  0.0594 -0.1651 -0.1548
22987W        W37834  15.016   2.964   1.389  0.0928  0.0151 -0.1439
22988W        W37835  17.351   0.015  14.808 -0.2446  0.1893  0.0011
22989W        W37836  16.791   4.142   2.242  0.0977  0.1951 -0.0683
22990W        W37837  11.930   5.019  12.286  0.0690 -0.0119 -0.1540
22991W        W37838   1.870   1.377   4.946  0.0655 -0.1347 -0.3027
22992W        W37839  14.511   7.792  14.189  0.2610  0.0033  0.2989
22993W        W37840  10.853   3.982  17.095  0.2019  0.1320  0.0008
22994W        W37841  16.940   2.373   3.445  0.0779 -0.2465  0.0699
22995W        W37842  13.628   2.665  12.083  0.1780 -0.0523  0.0268
22996W        W37843  15.940   3.727   4.045 -0.0815  0.0007 -0.2342
22997W        W37844   8.851  11.536  15.897 -0.2266  0.0964 -0.0772
22998W        W37845  17.918  17.297  11.623  0.0566 -0.3466  0.0275
22999W        W37846  12.120   2.758   2.085  0.2158  0.1605 -0.0006
23000W        W37847   5.964  15.585   4.765 -0.2150  0.1850 -0.0541
23001W        W37848   0.127  16.086   2.668 -0.1606  0.1815 -0.0399
23002W        W37849   9.655  14.514   0.406  0.1008  0.1139  0.0575
23003W        W37850  14.563   1.255  14.389 -0.2796  0.2080 -0.0153
23004W        W37851   8.909   4.120  15.024 -0.0552 -0.1071 -0.1393
23005W        W37852  12.851   9.762  15.715 -0.0167  0.1811  0.0481
23006W        W37853  12.364   9.285  14.446 -0.1414 -0.1402  0.2604
23007W        W37854  15.708   4.582   4.569  0.2908 -0.1137 -0.1769
23008W        W37855   4.479  14.729  16.114 -0.2705 -0.0095  0.0010
23009W        W37856  15.228  15.574  15.223  0.2372 -0.2322 -0.0663
23010W        W37857  17.001  13.909   4.344 -0.0953  0.1085 -0.2068
23011W        W37858  16.651  10.582  15.348  0.1021 -0.0690  0.2362
23012W        W37859   2.936  16.594   4.302 -0.1980  0.0131 -0.0682
23013W        W37860  17.736   7.702  13.576  0.0798  0.0821  0.4351
23014W        W37861   2.312  10.676   0.338 -0.2061 -0.2879 -0.1187
23015W        W37862  14.011  16.121  12.252 -0.0089  0.1267  0.1091
23016W        W37863  14.492  16.397   0.545 -0.1696  0.0826  0.2032
23017W        W37864  16.083  13.707   0.187 -0.0865  0.1397 -0.2981
23018W        W37865  10.403  17.876   1.420  0.1070 -0.0596  0.1973
23019W        W37866  11.439   6.882   4.887  0.0775  0.0220  0.0464
23020W        W37867  14.561  12.613  15.736 -0.0864 -0.0106  0.1658
23021W        W37868  10.003  15.802  16.698 -0.1023 -0.0200 -0.1808
23022W        W37869  16.234   3.358  14.636  0.1806  0.1849 -0.3196
23023W        W37870  11.981   3.803  17.084 -0.1936 -0.0057  0.0884
23024W        W37871  15.054   6.378  12.303 -0.0650 -0.1589 -0.0562
23025W        W37872   3.555   5.828   2.251 -0.2023 -0.0362 -0.2055
23026W        W37873   9.042  16.478  14.622  0.0671  0.5719  0.1467
23027W        W37874  13.982  13.818   3.171  0.2321 -0.0345 -0.1720
23028W        W37875  13.621  13.168   0.118  0.2412 -0.0867  0.0833
23029W        W37876  13.531   4.298  13.687 -0.1483 -0.2859  0.0519
23030W        W37877  13.809   7.399  12.378 -0.0914  0.0079  0.2520
23031W        W37878  12.730  13.945  13.435  0.1532  0.1842  0.1662
23032W        W37879  10.126  15.738  11.873 -0.1132 -0.0921 -0.0876
23033W        W37880  10.780   0.730  14.878  0.0200  0.2875 -0.0660
23034W        W37881  15.707   6.237   0.066 -0.0420 -0.2439 -0.0543
23035W        W37882  12.471   6.966  12.348  0.1081  0.0890 -0.4326
23036W        W37883  13.080   8.715   1.136 -0.0606  0.1268  0.0981
23037W        W37884  16.162   7.501   6.257  0.0699  0.0845 -0.0374
23038W        W37885  16.593   4.946   0.275  0.2518 -0.4264  0.0502
23039W        W37886  13.889  11.826   5.019  0.4661 -0.1509 -0.1118
23040W        W37887  16.390  10.498  13.965  0.0221  0.0308  0.1567
23041W        W37888  14.843  15.679  17.076  0.2138 -0.1541  0.0575
23042W        W37889  11.856   6.936  14.083  0.1950  0.2349 -0.1343
23043W        W37890  13.390  13.891  15.342 -0.1881 -0.1395 -0.0377
23044W        W37891  14.569   7.367  13.406  0.3150 -0.1661  0.1275
23045W        W37892   8.657  17.824  12.778  0.1504  0.1973  0.1499
23046W        W37893   2.023   4.879  14.507 -0.1446 -0.0462 -0.0663
23047W        W37894  15.768   6.153   1.501  0.3309  0.0835  0.3317
23048W        W37895  13.850  16.994   1.006 -0.2516  0.4057 -0.0309
23049W        W37896  16.786   4.967   6.788 -0.2172  0.1156  0.3158
23050W        W37897  16.588   2.763   5.295 -0.3074  0.2175 -0.1036
23051W        W37898   7.689   8.925   2.720  0.2582 -0.0575  0.0589
23052W        W37899   7.524   3.825   5.377 -0.0674 -0.1889 -0.2173
23053W        W37900  12.232   6.487   3.391  0.0804  0.0565  0.1683
23054W        W37901  10.109  12.414  13.275 -0.1014  0.0032 -0.2659
23055W        W37902  10.404   0.151  16.780 -0.1979  0.2613  0.0008
23056W        W37903  15.787   2.069  13.476  0.0182 -0.0879 -0.0025
23057W        W37904  12.272   3.020  16.688  0.3301  0.3837 -0.1501
23058W        W37905  14.805   5.775  11.082  0.0780  0.0272 -0.2728
23059W        W37906  13.361   1.158  12.178 -0.0345 -0.3908 -0.0193
23060W        W37907  15.142   2.295  11.717 -0.2666 -0.0722 -0.0247
23061W        W37908  17.065   4.482   3.874 -0.2538 -0.0960  0.1202
23062W        W37909  16.831   8.475   5.531  0.2559 -0.0213 -0.0789
23063W        W37910  16.216  16.014  16.831 -0.0694  0.1370  0.0965
23064W        W37911  11.847   2.029  13.429 -0.1543 -0.0634 -0.1554
23065W        W37912   9.893  12.438  11.112  0.1577 -0.0546  0.1067
23066W        W37913  16.245   7.010   3.254 -0.0232 -0.0343 -0.2146
23067W        W37914  12.602  14.390   5.386  0.0084  0.0868 -0.0360
23068W        W37915   2.974  12.762   4.476 -0.1553  0.1016 -0.1849
23069W        W37916   1.154  13.863  15.218 -0.0757  0.1607 -0.1589
23070W        W37917   8.501   2.010   1.372 -0.2130  0.0619 -0.0019
23071W        W37918   9.251   7.540   5.743 -0.4271  0.0860 -0.0410
23072W        W37919  16.156   7.818   4.682  0.0182 -0.0330 -0.0900
23073W        W37920  13.882  14.105   1.937 -0.2734  0.2880  0.0473
23074W        W37921   3.194   7.745   5.054 -0.1035 -0.2906 -0.0992
23075W        W37922  15.427   4.020   1.580 -0.0924  0.2929  0.0474
23076W        W37923  14.267  12.074   0.111 -0.1913 -0.0998 -0.2221
23077W        W37924   0.615   8.809  11.479 -0.0378  0.0676  0.1349
23078W        W37925  15.279  16.721  13.257 -0.1034 -0.0289  0.1743
23079W        W37926  11.374  12.159   0.707  0.0457  0.0156 -0.0486
23080W        W37927  16.041  10.034   5.636  0.3775  0.1689  0.2309
23081W        W37928  15.654  14.264  14.020  0.1325 -0.0840  0.1424
23082W        W37929   1.864   7.444   2.939  0.2000  0.0258 -0.1277
23083W        W37930  17.109   8.291  11.468 -0.1578  0.1087  0.0731
23084W        W37931  10.506   7.141  15.245 -0.0095  0.0871  0.1148
23085W        W37932  14.203  15.800   1.205  0.3107  0.4312 -0.3001
23086W        W37933  15.224  17.887   0.784  0.3559  0.2366  0.0590
23087W        W37934  14.994   6.643   3.543 -0.2776 -0.0287 -0.1678
23088W        W37935  10.909  17.831   3.109 -0.2609  0.0886  0.4822
23089W        W37936  10.076   5.019  13.337  0.0368 -0.2200 -0.0957
23090W        W37937   0.115   3.532   5.906  0.4494  0.0765 -0.1421
23091W        W37938  17.201   2.156  15.649 -0.0750 -0.1737  0.0632
23092W        W37939   9.955   7.191   3.557 -0.2839  0.1850  0.1944
23093W        W37940  12.336  15.359   5.410 -0.0762  0.1354  0.1753
23094W        W37941  13.809   5.556   4.712  0.1669 -0.0253 -0.0851
23095W        W37942   0.724   8.072   2.592 -0.0614 -0.2475  0.1319
23096W        W37943   8.668   5.884  11.787  0.1427 -0.0651  0.0601
23097W        W37944  10.269  11.193   0.788 -0.3365  0.0371  0.1674
23098W        W37945   3.191  16.684   3.887  0.0597 -0.3598  0.1670
23099W        W37946  16.838   9.401   5.366  0.0105  0.1803 -0.0885
23100W        W37947  14.652   7.199  15.891 -0.0118 -0.2450  0.1372
23101W        W37948  16.064  13.595  13.354  0.1883 -0.0153 -0.2179
23102W        W37949  12.974  10.284   0.662  0.1045  0.2282 -0.0618
23103W        W37950  10.343   4.063  13.310 -0.3406  0.0425 -0.0608
23104W        W37951  17.023  12.905  16.986  0.1564  0.3175  0.0115
23105W        W37952  13.227  15.598   5.704 -0.1797  0.1773 -0.1306
23106W        W37953  13.426  13.439   5.614 -0.0279  0.0192 -0.2252
23107W        W37954   2.663   5.535   5.162 -0.1950  0.1799 -0.0222
23108W        W37955  17.850  11.478   2.528 -0.0427 -0.0389  0.2098
23109W        W37956   9.473   5.447  16.387  0.1346  0.2379  0.0680
23110W        W37957  13.002  16.776  12.781  0.2910  0.1715 -0.0021
23111W        W37958   1.577  12.512  14.878  0.1129 -0.1144  0.2130
23112W        W37959  14.819   2.997   0.153  0.5326 -0.2923  0.0811
23113W        W37960  15.205  12.578  12.096  0.2217  0.2028 -0.0854
23114W        W37961  10.810   3.394   5.311  0.0093 -0.1617 -0.2515
23115W        W37962   5.563   8.770   0.426 -0.0561 -0.2078 -0.1512
23116W        W37963   2.210  11.334   5.730  0.2687 -0.1469 -0.0657
23117W        W37964  13.091   8.318   4.572 -0.1537  0.0581 -0.1326
23118W        W37965  13.316  17.017  15.092 -0.2833  0.2133  0.3523
23119W        W37966   8.161  11.407   4.671  0.1111 -0.2718  0.3283
23120W        W37967  13.723   1.070  11.315  0.1378 -0.0185  0.3587
23121W        W37968  10.759   9.655   5.927 -0.1101  0.0556 -0.0392
23122W        W37969  11.302  11.536  15.089  0.0914 -0.1817 -0.2109
23123W        W37970  11.319   8.485   6.376 -0.0128  0.2677  0.0634
23124W        W37971  13.288  13.387  15.165 -0.1989  0.3612 -0.0418
23125W        W37972  14.558   7.785  12.927 -0.2627  0.3033 -0.1187
23126W        W37973  11.611   7.207  11.985  0.2915  0.0298 -0.0618
23127W        W37974  12.550   5.458  13.323 -0.1489 -0.2807 -0.0120
23128W        W37975  17.586   3.469   4.457  0.0207 -0.2743 -0.1551
23129W        W37976  13.313  11.804  11.841  0.2665  0.2160 -0.0451
23130W        W37977  12.980  12.083  14.029  0.1285  0.1659  0.1259
23131W        W37978  17.224  16.348  13.229 -0.2477  0.2239  0.1622
23132W        W37979  15.972  16.527   3.840 -0.0469  0.1610  0.0911
23133W        W37980  17.200  13.762  14.243 -0.1253 -0.0555  0.1123
23134W        W37981   1.139  17.848   0.853  0.1295 -0.1755  0.1778
23135W        W37982  14.040  16.872   2.836 -0.1338  0.0621 -0.1748
23136W        W37983  16.428   3.419  11.716 -0.0546 -0.0544  0.2468
23137W        W37984  13.466  11.384   3.802  0.0034 -0.1864  0.0589
23138W        W37985  15.273   7.661   0.125 -0.1781  0.3374 -0.1703
23139W        W37986  16.017   2.054  11.247  0.1156 -0.1651 -0.0741
23140W        W37987  16.395   6.120   5.894 -0.0961  0.2595 -0.3711
23141W        W37988  13.577   6.251  13.210  0.0671 -0.1975  0.6431
23142W        W37989   6.519   0.184  16.362  0.3215 -0.1334 -0.1252
23143W        W37990  17.911  12.947  15.911  0.1869 -0.0202 -0.2387
23144W        W37991   9.695  14.783  16.769 -0.2780 -0.1032  0.2808
23145W        W37992  13.546  10.406   5.021 -0.4247 -0.2825 -0.2333
23146W        W37993  13.113  11.767   4.277  0.0597  0.1923  0.0643
23147W        W37994  17.732   1.013  12.655  0.1079 -0.1767  0.1366
23148W        W37995   8.326   1.553  14.004  0.0368 -0.1826 -0.0089
23149W        W37996   2.749   2.018   4.997 -0.2436 -0.2979 -0.3759
23150W        W37997   0.943   1.368  11.298 -0.0230 -0.1149  0.2218
23151W        W37998  16.506   4.093  10.684  0.0180 -0.3034  0.0389
23152W        W37999  14.046  16.867  14.190 -0.3511 -0.0590 -0.0166
23153W        W38000   7.885   7.752  11.638 -0.0018 -0.0979 -0.0249
23154W        W38001   9.358   3.782   4.180  0.2434  0.1438 -0.3479
23155W        W38002  10.142  11.201  16.177  0.0757  0.1889 -0.0345
23156W        W38003  16.160   0.796  16.313  0.0049  0.1945  0.0389
23157W        W38004  11.454   5.397  16.617  0.3514 -0.3715 -0.1380
23158W        W38005  17.488   0.245   0.138  0.3275  0.1395  0.0917
23159W        W38006   6.279  13.166   5.991 -0.2027 -0.0319  0.0503
23160W        W38007  14.572  17.768  11.533  0.2400 -0.1156 -0.0152
23161W        W38008  17.490   2.910   5.655  0.0338  0.1651 -0.0856
23162W        W38009  15.312   1.568   1.821  0.1383  0.2987  0.0357
23163W        W38010   6.197   0.627  12.280 -0.1106  0.2832  0.1253
23164W        W38011  10.860   9.499   4.741  0.0096 -0.2902 -0.2254
23165W        W38012   1.946   8.604  16.151  0.0257 -0.1001 -0.1205
23166W        W38013  14.547  14.530  12.927  0.1334 -0.0118  0.0134
23167W        W38014  12.568   3.783   6.975  0.1201 -0.0890  0.1135
23168W        W38015  15.197  12.157   3.232  0.1280  0.2448  0.0808
23169W        W38016   2.736   9.968   2.780 -0.0253  0.0161 -0.2153
23170W        W38017   4.310  13.131   0.341 -0.2444  0.0230 -0.2899
23171W        W38018   7.846  15.507   2.163 -0.2094 -0.1814 -0.1034
23172W        W38019   1.447  16.669   2.858  0.1717 -0.1487 -0.0770
23173W        W38020  13.452   9.086   4.060  0.1171 -0.0203 -0.2947
23174W        W38021  15.308  16.248   1.685 -0.0395  0.0726  0.1839
23175W        W38022   4.087  10.709  14.452  0.1965 -0.1899  0.2511
23176W        W38023  15.583  11.550  16.550  0.0891  0.3085  0.0586
23177W        W38024  11.637   9.580  14.392  0.0183  0.0949  0.0372
23178W        W38025   9.906   6.415   5.368  0.1136  0.1667 -0.1204
23179W        W38026   2.818  17.729  13.881 -0.0024  0.0062  0.0798
23180W        W38027  17.521  13.598   3.164 -0.0939 -0.0589 -0.0270
23181W        W38028  16.286   8.456   4.177 -0.0023 -0.0052  0.0697
23182W        W38029  16.857   1.005  17.106  0.1647  0.0121  0.0517
23183W        W38030  13.773   6.805   2.129 -0.1745 -0.1302 -0.2394
23184W        W38031   8.404   6.225  13.946 -0.0477 -0.0644  0.2794
23185W        W38032  16.160   1.648   4.725  0.3129 -0.1391 -0.0458
23186W        W38033  16.063   0.590   4.378  0.0061 -0.1889 -0.1643
23187W        W38034  13.157  11.840  16.221  0.0024  0.2417 -0.0054
23188W        W38035  12.678   3.850  16.568  0.0036  0.1433 -0.1199
23189W        W38036  12.501   7.704  14.107 -0.0026 -0.1559  0.0068
23190W        W38037  17.579   3.657   5.025 -0.2760 -0.1684 -0.0445
23191W        W38038  16.398  17.303  14.507 -0.0206 -0.0247  0.1335
23192W        W38039  15.117   8.257   4.592 -0.0119 -0.3554 -0.1519
23193W        W38040   9.713   8.803  12.417 -0.0611  0.2893  0.0567
23194W        W38041  15.239  14.355   0.930 -0.0497 -0.1804  0.0775
23195W        W38042  14.867   3.919  16.970 -0.0055  0.3669 -0.0391
23196W        W38043  13.753  12.359  13.103 -0.1246 -0.3059 -0.0718
23197W        W38044  16.914   6.486   1.261 -0.0229  0.1688 -0.3303
23198W        W38045  15.424   3.425  12.543  0.1845  0.2433 -0.3103
23199W        W38046  14.094   6.310  13.043 -0.2965  0.2623  0.0772
23200W        W38047  12.660   2.950   5.223  0.1499  0.3591  0.2642
23201W        W38048  13.406   1.807   0.175  0.0321 -0.2471  0.0639
23202W        W38049  13.992   6.781  16.730 -0.1777  0.0835  0.0154
23203W        W38050  10.801  15.781   0.570  0.1443  0.1813  0.0098
23204W        W38051  16.593  11.790   3.806  0.1428 -0.3141  0.0159
23205W        W38052   6.752  12.485  15.248 -0.3355  0.1900  0.0483
23206W        W38053  12.962   7.241  14.913 -0.3272 -0.0617 -0.1286
23207W        W38054   4.581   2.202   2.322 -0.1606  0.2362 -0.1788
23208W        W38055   4.387  15.508   1.499  0.1865 -0.0479 -0.1749
23209W        W38056  11.610  15.602  10.883  0.0370  0.3913 -0.1433
23210W        W38057   2.134   0.436   3.894  0.1613 -0.0454  0.0192
23211W        W38058  13.895  10.738  12.970 -0.1155 -0.2483  0.2770
23212W        W38059   7.377  15.114  11.363 -0.0307  0.0298 -0.2257
23213W        W38060   9.480   8.296   1.542 -0.0406 -0.1788 -0.0164
23214W        W38061   9.996   0.182  15.120 -0.2247 -0.0281  0.2582
23215W        W38062   0.198   7.171   1.003 -0.0045 -0.1881 -0.0308
23216W        W38063  14.743   9.857   3.332 -0.2751 -0.0861  0.1461
23217W        W38064  17.572   3.078   1.132 -0.1082  0.0590 -0.1573
23218W        W38065   5.151  10.905  13.287  0.0394 -0.1228 -0.0640
23219W        W38066   8.446  11.014   0.683  0.3673  0.0215 -0.1317
23220W        W38067   6.223  12.153   1.109  0.2426  0.1596 -0.0387
23221W        W38068  12.835  14.849   2.107 -0.0023  0.3211 -0.0885
23222W        W38069  16.228   2.931  15.020  0.2066 -0.0300 -0.0482
23223W        W38070  15.160  16.311  11.417 -0.1871 -0.1201  0.0444
23224W        W38071  14.547   7.696  12.392 -0.0794  0.0069  0.0029
23225W        W38072  11.239  12.699   4.864 -0.0050 -0.1685  0.1582
23226W        W38073   8.720   1.496  14.943 -0.0255 -0.0053  0.1984
23227W        W38074   8.608   6.265  12.180 -0.3049 -0.1994 -0.0956
23228W        W38075   9.094  14.726   1.538  0.1061  0.2819 -0.0765
23229W        W38076   0.736   7.820   4.475 -0.0657 -0.0047  0.3231
23230W        W38077  10.247   5.762   5.976 -0.2286 -0.0690  0.0769
23231W        W38078  16.861  11.848  13.071 -0.2399 -0.1316 -0.0795
23232W        W38079   9.731  16.964  13.857  0.0556  0.2150  0.1370
23233W        W38080  15.345   5.005   5.281  0.0381  0.0380  0.1236
23234W        W38081  15.463   2.528   3.418 -0.0953  0.5882  0.1761
23235W        W38082  13.791   5.190   1.023  0.2129  0.4414 -0.1666
23236W        W38083  12.034  12.619  12.489  0.0219  0.0592  0.1005
23237W        W38084  13.440  11.728   0.343  0.0323  0.0716  0.2782
23238W        W38085  10.392   7.241  13.662 -0.1448  0.0970  0.0050
23239W        W38086  14.393  17.772   1.785 -0.0076  0.2344 -0.3823
23240W        W38087  14.969   7.598   1.382  0.1587  0.1255 -0.2438
23241W        W38088  10.993   0.448  14.393  0.3520 -0.5321  0.1806
23242W        W38089   8.778  11.653  11.882 -0.1386  0.0912 -0.1622
23243W        W38090   4.654  16.476  14.049  0.1959 -0.0718 -0.2621
23244W        W38091  15.177  10.657  15.165 -0.2932 -0.0550 -0.0934
23245W        W38092  10.356   8.552   4.331 -0.1085  0.1465  0.2137
23246W        W38093   9.272   7.479  12.232  0.1423 -0.1423  0.1768
23247W        W38094  14.293   2.305  16.267 -0.2616 -0.0488 -0.1689
23248W        W38095   1.765  15.808   0.133  0.4347 -0.2242  0.0868
23249W        W38096  11.435  14.609   2.629 -0.2303 -0.4294  0.1781
23250W        W38097  16.170   6.922  15.556 -0.2367 -0.5021  0.3762
23251W        W38098   6.745  17.447  15.955 -0.0131 -0.2204 -0.1101
23252W        W38099  15.367  16.018  14.106  0.1177 -0.1751 -0.1017
23253W        W38100  17.545   9.867   5.680  0.0872 -0.1024 -0.0384
23254W        W38101   2.412   2.119   4.608  0.0254  0.0998  0.2266
23255W        W38102  13.209  10.389   4.035 -0.3357 -0.0819 -0.3440
23256W        W38103  17.485   2.357   5.081  0.0002  0.0778 -0.0063
23257W        W38104   9.475   1.263  11.677  0.0639  0.2211 -0.1222
23258W        W38105   9.128   6.150  15.624 -0.0529  0.0865  0.0741
23259W        W38106   7.737  11.098   6.404  0.0414  0.1963 -0.0227
23260W        W38107  13.368   9.380  12.397 -0.1561 -0.2683  0.0117
23261W        W38108   2.482   3.245  16.174  0.1749  0.3725 -0.1801
23262W        W38109  11.287  12.492  13.805 -0.1604 -0.1581 -0.0100
23263W        W38110  14.301   3.806  12.313  0.1634 -0.0227  0.0933
23264W        W38111   0.909   6.209   2.047 -0.1384 -0.1285  0.2364
23265W        W38112  14.563   9.971  15.527 -0.0512 -0.2325  0.3651
23266W        W38113  16.128   0.386   5.692 -0.0950  0.1635 -0.0094
23267W        W38114  11.797   8.717  14.673 -0.1135 -0.1300  0.1202
23268W        W38115  15.548   2.181  11.353 -0.2299  0.0508  0.3419
23269W        W38116   4.284  15.389   4.957  0.1823 -0.1658 -0.1759
23270W        W38117  16.971   1.821  12.912  0.2166 -0.1197  0.0110
23271W        W38118  14.921   5.139  12.625 -0.2278  0.0460 -0.2354
23272W        W38119  16.278  14.638   3.115  0.1876  0.0523  0.0487
23273W        W38120  12.102  13.151  11.113  0.1648 -0.0336  0.2019
23274W        W38121  13.034   6.971   1.751  0.1773  0.1756  0.3107
23275W        W38122  13.907   8.898   3.192  0.0248  0.0558  0.2730
23276W        W38123  15.329   0.685  14.018  0.0965 -0.1162 -0.1649
23277W        W38124  13.098  17.649   4.107  0.2782 -0.0832 -0.1507
23278W        W38125   4.797   2.847   2.243  0.2381 -0.0569 -0.1690
23279W        W38126  15.434   4.329  12.594 -0.3856  0.2567  0.2484
23280W        W38127   1.249  11.709   3.184  0.2289  0.3619  0.0654
23281W        W38128   2.098   1.060   2.368 -0.1739  0.4608 -0.1793
23282W        W38129  15.437  12.108  12.125 -0.2626  0.1376 -0.0880
23283W        W38130  14.857   0.101  13.328  0.2162 -0.0634  0.2554
23284W        W38131  14.430   1.661   0.017  0.1184 -0.1775  0.4050
23285W        W38132  15.649   7.621   4.634  0.0834  0.1020  0.2566
23286W        W38133  15.337   1.282  11.179 -0.1042  0.1966 -0.3591
23287W        W38134  14.349   9.059   3.066  0.0523 -0.0406 -0.0243
23288W        W38135  14.626  12.208   3.263  0.1579 -0.0360  0.1643
23289W        W38136  11.089  10.698   2.565 -0.0186 -0.1742 -0.1760
23290W        W38137  16.594   1.886  15.713  0.1003 -0.1204 -0.1285
23291W        W38138   9.871   5.409   3.406  0.0860  0.0400 -0.6135
23292W        W38139  15.017   3.434  11.324  0.1136 -0.1261  0.1516
23293W        W38140  11.331  13.229   0.142 -0.1301  0.0783  0.0249
23294W        W38141  14.419  17.597   5.325  0.1244  0.2841  0.2306
23295W        W38142  14.371   8.093  16.065  0.0843  0.0315 -0.1264
23296W        W38143  13.368  11.027  16.129 -0.0908  0.3055 -0.1473
23297W        W38144  17.064  15.662  15.150 -0.1808  0.0720 -0.0293
23298W        W38145  17.891   7.663   4.247  0.1319  0.3670 -0.1226
23299W        W38146   7.167   1.932   4.091  0.1702  0.5674 -0.0403
23300W        W38147  17.599   7.166   6.208  0.2237  0.1577 -0.0668
23301W        W38148   0.896  11.966   5.867 -0.1342  0.0329  0.2378
23302W        W38149  10.023   4.588   5.127 -0.1695 -0.0356 -0.1316
23303W        W38150  12.067   6.726  14.956  0.1802  0.0296  0.0020
23304W        W38151  15.992  10.738  11.876  0.0885 -0.1566  0.3066
23305W        W38152  12.137  15.787   3.798 -0.1055  0.1008 -0.0924
23306W        W38153  13.738  11.079  14.187  0.2468 -0.1234  0.0982
23307W        W38154  16.009   6.984   6.235 -0.0188 -0.1109  0.1533
23308W        W38155   1.806  13.359   2.921  0.2828  0.1369  0.4067
23309W        W38156   2.820  17.182  14.762 -0.3176 -0.2242 -0.3334
23310W        W38157   0.599   9.032  12.513  0.3967 -0.0100 -0.0003
23311W        W38158  14.717   3.792   4.883  0.0163 -0.1158  0.2881
23312W        W38159  14.371   1.220  15.585  0.1843 -0.1698 -0.3522
23313W        W38160  11.823   0.872   0.646 -0.0409 -0.1851  0.3225
23314W        W38161  17.597  10.156   0.517  0.2056 -0.0573 -0.0511
23315W        W38162  15.679  16.585   0.245  0.0331  0.1249 -0.1102
23316W        W38163   4.906   9.325  17.056 -0.0846 -0.2594  0.0812
23317W        W38164   6.112   8.841  14.791 -0.2020 -0.0425  0.1580
23318W        W38165   3.186  13.582  12.460  0.0206  0.1492  0.0920
23319W        W38166  16.327   8.861  12.269  0.0587 -0.0774 -0.0399
23320W        W38167  11.133   4.950  13.974 -0.2857 -0.4566  0.0599
23321W        W38168   9.947   9.979  16.703  0.1194 -0.1899 -0.1620
23322W        W38169   9.263   2.773   1.311 -0.2069 -0.2302  0.1694
23323W        W38170   4.184   3.064  17.051 -0.1018 -0.0721  0.1967
23324W        W38171  10.035   1.874   4.080 -0.0624 -0.0601  0.1968
23325W        W38172   2.882   1.973  12.444 -0.2193  0.0440 -0.0758
23326W        W38173  13.268   5.086  15.541  0.1101  0.3121  0.2890
23327W        W38174   9.971   9.207   3.287  0.3246  0.0648 -0.1787
23328W        W38175  13.769   5.350  13.178  0.0702 -0.2004  0.0001
23329W        W38176   9.177   7.520   4.062  0.1045  0.0195 -0.1025
23330W        W38177  13.714   0.134  11.450  0.1420  0.0753 -0.0819
23331W        W38178  17.200   7.525  15.656 -0.1438 -0.0442  0.0686
23332W        W38179  13.215   9.483   4.468  0.2059 -0.2265  0.1564
23333W        W38180   9.450   3.554  17.063  0.0025 -0.1230 -0.1673
23334W        W38181  15.833   6.674  16.399 -0.1222  0.0468  0.4026
23335W        W38182  16.065  17.365   3.647 -0.1698  0.0894 -0.1535
23336W        W38183   2.728  13.994   3.280  0.2158 -0.1079 -0.3151
23337W        W38184   0.483   5.719   2.887  0.1402  0.0269  0.0744
23338W        W38185  16.874  13.768  16.754  0.4045 -0.1389 -0.2760
23339W        W38186   0.094   8.894  14.460 -0.1063  0.2711 -0.1214
23340W        W38187   0.150   3.759  13.619 -0.1332 -0.4277  0.1903
23341W        W38188  12.594  14.163   4.812  0.1141 -0.0062 -0.0433
23342W        W38189  12.850   6.903   0.489 -0.1621  0.3517  0.0921
23343W        W38190   1.769   6.850  11.919 -0.0589 -0.1592  0.1242
23344W        W38191   5.901  11.281  16.818 -0.1263 -0.1786  0.1858
23345W        W38192  14.565  13.196   0.960  0.0127  0.3140  0.0264
23346W        W38193   0.839  17.026  12.448  0.1193  0.1233 -0.0930
23347W        W38194   1.372  14.062  16.375  0.3085 -0.0152  0.0819
23348W        W38195  12.769  12.635   1.437  0.1749  0.1317  0.3928
23349W        W38196  16.030   5.099   0.488  0.0869  0.3646  0.0515
23350W        W38197   0.701   2.900   2.013  0.2012  0.0690  0.0562
23351W        W38198  11.693  16.780  14.858 -0.0423  0.0669  0.2527
23352W        W38199   7.990   7.659  15.001  0.0341 -0.0505 -0.5780
23353W        W38200  15.089  17.851   5.079  0.1620 -0.4729 -0.0198
23354W        W38201  16.414   4.860   1.600  0.2193  0.0384 -0.1590
23355W        W38202   2.315   1.111   1.052 -0.1760 -0.0245 -0.5433
23356W        W38203  14.669   1.195  10.315  0.0388  0.4704  0.0093
23357W        W38204  14.177  10.880  14.740  0.2270 -0.0037  0.1431
23358W        W38205  16.878   2.417   9.645 -0.0019  0.0788 -0.0083
23359W        W38206  10.047  13.952  16.730  0.1167  0.0776  0.1209
23360W        W38207  15.222   0.817   3.994  0.1747  0.1478 -0.1349
23361W        W38208  13.954  13.975  16.973 -0.1816 -0.0096 -0.0470
23362W        W38209  11.584   4.742   4.559 -0.1340  0.0389 -0.1876
23363W        W38210  14.012  12.428   0.631  0.1647 -0.2293  0.0273
23364W        W38211   8.987  16.954  12.322 -0.0644  0.2407  0.1352
23365W        W38212  15.752   5.374  14.258  0.0545 -0.0295  0.1815
23366W        W38213  15.640   0.373   4.660  0.0175 -0.1969  0.3128
23367W        W38214  13.201   4.367   3.601  0.3131 -0.1988 -0.3631
23368W        W38215   7.234  14.786  13.883  0.0292  0.1581  0.1280
23369W        W38216   6.590  12.445   3.830 -0.3290  0.1057 -0.0930
23370W        W38217   0.792   7.540  14.731 -0.0142  0.3039  0.4213
23371W        W38218  15.254  11.222   0.212  0.1234 -0.0648 -0.1457
23372W        W38219  12.501   9.414   5.055 -0.0168  0.1994 -0.0257
23373W        W38220  16.980   3.256   0.570  0.1455 -0.1955 -0.1278
23374W        W38221  17.433   2.402   3.335 -0.1059 -0.3321  0.2215
23375W        W38222   8.753  10.544   4.982  0.1465  0.2497 -0.0064
23376W        W38223  15.663  13.360  13.514  0.0515  0.0712  0.0774
23377W        W38224  14.829   3.902  15.705  0.0742 -0.1148 -0.0607
23378W        W38225   8.488   3.175  15.826  0.0232 -0.1968  0.0654
23379W        W38226   3.307  15.625  13.999  0.1045 -0.0717 -0.2434
23380W        W38227  16.989   2.421   4.322  0.1160 -0.1483 -0.2154
23381W        W38228   9.579  11.462   0.758 -0.0111  0.0828 -0.0406
23382W        W38229   8.870   5.304  12.658 -0.3314  0.1482  0.0866
23383W        W38230  12.504  17.447  11.751  0.2980  0.0483 -0.2288
23384W        W38231  10.760  16.243  13.832  0.0205  0.3506 -0.0669
23385W        W38232   4.738   5.788   5.034  0.0809  0.1948 -0.2491
23386W        W38233  12.132  11.203  15.372  0.0567 -0.2204  0.0848
23387W        W38234  14.576  13.996  12.226  0.2042 -0.2016 -0.2771
23388W        W38235   7.237   3.994  16.196  0.0375 -0.0971 -0.2389
23389W        W38236   2.685   5.094   4.550  0.1761 -0.1655 -0.1421
23390W        W38237  10.043   7.862   0.795 -0.2217 -0.0767 -0.1757
23391W        W38238  15.163  10.046   3.793  0.2887 -0.1850 -0.2196
23392W        W38239  10.637  17.386   3.140 -0.1902  0.1747  0.1246
23393W        W38240  14.623  10.115  14.101  0.3294  0.1102 -0.0497
23394W        W38241   7.921   9.008   5.044  0.1998 -0.0181 -0.0841
23395W        W38242  16.516  12.350  10.894  0.1232 -0.0947 -0.0751
23396W        W38243  12.758  13.792   3.300 -0.0908 -0.1413  0.1790
23397W        W38244   9.992  11.195  13.061 -0.1795  0.3301  0.2614
23398W        W38245  15.977   7.635   5.698 -0.2698 -0.1174 -0.0602
23399W        W38246  14.843   3.354   4.612  0.1259  0.3057  0.4068
23400W        W38247  12.633  16.641   0.238 -0.0342 -0.0304  0.0582
23401W        W38248  11.135  17.929  13.488 -0.0322 -0.2152 -0.0530
23402W        W38249  15.137  14.208   0.114  0.1510 -0.1276 -0.0066
23403W        W38250  10.930  12.187  13.555 -0.0764  0.0028 -0.1593
23404W        W38251  13.230   6.501   3.019 -0.0144 -0.3050  0.3564
23405W        W38252   1.773   5.114  11.495 -0.0721  0.2359 -0.0395
23406W        W38253  13.103   4.182   5.458  0.0799 -0.1218 -0.1590
23407W        W38254  17.256   8.878  14.609 -0.0757  0.0109  0.5367
23408W        W38255  15.861   8.901  11.378  0.0902 -0.0366  0.1577
23409W        W38256  11.855   6.120   1.232  0.0524  0.0293 -0.0434
23410W        W38257   6.662   6.810  13.822 -0.2615 -0.0763 -0.0187
23411W        W38258   9.499  13.932   1.886  0.1443 -0.1355  0.0942
23412W        W38259  17.302   4.619  10.771  0.0839 -0.2463 -0.1208
23413W        W38260  17.766   9.967   1.018 -0.1879 -0.0478 -0.2011
23414W        W38261   2.737  12.789  11.738 -0.0218 -0.3654  0.3034
23415W        W38262  15.662   1.369   1.549 -0.2996  0.1781  0.2345
23416W        W38263  14.610   0.554  13.046  0.2175  0.0111  0.0336
23417W        W38264   1.665  12.811  14.393  0.1219  0.3193 -0.2471
23418W        W38265  14.224   9.084  10.538  0.1239  0.4310  0.1698
23419W        W38266   2.898   9.452  13.456 -0.2129  0.1087  0.4525
23420W        W38267  10.567   8.116  15.300  0.2161  0.1331  0.0850
23421W        W38268   1.895   0.552   4.616 -0.1320  0.2362 -0.0936
23422W        W38269   7.600   6.651   2.847  0.1344  0.1504 -0.2344
23423W        W38270  12.973  12.005   2.667 -0.0779 -0.1255 -0.0407
23424W        W38271  12.297   1.703  11.631 -0.1130  0.0657 -0.0660
23425W        W38272  16.614   1.769   0.940 -0.2641 -0.0244 -0.0180
23426W        W38273  10.734   2.751  17.035  0.0237 -0.1646 -0.0188
23427W        W38274  14.288  15.243   3.934 -0.0171 -0.0565 -0.0948
23428W        W38275   1.271   8.184   2.996  0.0920 -0.1530 -0.0437
23429W        W38276  10.028   9.714   2.592 -0.2118 -0.0081 -0.2204
23430W        W38277   4.231   4.620  15.872  0.4211  0.2651 -0.0258
23431W        W38278  14.390   7.796   3.390  0.0869  0.0588  0.1678
23432W        W38279   4.946   3.776   4.688 -0.0004 -0.0470 -0.1923
23433W        W38280  15.079  13.699   4.986 -0.0292 -0.0928 -0.0555
23434W        W38281  11.346  16.646  16.600 -0.1011  0.0130 -0.3430
23435W        W38282   2.819   8.286  16.870  0.1214  0.0426 -0.0072
23436W        W38283   4.687   5.929  12.743  0.0944 -0.1195  0.2046
23437W        W38284   7.028   4.746   0.864 -0.0342 -0.1472  0.0507
23438W        W38285  13.367  11.520  15.902 -0.1338  0.3008 -0.2306
23439W        W38286   6.663   6.246  16.786  0.0797  0.0497  0.0048
23440W        W38287   9.196  16.727  11.885  0.1229  0.0239 -0.1730
23441W        W38288   8.970  10.198  14.441  0.1579 -0.0025  0.1588
23442W        W38289  17.584   7.754  15.926 -0.2737  0.1142 -0.1331
23443W        W38290   7.156   0.220  13.384  0.0897  0.1253  0.0959
23444W        W38291  14.238  10.044  15.972 -0.3155  0.2209 -0.0236
23445W        W38292  15.931   5.773   5.423  0.2461 -0.1930  0.2171
23446W        W38293   5.692  15.912   3.929 -0.2182  0.1743  0.1515
23447W        W38294   9.027   8.040   1.574 -0.0349  0.1323 -0.1447
23448W        W38295  17.770  14.908  15.592  0.0570 -0.1254  0.0251
23449W        W38296  11.776   3.623  11.831 -0.3361 -0.0687  0.1004
23450W        W38297  13.848  16.679  16.048  0.1721  0.1723  0.0220
23451W        W38298  15.507   6.126   5.384 -0.1541  0.0799 -0.0556
23452W        W38299  13.467   1.859  15.376 -0.0152  0.1245 -0.4429
23453W        W38300  15.620  14.669  11.861  0.0387  0.0572 -0.2158
23454W        W38301  14.095  12.112   3.176 -0.2696 -0.0698 -0.0218
23455W        W38302   9.115   6.894   5.064  0.2942 -0.0779  0.1509
23456W        W38303  17.313   5.219   0.911 -0.0847  0.0421 -0.1244
23457W        W38304  10.364   4.634  14.154  0.0232  0.0091  0.0200
23458W        W38305   7.218  11.601  13.897 -0.1502 -0.1202  0.0743
23459W        W38306  11.114  13.363  13.115 -0.0818  0.3119  0.1566
23460W        W38307   2.827  10.762  11.714  0.2533 -0.3683  0.1067
23461W        W38308  13.931   6.160   5.970 -0.0838  0.1950 -0.3651
23462W        W38309  10.226  11.521  14.029 -0.0965  0.1974  0.0379
23463W        W38310   0.405  15.810   2.323 -0.2114 -0.3320 -0.1372
23464W        W38311  17.972  12.029  12.756  0.0684  0.1562  0.0047
23465W        W38312   8.352   1.917   1.823 -0.0149  0.1218  0.1856
23466W        W38313  11.304   9.802  16.242  0.0217  0.3605  0.3827
23467W        W38314  10.020   0.645  15.420  0.1358 -0.0804  0.0424
23468W        W38315  12.575  14.585  15.504 -0.1760 -0.2675 -0.2370
23469W        W38316   0.489   0.768   1.859 -0.1562 -0.1017 -0.1407
23470W        W38317  12.547   9.333  14.920  0.1522  0.0948  0.1107
23471W        W38318  17.439   2.577   4.284 -0.0286 -0.2236 -0.1804
23472W        W38319   9.694  15.214   6.311  0.2037  0.0773  0.0856
23473W        W38320  10.444  10.337   1.043  0.0027 -0.0545  0.2370
23474W        W38321  14.948  15.624  13.809  0.2973 -0.1462  0.0529
23475W        W38322  11.848   2.835   5.894  0.4001 -0.0519  0.0019
23476W        W38323  14.716   0.427  12.327  0.0652  0.0472  0.0752
23477W        W38324  15.043  12.671  12.541  0.3091 -0.0989 -0.1322
23478W        W38325   0.736  14.346  12.155 -0.2728 -0.0053 -0.0911
23479W        W38326  10.617   1.896  15.867  0.1587  0.3419  0.0295
23480W        W38327   3.140  16.523  14.553  0.0522  0.0096  0.0774
23481W        W38328  14.220   1.893  15.929  0.2438 -0.1113  0.0709
23482W        W38329   7.291   7.924   6.993 -0.2995 -0.0076 -0.0454
23483W        W38330  11.451   2.305   1.584 -0.4756 -0.1470 -0.3101
23484W        W38331  11.135   1.627  11.086  0.2225  0.0425  0.4806
23485W        W38332   9.937  12.899   4.150 -0.1690 -0.2520 -0.1162
23486W        W38333  16.958   9.681  14.297  0.4687  0.2450 -0.2223
23487W        W38334  13.736  12.059  14.859  0.2819 -0.1552 -0.1008
23488W        W38335  15.355  15.037  11.038 -0.1487 -0.0812 -0.3074
23489W        W38336  10.838  10.511  16.255 -0.0915 -0.0015 -0.0348
23490W        W38337   0.423   5.630  12.980  0.1307  0.0462 -0.2028
23491W        W38338   1.579  16.770  11.337  0.0362 -0.1051 -0.2062
23492W        W38339  16.381   6.786   5.545  0.1276 -0.0325 -0.3481
23493W        W38340  13.862   4.409  11.731  0.1839  0.1746  0.0906
23494W        W38341   6.452  17.572   1.792 -0.2666  0.3288 -0.2796
23495W        W38342  11.994   2.029   0.650 -0.2485  0.0075 -0.1771
23496W        W38343  14.968   3.475  14.953  0.1999  0.3008 -0.1356
23497W        W38344   1.724   9.997  11.971 -0.1466 -0.2560  0.0564
23498W        W38345  12.090  16.564   1.339 -0.0158  0.0512  0.2889
23499W        W38346   6.177   9.836   0.943 -0.1345 -0.0214  0.0553
23500W        W38347   8.989  14.681   2.644 -0.1527  0.0333 -0.0301
23501W        W38348  11.286  15.545  13.311  0.1686  0.0491  0.2594
23502W        W38349  14.929  15.420   1.395  0.1384  0.0730 -0.2282
23503W        W38350  17.033   2.729   0.884  0.0803  0.2591 -0.0621
23504W        W38351  17.013   4.131   5.780  0.0473 -0.1679  0.1041
23505W        W38352   8.705  12.424   0.193 -0.0198 -0.1939 -0.1813
23506W        W38353   0.548  13.116  16.240  0.1284  0.1242 -0.1228
23507W        W38354   9.461  12.483  12.928  0.0469 -0.1581  0.4005
23508W        W38355   0.541  15.203   6.107  0.0800  0.2761 -0.1382
23509W        W38356  15.519   1.809  13.078 -0.1121  0.1900  0.0069
23510W        W38357  10.492   4.403   1.597 -0.1085 -0.2187  0.1541
23511W        W38358  17.713   2.878  15.956  0.0586  0.2346  0.0222
23512W        W38359   9.270  10.308   6.296  0.2382  0.0869 -0.1236
23513W        W38360  16.659  13.075  15.969 -0.3053  0.0281 -0.0279
23514W        W38361  11.875  14.041  11.492 -0.1187  0.1044 -0.0434
23515W        W38362  14.879  17.022  10.987  0.2957 -0.1033 -0.0273
23516W        W38363   2.160   7.935   4.044  0.1203  0.3271 -0.2365
23517W        W38364  17.249   7.200  16.100  0.0617 -0.0839 -0.2655
23518W        W38365  10.392  13.223   3.496  0.2080  0.2497 -0.2379
23519W        W38366  14.558   9.968  11.843 -0.2238 -0.4377  0.0059
23520W        W38367   8.086   8.496  14.899 -0.0740 -0.0933 -0.1215
23521W        W38368  11.647  16.995  12.903 -0.0866  0.0688 -0.1167
23522W        W38369  10.285  11.751  16.126  0.0553 -0.0131 -0.0777
23523W        W38370  10.675  17.962   2.685  0.0158  0.2862 -0.1821
23524W        W38371   9.663   9.225   4.437 -0.1204  0.0219  0.0771
23525W        W38372   5.233   3.791   0.039 -0.0140  0.0057 -0.1237
23526W        W38373   2.778   3.288  16.598 -0.1179 -0.0150 -0.0856
23527W        W38374  10.230   5.606   3.063 -0.0515  0.1203 -0.1637
23528W        W38375   9.686  16.629  16.263 -0.3417  0.1102  0.0029
23529W        W38376  15.093   4.033   5.235  0.0193 -0.2971 -0.5113
23530W        W38377  11.587   5.445  16.148  0.0041  0.0190  0.0057
23531W        W38378  12.061  17.627   4.891  0.1829  0.1552 -0.3006
23532W        W38379  11.614  12.262   0.180 -0.0829  0.0716  0.0966
23533W        W38380  10.894  14.485   2.595  0.1333 -0.1135 -0.2238
23534W        W38381  12.441   1.922  15.774 -0.0278 -0.1282  0.0316
23535W        W38382  15.200  11.666   2.195 -0.2795  0.0409 -0.1402
23536W        W38383  13.988   3.850   2.495 -0.0695 -0.4247 -0.1753
23537W        W38384  13.095   3.037  16.777  0.1193  0.0988  0.0935
23538W        W38385  17.334   0.582   2.707  0.0126 -0.4000  0.0175
23539W        W38386  15.602   2.929  10.817  0.0154 -0.0125 -0.1935
23540W        W38387  15.766   2.267   5.051 -0.3168 -0.0786  0.2243
23541W        W38388  11.707  15.043  16.106  0.0643  0.1119  0.0974
23542W        W38389  16.165  10.986   1.234 -0.3331 -0.1503  0.0020
23543W        W38390  16.952  14.452  12.003 -0.3854  0.5558  0.0865
23544W        W38391  13.910   5.452   6.560 -0.2849  0.0234  0.0455
23545W        W38392   1.110   9.127  12.066 -0.0957  0.2417 -0.1007
23546W        W38393  10.816  10.377  15.723 -0.1848 -0.0803  0.1815
23547W        W38394  15.597  15.591  17.110 -0.0407  0.0462 -0.3675
23548W        W38395  15.192   3.089   4.212 -0.1597  0.2375 -0.0043
23549W        W38396  17.084   7.495   0.257  0.3121 -0.1544  0.2486
23550W        W38397   9.055  11.933  16.203  0.3808  0.1078 -0.2857
23551W        W38398  12.384   7.448   6.664 -0.2244 -0.3486  0.1449
23552W        W38399   6.471   2.274   3.524  0.2723  0.2941 -0.1605
23553W        W38400  10.848   6.513  11.971  0.2775 -0.2751  0.0909
23554W        W38401   3.066   0.714   2.781 -0.1854  0.1038  0.0299
23555W        W38402  12.067   5.594   3.534  0.1495 -0.1237  0.1728
23556W        W38403  14.388   9.166   2.448 -0.1992 -0.1175  0.0200
23557W        W38404   3.771   1.698   3.726  0.1232 -0.1879 -0.0510
23558W        W38405   0.536   9.280   4.663 -0.0863 -0.1245  0.2187
23559W        W38406  17.454   8.683  13.800  0.1591  0.2898 -0.0227
23560W        W38407  11.751  17.970   0.773 -0.1458 -0.3667 -0.0745
23561W        W38408   1.763  15.449   2.096  0.0689  0.1161 -0.4387
23562W        W38409  11.124   1.466   4.342  0.2111  0.0729 -0.3108
23563W        W38410   1.323   4.118   4.146 -0.0633 -0.0930 -0.1156
23564W        W38411  17.317   8.301   3.740 -0.1178  0.1968 -0.1564
23565W        W38412  15.002   8.686  11.022 -0.0767 -0.1214 -0.4000
23566W        W38413  12.744   9.529  13.048 -0.2582 -0.2593  0.0137
23567W        W38414   1.041  14.592   3.156  0.1876 -0.0081 -0.3914
23568W        W38415   0.812   4.491  13.831  0.0815 -0.0553  0.3207
23569W        W38416  13.712  13.092   4.173  0.0088 -0.2090  0.0482
23570W        W38417  13.731   0.802   5.476  0.1273  0.3036  0.1646
23571W        W38418   2.349  16.282   3.688 -0.0553  0.1603 -0.0124
23572W        W38419  16.400   1.398   2.651 -0.2282 -0.3132 -0.0367
23573W        W38420  10.868   0.225  13.913 -0.2931  0.0775 -0.1310
23574W        W38421  13.168   6.470  10.565  0.0019  0.1552 -0.1591
23575W        W38422  14.001   5.230   5.045 -0.0828 -0.2737  0.1996
23576W        W38423  15.342   6.315   5.849  0.2294  0.2183 -0.1025
23577W        W38424  11.243  15.418   5.493 -0.0065  0.0494  0.1145
23578W        W38425  11.299  16.514   4.649 -0.2920 -0.0704  0.4136
23579W        W38426  16.419   5.259  13.550 -0.1446  0.0713  0.1435
23580W        W38427  11.249   0.685  10.883  0.0410  0.2656 -0.2684
23581W        W38428  10.470   7.803   1.591 -0.2826 -0.1518  0.0665
23582W        W38429  14.913   6.640  17.037  0.3781 -0.3028 -0.0411
23583W        W38430  11.352   5.502  13.030 -0.2085 -0.1465 -0.0584
23584W        W38431   6.807   2.034  14.030  0.2456 -0.3147 -0.0334
23585W        W38432   7.813  17.244  13.677 -0.0618 -0.1285  0.2549
23586W        W38433   2.582   5.721  15.303  0.0421  0.4419 -0.1123
23587W        W38434  16.329   6.386   4.992  0.0960 -0.1501 -0.0882
23588W        W38435   1.313   5.753   5.522 -0.0436  0.5141 -0.3179
23589W        W38436  15.313  17.452   0.296 -0.3952 -0.3564 -0.4080
23590W        W38437   7.838   3.883  13.039 -0.1199 -0.0335  0.1716
23591W        W38438  17.972  13.326  16.969 -0.1402 -0.0628  0.5480
23592W        W38439  11.553   0.371  15.103 -0.0669  0.1216  0.1849
23593W        W38440  15.132  12.140  12.564 -0.3408 -0.1108  0.0996
23594W        W38441   0.012  11.883  15.681 -0.2491  0.0798 -0.0147
23595W        W38442   9.857   8.254  12.509 -0.0100  0.1652 -0.3362
23596W        W38443  11.806  12.945   5.760  0.1106 -0.1250  0.0400
23597W        W38444   4.532  12.032   4.920 -0.0116  0.0631  0.0830
23598W        W38445  13.794  10.262   3.219 -0.0828 -0.0231 -0.2060
23599W        W38446  15.650   3.238   0.016 -0.0914  0.2877 -0.1432
23600W        W38447  12.017  14.014  12.063 -0.0191  0.1636  0.5624
23601W        W38448  14.261  17.780   3.374 -0.0524  0.1806 -0.2674
23602W        W38449  11.185   5.819  13.457 -0.1116 -0.1029 -0.2022
23603W        W38450   9.492   9.332  14.580 -0.1968  0.0328  0.0237
23604W        W38451  10.177  10.508   5.701 -0.0831 -0.1046  0.1411
23605W        W38452   1.087  16.193  16.735  0.1398 -0.0980  0.1447
23606W        W38453   2.553   4.509  13.582 -0.0243 -0.2957 -0.3669
23607W        W38454   8.755   4.595   4.064  0.3621  0.2695  0.0031
23608W        W38455  11.614   1.817   3.550 -0.0292  0.0217 -0.1253
23609W        W38456  11.688  15.948   3.039  0.2514 -0.0510 -0.0370
23610W        W38457  17.851   1.417   5.379 -0.0316  0.1739  0.0473
23611W        W38458  13.118  16.490  15.809 -0.3043 -0.1681 -0.2427
23612W        W38459  14.550  12.664   0.779 -0.3557  0.0310 -0.1792
23613W        W38460   8.463   6.152   2.360 -0.2221  0.3248 -0.1540
23614W        W38461  15.547  14.515   4.409  0.1196 -0.1879  0.4162
23615W        W38462   0.737  11.289   6.474 -0.0524 -0.3395  0.1089
23616W        W38463  16.563  12.415  13.872 -0.1136 -0.0800  0.3432
23617W        W38464  11.610  11.071  15.572  0.0537  0.0622 -0.0100
23618W        W38465   1.704  17.962  16.465 -0.0546  0.2570 -0.0772
23619W        W38466  14.382  16.046  14.711  0.2183 -0.1024 -0.3105
23620W        W38467  16.116  10.041   0.165  0.1163  0.0720 -0.0532
23621W        W38468  11.482   7.560   6.656 -0.2432 -0.0477  0.2123
23622W        W38469  10.579   5.234   4.163 -0.4002 -0.0905 -0.2417
23623W        W38470  12.654   8.584   3.387 -0.4052 -0.1037 -0.1598
23624W        W38471  12.162   1.996  14.210  0.1057  0.0652  0.1740
23625W        W38472   2.956  14.533  12.458 -0.1759 -0.1492 -0.0465
23626W        W38473   9.347  10.577   1.724  0.1395 -0.2511  0.1961
23627W        W38474  11.727  12.439   4.410  0.1996 -0.0020 -0.0418
23628W        W38475  13.609   6.446   0.507  0.1904  0.2038 -0.1532
23629W        W38476  15.446  16.912  12.222 -0.0216  0.1565 -0.2417
23630W        W38477  16.219   1.067   0.771  0.4403 -0.3521 -0.2790
23631W        W38478  13.436   4.108  16.972  0.1191 -0.1180 -0.2968
23632W        W38479  16.789   9.911  16.460  0.0910 -0.0242  0.0505
23633W        W38480   4.686  14.490   4.701 -0.0805 -0.3331 -0.2304
23634W        W38481   0.675  15.299   3.651 -0.2204  0.0699 -0.1070
23635W        W38482  17.521   4.830   2.244 -0.0732 -0.1044 -0.1333
23636W        W38483  16.398   9.975   2.600 -0.2325 -0.0089  0.0161
23637W        W38484  10.232  10.147  16.326 -0.0499 -0.1975  0.0805
23638W        W38485  12.386   2.763   3.123 -0.0492  0.0119 -0.0986
23639W        W38486  10.186   5.792   1.487  0.0356  0.1624 -0.2039
23640W        W38487  10.160   5.558   2.423 -0.1460 -0.2481 -0.2518
23641W        W38488  15.438   3.183   5.128 -0.0920 -0.1577 -0.0653
23642W        W38489   8.489   4.331   2.894  0.1883 -0.1083 -0.2056
23643W        W38490  17.634  13.125   2.136  0.2003 -0.1243 -0.1156
23644W        W38491  10.383  15.096  14.774 -0.1318  0.2204  0.1760
23645W        W38492  13.393  14.109   4.875  0.0787 -0.3578 -0.0391
23646W        W38493  13.402   1.519   4.061  0.2523 -0.1691 -0.2159
23647W        W38494  16.927  17.106   5.760  0.0140  0.2034 -0.2523
23648W        W38495  15.093  12.742   4.888  0.2793 -0.2172 -0.0485
23649W        W38496  11.261  12.505  16.080  0.1891 -0.4199 -0.0487
23650W        W38497  16.976  12.467   0.117  0.1581 -0.1624  0.3323
23651W        W38498   4.070   0.117   4.178  0.1226 -0.1910  0.1534
23652W        W38499  10.476  13.039   5.002 -0.0719 -0.0873 -0.2813
23653W        W38500  15.619  12.418  17.016  0.2162  0.0674 -0.0944
23654W        W38501   1.444   8.636  10.723  0.0292 -0.0303 -0.5185
23655W        W38502   7.018   1.465   3.875 -0.1670 -0.0863  0.0797
23656W        W38503   1.803   4.185  12.350  0.2735 -0.0901  0.0381
23657W        W38504  12.609  14.508  11.990 -0.1629  0.0330 -0.1917
23658W        W38505  14.386   6.142  12.221  0.0686  0.1299 -0.0220
23659W        W38506   0.375   5.882  14.240 -0.3678 -0.2662  0.2773
23660W        W38507  10.596   8.385   0.788 -0.1811 -0.4005 -0.2419
23661W        W38508   9.545  11.370   3.926  0.0089  0.0844  0.1728
23662W        W38509   4.495  11.472  12.990  0.1341  0.2004  0.1967
23663W        W38510  12.026  11.642  13.017  0.0659  0.0924  0.0736
23664W        W38511  10.245   8.406  13.178  0.0039 -0.1407 -0.1119
23665W        W38512   0.381  11.522  15.716  0.1107 -0.1346  0.0405
23666W        W38513   9.545  15.488   4.902 -0.1074  0.0523 -0.0375
23667W        W38514  15.144   5.541  12.452  0.1679  0.2398 -0.0094
23668W        W38515  10.591   8.579   5.215 -0.0641 -0.0707 -0.2152
23669W        W38516  10.315  12.682  14.781  0.1157  0.0697  0.0647
23670W        W38517  17.384   6.214   0.415  0.3556  0.0130  0.0736
23671W        W38518  13.292  11.106  11.294  0.1263 -0.1806  0.1548
23672W        W38519   0.762  11.611   5.321  0.3727  0.0070  0.3999
23673W        W38520  17.287  10.138   4.883 -0.0377  0.1845 -0.1670
23674W        W38521  15.238   6.311   0.046 -0.1293  0.0032 -0.4228
23675W        W38522  15.058   1.785   2.560 -0.1087  0.0162 -0.0946
23676W        W38523   4.270   0.443  10.679  0.3548 -0.1333 -0.0065
23677W        W38524  13.917  13.566   0.200 -0.1410 -0.0620 -0.2156
23678W        W38525   9.029   9.863   3.729 -0.2342 -0.2797  0.2597
23679W        W38526   0.516   4.675  11.874  0.3048 -0.0146  0.1802
23680W        W38527  13.317  11.047   3.465 -0.1187  0.0371  0.1400
23681W        W38528  11.976   2.596   4.497  0.1343  0.2341  0.1253
23682W        W38529  17.882   4.989   0.224 -0.0572  0.1325  0.0756
23683W        W38530  14.135   6.503  12.011 -0.3265  0.1286  0.1917
23684W        W38531  10.002   1.789   2.832  0.3014 -0.2833  0.2927
23685W        W38532  11.496  16.929   0.637 -0.2270  0.0851  0.1986
23686W        W38533   8.830   4.592  14.872  0.0096 -0.3337 -0.2811
23687W        W38534   9.304   3.608  13.086 -0.2016 -0.2221 -0.1621
23688W        W38535   3.290   6.593   0.335  0.0014 -0.0644 -0.4406
23689W        W38536   1.014   4.976   4.068  0.2326 -0.0031 -0.2416
23690W        W38537  13.055  17.748  10.204 -0.1539  0.0932 -0.2174
23691W        W38538  11.872  11.090   0.314 -0.1748  0.0628  0.1231
23692W        W38539  13.552   0.589  13.162  0.0320  0.0658  0.2369
23693W        W38540  14.542  15.046  14.580  0.0461 -0.1299 -0.1611
23694W        W38541  16.422   8.410  12.129  0.0556  0.0912  0.1390
23695W        W38542  14.974  17.646  13.578 -0.1217  0.2543  0.2239
23696W        W38543   4.975  13.161   3.366  0.1119  0.2668  0.1661
23697W        W38544  11.503   1.307  16.154  0.3382 -0.3126 -0.3233
23698W        W38545   1.857   5.813  11.656  0.4794  0.1367 -0.0673
23699W        W38546   7.462  11.200   5.097  0.2066 -0.0976 -0.1433
23700W        W38547  11.024   9.512  15.944 -0.0306  0.1334 -0.2642
23701W        W38548   8.240  15.383  12.691  0.0704  0.1735  0.0935
23702W        W38549   4.618   8.142   0.125  0.3314 -0.2109  0.0892
23703W        W38550  17.816  11.211   1.879  0.1150 -0.0136  0.1044
23704W        W38551  12.258   9.734   1.625 -0.0371  0.0178 -0.1485
23705W        W38552  15.623  12.739   4.916  0.1993  0.1454 -0.0894
23706W        W38553   0.984   9.479   1.329 -0.2406  0.1245 -0.0963
23707W        W38554   1.467   3.143   3.626 -0.0498 -0.4138  0.0637
23708W        W38555  13.037  14.078  11.979 -0.2317 -0.1195 -0.1710
23709W        W38556   8.950  11.261  14.995  0.2034  0.3028  0.2092
23710W        W38557  16.597  16.237  13.566 -0.0737  0.1471  0.0316
23711W        W38558   8.267   1.964  14.248 -0.0935  0.2010  0.1512
23712W        W38559   9.388  17.032  15.346  0.1439 -0.5533  0.1513
23713W        W38560  16.606   5.214   1.337  0.1635 -0.1465 -0.0248
23714W        W38561   1.854   9.627   1.064 -0.2470 -0.0627 -0.2523
23715W        W38562  11.295  12.804   2.628  0.0736  0.3575  0.0652
23716W        W38563  10.756   2.217   3.323  0.0619 -0.0286  0.1439
23717W        W38564  15.627  14.759  14.217 -0.1090  0.2779 -0.2662
23718W        W38565   0.159   6.570   3.260 -0.0298 -0.0710 -0.3406
23719W        W38566   3.747  15.911  14.867 -0.1166  0.0036  0.1965
23720W        W38567  13.931  16.141   5.250 -0.1414 -0.1649  0.0730
23721W        W38568  14.034  13.538  16.722 -0.0808 -0.2326 -0.1749
23722W        W38569   6.108   0.036  15.472  0.1000  0.2342 -0.0156
23723W        W38570  13.357   0.913   6.367 -0.0670 -0.1480 -0.0978
23724W        W38571  13.012  10.072  10.568 -0.3156  0.3043  0.1916
23725W        W38572  13.252   7.323   4.505 -0.1922  0.1175 -0.0351
23726W        W38573   9.633   7.015  16.951 -0.2872 -0.0595 -0.0843
23727W        W38574  15.304   5.051  13.641 -0.0350 -0.1460  0.3604
23728W        W38575  14.865  16.044   0.315  0.3011  0.1755 -0.0135
23729W        W38576   8.981   2.858   3.085 -0.0381  0.0649  0.1435
23730W        W38577  17.823   9.071   1.002  0.2429  0.1036  0.1474
23731W        W38578  16.769   8.473  12.909  0.1033 -0.0735 -0.0127
23732W        W38579  12.000   8.942  15.080 -0.2063  0.0966 -0.1019
23733W        W38580  13.711   0.974   0.045 -0.1162 -0.2197 -0.1723
23734W        W38581   3.241  16.609   0.618 -0.1790  0.3321 -0.2175
23735W        W38582  15.986   2.291   4.202  0.1175  0.2404  0.0813
23736W        W38583  15.862   0.906  12.900 -0.2425  0.0012  0.1177
23737W        W38584  13.712   8.033   5.246 -0.2368 -0.0780 -0.1350
23738W        W38585  15.917  15.677   3.171 -0.0820 -0.0116 -0.0498
23739W        W38586   5.183   7.922   3.918 -0.0166 -0.1317  0.4321
23740W        W38587  12.628   5.040  15.062 -0.0754  0.1209  0.1665
23741W        W38588  14.544   1.875   4.395 -0.0801  0.2037  0.3359
23742W        W38589  15.483   8.814   3.306 -0.0429 -0.0846 -0.2455
23743W        W38590  14.447  13.566  13.698 -0.0301  0.1524 -0.0051
23744W        W38591  15.027   7.351   3.148 -0.0352 -0.1194 -0.0004
23745W        W38592  15.794   3.057  14.676 -0.2901  0.4247 -0.1844
23746W        W38593   9.601   0.686   0.945 -0.3161 -0.0631  0.3500
23747W        W38594  12.795   8.936   2.825  0.0328 -0.2766 -0.6154
23748W        W38595  17.617  12.920   3.606 -0.1706 -0.0606 -0.1200
23749W        W38596   8.116   8.862   0.159 -0.1207  0.2090 -0.0018
23750W        W38597   0.940   2.702  13.328 -0.0793  0.1719  0.0835
23751W        W38598   0.499  13.544   0.732  0.1352 -0.1342 -0.3471
23752W        W38599   2.123   1.847   0.663  0.0234 -0.2114 -0.0380
23753W        W38600  15.633   3.545   5.876 -0.1715 -0.1756 -0.1986
23754W        W38601   3.977  12.352   2.165  0.0114  0.0177  0.1377
23755W        W38602   2.278   2.878  15.160  0.2464 -0.1657  0.1405
23756W        W38603  15.688  13.599   1.203 -0.2038  0.1847  0.1407
23757W        W38604  12.109   3.955  16.550  0.0210 -0.0599 -0.2028
23758W        W38605  10.343   9.876  14.812  0.2402 -0.0933 -0.2873
23759W        W38606  13.327   4.459   4.121  0.4800  0.1583  0.1359
23760W        W38607   1.381  11.391  13.528 -0.2228  0.1799  0.2170
23761W        W38608   3.137   0.384  15.732  0.0457 -0.1206  0.2193
23762W        W38609   8.421   7.582  14.677  0.2357 -0.4133 -0.0426
23763W        W38610   0.456   8.315   0.910 -0.0175  0.1311  0.0834
23764W        W38611  17.320  15.208  11.176 -0.1898 -0.0521  0.1874
23765W        W38612   9.422   4.040   5.640 -0.3228 -0.0281  0.1123
23766W        W38613  15.120  15.177   5.010  0.2094 -0.2274 -0.1754
23767W        W38614  10.093   5.092  14.107 -0.0904 -0.0571 -0.0150
23768W        W38615   2.011  13.255   2.352 -0.2617  0.1326  0.2972
23769W        W38616   8.901   8.596   0.219 -0.1185  0.1321  0.2579
23770W        W38617   6.236  11.678  17.042 -0.0812  0.0633  0.1084
23771W        W38618  13.985   5.084   2.575 -0.2184  0.2074 -0.0457
23772W        W38619   4.415   6.843  16.625 -0.1867 -0.1836  0.1624
23773W        W38620  16.948   4.830   1.654  0.2444 -0.0031 -0.1038
23774W        W38621  11.811   0.699   2.913  0.3073  0.1121 -0.0341
23775W        W38622  16.871  11.307  14.442 -0.2655 -0.0910  0.3103
23776W        W38623  13.281   4.806   6.761 -0.0497  0.2360 -0.1644
23777W        W38624  17.052  11.939   3.769  0.3502  0.3107  0.0170
23778W        W38625  14.683   2.081   5.009 -0.2259  0.0164  0.0606
23779W        W38626   6.268   5.605  14.345  0.2436  0.2905  0.3835
23780W        W38627   0.497   8.786  15.206 -0.2374  0.2637 -0.0034
23781W        W38628  16.011   0.529  13.234 -0.2645  0.2989  0.4100
23782W        W38629  14.757  13.235  15.681 -0.0749 -0.1360  0.0243
23783W        W38630  17.905  10.602   4.101 -0.0579  0.0009  0.0524
23784W        W38631   0.482  16.560   6.081 -0.2585  0.3619 -0.2020
23785W        W38632  12.913   4.902  16.927  0.0622 -0.1143  0.0080
23786W        W38633  10.536   9.674  16.200 -0.0190 -0.1562  0.3182
23787W        W38634  10.737  17.880  15.332  0.1191  0.0008  0.2918
23788W        W38635  14.927   1.300  14.795 -0.1683  0.0252 -0.5074
23789W        W38636  13.253  15.100  16.724  0.1676  0.1734 -0.0509
23790W        W38637   1.998  13.810   1.188 -0.2156 -0.3128  0.2108
23791W        W38638   5.177   2.883   2.678 -0.1960  0.2389  0.0386
23792W        W38639   1.510   1.852  13.576  0.1690  0.1030  0.0828
23793W        W38640  12.884  13.377  12.744  0.2002 -0.2381 -0.1155
23794W        W38641   0.731   5.270   1.750 -0.3952  0.1108 -0.1905
23795W        W38642  13.007  13.664   5.497 -0.0746  0.1854 -0.0039
23796W        W38643  14.008  17.894   4.008 -0.0270  0.3938  0.0883
23797W        W38644  11.822  16.786   0.231 -0.3562  0.1792  0.0728
23798W        W38645  17.939  17.015  16.883 -0.3256 -0.0669  0.0051
23799W        W38646  13.125   6.162   4.712 -0.2447  0.3045 -0.0234
23800W        W38647   0.294   7.829  12.511  0.4274 -0.2426  0.1837
23801W        W38648   2.578  12.273   0.409  0.0577 -0.2188 -0.1036
23802W        W38649  12.114   9.977  11.111  0.2010 -0.0832  0.0671
23803W        W38650  15.551  12.821  16.155  0.0514 -0.2176  0.2722
23804W        W38651  13.139   9.221   1.395 -0.1346 -0.1091  0.3305
23805W        W38652  12.650  11.068   2.881  0.1374  0.2589  0.0991
23806W        W38653   1.816  10.485   3.131 -0.2482 -0.1241 -0.1129
23807W        W38654  12.163  15.083   1.575  0.0742 -0.4652  0.1886
23808W        W38655   3.893   8.716  12.793 -0.0663  0.1233  0.1282
23809W        W38656  15.074   0.343  16.440 -0.2390 -0.1756  0.1753
23810W        W38657  11.653  11.942   2.491 -0.0394 -0.0922  0.1972
23811W        W38658  10.354  12.105  10.988  0.1263 -0.0371  0.1405
23812W        W38659  12.837   0.794  16.604  0.1372 -0.3544 -0.3612
23813W        W38660  12.096   5.643   1.084 -0.0780  0.3148 -0.0230
23814W        W38661  16.555  15.973   3.748  0.0657  0.2236 -0.3377
23815W        W38662   1.051   5.431   3.534  0.2915  0.2576 -0.2833
23816W        W38663  11.956   4.426  11.243  0.0153 -0.3401 -0.1014
23817W        W38664   1.293  14.013   4.439  0.2293  0.2214  0.0265
23818W        W38665  14.998   0.273  10.731 -0.0517 -0.1631 -0.0470
23819W        W38666  17.542  12.514   2.530 -0.1031  0.0988  0.2343
23820W        W38667  13.435   5.309   4.410  0.4119 -0.0921 -0.0976
23821W        W38668  16.297  14.046  13.142  0.1428 -0.1466  0.4371
23822W        W38669   9.192   0.495  13.027  0.2425 -0.0654 -0.0079
23823W        W38670  12.809   4.284   6.904  0.0225  0.0290 -0.0875
23824W        W38671  11.742   0.683   1.488 -0.0348  0.0504  0.1678
23825W        W38672  16.694   8.018   3.456  0.2527 -0.0906 -0.0116
23826W        W38673  15.757   1.737   4.300 -0.2918  0.1001 -0.0820
23827W        W38674  15.086  15.346  12.874 -0.1781  0.2127  0.2668
23828W        W38675  16.084  14.900  11.220  0.2379 -0.0037  0.0047
23829W        W38676   7.097   3.938  13.509 -0.0049  0.2254  0.1421
23830W        W38677  17.010   2.848   1.819 -0.0771  0.0404  0.0131
23831W        W38678  15.089   8.913  12.306 -0.1627  0.0661  0.1976
23832W        W38679  16.436  17.412   2.394  0.3496 -0.0387 -0.1859
23833W        W38680   5.729   9.964   3.806  0.0820 -0.1124  0.1953
23834W        W38681  10.041   4.052  15.978 -0.1548 -0.2213 -0.2370
23835W        W38682   1.447  10.402  11.972  0.0085 -0.0073  0.0275
23836W        W38683   8.337   5.386   4.296  0.2676  0.0077 -0.0630
23837W        W38684  14.197   7.663   1.639 -0.2765 -0.0146  0.1814
23838W        W38685  14.520  11.615  16.367  0.2068 -0.1058  0.1269
23839W        W38686  12.987   2.001   2.936  0.0727 -0.4138 -0.1557
23840W        W38687  13.251  15.582   2.481  0.1446 -0.1109 -0.1529
23841W        W38688   7.193  11.052  16.699 -0.1490 -0.0673 -0.0735
23842W        W38689   7.587   2.985   5.527  0.0023 -0.1773  0.0399
23843W        W38690  11.119  11.019  15.070 -0.1534  0.1217  0.0060
23844W        W38691  16.184  17.861   3.279  0.0139 -0.1452  0.3722
23845W        W38692  13.205   8.250  15.405  0.1879 -0.1230 -0.0283
23846W        W38693  11.883  17.358  15.634 -0.2543 -0.2965 -0.0643
23847W        W38694  12.866   7.553   4.303 -0.0334 -0.0773 -0.2100
23848W        W38695   0.346   7.109   0.244 -0.3178 -0.1561  0.1799
23849W        W38696   0.086   9.401   3.450  0.0810 -0.0982  0.0351
23850W        W38697  10.249  16.702  12.043  0.1689  0.3114  0.3374
23851W        W38698  10.167   8.880  12.570  0.0654  0.0178  0.0052
23852W        W38699  10.138  12.016  15.711 -0.0947 -0.4519  0.0858
23853W        W38700   1.109   9.024  12.605 -0.0930  0.0178  0.1495
23854W        W38701  10.455   1.974  14.222 -0.1029  0.0329  0.0716
23855W        W38702  14.367  15.358  10.984  0.2300 -0.0367 -0.0765
23856W        W38703   5.054   1.861  14.421 -0.0281  0.0483 -0.4057
23857W        W38704   8.466   1.588   1.121  0.1052 -0.0832 -0.3241
23858W        W38705  15.971   5.360   4.324  0.2744 -0.1447  0.2426
23859W        W38706   5.287   2.060   2.606  0.1774 -0.0995 -0.3018
23860W        W38707  11.776  13.279   2.110 -0.2254  0.1306  0.2282
23861W        W38708   4.722   6.026  14.281 -0.1049 -0.1891  0.0935
23862W        W38709  11.948  13.771   0.892 -0.0486  0.1601  0.0855
23863W        W38710  16.976  12.808  15.160  0.1158  0.1164  0.3024
23864W        W38711  14.876   6.774  11.976  0.1774  0.1891  0.0988
23865W        W38712  17.500  14.127   1.953  0.5165  0.2528 -0.1148
23866W        W38713  12.388   6.249  13.419  0.0224 -0.0480  0.0158
23867W        W38714  16.666  13.069   1.084 -0.2650  0.2551 -0.2155
23868W        W38715   5.603  11.302   3.055  0.0176 -0.1127 -0.3351
23869W        W38716  14.188   4.028  12.785  0.1053 -0.1831  0.1134
23870W        W38717  13.689   7.681   2.065  0.1511  0.2537  0.2485
23871W        W38718  16.211  17.789  16.054  0.1442  0.0991 -0.3682
23872W        W38719  11.375   2.733  11.916  0.2465 -0.1348  0.1995
23873W        W38720  15.328  16.559   3.883 -0.3234  0.3650 -0.0119
23874W        W38721  11.067  15.556  15.469 -0.2100  0.2879  0.1639
23875W        W38722  13.222  10.253  15.424  0.0109 -0.1457 -0.1267
23876W        W38723  11.911   1.009  16.926  0.1046  0.1088 -0.1532
23877W        W38724  12.567  14.887  12.425 -0.1314 -0.1311  0.2205
23878W        W38725   2.041   1.644  15.754  0.0054 -0.1967  0.0386
23879W        W38726  16.923   8.139  14.236  0.5445  0.3296 -0.0775
23880W        W38727   8.338  15.385   2.946 -0.2067  0.0332  0.0953
23881W        W38728   0.460   7.514  11.716 -0.0094 -0.0057  0.0872
23882W        W38729  14.173   0.581   2.898  0.1442  0.0128 -0.2396
23883W        W38730   0.009   0.925   0.064 -0.0716  0.1977 -0.0491
23884W        W38731   8.555   0.561  13.006  0.0332  0.2627  0.0502
23885W        W38732  11.084   7.482  12.634 -0.2364 -0.2985 -0.3199
23886W        W38733  17.141   8.872   5.376  0.0508 -0.0706  0.1250
23887W        W38734  13.030   0.455  16.061 -0.1677 -0.0899  0.0038
23888W        W38735  14.292   0.881   0.386  0.0491  0.1216  0.2580
23889W        W38736  15.955  16.638  11.735  0.2987 -0.4411 -0.1316
23890W        W38737  17.125   4.686   4.434  0.1215  0.0454  0.2793
23891W        W38738   0.303  17.868  16.312 -0.3097  0.2105  0.2729
23892W        W38739   7.132  15.906   4.882 -0.0546 -0.1003 -0.1501
23893W        W38740  12.559   0.100   2.920  0.0623 -0.0806  0.0147
23894W        W38741  14.206   0.726  15.312 -0.0062  0.3108 -0.0463
23895W        W38742  12.487   5.133  15.889  0.2786 -0.1592 -0.0490
23896W        W38743   0.578  16.006   0.806  0.3292  0.0563 -0.2484
23897W        W38744  14.155   3.564  16.437  0.0205 -0.0755 -0.0575
23898W        W38745  16.591  17.785  11.788  0.2531 -0.2383  0.1407
23899W        W38746  15.740  12.676   0.798  0.0212 -0.0520 -0.2998
23900W        W38747   3.645   9.231  16.878 -0.0126 -0.1237  0.0537
23901W        W38748   8.647   3.279   4.643  0.1567 -0.4317 -0.2000
23902W        W38749  14.924   9.086  14.516  0.0289 -0.0406 -0.1739
23903W        W38750   7.957   4.858  12.662 -0.0739 -0.0736  0.0949
23904W        W38751   2.360  11.579   2.324  0.1035  0.1935 -0.0193
23905W        W38752  14.249   2.487  14.361 -0.2870  0.2974 -0.0043
23906W        W38753  16.294   0.716  14.386 -0.2640 -0.2271 -0.2121
23907W        W38754  14.549   7.677   2.277  0.1991 -0.5413 -0.0220
23908W        W38755   8.846  11.039   5.182  0.4186 -0.0540  0.1026
23909W        W38756   0.927   7.822  14.191 -0.0808 -0.1102  0.0055
23910W        W38757  16.519  17.384  15.060 -0.6014 -0.2102 -0.0212
23911W        W38758  16.685   7.257   1.953  0.1679  0.0144  0.3206
23912W        W38759   9.473   3.529   0.482  0.1626 -0.0502 -0.3414
23913W        W38760   8.966   9.773   1.453 -0.1085 -0.1668 -0.1012
23914W        W38761  13.672   5.640   0.700 -0.2730 -0.0511 -0.0394
23915W        W38762  17.953  12.774   0.709 -0.0054  0.0797 -0.4021
23916W        W38763  17.539  12.859  15.099 -0.0679 -0.2211 -0.0235
23917W        W38764  15.174   0.412  12.028  0.3830  0.1968 -0.0768
23918W        W38765   9.658   6.546   5.788 -0.3137 -0.3307  0.2729
23919W        W38766  15.786   4.081  16.235  0.0360 -0.1408 -0.0713
23920W        W38767   1.786   3.507   1.575  0.1780  0.0339  0.0485
23921W        W38768  16.175  16.120   2.503  0.1451 -0.1248 -0.1045
23922W        W38769  11.150   6.506   3.366  0.1813  0.0336  0.2430
23923W        W38770  11.873   5.512  12.032 -0.1982  0.2278 -0.2380
23924W        W38771  14.992   8.446   0.964 -0.0701 -0.0446 -0.3255
23925W        W38772   5.868  10.966   1.549  0.1388 -0.0829 -0.3265
23926W        W38773  10.991   7.272   6.788 -0.0328 -0.2075 -0.1769
23927W        W38774  15.547   1.764  11.060  0.1590 -0.0504  0.0481
23928W        W38775   2.402  14.755   4.823  0.0709  0.0902  0.1456
23929W        W38776  14.089  10.393  16.986  0.1442  0.1397  0.0810
23930W        W38777  14.850  17.738   0.362 -0.3619  0.0682 -0.0167
23931W        W38778  13.729  13.886  11.408  0.2137 -0.0484 -0.0158
23932W        W38779   1.500  10.836  15.876 -0.1805 -0.1075  0.1424
23933W        W38780   8.202  15.086   6.614 -0.2238 -0.1277  0.2206
23934W        W38781   8.239   2.377   2.678 -0.1043  0.0772 -0.2172
23935W        W38782  13.425   5.119  16.863 -0.2324 -0.1932  0.4767
23936W        W38783  16.399  11.840   0.200 -0.0821  0.3728 -0.0189
23937W        W38784  10.834  14.216   4.929 -0.0825 -0.1142  0.1824
23938W        W38785  14.605  12.986   5.594 -0.1822 -0.0120  0.1668
23939W        W38786  12.201  12.283  12.859 -0.2734 -0.0091  0.1191
23940W        W38787  14.504   6.611   1.198 -0.0699 -0.3078 -0.1666
23941W        W38788  14.590  12.628   1.856 -0.1015 -0.1307 -0.3940
23942W        W38789  12.646   4.308   2.392 -0.0667 -0.0797 -0.1028
23943W        W38790   8.434   0.065   2.825  0.0009  0.1686 -0.2383
23944W        W38791  17.053   7.877   3.787 -0.3522 -0.1588  0.0069
23945W        W38792  17.136   1.362  11.753  0.2267 -0.0335 -0.1238
23946W        W38793  13.323  10.723  14.321 -0.0153 -0.1800 -0.2272
23947W        W38794  16.145  17.353   4.889 -0.2032  0.0668  0.3323
23948W        W38795  15.091  13.473   3.315  0.0908  0.3009  0.4690
23949W        W38796  12.731   6.972   5.905 -0.3238 -0.2041 -0.2090
23950W        W38797   0.788   4.027   1.140  0.1000 -0.2036  0.2322
23951W        W38798  12.113   7.567   6.066  0.5152 -0.0932  0.1589
23952W        W38799  14.381   3.609  11.818  0.0057 -0.2382  0.0619
23953W        W38800  17.897   6.862  13.873  0.1513 -0.2746 -0.2301
23954W        W38801   4.196   2.351   0.155 -0.0987 -0.0225 -0.0020
23955W        W38802  12.228  10.871   5.032 -0.4375 -0.0254  0.0561
23956W        W38803  11.834  11.214  11.890  0.3441 -0.1343  0.2454
23957W        W38804  17.506  16.177  11.931 -0.1658  0.0100  0.1883
23958W        W38805  11.964   5.216  15.823 -0.3217  0.0894  0.0174
23959W        W38806  13.363  16.929   5.619 -0.1362 -0.1278  0.2938
23960W        W38807   7.942  16.163  13.654 -0.3965  0.1233 -0.1245
23961W        W38808   3.957   2.554  16.132 -0.2006  0.4493 -0.1654
23962W        W38809   0.049  11.857   4.842 -0.3914 -0.0231  0.0241
23963W        W38810   0.053   7.205   4.262  0.0271 -0.0926 -0.0162
23964W        W38811  10.619  16.940  15.986  0.0184  0.1729  0.2495
23965W        W38812  15.177  15.179  13.701  0.3597  0.0365 -0.1176
23966W        W38813  13.885   3.149   3.685  0.1934  0.1881  0.0701
23967W        W38814  10.073   9.490  14.394 -0.3014 -0.1189 -0.4226
23968W        W38815   5.882   1.832  11.822  0.0675 -0.5102  0.0065
23969W        W38816   8.112  10.672  12.459  0.3218  0.3055 -0.1945
23970W        W38817  11.375  13.587  11.562 -0.1213  0.1708 -0.0888
23971W        W38818   3.924   1.932  12.400 -0.1499 -0.1437 -0.1818
23972W        W38819  10.750  14.148  12.311  0.0267  0.0585  0.0080
23973W        W38820   4.373  10.196   1.703 -0.2600 -0.1394 -0.3000
23974W        W38821   2.639  14.826  14.401 -0.1064 -0.1094  0.0258
23975W        W38822  17.094  12.717   0.517  0.0450  0.1382 -0.2570
23976W        W38823  14.086   8.134   3.739 -0.2178 -0.0933 -0.3586
23977W        W38824  14.550   6.966  13.685 -0.1717 -0.0625 -0.1239
23978W        W38825  14.996   9.951  17.044  0.1774 -0.0207  0.0604
23979W        W38826  17.532   3.169  14.718  0.0155 -0.0524  0.1472
23980W        W38827  14.514   0.837   5.752  0.0410 -0.1691  0.2430
23981W        W38828   5.022   1.570   0.631 -0.1655  0.0040 -0.1227
23982W        W38829   1.378   0.146   0.522 -0.6257  0.0305 -0.0080
23983W        W38830  16.751   0.632  14.157  0.0165 -0.3198  0.0354
23984W        W38831  16.687   5.386   4.146 -0.1086  0.1582 -0.0329
23985W        W38832  15.911  11.587   4.273  0.3233 -0.0464  0.1976
23986W        W38833   5.879  10.819  12.954  0.0047  0.1013 -0.0717
23987W        W38834   5.524   1.056  14.212  0.1485  0.1945  0.4319
23988W        W38835   2.448  14.798  16.613 -0.1393 -0.0079  0.0720
23989W        W38836  16.174   4.817   1.169 -0.2531  0.1158 -0.0935
23990W        W38837  13.673   4.134  15.060 -0.3127 -0.4317  0.2438
23991W        W38838  13.436   7.460   1.662 -0.1654 -0.3650  0.2028
23992W        W38839  17.861  11.470   3.981  0.1618 -0.0412 -0.2866
23993W        W38840   0.270   5.361  13.992  0.1583  0.2107 -0.0317
23994W        W38841   3.434   3.332  14.119  0.2409 -0.0487  0.0263
23995W        W38842  10.007   8.456   5.328  0.0641  0.0403 -0.0494
23996W        W38843   9.349  17.635  15.507 -0.5037 -0.1193 -0.1821
23997W        W38844   0.435   7.033  14.526 -0.0906  0.0978  0.2830
23998W        W38845  16.367  12.608  14.406  0.0598  0.1022  0.0863
23999W        W38846  13.593   3.705   4.753  0.2414 -0.0790  0.2778
24000W        W38847  11.604   8.725   3.867  0.0650 -0.2859  0.0271
24001W        W38848  15.197  14.776   3.368  0.0397 -0.3070  0.3291
24002W        W38849   6.311   4.682  16.775 -0.1305  0.1556  0.0870
24003W        W38850  11.593  15.422  14.616 -0.1585 -0.1750  0.0311
24004W        W38851  14.523   7.396  11.530  0.2256  0.0070  0.1157
24005W        W38852  13.980   9.375  13.644 -0.0326  0.3176 -0.1935
24006W        W38853  16.752   5.330  14.009  0.0656  0.0624  0.3485
24007W        W38854   0.309   4.542  15.740  0.0417 -0.0993 -0.0478
24008W        W38855  13.661  17.468  15.274  0.0845 -0.1693 -0.1494
24009W        W38856   1.451   3.726  17.099 -0.1164  0.1802  0.0762
24010W        W38857  17.018   2.857  10.952  0.1231 -0.0773 -0.1145
24011W        W38858  10.887  10.718   5.473 -0.0452  0.1381  0.0000
24012W        W38859  13.919  14.525   1.097 -0.0539  0.1215 -0.0168
24013W        W38860  10.451   6.935   3.762 -0.1474  0.0632  0.0529
24014W        W38861   8.324  15.712   4.386  0.2825 -0.0666  0.0085
24015W        W38862   5.451   5.330   1.127  0.1574  0.2343  0.1006
24016W        W38863  17.261  16.029   5.112  0.1067 -0.0715 -0.0372
24017W        W38864  12.808   2.785   0.732 -0.2029  0.1918  0.0004
24018W        W38865  13.047   6.931  12.593  0.4158  0.0393 -0.0433
24019W        W38866  12.378   0.147   3.897  0.0475  0.4474 -0.2014
24020W        W38867  15.090  11.025   3.678  0.1245 -0.1251 -0.0642
24021W        W38868   9.720  12.333   2.113  0.0076 -0.1435 -0.2727
24022W        W38869  11.379   3.222   2.098  0.2783 -0.2314  0.3398
24023W        W38870   4.620   6.174  12.282 -0.0892  0.0154  0.1321
24024W        W38871   1.246   3.170   5.710 -0.2406  0.1533  0.1259
24025W        W38872  14.352   2.302  16.959  0.0038 -0.3122 -0.1568
24026W        W38873   3.773  16.822  12.869 -0.1673  0.0774  0.1249
24027W        W38874   0.510   5.665  16.157  0.2157 -0.0105  0.0948
24028W        W38875  12.446   7.290   2.889  0.0778  0.2176 -0.0671
24029W        W38876  12.068   4.834  12.935  0.0486 -0.0930 -0.0484
24030W        W38877  15.429  16.581   0.799 -0.0361 -0.2698  0.3246
24031W        W38878  15.866  12.756  14.293 -0.0083  0.1628  0.2413
24032W        W38879   9.510  16.587  14.205 -0.1603 -0.1728  0.1459
24033W        W38880   3.514   7.094   2.847 -0.0731  0.1726 -0.0906
24034W        W38881  11.309   2.962   1.550 -0.0845  0.0992  0.3361
24035W        W38882  15.560  12.906  12.281 -0.3101  0.2471  0.0196
24036W        W38883  13.233   6.863  16.325 -0.0493  0.0627  0.5712
24037W        W38884   8.247  12.034  13.518  0.1879  0.1020 -0.3351
24038W        W38885  14.984   4.088  13.342 -0.1223 -0.3824 -0.0432
24039W        W38886  13.487  13.854   3.968 -0.1022 -0.0596  0.1342
24040W        W38887  17.076   5.442  12.420  0.3414  0.0423 -0.0976
24041W        W38888   1.584   9.548   1.538  0.3081 -0.1230 -0.0833
24042W        W38889  14.007   1.680   1.548 -0.0184  0.0546  0.0290
24043W        W38890  16.390   6.469   0.861  0.0897 -0.1154 -0.4716
24044W        W38891  16.051  16.929   1.566  0.1748 -0.1574 -0.1587
24045W        W38892  15.320   7.139   4.259 -0.0280  0.0393 -0.4003
24046W        W38893   2.098  17.164  15.266 -0.0414  0.2146  0.3356
24047W        W38894  10.389   4.510  14.651  0.1456  0.1912  0.1280
24048W        W38895  13.826   3.448  14.478 -0.0397 -0.3831  0.0049
24049W        W38896  12.054  15.758  13.934  0.0781 -0.2946  0.2369
24050W        W38897  17.894  12.614   3.931  0.2207 -0.0492  0.3740
24051W        W38898  15.303  11.820   0.824  0.0837 -0.2348 -0.0188
24052W        W38899   8.577  15.058  16.665  0.1556  0.2260  0.0392
24053W        W38900  15.497  16.678   5.165  0.1598 -0.0506 -0.2757
24054W        W38901  12.515  11.586   6.271 -0.0222  0.2667 -0.0633
24055W        W38902  14.787   9.344  12.180  0.1584  0.0915  0.0736
24056W        W38903  17.315   1.148   1.094  0.2726 -0.0405 -0.1120
24057W        W38904  11.282  14.671  12.539 -0.0496  0.1878  0.3956
24058W        W38905   7.008   3.090   5.944  0.1099 -0.0098  0.3006
24059W        W38906  11.003  11.875   4.382 -0.0065 -0.2168 -0.0212
24060W        W38907  15.896  11.951  15.333 -0.0287 -0.0399 -0.1401
24061W        W38908   4.206   8.357   4.239  0.2558 -0.1297  0.0935
24062W        W38909  15.071   7.634   0.669  0.0385 -0.1212 -0.0800
24063W        W38910  16.072   2.438   1.102  0.0258  0.1250 -0.2559
24064W        W38911  17.738  12.389  13.923  0.3997  0.1797 -0.0495
24065W        W38912  10.518   5.332   2.827 -0.0701  0.2391 -0.3609
24066W        W38913   8.612  14.514  14.101  0.0302  0.1258 -0.2703
24067W        W38914  14.073   7.241  13.556  0.0878  0.0470  0.0060
24068W        W38915  16.784  17.306  16.531  0.0287  0.0435 -0.1500
24069W        W38916  17.225   3.858   4.716 -0.1201  0.1913  0.1779
24070W        W38917  13.885   1.262  12.137  0.1042 -0.1510  0.0065
24071W        W38918   7.580  11.184  12.198 -0.1016  0.0054  0.0431
24072W        W38919  16.087   8.461  17.006  0.0087  0.1208  0.2711
24073W        W38920  14.654   6.582  10.990  0.2667  0.0126  0.2198
24074W        W38921  17.706   2.326  11.245 -0.1687  0.2670  0.1462
24075W        W38922  17.832  16.022  14.764 -0.1420 -0.0244  0.0501
24076W        W38923   0.907   1.856   0.593  0.1739  0.0515  0.0536
24077W        W38924   0.396   1.318  12.120  0.5667 -0.0574 -0.0409
24078W        W38925   6.941   9.480   1.628  0.0553  0.2491  0.2866
24079W        W38926  16.193   5.320   4.775  0.0086 -0.1620  0.0589
24080W        W38927   1.076   1.748   0.092  0.0803  0.1002 -0.2078
24081W        W38928  16.551  13.317  11.898  0.1944 -0.2811  0.3117
24082W        W38929  15.788  10.953   0.396  0.2316  0.2321 -0.1551
24083W        W38930  16.864  10.368  14.414  0.2018  0.2793  0.1113
24084W        W38931  17.342   4.356   4.772  0.3584 -0.1989 -0.3471
24085W        W38932   1.342   4.621  14.792  0.0185 -0.1429  0.3109
24086W        W38933   0.276   6.609  15.590  0.0372  0.0038  0.4415
24087W        W38934  11.395   7.508  16.483  0.1145  0.2001 -0.1003
24088W        W38935  12.702  11.757  12.269 -0.2083 -0.3510 -0.0254
24089W        W38936  12.553  11.813   2.984  0.1456  0.0682 -0.0937
24090W        W38937   7.311   0.044   3.845  0.1500 -0.3200  0.2577
24091W        W38938   5.914  14.563  13.031  0.1699 -0.1905 -0.1129
24092W        W38939  13.357   4.431  13.174 -0.1944 -0.0100 -0.0477
24093W        W38940  16.481  14.218  15.945 -0.1044  0.0697 -0.0365
24094W        W38941  14.940   6.585   6.265  0.1074  0.0528  0.1589
24095W        W38942  12.872  15.253  12.140  0.0522  0.3762 -0.0820
24096W        W38943  10.831  11.456   1.059  0.0060  0.1539 -0.1549
24097W        W38944  11.032  10.552   3.057 -0.1006 -0.2290 -0.3341
24098W        W38945  13.225   8.946   5.413 -0.0293  0.1648  0.0050
24099W        W38946  10.944   1.470  10.570 -0.1625 -0.0033 -0.0304
24100W        W38947  12.621   1.906  12.742  0.2714  0.0871  0.2116
24101W        W38948  14.546   4.374  11.380  0.0943 -0.0978  0.5522
24102W        W38949  12.565  13.558  13.182 -0.0447 -0.1497 -0.0293
24103W        W38950   9.612   9.192  13.483 -0.0794  0.0239  0.4840
24104W        W38951  13.002  17.529   4.965  0.0587  0.0341  0.2310
24105W        W38952  13.463   2.416  14.623 -0.2342 -0.1076 -0.0008
24106W        W38953   2.397   9.216  16.578  0.0515  0.0620  0.1639
24107W        W38954  16.064  13.579   5.610 -0.0578 -0.3834  0.0445
24108W        W38955   8.543   2.408  13.607  0.1048  0.3361  0.1210
24109W        W38956  15.711  11.368   5.163  0.3684  0.1113  0.0215
24110W        W38957  13.117   3.386   4.714 -0.0079  0.0216  0.1850
24111W        W38958   9.754   2.315   6.151  0.3235  0.2960  0.1206
24112W        W38959   3.685  17.614  15.852 -0.1087  0.0380  0.0314
24113W        W38960   9.654   2.911   2.602  0.0237 -0.0816 -0.2025
24114W        W38961  15.004  15.184   0.182  0.0416  0.1310 -0.1252
24115W        W38962  11.755  16.731   5.725  0.0952  0.0687  0.3339
24116W        W38963  12.022  11.656   2.249 -0.2528  0.0852  0.0858
24117W        W38964  12.008   0.550  16.033  0.0991  0.0562  0.2029
24118W        W38965  16.397   5.988  15.319 -0.2208  0.0797 -0.0098
24119W        W38966   7.737  16.471  14.247  0.1797  0.0280 -0.0155
24120W        W38967  17.843   1.616  14.932 -0.1311 -0.1514 -0.0480
24121W        W38968   0.954  12.235   2.013  0.0202  0.1608 -0.1089
24122W        W38969   1.737  13.163   4.369 -0.0816 -0.4592 -0.2561
24123W        W38970  11.559  16.308  12.682  0.0048  0.1300 -0.2672
24124W        W38971   9.578  11.481   0.218  0.1078  0.0769 -0.1354
24125W        W38972   1.101   5.728   0.217 -0.2108 -0.1327 -0.1034
24126W        W38973  17.126   5.053  16.645  0.0369 -0.2950 -0.0199
24127W        W38974  10.951   7.175  16.181  0.1062  0.4905 -0.1799
24128W        W38975   8.594   2.584  16.775  0.0465 -0.3914 -0.1789
24129W        W38976  11.014   9.243   5.817 -0.2037  0.0577  0.0251
24130W        W38977  14.622   9.776   4.408 -0.0437 -0.2085 -0.1423
24131W        W38978   1.196   2.209  16.944 -0.2569 -0.0538  0.2086
24132W        W38979  16.041   2.061   0.781 -0.1308 -0.1733 -0.0287
24133W        W38980   2.644   1.118  15.945  0.0623  0.0175  0.1796
24134W        W38981  14.340   7.253   2.506 -0.2630 -0.1099  0.0497
24135W        W38982  17.666  10.307  14.313 -0.0664  0.0579 -0.1551
24136W        W38983   1.798   8.835  14.747  0.0138 -0.1475 -0.2922
24137W        W38984  12.750   5.986   6.593 -0.0694  0.1259  0.3194
24138W        W38985  14.706   4.095   3.312 -0.0070 -0.1128  0.1393
24139W        W38986   0.539   7.056  15.475 -0.1351  0.0432  0.0546
24140W        W38987   9.035   7.249   2.666  0.2134 -0.2891 -0.3542
24141W        W38988  17.075   1.022  14.094  0.3393  0.1319 -0.2173
24142W        W38989   0.715   5.826   3.507 -0.1922  0.2594 -0.1567
24143W        W38990  14.081   6.621   0.354 -0.2712  0.1063  0.0646
24144W        W38991  11.517   4.378  16.627 -0.2163  0.2745  0.1762
24145W        W38992  13.064   7.962  13.500  0.1262 -0.0645 -0.1192
24146W        W38993  17.321  13.474   0.808  0.3696 -0.3472  0.2765
24147W        W38994   4.392   7.103   5.355 -0.0506  0.0813 -0.0892
24148W        W38995  13.468   3.704  15.858  0.1342  0.0423 -0.1046
24149W        W38996   2.863   6.378   4.572 -0.2518  0.0634 -0.1147
24150W        W38997  14.972  13.332   2.854  0.0573  0.0609  0.0069
24151W        W38998   0.196  17.385  14.397 -0.1403  0.1879 -0.1581
24152W        W38999  17.140   6.435  14.073  0.0058  0.0015 -0.1912
24153W        W39000   7.433  17.939  12.589 -0.0659 -0.4185  0.2331
24154W        W39001  14.422   1.932  14.870 -0.2531  0.0875  0.0336
24155W        W39002   7.665   5.811  14.607  0.1419  0.0959 -0.2108
24156W        W39003  15.623  17.139   1.356 -0.0012  0.1867  0.0630
24157W        W39004  14.963   4.060   2.882  0.0139  0.1614 -0.1091
24158W        W39005   5.629   7.838   6.688 -0.1750 -0.0803  0.3445
24159W        W39006   8.113   8.571   6.025 -0.2381 -0.4074  0.1854
24160W        W39007  17.007   2.550  15.336 -0.1385  0.0914 -0.2462
24161W        W39008  16.935   6.033   2.899 -0.0843 -0.2636  0.3058
24162W        W39009  17.707   5.821   0.259 -0.0219  0.1753  0.1115
24163W        W39010  10.388   2.030   5.528  0.2325 -0.0480 -0.2622
24164W        W39011  15.100  10.946  14.755 -0.0031  0.1194 -0.0835
24165W        W39012  13.487   6.968  11.595  0.0636 -0.0840  0.0199
24166W        W39013  11.799   2.830  13.739 -0.1034  0.0886 -0.0076
24167W        W39014   0.303  12.638   4.941 -0.4703 -0.0352  0.2483
24168W        W39015  15.761   1.836   5.666 -0.0427 -0.1544 -0.1271
24169W        W39016   4.862   7.134  13.483  0.0964  0.0505 -0.2686
24170W        W39017  13.956  13.032  16.802 -0.0269 -0.3778  0.2443
24171W        W39018  16.739  14.706  11.521 -0.0463 -0.0378  0.0364
24172W        W39019  15.448  10.876  10.189 -0.0818  0.3347 -0.2513
24173W        W39020  14.500   1.085  16.838  0.2768  0.0429 -0.1365
24174W        W39021  14.088  12.410   4.997 -0.0846 -0.2105 -0.2365
24175W        W39022   2.513   9.581  12.394 -0.0400 -0.0636 -0.2178
24176W        W39023  13.404   8.331   6.311  0.1573  0.1392  0.0356
24177W        W39024  14.342  17.588  12.792 -0.3320  0.1255 -0.1553
24178W        W39025  16.101   0.212   0.346  0.0294  0.0437 -0.1937
24179W        W39026  14.329   0.389   1.208 -0.1506  0.2933  0.0273
24180W        W39027  12.508   2.730   4.776  0.2109 -0.2126  0.0515
24181W        W39028   3.172   9.208  12.479 -0.1206  0.1824  0.2417
24182W        W39029  13.409  10.627  11.209  0.5401 -0.0681 -0.0987
24183W        W39030  13.139   2.800   1.103  0.2657  0.5629 -0.1402
24184W        W39031   8.009   3.405  15.916 -0.2801 -0.2146  0.0722
24185W        W39032  17.072  16.049   1.106 -0.0521 -0.0692  0.0616
24186W        W39033  16.073   9.714  15.347 -0.2446 -0.2383  0.0677
24187W        W39034   9.453   5.996  12.459  0.1268  0.3138 -0.1878
24188W        W39035   4.565   6.374  15.630  0.1603 -0.1558 -0.0943
24189W        W39036   2.616  17.095  11.733  0.0056  0.2077 -0.0811
24190W        W39037  12.310   0.999   0.664  0.2817  0.2555  0.0796
24191W        W39038  15.826   3.947   1.284  0.1571 -0.3082 -0.4425
24192W        W39039  17.084   0.197  13.523  0.2054 -0.0518 -0.1452
24193W        W39040  17.886  12.583   4.676  0.0139  0.1884  0.0783
24194W        W39041  13.154   3.678   4.212 -0.1086  0.1321  0.0149
24195W        W39042  12.681   4.451  12.550 -0.0096  0.0723 -0.0098
24196W        W39043  14.822   5.944  12.360  0.0454 -0.1509  0.0495
24197W        W39044  12.649  17.036  16.402  0.3821 -0.4563  0.1554
24198W        W39045  14.520   6.142   5.110  0.1844  0.2087 -0.0084
24199W        W39046  17.661   7.245  15.166  0.1145 -0.0030  0.0973
24200W        W39047   1.354  16.409  15.796 -0.0665 -0.0784  0.0183
24201W        W39048  12.748   6.524  13.702  0.2146 -0.0788  0.0693
24202W        W39049  17.378   8.992  16.443 -0.0564 -0.0098 -0.1204
24203W        W39050  15.091  14.044  11.347 -0.1226  0.2922 -0.0832
24204W        W39051  11.779   9.816   4.433 -0.2127 -0.0654 -0.3054
24205W        W39052  17.683  12.173  13.163  0.0870  0.1289  0.2557
24206W        W39053   7.321   2.502  12.547 -0.3369 -0.0539  0.0976
24207W        W39054  14.963   6.452  14.832 -0.1552 -0.1662  0.2476
24208W        W39055   1.968   3.073   4.748  0.0032 -0.1147  0.3440
24209W        W39056  13.878  10.969   4.383 -0.2860  0.3683 -0.0630
24210W        W39057  10.456  17.671  11.696  0.0541  0.0140 -0.3996
24211W        W39058   0.792  12.158  13.573  0.1033  0.0155  0.1798
24212W        W39059   0.310  11.924  12.026  0.3263 -0.0611 -0.3107
24213W        W39060  14.478   6.053   3.026 -0.2587 -0.2113 -0.2700
24214W        W39061   3.069  11.028  15.036 -0.0636 -0.5481 -0.0565
24215W        W39062   2.442   9.789  15.468  0.0817  0.0922 -0.0860
24216W        W39063  16.177   9.152   1.566 -0.4701 -0.0592 -0.0403
24217W        W39064  11.859  16.179  16.501  0.0672 -0.1100  0.0009
24218W        W39065   0.242   4.959  15.474 -0.0814  0.1052 -0.1205
24219W        W39066  12.633   3.978   5.496  0.3327 -0.1887  0.0912
24220W        W39067  12.444   4.342  16.565  0.2179 -0.0201  0.0664
24221W        W39068  17.931   1.821  13.836 -0.1177  0.0962 -0.2796
24222W        W39069  17.045  16.094  11.082  0.0334  0.3657  0.0991
24223W        W39070   0.084   5.707  17.086  0.1125 -0.0624  0.2163
24224W        W39071  17.716   4.538  12.441  0.0309 -0.1347  0.0734
24225W        W39072  17.057  13.631   3.394 -0.1292 -0.3144 -0.0333
24226W        W39073   2.727   2.709   5.209  0.0276  0.0546  0.1083
24227W        W39074  12.122  15.006   6.810 -0.2384  0.1229  0.0374
24228W        W39075  16.889   3.453  14.290  0.0744  0.0433  0.1294
24229W        W39076   4.219  10.836   0.651  0.0424  0.2254 -0.0771
24230W        W39077  14.959  11.248  16.480  0.0972 -0.1478  0.2338
24231W        W39078  14.204   9.586   4.710 -0.1949 -0.3646  0.1215
24232W        W39079  17.566  13.667   5.241  0.0207  0.3436 -0.1862
24233W        W39080   9.183  14.477   0.397  0.2587  0.1704  0.2087
24234W        W39081  14.702   7.101  17.100 -0.0208 -0.5446  0.2179
24235W        W39082   5.241  11.491  13.991 -0.3119  0.4703  0.2540
24236W        W39083   9.424   0.898  14.718 -0.0690 -0.1147 -0.5709
24237W        W39084  16.273   9.773  12.725  0.0073  0.1947  0.4584
24238W        W39085  17.417  10.676   2.471 -0.1809 -0.1257  0.0291
24239W        W39086  14.351  15.356  13.571 -0.0506  0.0779 -0.3071
24240W        W39087   6.462   4.600  14.688 -0.0213  0.1261 -0.1414
24241W        W39088  12.714   5.345   4.349 -0.0384  0.1264 -0.1261
24242W        W39089  14.133   6.438   1.989  0.0781  0.0616  0.0011
24243W        W39090  16.832  10.850  11.324 -0.1045  0.3054 -0.0607
24244W        W39091  15.327  10.832   4.111  0.2450 -0.0700  0.1742
24245W        W39092  15.385   1.090  14.336  0.1405 -0.2823  0.1186
24246W        W39093  12.376  13.453  12.696  0.0817 -0.1561 -0.0005
24247W        W39094  13.968  10.361  12.535  0.2131  0.0954 -0.0252
24248W        W39095  13.815  16.005  11.269  0.1759 -0.1292  0.1793
24249W        W39096   1.259   7.468  16.648 -0.0159  0.0151 -0.0779
24250W        W39097   8.375   7.781  15.312  0.1967  0.0741 -0.2454
24251W        W39098   1.104   0.826  11.183 -0.2197  0.1078  0.3190
24252W        W39099   0.365  10.594   3.919 -0.0312  0.3753 -0.0095
24253W        W39100  11.511   2.110  13.033  0.1587 -0.0712  0.1775
24254W        W39101  10.000   0.630   6.021  0.1430 -0.2100 -0.1478
24255W        W39102  15.075   6.897  12.430 -0.4197  0.2213  0.1529
24256W        W39103   2.589   2.329  12.694 -0.0755  0.0230  0.2801
24257W        W39104  12.030  13.053   5.333  0.0116 -0.2056  0.2437
24258W        W39105  17.084   8.943   2.240  0.2108  0.2245  0.1917
24259W        W39106  14.702   8.813  13.073 -0.1995 -0.2646  0.2554
24260W        W39107   8.919   8.913   2.613 -0.0621  0.0043 -0.1287
24261W        W39108  17.245   3.640  12.839 -0.0657  0.3928 -0.2098
24262W        W39109   6.921   4.791   1.719 -0.0565 -0.3286  0.1539
24263W        W39110  11.772   3.083   4.528 -0.2282  0.0697 -0.2589
24264W        W39111   6.576  17.539  14.469 -0.0093 -0.0247 -0.0383
24265W        W39112  12.209   5.218   3.929  0.0855 -0.1562 -0.0195
24266W        W39113  12.304   3.415  15.394 -0.1322 -0.0535 -0.3854
24267W        W39114  12.196   8.183  13.876 -0.0482  0.2543  0.2255
24268W        W39115  10.741  11.748  15.891 -0.2123 -0.0333 -0.0973
24269W        W39116  17.406   1.507  12.586 -0.0401  0.1440 -0.0102
24270W        W39117  16.091   2.645   4.585  0.0944  0.0794  0.0242
24271W        W39118  11.333  13.389   1.852  0.0515  0.2164 -0.3733
24272W        W39119  15.907  15.664  13.459 -0.0888 -0.0229 -0.0820
24273W        W39120  17.037   4.008   3.170  0.0968 -0.1375 -0.0700
24274W        W39121   1.016  16.787  13.499 -0.1750  0.0415  0.2890
24275W        W39122   8.677   6.879   1.242  0.1787 -0.0310  0.1400
24276W        W39123  15.661   8.390  11.610 -0.1859  0.2842 -0.0459
24277W        W39124  15.339   5.025  16.912 -0.0468  0.0759  0.0360
24278W        W39125   1.345  10.573  13.881 -0.0144  0.4023 -0.0598
24279W        W39126   8.879   3.021  11.982  0.0461  0.1076  0.0104
24280W        W39127   2.405   6.506  14.072 -0.2641 -0.3307  0.3531
24281W        W39128  12.018  17.485   3.540 -0.3533  0.2852 -0.2041
24282W        W39129   0.229   0.010   3.442  0.2374 -0.0541  0.0127
24283W        W39130  10.140   7.774  15.869  0.3630  0.0751 -0.2374
24284W        W39131   1.897  13.523  14.266 -0.0572 -0.1533  0.1178
24285W        W39132   8.161   5.535   0.689  0.1655 -0.1822 -0.1513
24286W        W39133  14.789   8.999   2.764  0.0680  0.1151 -0.0521
24287W        W39134  14.604  14.811   2.154 -0.2733  0.0632  0.0478
24288W        W39135  12.938   7.119   0.018 -0.4473  0.1759 -0.0589
24289W        W39136  14.122  15.141   4.845  0.1733 -0.0357 -0.0197
24290W        W39137   8.589   6.084   0.922  0.1874 -0.2174 -0.0318
24291W        W39138  13.655   7.599   4.407 -0.0224  0.0272  0.0600
24292W        W39139  15.319  12.121   4.974 -0.1452 -0.1501 -0.2082
24293W        W39140   3.374  10.657  14.978 -0.1547  0.1487 -0.2598
24294W        W39141  16.354  17.763   5.547 -0.2728 -0.2027 -0.1597
24295W        W39142   4.124  11.066   2.127 -0.4956  0.1101 -0.0009
24296W        W39143  15.621   9.499  15.947  0.2182  0.1733 -0.0574
24297W        W39144  13.451   4.026  15.510 -0.1472 -0.1891  0.0093
24298W        W39145  11.622   0.819   0.141 -0.2438  0.1574 -0.2504
24299W        W39146  11.347   6.370  14.688  0.1498 -0.1095  0.1131
24300W        W39147   3.132  16.786  15.038 -0.0316  0.4287  0.2598
24301W        W39148   5.882   0.270   0.837 -0.0838  0.1614  0.4432
24302W        W39149   0.458  17.957  15.784  0.0278  0.0917 -0.0573
24303W        W39150  14.966  11.413  10.744 -0.1422  0.0833  0.1353
24304W        W39151   9.061   0.303  16.543  0.0278  0.1103 -0.1504
24305W        W39152   1.147  15.925  11.230 -0.2421  0.2706  0.0243
24306W        W39153  16.411   7.473  13.444  0.0166  0.2626 -0.0157
24307W        W39154  11.259   4.257  13.105  0.0315  0.1032  0.1118
24308W        W39155  14.063  15.761   3.883 -0.1400 -0.1528  0.3366
24309W        W39156  11.214  11.354  14.205  0.2377 -0.0262  0.1333
24310W        W39157   1.786  16.118   0.770 -0.1383  0.3373 -0.2111
24311W        W39158  11.772   5.289  15.387  0.0581 -0.0106 -0.0178
24312W        W39159  17.366   5.267  12.842  0.1152 -0.0935  0.0332
24313W        W39160  15.989   0.314  12.360 -0.2509 -0.1799 -0.2992
24314W        W39161  16.515  17.489   1.409  0.0222  0.3045 -0.3262
24315W        W39162  15.440   2.164   3.017 -0.0507  0.1470  0.0347
24316W        W39163  14.484  16.372  12.055  0.2081  0.1285 -0.1196
24317W        W39164  16.530   7.240   1.465  0.1652  0.0545 -0.1797
24318W        W39165   2.411   1.520  16.084  0.2084 -0.2797  0.0663
24319W        W39166  13.528   4.770   1.839 -0.1513 -0.0374 -0.0169
24320W        W39167  14.340   9.512  16.181 -0.0791  0.1211 -0.1859
24321W        W39168   0.377   1.161  13.606  0.1253 -0.1540 -0.2660
24322W        W39169  11.014  11.787  15.435 -0.1695 -0.2841  0.1379
24323W        W39170  15.139   3.463   3.234  0.1154  0.1955 -0.0717
24324W        W39171   9.671  14.271  12.691 -0.2386 -0.0336  0.0402
24325W        W39172  13.064   1.389  11.428 -0.2272 -0.3033 -0.2601
24326W        W39173   7.403  17.449  14.680  0.1955 -0.1178  0.3643
24327W        W39174  15.115  16.187   3.554 -0.0390  0.2276 -0.1020
24328W        W39175  13.823  16.649   2.420  0.1579  0.2573  0.0843
24329W        W39176  10.608  17.641  16.913 -0.2445  0.2757  0.1968
24330W        W39177   8.608   5.733  13.021 -0.2069  0.1409 -0.2045
24331W        W39178   2.997  13.593   3.476  0.2020 -0.3716 -0.0779
24332W        W39179   9.548  11.782  16.284 -0.0795  0.0322  0.2501
24333W        W39180  13.419   4.522   1.378 -0.1993  0.2366 -0.1658
24334W        W39181  14.069   6.882  10.992  0.0298 -0.0311 -0.2457
24335W        W39182  14.085  17.285  10.336  0.1420  0.0900 -0.0237
24336W        W39183   1.642   8.732  15.254 -0.0507  0.2787 -0.2574
24337W        W39184   1.757   1.438  13.397  0.0189  0.1049 -0.1618
24338W        W39185   0.119  11.954   2.643  0.2275  0.0842  0.3927
24339W        W39186  14.168  12.300  13.506 -0.0845 -0.0987  0.2973
24340W        W39187  16.990  13.361  13.309  0.0634 -0.1372  0.0012
24341W        W39188  12.925   3.887   6.568 -0.3216 -0.4096  0.0514
24342W        W39189   8.164  14.838  13.946 -0.0082 -0.2165 -0.2012
24343W        W39190   7.674   7.544   6.090  0.5309 -0.0572  0.2773
24344W        W39191  14.801   5.278  16.919 -0.0874  0.2772  0.2204
24345W        W39192  16.462   1.805  12.768  0.0952 -0.1133  0.0840
24346W        W39193  14.369   7.631   3.845  0.0485  0.1601 -0.2105
24347W        W39194  10.709  15.542   2.766  0.1730 -0.3528 -0.0604
24348W        W39195   2.016   6.223  14.891  0.0294  0.4217 -0.1308
24349W        W39196  14.404   1.387  12.593 -0.1631  0.1984  0.1319
24350W        W39197   4.273  11.625  12.031 -0.0300 -0.2487 -0.2141
24351W        W39198   5.852  10.172   2.154  0.1502 -0.1122 -0.0055
24352W        W39199  12.976  15.367   4.687  0.4160  0.2982  0.1229
24353W        W39200   8.403  13.604   4.140 -0.0775  0.1533 -0.1701
24354W        W39201  12.540  12.013   3.577  0.2947 -0.0749  0.2346
24355W        W39202  17.298   9.690   5.212 -0.2907 -0.1284 -0.1322
24356W        W39203   0.733   2.002  15.644 -0.1480 -0.0373  0.3315
24357W        W39204  14.803  15.500  16.545 -0.2304 -0.1325  0.0582
24358W        W39205  13.616   6.570   1.200 -0.1850 -0.1122  0.1463
24359W        W39206   3.651   9.701  17.091  0.1561 -0.1951 -0.1423
24360W        W39207  17.704   2.057  14.911  0.0824 -0.0480 -0.3082
24361W        W39208  13.468  11.590  10.823 -0.2022  0.2533  0.0652
24362W        W39209  17.704  11.843   5.276  0.0170 -0.1348 -0.0359
24363W        W39210  15.547  14.720  12.843  0.0391  0.2111  0.1024
24364W        W39211   8.378   6.462   6.544  0.0920 -0.0375 -0.4222
24365W        W39212  17.688   2.889  12.044  0.2682 -0.3075  0.0384
24366W        W39213   9.072   1.789  15.290  0.0216 -0.0632 -0.1626
24367W        W39214  12.654   3.816   1.228  0.0897  0.1410 -0.2302
24368W        W39215  13.355   3.605   2.528 -0.1486 -0.0162  0.2807
24369W        W39216  14.828  15.662   3.717 -0.0440  0.2959 -0.2778
24370W        W39217  16.099  16.115   3.048  0.1619  0.2566 -0.1025
24371W        W39218  13.594   1.715   4.981  0.0573 -0.0677  0.1681
24372W        W39219  15.183  13.005   5.635  0.0322 -0.0926 -0.0680
24373W        W39220  14.977   4.268  11.710 -0.4873  0.2110  0.2185
24374W        W39221  17.731   0.516   4.762 -0.1290 -0.0246  0.1200
24375W        W39222   0.605   6.184   4.927  0.2048 -0.0981  0.0649
24376W        W39223   4.461   7.814   0.462 -0.1408 -0.1676 -0.1662
24377W        W39224  11.379  16.635   3.098  0.0176  0.0094  0.1462
24378W        W39225  14.242   9.946   1.640 -0.0078  0.0316  0.1555
24379W        W39226   0.574  15.140   0.626  0.1349 -0.2827  0.1509
24380W        W39227  11.490   0.984  12.380 -0.1500  0.3813  0.2458
24381W        W39228  13.014   0.061   5.058 -0.3907 -0.3441  0.1046
24382W        W39229  16.450   7.570   5.757  0.3056  0.0143 -0.0982
24383W        W39230  10.767  10.795   3.901  0.0825 -0.0481  0.2484
24384W        W39231  17.464   9.095   1.383  0.4235 -0.3182  0.1473
24385W        W39232   4.740   5.342   1.612  0.1534  0.2171 -0.0437
24386W        W39233  12.019   4.675  11.716 -0.0300 -0.2410  0.0108
24387W        W39234   0.767  13.593  13.167  0.0935 -0.1329  0.2656
24388W        W39235  13.677  16.016   3.377  0.2826 -0.0265 -0.0963
24389W        W39236  12.235   1.830  13.762 -0.1889 -0.0156 -0.0383
24390W        W39237   2.693   9.359   6.841  0.3793  0.2085  0.0182
24391W        W39238  14.822   9.862  14.958  0.0767 -0.0998  0.1700
24392W        W39239   1.504   1.082   5.178  0.1573 -0.1537 -0.1405
24393W        W39240  15.092  12.679   4.384 -0.0675  0.0258 -0.0938
24394W        W39241  17.941   3.263   3.756 -0.1101 -0.1781 -0.0815
24395W        W39242  14.870   3.301  10.861 -0.0450 -0.1641  0.0005
24396W        W39243  17.004  12.206   1.335  0.2150 -0.2267  0.0461
24397W        W39244   1.641   4.253   1.541 -0.0116  0.0170  0.1519
24398W        W39245   7.737  17.736  12.142  0.0044  0.1814  0.1416
24399W        W39246  15.671   2.244  15.132  0.0344  0.1137 -0.0720
24400W        W39247  16.264   2.463   5.079  0.2712  0.0387  0.1765
24401W        W39248  15.165  12.471  11.067  0.0831 -0.0552 -0.1452
24402W        W39249  13.903  10.723   1.852  0.2055  0.2015  0.0674
24403W        W39250  11.428   7.835  12.623 -0.0262 -0.0284 -0.0958
24404W        W39251  11.074   6.944   0.546  0.1045  0.1652  0.0321
24405W        W39252  11.757   3.115   3.337  0.4938  0.0355 -0.0323
24406W        W39253   9.392   2.756  14.461 -0.0078 -0.2933 -0.0510
24407W        W39254   1.262  17.153  16.352 -0.2849  0.2291 -0.1632
24408W        W39255   9.259   8.183   5.646  0.2255  0.1197  0.0224
24409W        W39256   6.334  16.071   5.531 -0.0912 -0.0863 -0.2285
24410W        W39257  14.841   2.582   4.791  0.0946 -0.3102 -0.0334
24411W        W39258  14.680  10.779   1.295 -0.0815 -0.2891  0.2795
24412W        W39259   2.657   3.889  12.929  0.1339 -0.0623 -0.2902
24413W        W39260  16.318   8.146   0.757 -0.2406 -0.4044  0.0563
24414W        W39261  15.395  12.015  13.630  0.0831 -0.1668  0.0412
24415W        W39262  12.999  11.255   3.160  0.3137 -0.0390 -0.0994
24416W        W39263  12.480   9.698  16.532  0.1834 -0.0012 -0.0914
24417W        W39264   2.583  15.705  14.707 -0.0133  0.0599  0.1605
24418W        W39265  12.628   5.480   3.565 -0.0640  0.2474  0.2625
24419W        W39266  15.371   6.527  12.634  0.2271 -0.0025  0.0914
24420W        W39267  13.098   1.289  15.584 -0.0642  0.0596 -0.0713
24421W        W39268  16.477  10.053  15.887  0.0091 -0.2110 -0.0072
24422W        W39269  13.288  13.506   2.258  0.0702  0.1510  0.2509
24423W        W39270  16.272  14.369  11.341  0.3469  0.1101  0.2646
24424W        W39271  16.793   4.136  15.132 -0.0132 -0.1318  0.3320
24425W        W39272  16.376  15.928   4.607 -0.2887  0.3525  0.2655
24426W        W39273   9.664   4.392  15.914  0.0718 -0.0070  0.1107
24427W        W39274  12.872   7.047  13.415 -0.0079 -0.1826  0.1999
24428W        W39275   6.697   3.740   0.268  0.1568  0.0172  0.0554
24429W        W39276   4.070  14.795  12.565  0.5261 -0.0930  0.0162
24430W        W39277   7.887  16.849   3.038 -0.0495 -0.0773 -0.0043
24431W        W39278  16.582  16.000  11.577  0.0650 -0.2689 -0.2518
24432W        W39279   1.322   2.877   3.235 -0.0327  0.0165 -0.0525
24433W        W39280  13.927  12.219  14.395 -0.0154  0.0509  0.3426
24434W        W39281  10.469   7.547   0.618 -0.1511  0.1902 -0.1821
24435W        W39282  10.393   5.637   0.290 -0.1977  0.1752 -0.2100
24436W        W39283  12.435   7.249  13.260  0.1933  0.0812  0.1672
24437W        W39284  12.068   8.965  15.965 -0.1752  0.0616 -0.1121
24438W        W39285   1.797  11.443   2.369  0.0413 -0.1461  0.2793
24439W        W39286  16.868   0.005  14.856 -0.0620  0.1223  0.2341
24440W        W39287   8.693   9.129  15.750  0.1374 -0.2199  0.0906
24441W        W39288  10.871  16.308   4.271 -0.0998  0.0774  0.2153
24442W        W39289  15.041   9.883  13.959 -0.0218  0.2175 -0.0516
24443W        W39290  14.719  11.329   5.088  0.1721  0.0392  0.0285
24444W        W39291  10.319   9.235  13.406 -0.1752 -0.1201  0.1416
24445W        W39292  12.842  16.056  15.442  0.0445  0.1455 -0.0127
24446W        W39293  12.309   5.120   0.788 -0.1279 -0.1167  0.1424
24447W        W39294   9.897   5.540   1.966  0.0213  0.0153  0.1707
24448W        W39295  15.557   5.998   3.061  0.2102  0.1777  0.1573
24449W        W39296   0.749  14.538  15.677  0.4259  0.1116  0.3214
24450W        W39297  16.611  12.747   4.902  0.0517 -0.1527 -0.1508
24451W        W39298  11.604   3.711  10.793 -0.0597 -0.2470  0.1976
24452W        W39299  13.076  15.576  16.871 -0.0690 -0.0883 -0.2912
24453W        W39300  12.775  12.102  16.478  0.0032 -0.0623 -0.1801
24454W        W39301   2.987   9.284   0.457 -0.1485  0.3237 -0.1579
24455W        W39302  17.050   2.228   4.835  0.2417 -0.1724 -0.0254
24456W        W39303  17.970   0.858   3.706 -0.1254  0.0332 -0.0443
24457W        W39304  12.190   5.696   0.478  0.1448 -0.5561  0.0692
24458W        W39305   1.852  17.721  15.619  0.1016  0.3101  0.2782
24459W        W39306  10.408   1.060  17.094  0.1732  0.0247 -0.0703
24460W        W39307  16.277  15.553   3.520 -0.1899 -0.1857  0.2545
24461W        W39308  12.185   0.384  11.020 -0.2551  0.2196 -0.0855
24462W        W39309  17.149  17.275   4.891  0.0726  0.0749  0.2366
24463W        W39310   2.084  14.495   0.670  0.0317  0.0686  0.2464
24464W        W39311   9.932  15.620  14.256  0.2773  0.0395  0.1781
24465W        W39312  12.634  11.558  14.231  0.0080 -0.1416  0.1910
24466W        W39313  17.238  14.919  15.496 -0.2195 -0.0850 -0.0750
24467W        W39314  11.005  15.745  13.685 -0.3398 -0.1595  0.1284
24468W        W39315   8.613  13.252   5.621 -0.1379  0.1509 -0.1459
24469W        W39316  15.318   0.823  16.713  0.2236  0.2793  0.0281
24470W        W39317   8.647  10.952   6.218 -0.0805  0.2290  0.0357
24471W        W39318  14.818  15.462  11.878 -0.0384  0.1677  0.1802
24472W        W39319  11.652   4.576  17.093  0.0007 -0.0552  0.0118
24473W        W39320  14.078  12.372  15.704 -0.2776  0.0117  0.2547
24474W        W39321  12.099   6.636  16.350  0.0273  0.0323 -0.1698
24475W        W39322  13.222   1.272   2.184 -0.0180 -0.0826 -0.3526
24476W        W39323  13.909  11.461   4.590 -0.1818 -0.1313 -0.1442
24477W        W39324   6.791   4.578  16.793 -0.0036 -0.3578 -0.1795
24478W        W39325   8.891   0.440  12.123  0.0480 -0.6652  0.1549
24479W        W39326   1.687   5.861   3.929 -0.1624  0.1521  0.1414
24480W        W39327  13.151   0.791  14.720 -0.0213 -0.0190 -0.0412
24481W        W39328   9.986   7.519  12.674  0.1754 -0.1592 -0.2272
24482W        W39329   4.373   6.575  12.339 -0.0882 -0.1636 -0.2624
24483W        W39330   4.324  13.323   2.848 -0.1210  0.1184 -0.2614
24484W        W39331   4.182   7.708   3.494  0.0820  0.2951 -0.1414
24485W        W39332  14.201  16.750  15.571 -0.0988  0.1781 -0.0046
24486W        W39333  14.953   9.267   4.109  0.3362  0.0698  0.1876
24487W        W39334  16.698   2.152   6.075  0.1372  0.0266 -0.1061
24488W        W39335  15.419   5.219  12.753  0.1626  0.1024  0.2045
24489W        W39336   1.742   4.683  11.170 -0.1033 -0.1290 -0.0423
24490W        W39337   4.972   9.392   1.398 -0.0524  0.1194 -0.0672
24491W        W39338   7.244   9.383   2.075  0.3032 -0.1055 -0.0011
24492W        W39339  17.913   9.608   5.275  0.0090  0.0876 -0.0830
24493W        W39340  11.559   1.627  13.557 -0.1610 -0.2269 -0.0685
24494W        W39341  10.871  11.520   1.543 -0.2291 -0.1354  0.0643
24495W        W39342  17.084   7.760  11.298 -0.0510 -0.2286  0.1702
24496W        W39343  13.974   3.931  13.666 -0.1959 -0.1657 -0.1710
24497W        W39344  16.819   7.724   5.517 -0.1720  0.1794  0.0222
24498W        W39345  15.179   5.722   3.976 -0.1983  0.1121  0.1945
24499W        W39346  15.938   8.929  14.580 -0.2612  0.0717 -0.1621
24500W        W39347  13.664  16.987  12.001 -0.1820  0.2534 -0.1874
24501W        W39348  17.534   4.273  15.914  0.1687  0.1300 -0.0742
24502W        W39349  17.364  16.529  16.384  0.0802 -0.0242 -0.0893
24503W        W39350  15.343  11.961  16.327 -0.0371  0.3139  0.0732
24504W        W39351  16.097  14.961  10.676  0.0003  0.0909 -0.3861
24505W        W39352   3.116   8.226   2.237 -0.0921  0.2522  0.1543
24506W        W39353  14.923   7.531   6.748 -0.2135  0.0663 -0.0976
24507W        W39354  17.938   4.485  16.103 -0.2327 -0.1472 -0.2019
24508W        W39355  12.148   0.970   3.249  0.1841 -0.1842  0.1811
24509W        W39356   1.741   0.093  15.950 -0.0535 -0.1027  0.0377
24510W        W39357  11.683   0.094   5.677  0.2902 -0.1641  0.3042
24511W        W39358  17.654  10.126  13.824  0.2936 -0.0574 -0.0123
24512W        W39359  15.579  17.693  14.838 -0.3147  0.0546  0.0878
24513W        W39360   8.778   6.802   6.364  0.0804 -0.1415  0.1661
24514W        W39361   2.957   1.569   4.931 -0.1694  0.1209 -0.1746
24515W        W39362  10.237   2.178  13.830 -0.5544 -0.1979 -0.0832
24516W        W39363  10.094  10.265   4.855  0.0705 -0.0203 -0.0065
24517W        W39364  15.496  17.604  10.624  0.3593  0.0449 -0.1090
24518W        W39365  11.883   6.786   3.149  0.0933 -0.1780 -0.1255
24519W        W39366   8.660  14.556   0.488 -0.1142 -0.3205  0.1158
24520W        W39367  15.193  15.395  16.878 -0.0493  0.2507  0.2822
24521W        W39368  15.806  11.762   3.583 -0.1590  0.0573  0.0305
24522W        W39369  14.136  13.554   4.049 -0.4512  0.0204  0.1633
24523W        W39370  16.272   4.832   2.889 -0.0156 -0.0688 -0.1665
24524W        W39371  13.186   2.123   4.433 -0.0310 -0.0089 -0.0325
24525W        W39372  11.843   7.164  13.241 -0.0931  0.0541 -0.0743
24526W        W39373   1.484  11.311  14.408 -0.0334  0.1183  0.0309
24527W        W39374  12.257   1.414  12.294 -0.3979 -0.1010 -0.0940
24528W        W39375   0.295   3.669  16.147  0.0851  0.1546 -0.2728
24529W        W39376  13.945  12.987   3.726 -0.0741  0.1757 -0.2392
24530W        W39377   2.474  16.827   4.598 -0.2872 -0.0366 -0.0294
24531W        W39378   4.673   9.290   4.070  0.0110  0.0862  0.0137
24532W        W39379  17.589   3.541   1.451  0.0003 -0.1336  0.1354
24533W        W39380   5.115  13.715   1.698  0.1010  0.0008 -0.1602
24534W        W39381   8.922  10.467   0.419  0.0354  0.0386  0.0661
24535W        W39382  12.308  13.975  12.504  0.0436  0.4116  0.0906
24536W        W39383  14.905   5.980   1.891  0.1370 -0.4699  0.1271
24537W        W39384   4.269   9.571   5.560 -0.0351  0.1658  0.1331
24538W        W39385   0.778   6.535  12.680  0.0226  0.0250 -0.4296
24539W        W39386  12.005   3.047   1.356 -0.0618  0.1122  0.1243
24540W        W39387  16.954   4.079  12.580  0.0480  0.0658 -0.2813
24541W        W39388  10.741  14.217   1.192  0.4694  0.1305 -0.0240
24542W        W39389   0.757   0.538   4.237  0.1751  0.1710  0.0193
24543W        W39390   0.006  10.128   3.963 -0.1001  0.3595  0.5022
24544W        W39391   5.529  12.375   6.010 -0.2731  0.1243  0.3349
24545W        W39392  16.413  11.190  15.742  0.0380  0.2314 -0.1526
24546W        W39393  12.984   0.780   2.938  0.2481 -0.4921 -0.3469
24547W        W39394  17.320   6.411  16.481  0.0673  0.0292 -0.1761
24548W        W39395  12.363  11.889   4.704  0.0042 -0.1012 -0.1277
24549W        W39396   4.592  14.793   2.516 -0.3773 -0.1576 -0.0120
24550W        W39397   2.371  12.105   3.753  0.0281  0.0194 -0.0658
24551W        W39398  17.699  11.781   0.852 -0.0946 -0.3790  0.0018
24552W        W39399  15.050   2.855  11.645 -0.1003  0.3210  0.0427
24553W        W39400  13.456   0.204  12.868 -0.1666  0.1613  0.3861
24554W        W39401   9.387   1.612   1.239 -0.1634 -0.0089 -0.2650
24555W        W39402  16.927  15.938   3.000 -0.1993 -0.0410  0.1126
24556W        W39403  11.474  10.257   5.214  0.1847 -0.0209  0.1318
24557W        W39404   5.806   9.297  13.427 -0.1309  0.3947  0.0634
24558W        W39405  17.196   3.092   2.314 -0.3013  0.1955 -0.0574
24559W        W39406  14.790  11.282   0.905 -0.3147  0.0708 -0.1508
24560W        W39407   0.274  17.422  12.043 -0.3009  0.0214  0.6686
24561W        W39408  15.395   8.188   2.264  0.1854  0.0743  0.1003
24562W        W39409  17.682  10.736  16.930  0.0038 -0.1729 -0.1561
24563W        W39410  13.422  12.487  14.492  0.1620  0.1507 -0.0399
24564W        W39411  11.583   4.948  16.217  0.0030 -0.2538 -0.1223
24565W        W39412   2.250   7.278  14.735  0.0037 -0.0846  0.0905
24566W        W39413   8.784   1.629  13.673 -0.2046 -0.3313  0.0503
24567W        W39414   8.807  10.248  13.118 -0.1886 -0.1856  0.2531
24568W        W39415   4.309  16.119   3.913 -0.2122 -0.0080  0.0923
24569W        W39416  12.020  13.029  12.124 -0.0478  0.0530 -0.1462
24570W        W39417   0.309  16.658   4.010  0.0984  0.1325  0.0215
24571W        W39418   9.565   5.343   5.445  0.1922  0.0215 -0.1808
24572W        W39419   6.266  11.101   1.991  0.0348 -0.1816 -0.2849
24573W        W39420   1.677  17.751   3.454 -0.0816 -0.2328 -0.0525
24574W        W39421  14.340   3.728   4.187  0.2400 -0.0848  0.0277
24575W        W39422   9.170   6.733  16.970 -0.0025 -0.1494  0.1916
24576W        W39423  10.086  11.682  12.608  0.2972 -0.2562 -0.2307
24577W        W39424  12.447   7.025   0.782 -0.1238 -0.3442 -0.0205
24578W        W39425  10.902  17.941   1.199 -0.1267  0.2602 -0.1243
24579W        W39426  13.217  12.891   4.333  0.1494  0.2227 -0.4332
24580W        W39427   0.740   8.365  16.411 -0.1711  0.0853  0.1039
24581W        W39428   7.586   4.111  12.052  0.4209  0.1606  0.0529
24582W        W39429   1.910   3.048   0.070 -0.2885 -0.0470 -0.2109
24583W        W39430  15.829   9.793  12.884  0.3180  0.3544 -0.0658
24584W        W39431  16.449   2.403   4.272 -0.0938  0.0050  0.1224
24585W        W39432   5.970   2.378   4.910 -0.2954  0.1865 -0.0724
24586W        W39433   6.723  12.673  12.359  0.1525  0.1002 -0.0682
24587W        W39434   6.145   0.287  14.015  0.3372 -0.0327 -0.0251
24588W        W39435   0.563  10.113  15.260  0.2371 -0.0233 -0.2424
24589W        W39436  11.316   9.120   3.578  0.1595 -0.1386 -0.0301
24590W        W39437  15.036   5.817  15.301 -0.2924  0.1148  0.1257
24591W        W39438   8.104   6.427  14.747 -0.1173  0.2215 -0.1623
24592W        W39439   1.486  10.583  12.469 -0.1094 -0.0102  0.1577
24593W        W39440  14.970  17.061  16.692 -0.0676 -0.0687  0.0658
24594W        W39441   2.002   0.422   2.407 -0.0512  0.1437 -0.0327
24595W        W39442  15.065  12.500  16.091  0.1269 -0.0818 -0.1736
24596W        W39443   8.577   6.786  13.642  0.2683  0.0760  0.2066
24597W        W39444  15.804  12.427   5.344 -0.3859 -0.1592 -0.0873
24598W        W39445  12.335   0.485  12.068 -0.0948  0.0643  0.2717
24599W        W39446   3.990   7.617  11.668  0.1955  0.2220  0.1551
24600W        W39447  10.618   1.774   1.179  0.0501 -0.3493 -0.2294
24601W        W39448   6.350  13.371   2.208 -0.1933  0.0308 -0.0039
24602W        W39449  11.301  10.444   5.677  0.0203  0.0796 -0.1379
24603W        W39450  16.472   0.348  14.716 -0.1129 -0.0469 -0.2662
24604W        W39451  10.470  13.510   2.262 -0.0173 -0.0299  0.0424
24605W        W39452  10.265   4.919  12.692 -0.2208 -0.2350 -0.1410
24606W        W39453  16.192   8.963   4.058 -0.0088  0.1096  0.1209
24607W        W39454   9.801  13.892  14.636  0.1961 -0.0140  0.0903
24608W        W39455  12.544  11.805  11.335  0.1896  0.1018 -0.0213
24609W        W39456  10.106  17.503   2.318  0.1981 -0.0889  0.3665
24610W        W39457  16.801   2.215   1.785  0.2468 -0.0827  0.2062
24611W        W39458   3.037   7.656  13.070  0.1170  0.2790  0.0544
24612W        W39459  12.886  12.222  12.045  0.2131  0.1680 -0.2203
24613W        W39460  17.383   9.612  15.811 -0.1726  0.0807 -0.1845
24614W        W39461  16.786  15.111  13.133 -0.1598 -0.1290 -0.0868
24615W        W39462  16.054  13.631   0.698 -0.0456 -0.1019  0.0916
24616W        W39463  12.247   0.980  11.950 -0.1195 -0.0611  0.0878
24617W        W39464  14.902  17.307   0.097  0.0698 -0.1473 -0.0850
24618W        W39465  13.132   8.437   3.570 -0.4524  0.0412  0.1224
24619W        W39466   9.773   3.825  12.521 -0.1680  0.0185 -0.1956
24620W        W39467  16.566   8.923  14.289 -0.5254  0.0806 -0.0873
24621W        W39468   7.260   9.367   1.085  0.0828  0.2405  0.0482
24622W        W39469   0.929   4.771  14.310 -0.1891  0.1544  0.0602
24623W        W39470  10.814   9.741   0.606 -0.0658 -0.0158  0.0619
24624W        W39471   1.282   1.155   5.621 -0.1224  0.1674 -0.2061
24625W        W39472  14.777  13.937   6.289  0.2489  0.0943  0.1283
24626W        W39473  16.217   5.679   5.773 -0.0264 -0.0127 -0.1360
24627W        W39474   2.378   5.536  13.830 -0.2693 -0.1900 -0.0004
24628W        W39475   0.143   6.288   5.170 -0.2203 -0.0888 -0.3361
24629W        W39476  17.228   0.096  11.150 -0.1830 -0.2468  0.2800
24630W        W39477  13.166  10.810   1.603  0.0838  0.2349  0.2165
24631W        W39478  11.176   0.094   5.868  0.0341 -0.0199  0.0173
24632W        W39479  17.541  15.628  16.624  0.1347 -0.1052 -0.1943
24633W        W39480  14.410   0.324   3.241 -0.0079  0.4665  0.0536
24634W        W39481  17.547   4.038   6.509  0.0608 -0.0491  0.3002
24635W        W39482   0.109   4.537  14.494 -0.0450 -0.3293 -0.2962
24636W        W39483  12.932   5.003   0.659  0.4080 -0.1636  0.2625
24637W        W39484   2.571  10.982   5.735  0.0057  0.0945  0.1024
24638W        W39485  16.814   3.509  12.622 -0.2076  0.2177 -0.1551
24639W        W39486  10.636  13.261   0.610 -0.0255  0.0132  0.0516
24640W        W39487  15.055  17.660   5.951 -0.2177 -0.1968  0.0247
24641W        W39488   0.468  12.352   1.925 -0.1223  0.3391  0.4843
24642W        W39489  12.728   2.079  11.658 -0.1168 -0.3668  0.2615
24643W        W39490   3.567   3.164   3.290 -0.0545 -0.1754  0.0675
24644W        W39491  14.510   3.021  15.161 -0.1466 -0.1199 -0.0967
24645W        W39492  14.161   3.809  13.227 -0.2854  0.0403  0.2482
24646W        W39493  15.819   6.218   5.023 -0.0077 -0.0576  0.0968
24647W        W39494   1.235   7.826  15.488 -0.1831  0.3019  0.1259
24648W        W39495   1.414  14.363   4.812 -0.2140 -0.0712  0.1414
24649W        W39496  11.267   8.520  14.163  0.2261 -0.1863  0.2131
24650W        W39497  15.476  17.151  14.759  0.0307  0.1222  0.1401
24651W        W39498  13.932  10.049   4.932  0.1781  0.1132  0.0582
24652W        W39499  13.870   6.727  12.899  0.1116  0.2847 -0.2841
24653W        W39500  13.397   6.051   3.210 -0.1008 -0.0024  0.0223
24654W        W39501  17.295   6.175  16.961 -0.0420  0.1039  0.1376
24655W        W39502  14.333   7.783  14.651 -0.2636 -0.0232  0.0287
24656W        W39503   6.662  12.458   4.397  0.1792  0.0729  0.1020
24657W        W39504  17.638  17.919   0.913 -0.0765 -0.1312 -0.0498
24658W        W39505  15.504   3.866  12.751  0.0274  0.1368  0.2039
24659W        W39506   1.933   1.142   3.931 -0.2298  0.1053  0.4263
24660W        W39507  17.164   8.651   1.327 -0.1796  0.0877  0.1093
24661W        W39508  13.619  13.306  11.004  0.1831 -0.0882  0.0400
24662W        W39509  15.178   2.416  12.485  0.0423  0.2584 -0.3794
24663W        W39510  12.378  15.963  10.952  0.3660  0.0791  0.1419
24664W        W39511  11.699   5.711   4.452 -0.1848 -0.1145  0.2130
24665W        W39512   7.496  17.241   0.716 -0.1264  0.1392 -0.2931
24666W        W39513   6.609   0.929  14.969  0.0444  0.1671 -0.1834
24667W        W39514  16.550   4.594   2.094  0.0068  0.0009  0.0753
24668W        W39515   1.029  14.767   5.676  0.0428 -0.0720 -0.0370
24669W        W39516  17.462  10.072   3.140  0.2182 -0.1323 -0.0708
24670W        W39517  14.770  12.795   3.922  0.1356  0.1408  0.1307
24671W        W39518  14.870   9.670  12.665 -0.1258  0.0992  0.1642
24672W        W39519  16.282  17.327  13.252 -0.0516  0.1355  0.0388
24673W        W39520  12.346  10.433  15.890 -0.0129  0.2334 -0.1940
24674W        W39521   2.867   4.011   1.073 -0.0394  0.0197 -0.2324
24675W        W39522   0.642   6.175  13.054 -0.1318  0.2343  0.1168
24676W        W39523  15.448  15.201   1.303  0.0918  0.2640  0.0275
24677W        W39524  12.557  11.077  16.585  0.0505  0.1812  0.1076
24678W        W39525  12.811  12.399   4.332 -0.0562 -0.1247  0.0948
24679W        W39526  13.748  16.149   1.985  0.1937 -0.0406  0.2638
24680W        W39527   3.024  10.203   6.240 -0.1607 -0.1034 -0.1726
24681W        W39528  10.967   7.597   0.883 -0.1094  0.1790 -0.3091
24682W        W39529  12.847  11.078   0.216  0.0690 -0.3769  0.0364
24683W        W39530   7.068   6.382   0.521 -0.2517 -0.1976 -0.4039
24684W        W39531  10.223   0.090   2.518  0.2766  0.0920  0.2878
24685W        W39532  13.335   2.824   3.659 -0.2208  0.3014  0.0668
24686W        W39533   8.801  17.762   0.817  0.0929  0.0406 -0.0301
24687W        W39534  15.364   0.755   2.907 -0.1785  0.3325 -0.1479
24688W        W39535  14.557  15.860  13.012 -0.0964  0.1298  0.3970
24689W        W39536  12.657  10.618   5.281 -0.1040 -0.2499  0.0794
24690W        W39537   0.822  14.827  12.277  0.0667 -0.5298  0.0159
24691W        W39538   2.817   9.554  16.455 -0.2222  0.0428 -0.2122
24692W        W39539  13.030   2.124  14.753 -0.3839 -0.0374  0.0652
24693W        W39540  14.437  12.129  16.533 -0.1111  0.0087 -0.0246
24694W        W39541  15.739   8.169  12.067  0.1219  0.0033  0.0205
24695W        W39542  15.238  13.076  15.883 -0.1996  0.0043  0.1771
24696W        W39543   9.180   7.224  14.923  0.0589 -0.1539 -0.0497
24697W        W39544  12.933   7.373   1.469  0.0589 -0.1833 -0.0215
24698W        W39545  13.819   8.533   6.095  0.0917  0.1264  0.3146
24699W        W39546  13.461   7.807   0.225  0.3233  0.0276  0.1551
24700W        W39547   1.343  13.015  11.194  0.0085  0.1290 -0.0179
24701W        W39548   8.647   2.478   0.601 -0.0454  0.0962 -0.0761
24702W        W39549  10.728   2.412   1.038 -0.0379  0.1504 -0.0454
24703W        W39550   7.014  16.956  13.991  0.1401  0.0536  0.2687
24704W        W39551   9.862   9.865   0.381 -0.2004  0.2158 -0.0312
24705W        W39552  17.090   5.977  12.730 -0.0508  0.1832  0.1565
24706W        W39553  15.102  13.702  15.747 -0.0108  0.0002 -0.3497
24707W        W39554  12.928  15.936   0.864  0.3451 -0.1814 -0.0291
24708W        W39555   9.024  13.218   3.338  0.0003  0.0897  0.0213
24709W        W39556  17.115  15.667  13.743 -0.0743 -0.2300 -0.2788
24710W        W39557  12.328  15.344   0.120 -0.1362  0.1819 -0.2921
24711W        W39558  11.656  15.556   0.139  0.1868  0.0767 -0.3104
24712W        W39559   9.898   7.593  14.303 -0.0196  0.3427 -0.0388
24713W        W39560  11.379  12.225   2.884  0.1512 -0.3290 -0.0027
24714W        W39561  14.589   3.762   0.290 -0.2491 -0.0610  0.2190
24715W        W39562   0.980   8.280  13.036 -0.2173  0.1510 -0.1918
24716W        W39563  13.992   1.115  14.358 -0.0871 -0.1110  0.1003
24717W        W39564  14.936  16.700  14.627  0.3074 -0.0625 -0.1717
24718W        W39565  15.448   8.452   3.679 -0.2270  0.0743 -0.0818
24719W        W39566   2.148   4.988   1.927  0.0382  0.2444 -0.0955
24720W        W39567   1.151  12.617   3.722 -0.0149 -0.1827 -0.0753
24721W        W39568   2.536   6.781  17.043  0.0583  0.3309  0.4057
24722W        W39569   0.872   5.357  17.059 -0.1342  0.1180 -0.1733
24723W        W39570   2.425   4.715   4.445 -0.4839  0.1840 -0.1478
24724W        W39571  10.132   5.856  15.780 -0.1022  0.0170 -0.0498
24725W        W39572  12.072   6.056   3.641 -0.1968 -0.3414  0.1386
24726W        W39573  12.441   0.186  13.076 -0.0693  0.1551 -0.2719
24727W        W39574   3.845   4.022  16.626  0.3020 -0.0272  0.4452
24728W        W39575   5.194  13.749   2.768 -0.1968  0.1257 -0.1681
24729W        W39576  17.728   6.582  15.688 -0.1237  0.2555 -0.1304
24730W        W39577  12.406   2.488  15.317 -0.1615  0.0131 -0.2842
24731W        W39578  12.762  15.224   3.729 -0.1186 -0.0889  0.1537
24732W        W39579  11.373  17.763   1.157 -0.1174  0.2426 -0.3370
24733W        W39580  12.284   8.903  13.340 -0.1167 -0.1079  0.0383
24734W        W39581   3.878   9.858   5.338  0.0853 -0.2953  0.0386
24735W        W39582  14.635  17.342   2.151 -0.1404  0.3554 -0.0659
24736W        W39583  17.635   3.883  14.068  0.2812 -0.1275  0.0709
24737W        W39584  14.318  11.113   1.068  0.3511 -0.2254  0.2882
24738W        W39585   3.581   3.367   2.481  0.1508 -0.0117 -0.0922
24739W        W39586  16.803   4.543   4.816 -0.0815 -0.0945  0.2362
24740W        W39587  16.187  11.947  13.770  0.2551 -0.2005  0.0538
24741W        W39588  12.964  15.393  14.217  0.0466 -0.0505 -0.0405
24742W        W39589  11.685   4.218   2.075  0.0919  0.2588  0.0640
24743W        W39590  14.883  11.960   0.340 -0.0858  0.0675  0.1026
24744W        W39591   4.904   6.986   2.538 -0.0497 -0.1321  0.1197
24745W        W39592  13.136  14.444   2.203 -0.0974 -0.0775 -0.4078
24746W        W39593  12.586   1.795   0.385  0.0799  0.2406 -0.3520
24747W        W39594   9.457  17.598  14.063  0.1100  0.2131 -0.2189
24748W        W39595  11.637  14.476   3.036 -0.4408 -0.2311 -0.0770
24749W        W39596  12.435  11.090   0.970  0.2525  0.0206  0.0812
24750W        W39597   7.491   0.914  14.593 -0.1965  0.2336  0.1749
24751W        W39598  16.212   9.634   3.018 -0.0056 -0.0027  0.0528
24752W        W39599  14.887  11.749  15.419 -0.2521  0.0141  0.0553
24753W        W39600  12.940   9.227  15.500  0.2657  0.0053 -0.1134
24754W        W39601   3.908  14.568  13.974  0.0823 -0.2004  0.0413
24755W        W39602  12.529   2.701  12.705  0.0945 -0.1969  0.0719
24756W        W39603  16.834  17.663  14.175 -0.0792  0.1061  0.0163
24757W        W39604   5.861   2.552   2.175 -0.1772 -0.0873  0.1517
24758W        W39605   1.383  13.950   6.108 -0.2697  0.0064  0.0371
24759W        W39606   7.186  13.214   0.197  0.4897 -0.2620  0.2698
24760W        W39607  14.450  17.883   4.779 -0.2424 -0.0942 -0.1192
24761W        W39608   8.130  13.747   2.507  0.0496  0.0559  0.1335
24762W        W39609   9.224   4.045  14.640 -0.1354 -0.2281  0.3235
24763W        W39610   0.639   3.397  16.564 -0.0031 -0.2746  0.0788
24764W        W39611   5.243  14.114  15.501  0.0510 -0.0755 -0.1436
24765W        W39612  13.718   6.583  12.260  0.0855  0.2818 -0.2454
24766W        W39613   5.268  16.914   3.490  0.0815  0.1305  0.0201
24767W        W39614  16.218   4.038   5.082  0.1761  0.1006  0.2172
24768W        W39615   8.445   9.476  12.448  0.0848  0.4080 -0.5433
24769W        W39616   8.185   2.324  16.567 -0.2666  0.0356 -0.3780
24770W        W39617  12.522  11.569   0.654 -0.5722 -0.1872 -0.3859
24771W        W39618   3.417   2.418  13.589  0.0272 -0.0190  0.1902
24772W        W39619   2.994   8.824   5.911 -0.1144 -0.0236  0.1995
24773W        W39620  14.385  15.183  10.381 -0.0444 -0.1245  0.1331
24774W        W39621  14.876  10.363  14.858 -0.0201 -0.1528  0.1415
24775W        W39622   0.561  10.843  14.423  0.1540  0.0448  0.2498
24776W        W39623   6.000  17.708   0.866  0.0299 -0.0742 -0.0786
24777W        W39624  13.720   6.445  16.208  0.2530  0.0995 -0.1083
24778W        W39625  14.254   9.733  13.200  0.2122 -0.0329  0.2463
24779W        W39626  14.960  17.316   0.699  0.3259  0.2922  0.1196
24780W        W39627  15.081  12.340  13.880 -0.0944 -0.0098 -0.0848
24781W        W39628  13.988   4.135   0.778 -0.0767 -0.2259 -0.1792
24782W        W39629   4.279  13.447  16.306  0.0275 -0.2779 -0.0349
24783W        W39630   3.031  15.902  11.382 -0.1783  0.0446 -0.0574
24784W        W39631   0.936   9.833  12.031  0.0694  0.0587  0.0340
24785W        W39632   5.657   1.281  15.536  0.2471  0.1025 -0.0500
24786W        W39633   9.895   8.499  14.587 -0.0917  0.1849 -0.0721
24787W        W39634   8.509  11.769   5.023  0.2266 -0.2135 -0.0307
24788W        W39635  15.849   4.545  16.170 -0.0180 -0.4092  0.1303
24789W        W39636  11.707   2.402  12.648 -0.0842 -0.1424 -0.2250
24790W        W39637   0.980   1.263  12.009  0.1718  0.1110 -0.0120
24791W        W39638   8.796   7.207   1.726  0.0261 -0.3467  0.1075
24792W        W39639   1.951   7.302   3.698  0.3443  0.1358  0.0970
24793W        W39640   9.879   9.320  14.905 -0.1311 -0.0477  0.0765
24794W        W39641  14.091   1.283   1.912 -0.1089  0.1878 -0.3279
24795W        W39642   8.794   8.629  16.536 -0.1532 -0.3213  0.1412
24796W        W39643  15.936  14.216   3.110 -0.0959 -0.0348 -0.1055
24797W        W39644  17.394   3.889  11.094 -0.2524  0.0901 -0.0030
24798W        W39645   7.828   9.512   2.841  0.0065  0.1523  0.0249
24799W        W39646  16.413  15.399   2.323  0.0124 -0.2768 -0.2023
24800W        W39647  11.938   3.436  11.058 -0.0544 -0.0938 -0.1776
24801W        W39648  13.111  15.638  11.874  0.0804  0.1104 -0.4425
24802W        W39649  11.767  10.215  12.597  0.2166 -0.0897  0.0887
24803W        W39650   6.042   1.905   1.473  0.0998 -0.0200  0.0485
24804W        W39651  16.127   5.551  12.874 -0.0567 -0.0007 -0.0300
24805W        W39652  15.621  13.147   0.995  0.0223 -0.0867  0.0869
24806W        W39653  11.257  11.111   0.923 -0.0632  0.1855 -0.2108
24807W        W39654   9.090   8.292  14.374  0.2342  0.0974 -0.1902
24808W        W39655  13.549   9.722   0.258 -0.1058 -0.0959  0.2476
24809W        W39656  12.893   0.372  13.777 -0.1216  0.0406 -0.1387
24810W        W39657  16.712   5.549   0.035 -0.1669  0.2149 -0.1893
24811W        W39658  13.441   8.760  13.194  0.1474 -0.0149  0.0132
24812W        W39659   7.178   7.056  16.449 -0.1839 -0.1096 -0.2251
24813W        W39660  15.440  12.126   0.380  0.0172  0.2219  0.0529
24814W        W39661  17.205  14.452  11.467  0.1705 -0.1397  0.0094
24815W        W39662  12.506  14.989  13.252  0.1025 -0.0116  0.1707
24816W        W39663  12.233  13.360  10.651  0.0516  0.1533 -0.0261
24817W        W39664  14.035  13.913   4.703  0.0042  0.0196  0.3716
24818W        W39665   5.430   9.652   5.135  0.0682 -0.0902 -0.3520
24819W        W39666  15.430  17.960   5.629 -0.0187  0.0872  0.0055
24820W        W39667  12.187  16.566   4.467 -0.0062 -0.2472 -0.1925
24821W        W39668   6.889  11.489   1.480  0.1089  0.2238  0.1253
24822W        W39669  12.900  12.838   5.157  0.2266  0.1829 -0.0891
24823W        W39670   3.064  12.083  12.539  0.0722 -0.5553  0.0198
24824W        W39671   6.764   4.477   0.524  0.0350 -0.0793 -0.0885
24825W        W39672  11.525   9.059   4.250  0.0123 -0.0223 -0.0251
24826W        W39673   4.685   3.397  12.336 -0.0019 -0.4375  0.0522
24827W        W39674  11.103   8.030   3.857  0.0393 -0.0968 -0.1062
24828W        W39675   0.386  17.330   0.516 -0.0253  0.2016 -0.0147
24829W        W39676  14.139   1.369   0.529  0.2079  0.1714 -0.1435
24830W        W39677  12.130  12.639  15.412 -0.0546  0.1264 -0.1060
24831W        W39678  16.305   6.710  15.088 -0.0180 -0.0965 -0.2629
24832W        W39679  12.011  12.889   4.497 -0.1679  0.3355 -0.0798
24833W        W39680  10.376  14.661   3.709  0.3411  0.1472 -0.3447
24834W        W39681  12.542  17.588   2.676 -0.0566  0.1909  0.0043
24835W        W39682   0.202  10.625  16.226 -0.0964  0.0634  0.0447
24836W        W39683   1.378   7.761   0.858  0.0314 -0.0813  0.2772
24837W        W39684  15.452   8.834  16.497  0.2164  0.0097  0.1434
24838W        W39685  17.360  11.362  13.674  0.1457  0.0430  0.1902
24839W        W39686  12.116   1.403   6.052 -0.0688 -0.3340  0.1779
24840W        W39687  16.483  12.456  10.436  0.0589  0.2819  0.1557
24841W        W39688   4.515   5.061  12.787 -0.0139  0.3111  0.1281
24842W        W39689   1.175   2.696  14.008 -0.1534  0.2530 -0.2003
24843W        W39690  11.822   7.880   2.908  0.1076  0.0772 -0.0202
24844W        W39691  17.751   7.246  11.928 -0.0179  0.0232  0.3019
24845W        W39692  15.529  15.997   3.257 -0.1241  0.3741  0.0470
24846W        W39693   4.819  15.970  15.382  0.1358  0.0787 -0.0837
24847W        W39694  15.602  10.579   4.545  0.0377 -0.0414 -0.3319
24848W        W39695  13.524   5.188   3.420 -0.1929  0.0784  0.0066
24849W        W39696  10.653   9.267   4.274 -0.0326 -0.0827  0.0910
24850W        W39697  13.891  13.211   1.766  0.0160  0.2755 -0.0838
24851W        W39698  13.519  15.906  12.664 -0.1322  0.2456  0.4922
24852W        W39699   1.809   4.481   5.133  0.1946  0.0536 -0.2966
24853W        W39700   8.615   2.990  12.835  0.0338  0.1246 -0.0405
24854W        W39701   0.793  10.250   0.292  0.3609  0.1258 -0.1895
24855W        W39702  12.453  14.456   2.637 -0.1443 -0.1244  0.1166
24856W        W39703   6.785  16.538  14.309  0.4451  0.1009 -0.0791
24857W        W39704  16.905  13.199   0.686  0.0993 -0.1586  0.1124
24858W        W39705  13.683  17.167   2.609 -0.2134 -0.3704  0.0556
24859W        W39706   5.943   1.138   5.529 -0.2181  0.2491  0.1813
24860W        W39707  10.434  10.480   1.914  0.5115  0.0730  0.4285
24861W        W39708  14.785   6.051  12.818 -0.1167 -0.1755  0.3645
24862W        W39709  10.095  17.886   0.576  0.2159  0.1934 -0.6147
24863W        W39710  16.544  14.187  14.161 -0.2132 -0.0796 -0.0821
24864W        W39711  12.892  10.799  11.016  0.0389  0.1647 -0.0809
24865W        W39712   1.184  14.174  10.089  0.3233  0.3421 -0.0933
24866W        W39713  13.316  11.812   2.393 -0.1305 -0.1785  0.1074
24867W        W39714  12.683   4.216   0.290  0.1215  0.1075 -0.0480
24868W        W39715   0.528   3.662   2.465 -0.1386 -0.2473 -0.0460
24869W        W39716   2.989   4.183  16.198  0.0612  0.0132 -0.0568
24870W        W39717   2.419   9.781   0.187 -0.2917 -0.1397  0.2461
24871W        W39718  12.182  16.737  12.243  0.0443  0.1247  0.0436
24872W        W39719  12.071  15.848   2.308  0.1708  0.2147  0.0597
24873W        W39720  10.365  10.383  14.069  0.3021  0.1828  0.1210
24874W        W39721   6.215   6.879   2.827  0.2806 -0.3273 -0.2644
24875W        W39722   2.701   9.856  16.837 -0.2572 -0.2308  0.2441
24876W        W39723  10.115   9.943  11.525 -0.0961 -0.0268  0.1624
24877W        W39724  13.542  12.066   1.638 -0.0857  0.0957  0.2959
24878W        W39725  13.465   0.304   1.701 -0.1004  0.0688 -0.1611
24879W        W39726   9.058   6.109  12.049  0.0856  0.1918  0.0876
24880W        W39727  14.900   8.269   5.327 -0.3316 -0.0168  0.3407
24881W        W39728  17.081  12.465  15.689  0.2158 -0.0073  0.0422
24882W        W39729   3.209  10.068  17.029 -0.0397  0.1776 -0.0927
24883W        W39730   0.261   3.664   3.826 -0.1565 -0.0420 -0.1264
24884W        W39731  12.064  14.632  11.325  0.0052  0.1539  0.0227
24885W        W39732   9.575   8.605   3.328  0.0332  0.1494 -0.0368
24886W        W39733  11.783  11.821   0.278 -0.0111  0.2871  0.0513
24887W        W39734  14.221  16.357  11.238  0.0887  0.0893  0.1353
24888W        W39735  15.560   7.029   5.504 -0.3353 -0.3727  0.1083
24889W        W39736  14.225   3.844   5.047 -0.0328  0.4625  0.1021
24890W        W39737  15.038  16.496  16.643  0.1554 -0.3223 -0.3763
24891W        W39738   9.718  13.277  15.596  0.1381  0.2572  0.2149
24892W        W39739   9.453   2.603   2.255 -0.3986  0.0394  0.3195
24893W        W39740   3.412   4.390   2.763  0.0123  0.2183 -0.0314
24894W        W39741   2.057   8.416   0.840  0.2249  0.3388 -0.1554
24895W        W39742   0.709  16.603   5.622  0.0017 -0.0657  0.2125
24896W        W39743   3.544   6.371  12.935  0.0445 -0.2775  0.1790
24897W        W39744  11.728   2.271  16.562 -0.0288 -0.2612  0.0303
24898W        W39745   9.666  10.044   5.131 -0.0530  0.1625 -0.2481
24899W        W39746  13.432  12.156  16.909 -0.2207  0.2469 -0.2431
24900W        W39747  11.154  11.370   5.385  0.2696 -0.1800 -0.0011
24901W        W39748  13.301   6.153   3.789  0.0624 -0.1065 -0.1692
24902W        W39749   9.482   6.026  14.664  0.2009 -0.1568 -0.0188
24903W        W39750  11.674   9.268  11.881  0.2811 -0.0413  0.0501
24904W        W39751   9.851  17.511   2.814  0.1497  0.0503  0.0461
24905W        W39752  11.704  13.786  10.722 -0.1772  0.1894 -0.1313
24906W        W39753  13.042   6.239  14.587 -0.1577  0.2177 -0.0201
24907W        W39754   3.417  17.654   5.230  0.2190  0.0917 -0.4380
24908W        W39755  16.665   0.628   4.399  0.2259 -0.1246 -0.2123
24909W        W39756  11.507   9.100   2.914  0.2989  0.0105 -0.2051
24910W        W39757  14.522   0.859  12.517 -0.2588  0.2384 -0.0616
24911W        W39758  11.970  12.138   3.618 -0.2948  0.1682  0.0655
24912W        W39759  16.747   4.633  11.977 -0.2683 -0.0156  0.0988
24913W        W39760  11.212  10.159  16.534 -0.2719  0.1943 -0.3625
24914W        W39761  16.999   9.473  15.465 -0.1516 -0.0797  0.3874
24915W        W39762   9.017   0.271   2.984 -0.0244 -0.0337  0.0787
24916W        W39763   0.244  13.055   4.313 -0.0518  0.1769  0.2360
24917W        W39764   0.333  11.433   0.361  0.3671 -0.0139 -0.0186
24918W        W39765  16.067   5.963   3.558  0.0403 -0.1709 -0.2006
24919W        W39766  12.337  16.122  15.382 -0.1905 -0.1039  0.0193
24920W        W39767  12.906  14.789   4.084 -0.1536  0.2687  0.2072
24921W        W39768  15.067   6.827   5.764  0.1022 -0.0491  0.1622
24922W        W39769  10.756  16.238   2.957 -0.1795  0.1725  0.0838
24923W        W39770   1.364   5.026   3.470  0.0552  0.0839  0.0436
24924W        W39771   9.599  10.919  15.723 -0.2423 -0.0698  0.2670
24925W        W39772   0.115   1.292  15.878 -0.0943 -0.1680 -0.0768
24926W        W39773  15.227   1.087   1.530 -0.3166  0.2600  0.1618
24927W        W39774  15.776  15.755  13.976  0.0364 -0.1343 -0.2142
24928W        W39775   0.604   1.164   1.107  0.0864  0.2105 -0.1942
24929W        W39776  14.276   7.188   5.066 -0.1119 -0.0152 -0.1535
24930W        W39777  13.511   9.792  15.935  0.0566 -0.2109  0.0121
24931W        W39778   9.657   3.750   2.792 -0.1007  0.2865  0.2313
24932W        W39779   7.993   8.522   1.747  0.2556  0.0807  0.0182
24933W        W39780  15.981  13.177  15.941 -0.0143 -0.0958 -0.2486
24934W        W39781   1.546  13.282   0.113  0.2155 -0.1753  0.2105
24935W        W39782  14.241   4.245   3.396 -0.0715 -0.2079  0.0321
24936W        W39783  15.376   3.179   2.106 -0.0375 -0.2077 -0.1279
24937W        W39784  14.644   6.535   2.287  0.0044 -0.0389  0.1617
24938W        W39785  14.637   8.195  14.685 -0.4185  0.0742  0.1708
24939W        W39786   0.746   7.094   1.125 -0.0046 -0.2822 -0.0814
24940W        W39787  14.005  14.323   5.625  0.1948  0.1283  0.2667
24941W        W39788   2.912   7.405  12.294  0.1353 -0.4076 -0.0515
24942W        W39789  10.696  17.518  15.012  0.0474  0.0283 -0.0850
24943W        W39790  15.802  15.493   3.631 -0.1213  0.1207 -0.3804
24944W        W39791  12.585   6.179  12.985 -0.0366 -0.0668 -0.0226
24945W        W39792  13.730  14.275  12.670 -0.1994 -0.1455 -0.3166
24946W        W39793   0.453  17.939  12.123  0.1039  0.0606  0.2149
24947W        W39794   7.994   7.504   6.514 -0.0002  0.2989 -0.0970
24948W        W39795  17.437   7.663  16.427  0.0504  0.0645  0.2448
24949W        W39796   7.849   5.965   0.781  0.2734  0.3422  0.3478
24950W        W39797  10.025   4.086   4.482 -0.0178  0.1525 -0.1803
24951W        W39798  14.413   3.853  15.327  0.0976  0.1644 -0.1675
24952W        W39799  13.455  14.682  15.322  0.1483 -0.5075 -0.0554
24953W        W39800   1.178   4.493   3.283 -0.0102 -0.1021 -0.2393
24954W        W39801  13.896  14.294  15.278 -0.0566  0.0301 -0.0381
24955W        W39802  17.804  11.471  15.865  0.2319  0.2703  0.0398
24956W        W39803   8.317   0.419  11.445  0.0799 -0.0574  0.1873
24957W        W39804   3.144  10.949   5.231 -0.4793  0.2714  0.0099
24958W        W39805  14.267   7.369  12.143 -0.1030 -0.0539  0.0096
24959W        W39806  13.742   1.543  12.898 -0.0258 -0.0110 -0.1955
24960W        W39807  13.679   0.961   3.130 -0.1101  0.1006  0.0279
24961W        W39808  13.825   9.524  17.012 -0.3425 -0.0296 -0.0264
24962W        W39809  15.031  17.968  15.997 -0.0059 -0.2045 -0.1161
24963W        W39810   9.685   3.786   6.104  0.0306  0.0087 -0.2751
24964W        W39811  17.351   1.310   2.668 -0.2055 -0.1928 -0.1768
24965W        W39812  10.576   0.125   3.316  0.2302  0.1304 -0.1425
24966W        W39813  14.739   0.174  13.940 -0.5949 -0.3171 -0.0708
24967W        W39814   3.933  16.819  16.474  0.2011  0.1390  0.1524
24968W        W39815  15.883   7.348   3.381  0.0785 -0.1084 -0.0706
24969W        W39816   1.105  15.738  11.759 -0.2283 -0.0872  0.0293
24970W        W39817   3.998  16.097  15.333  0.0901  0.2670  0.0386
24971W        W39818   9.637   4.492   1.807  0.3538 -0.2615 -0.2825
24972W        W39819   1.815   7.180  13.222 -0.2274 -0.1456  0.0287
24973W        W39820   7.403   1.970  13.272  0.2359  0.0240 -0.2010
24974W        W39821  11.982   3.545   1.406  0.0719  0.2426  0.1868
24975W        W39822  16.679  14.143  13.572  0.0854 -0.4130 -0.0518
24976W        W39823   1.271  15.865  17.050  0.2778  0.4031  0.1286
24977W        W39824  11.932   9.694   2.181  0.0464 -0.2249 -0.0891
24978W        W39825  17.705  16.667  16.031 -0.4866 -0.2652  0.1312
24979W        W39826  16.730  14.306   3.096 -0.1217  0.0256 -0.0425
24980W        W39827   9.014   7.629  16.671  0.1202 -0.0433 -0.0783
24981W        W39828  14.946   7.943   3.966  0.3050  0.0679 -0.0737
24982W        W39829   5.098   3.020  11.995  0.1497 -0.2541 -0.4455
24983W        W39830  15.623  14.919   2.572 -0.0555 -0.1017  0.0332
24984W        W39831  10.199   7.572   2.101  0.3084  0.0041 -0.1566
24985W        W39832  15.592   4.550   4.069 -0.0572  0.0219  0.1359
24986W        W39833  14.550   6.812   0.392 -0.1960  0.0103 -0.1658
24987W        W39834  10.727   0.735  12.650  0.0703  0.0063 -0.0911
24988W        W39835  16.122  11.679   5.103  0.2430 -0.0263  0.1100
24989W        W39836  17.011  12.585  12.606  0.1739 -0.1669  0.0565
24990W        W39837   7.858   8.467   3.996  0.1394  0.0721  0.1492
24991W        W39838  16.471   5.951  12.680 -0.0938  0.0780 -0.0927
24992W        W39839  14.516  17.541  14.734  0.1109  0.5060  0.0585
24993W        W39840   9.330  16.188  15.052  0.1604 -0.1258 -0.3495
24994W        W39841   6.804   9.655  15.407 -0.0556 -0.1574 -0.0288
24995W        W39842  11.926  13.607  11.687  0.0097 -0.1213 -0.0142
24996W        W39843  15.689  16.673   1.241  0.3941  0.1865  0.0238
24997W        W39844   8.729   7.974   3.850  0.1675 -0.0747 -0.1101
24998W        W39845  16.186  16.938  12.762  0.0520  0.1350 -0.4551
24999W        W39846  14.015  17.685   6.184  0.0322  0.3927 -0.2097
25000W        W39847  16.576  17.944  13.423 -0.0581 -0.1851 -0.0892
25001W        W39848  15.717   2.079   3.470 -0.1591  0.0337  0.1341
25002W        W39849  16.522  13.378   2.838  0.1512 -0.1682  0.1478
25003W        W39850   5.079   9.280   2.084  0.4316  0.0649 -0.1212
25004W        W39851  16.281  13.668  12.814  0.0935  0.1937  0.3497
25005W        W39852  12.914   6.727  14.424  0.0108 -0.0853  0.3845
25006W        W39853  11.865  10.815   6.415 -0.2068  0.1946  0.2037
25007W        W39854  15.464   5.497  11.578 -0.2238  0.0301  0.2509
25008W        W39855   0.576   0.409   4.666 -0.1250  0.1603 -0.0558
25009W        W39856  12.948   5.102  12.669  0.0510  0.0738  0.1677
25010W        W39857  12.478  17.206   0.880  0.1129  0.1842 -0.1654
25011W        W39858  13.318  10.227  16.642  0.2243  0.1767  0.0761
25012W        W39859  12.811   5.915   3.673 -0.2647  0.0524 -0.0213
25013W        W39860  16.042   3.820  15.857 -0.1646 -0.0700 -0.0314
25014W        W39861   1.301   9.619  13.959 -0.5403 -0.0284  0.2334
25015W        W39862  14.281  16.531  12.469 -0.0751  0.0013  0.0275
25016W        W39863  10.001   1.667  14.354 -0.0072 -0.0428 -0.0589
25017W        W39864   9.747   3.700  15.254  0.0013  0.0495 -0.0683
25018W        W39865  12.816   6.600  13.155 -0.1217 -0.2260 -0.0485
25019W        W39866  12.932   1.886   5.846  0.1362  0.1196 -0.1230
25020W        W39867  15.476  11.253   1.343 -0.3351  0.2143  0.4668
25021W        W39868   9.760  11.851   4.245  0.0396  0.2539  0.0643
25022W        W39869   2.540   7.635   3.840  0.0735 -0.0033  0.1487
25023W        W39870  15.523  10.355  14.948 -0.0644  0.1122  0.1761
25024W        W39871  10.097   3.441  12.781 -0.1841 -0.0035 -0.1581
25025W        W39872  14.915  16.027  15.397  0.3022 -0.2471  0.1924
25026W        W39873   3.804   8.128  15.867 -0.2315  0.0022 -0.1024
25027W        W39874  13.793   9.723  13.304 -0.1969  0.2092  0.2309
25028W        W39875  13.475   8.118   1.174  0.0697 -0.0386  0.1864
25029W        W39876  15.736  13.760   3.911  0.2083 -0.2382  0.0332
25030W        W39877  12.641  17.974   0.081  0.0993 -0.1482  0.1573
25031W        W39878  16.864   0.666   3.676  0.0957 -0.0425  0.0937
25032W        W39879  17.424   7.114   2.983  0.1152 -0.0073 -0.1871
25033W        W39880  15.139   2.997   4.763 -0.0371 -0.1968 -0.1159
25034W        W39881   0.823   3.441   4.427  0.4243  0.1257  0.0157
25035W        W39882  11.252   1.333  14.277 -0.0845 -0.1453 -0.0191
25036W        W39883  15.051   2.887   5.481 -0.0571  0.1948 -0.0488
25037W        W39884  12.620   3.604   0.196  0.1372 -0.4102 -0.1922
25038W        W39885  12.374  15.450  13.498 -0.0580  0.1177  0.0402
25039W        W39886  10.030   7.797   5.372 -0.2128 -0.0245  0.1765
25040W        W39887   4.126  10.168  14.433  0.0426  0.0333  0.1245
25041W        W39888   1.172   2.008   2.962  0.2817  0.1648 -0.0650
25042W        W39889   4.817   1.211   3.935 -0.1784 -0.0892 -0.4330
25043W        W39890   7.437  15.918  12.570  0.0561 -0.1156 -0.0607
25044W        W39891   8.988  13.700  12.467  0.2612 -0.1565  0.0407
25045W        W39892   4.227  12.829   2.151 -0.1711 -0.1192 -0.1095
25046W        W39893  17.015  12.503   1.834 -0.1744  0.0214  0.2686
25047W        W39894  16.052   6.582   1.323 -0.3048 -0.0951 -0.1043
25048W        W39895   8.263   9.261  14.093 -0.2086 -0.0010  0.0576
25049W        W39896   7.936  11.060   1.197 -0.0813 -0.0279 -0.3587
25050W        W39897  13.821  17.434  12.635 -0.1798  0.1431 -0.0506
25051W        W39898  13.721   7.964  10.800  0.3398  0.0469  0.2686
25052W        W39899   3.952  11.355   5.159 -0.0332  0.1273 -0.1747
25053W        W39900   5.972   9.569  15.431 -0.0143  0.2103  0.1121
25054W        W39901  15.228  10.200   3.043  0.3515 -0.3822 -0.1148
25055W        W39902   3.647   3.097  16.892  0.0787 -0.0274 -0.1955
25056W        W39903  17.359   3.900  13.651  0.2475  0.1835 -0.1408
25057W        W39904   7.040  16.028   1.405  0.1205 -0.0287 -0.0046
25058W        W39905  15.738   8.267   0.470 -0.6575  0.0702 -0.1795
25059W        W39906  15.135  17.528   5.444  0.0172  0.0257 -0.1152
25060W        W39907  17.105   2.807  16.024  0.1506  0.1771 -0.1007
25061W        W39908   8.494   5.057   5.869  0.1082  0.0016  0.1685
25062W        W39909   9.937   7.098   1.991  0.0441  0.1636  0.0068
25063W        W39910  15.773   4.432  12.213  0.3429  0.0510  0.0399
25064W        W39911  17.865   3.949  16.207 -0.3160 -0.3796 -0.0853
25065W        W39912  15.436   3.254  13.036  0.0869  0.0225 -0.0885
25066W        W39913   9.688   5.683  12.874 -0.1045 -0.0265  0.1997
25067W        W39914  14.653   4.647   0.370  0.0038  0.3435 -0.1862
25068W        W39915   8.593  10.006  12.709  0.1824  0.1808 -0.3935
25069W        W39916   4.897   9.827   3.808 -0.0007  0.0612  0.1468
25070W        W39917  12.563   2.088   5.590 -0.2811  0.2019  0.1084
25071W        W39918  16.595   7.357  10.554 -0.0095  0.0294  0.1984
25072W        W39919  17.738   0.063   2.170  0.1316 -0.0859  0.0025
25073W        W39920   7.144   6.112  12.111 -0.2494  0.0386 -0.1974
25074W        W39921  15.060   9.790  12.162  0.0413 -0.1006  0.1152
25075W        W39922   2.489   1.974  17.056  0.0217  0.1978  0.0018
25076W        W39923  15.482   6.784   0.777 -0.1974 -0.1016  0.1738
25077W        W39924   9.836  14.115  15.917  0.0212  0.0611 -0.2483
25078W        W39925  11.848  13.463   3.834 -0.1503  0.1863  0.2157
25079W        W39926   8.630   4.191   0.330 -0.1434 -0.1475 -0.1011
25080W        W39927  15.325   6.029   4.902  0.3069  0.0281  0.0741
25081W        W39928  11.294  15.240  13.801  0.1474  0.2139  0.2745
25082W        W39929  17.356  12.360   6.023  0.0838 -0.4249  0.3172
25083W        W39930  13.285   4.641  16.740  0.3058 -0.0548 -0.0456
25084W        W39931  14.310  17.338   3.087  0.2177 -0.1723 -0.0629
25085W        W39932  16.185  17.173   5.333  0.1071 -0.2744  0.0066
25086W        W39933   7.386   9.911   2.100 -0.0455 -0.1581 -0.0323
25087W        W39934   2.132  14.500   5.220  0.1990 -0.1146  0.3879
25088W        W39935  16.862   4.051   0.299  0.0064  0.2027  0.2225
25089W        W39936   2.101   7.492  15.825  0.1276 -0.1544  0.0605
25090W        W39937  11.079   2.595   5.108  0.0490  0.1482 -0.0303
25091W        W39938   1.578   0.942   4.704  0.1456 -0.0365  0.1004
25092W        W39939  13.529  11.570   0.834  0.1709 -0.1649 -0.2416
25093W        W39940  17.870  13.228   3.292  0.0500 -0.2446  0.4801
25094W        W39941   4.891   3.254   4.896 -0.1165 -0.0629  0.1392
25095W        W39942   5.148   2.748  16.247 -0.0322 -0.0202 -0.1043
25096W        W39943  15.222  16.091  15.052  0.0892 -0.1156  0.1606
25097W        W39944   0.793  13.975   2.147  0.0067  0.0549 -0.3618
25098W        W39945   2.375  10.195   0.544 -0.0905  0.2055  0.0621
25099W        W39946  15.981   2.457   1.909 -0.0324 -0.1278 -0.0504
25100W        W39947  13.539   2.295  12.933 -0.2050  0.0249  0.3090
25101W        W39948   0.485  13.912   4.505  0.2460 -0.0310 -0.0034
25102W        W39949   5.452   2.215   4.067 -0.0724  0.1578  0.2074
25103W        W39950   3.312   8.859  16.689 -0.1053 -0.3186 -0.1025
25104W        W39951   2.858  10.790  14.293  0.1541 -0.0205  0.0016
25105W        W39952  13.294  14.400  11.452 -0.0002  0.0035 -0.2601
25106W        W39953  17.651  15.537   1.795  0.0938  0.1455  0.1789
25107W        W39954  16.391   7.636  11.489  0.1480 -0.1215  0.2593
25108W        W39955  11.238   0.833   5.519  0.4321  0.1483  0.0441
25109W        W39956  15.387   7.266   0.500 -0.1284 -0.2049 -0.1864
25110W        W39957  16.112   5.531   2.140 -0.0664  0.0437  0.2958
25111W        W39958  13.746  17.373   0.099 -0.0079  0.0933  0.1958
25112W        W39959  13.594   7.522  14.029  0.1257  0.1785  0.0576
25113W        W39960  12.117  16.459  10.804  0.1017 -0.0721  0.1608
25114W        W39961  15.163   5.767  12.005 -0.0100 -0.0788  0.0488
25115W        W39962  17.919  10.300   2.292  0.3054 -0.3275 -0.0051
25116W        W39963  13.829  11.194   1.144 -0.2894  0.0623 -0.1073
25117W        W39964  12.662  10.904   1.407  0.3193  0.1325  0.2201
25118W        W39965   9.444  11.758   4.894 -0.1719 -0.0598 -0.0907
25119W        W39966  16.200   7.669  12.919 -0.0783 -0.4232  0.2412
25120W        W39967  13.876   1.423   2.758  0.0332  0.2270  0.0556
25121W        W39968  14.626   5.641   1.700 -0.0112  0.0430 -0.0648
25122W        W39969  15.050  10.922   0.569 -0.0365  0.0799 -0.1559
25123W        W39970   9.721   4.435  16.473 -0.2670 -0.1372 -0.1017
25124W        W39971   4.281   4.147  15.545 -0.2175  0.1256  0.0593
25125W        W39972   0.910   2.232   0.294 -0.1190 -0.1120 -0.0153
25126W        W39973   0.714  14.644  13.157  0.0026 -0.0452  0.2280
25127W        W39974  14.031   1.561   5.144 -0.0106 -0.2558 -0.4465
25128W        W39975  16.057   5.251  14.635  0.0799 -0.1508  0.0131
25129W        W39976  13.218  10.605  16.287 -0.2354 -0.0377 -0.2566
25130W        W39977  15.896  17.573   5.276 -0.2626 -0.0328 -0.3260
25131W        W39978  11.175   5.696  12.445  0.1007 -0.1555  0.4128
25132W        W39979  14.933   8.319  12.292  0.1259 -0.1740 -0.1641
25133W        W39980  17.464  11.190   4.035  0.0836 -0.1221 -0.1297
25134W        W39981  15.607  15.069   0.821  0.1112  0.1796 -0.0273
25135W        W39982  13.909   7.735   5.641 -0.0368  0.3314  0.1698
25136W        W39983  17.964   0.227  12.235  0.0703  0.2467  0.0459
25137W        W39984  16.603  13.680  15.409 -0.2329  0.4222 -0.1039
25138W        W39985  11.281  11.265   4.901  0.1501  0.1650  0.1391
25139W        W39986   2.756  11.134  16.741 -0.2287  0.2375  0.0966
25140W        W39987  17.003   8.091   1.948  0.0900 -0.0268  0.0681
25141W        W39988  14.042  14.873  13.815  0.0342 -0.0407  0.1542
25142W        W39989  14.790  14.611   0.043 -0.0257  0.1519  0.1854
25143W        W39990   3.233  15.045  13.204  0.0814 -0.1776  0.2800
25144W        W39991   3.085   7.751   2.394 -0.2060 -0.0047  0.0245
25145W        W39992   1.902  15.296   0.243  0.0157  0.0908  0.1258
25146W        W39993  11.374  12.736   0.242 -0.1042  0.0370  0.1088
25147W        W39994   8.136  16.225   6.320  0.2466 -0.1323  0.1641
25148W        W39995  13.483   6.161  11.508 -0.3435  0.2022  0.1004
25149W        W39996  10.224  16.808   0.582 -0.0124  0.1031 -0.0134
25150W        W39997   6.140  14.418   3.524  0.1728  0.0106  0.1973
25151W        W39998  10.390   2.925  16.675 -0.2568  0.0500  0.1642
25152W        W39999  16.993  13.803   0.553  0.0469  0.1839  0.2289
25153W        W40000  13.811   7.171  13.145  0.3882  0.2316  0.2103
25154W        W40001  16.187   6.901  16.064 -0.1113 -0.0526 -0.0089
25155W        W40002  16.015  14.812  13.279 -0.0127  0.2222  0.0263
25156W        W40003  13.909   8.778  16.455 -0.0987  0.3441 -0.0429
25157W        W40004   7.119  13.076   4.798 -0.3208 -0.1990  0.1021
25158W        W40005   1.618   6.530   0.957 -0.1178 -0.1099 -0.1342
25159W        W40006   2.959  15.260   3.172 -0.1981  0.2358 -0.0958
25160W        W40007  11.358  13.867   0.865 -0.1009  0.0782 -0.0290
25161W        W40008   6.881   3.229   0.092  0.3309 -0.2490 -0.3221
25162W        W40009  17.537   6.248  12.667  0.0358  0.2875 -0.2160
25163W        W40010   4.776   3.185   3.865 -0.0284  0.0604 -0.2873
25164W        W40011  13.476   3.947   5.769  0.2219  0.4206 -0.3014
25165W        W40012   7.947   0.688   5.900 -0.1708 -0.2283  0.2978
25166W        W40013  11.631  17.784  13.177 -0.1029  0.0196  0.1505
25167W        W40014  14.773  10.599   0.279  0.2075 -0.1176  0.2013
25168W        W40015  14.434   8.195  15.527  0.0885  0.1416 -0.3083
25169W        W40016  15.023  12.180   4.053 -0.0632 -0.0885 -0.0716
25170W        W40017  12.162   2.299   4.121 -0.0672  0.1206 -0.0451
25171W        W40018  17.723   3.387  16.359 -0.3971 -0.5768 -0.0445
25172W        W40019  15.215   5.558  14.458  0.0627  0.0533  0.2084
25173W        W40020  12.061   9.804  12.757  0.4440  0.2089 -0.2370
25174W        W40021   9.586   9.673  15.251 -0.2885  0.1711 -0.1341
25175W        W40022  15.027   0.717  12.516  0.1999 -0.4211  0.1056
25176W        W40023   1.223   3.560  15.890 -0.3294 -0.3823 -0.3198
25177W        W40024  11.241   5.209  12.634 -0.0832 -0.0698 -0.0717
25178W        W40025   1.186   7.564  12.353  0.1081 -0.0738 -0.0194
25179W        W40026  17.246   7.810  13.786  0.0787 -0.1495  0.0812
25180W        W40027  10.075   2.467  11.227  0.0840 -0.2946 -0.1348
25181W        W40028   7.233   1.988   0.170 -0.0311 -0.4382 -0.1099
25182W        W40029   7.959  16.236  11.668 -0.0234  0.1957 -0.3087
25183W        W40030  13.090   0.872  11.581 -0.0260 -0.3499  0.0190
25184W        W40031   4.470  13.719   6.941 -0.2081 -0.0246  0.0478
25185W        W40032  11.803  15.850  14.400  0.1213  0.1398  0.3537
25186W        W40033   1.781  15.217   5.214 -0.0436  0.0961 -0.1448
25187W        W40034   8.914  12.589   3.308  0.3843  0.2814 -0.2129
25188W        W40035  12.447   6.218  16.135 -0.2260 -0.2674  0.0320
25189W        W40036  10.714   2.272   4.399  0.0671  0.1508 -0.0907
25190W        W40037  13.542  16.773   4.553  0.1026 -0.3924 -0.2965
25191W        W40038  13.226  12.066  15.747  0.0138  0.0595 -0.0208
25192W        W40039  14.130   3.777   1.124  0.1781 -0.1514  0.1506
25193W        W40040  10.856   7.940   0.524 -0.3265 -0.0254 -0.2538
25194W        W40041   9.848   0.057   4.921 -0.2833 -0.2128 -0.0128
25195W        W40042   2.155  15.612   3.141 -0.0808  0.0877  0.1899
25196W        W40043   3.386  17.161   4.975 -0.2661 -0.2992 -0.0785
25197W        W40044   9.565   2.206   0.031  0.3124  0.1590  0.3515
25198W        W40045   6.314  15.088   4.740 -0.1993  0.2200 -0.2915
25199W        W40046  13.859  14.738  15.995 -0.2005 -0.2195 -0.0702
25200W        W40047  10.449   6.790  13.413  0.1929 -0.1906  0.2183
25201W        W40048  15.193   0.267  13.692  0.3784 -0.0795  0.1204
25202W        W40049   9.509   1.271   4.728  0.1908  0.1601  0.1719
25203W        W40050  16.231  11.463  11.469 -0.2235 -0.0917 -0.0616
25204W        W40051  13.611   8.906   5.044 -0.1317  0.0031 -0.2155
25205W        W40052   2.970   3.578  12.737 -0.0316 -0.1087  0.3333
25206W        W40053   8.292  13.529   5.075 -0.0092  0.2598 -0.2454
25207W        W40054   8.233   4.941   4.130 -0.0939  0.0564  0.0104
25208W        W40055   3.169  12.367  16.745  0.0112 -0.0081  0.0406
25209W        W40056  15.031   0.377  10.030 -0.1583  0.0249 -0.0868
25210W        W40057  14.801   8.737  16.816  0.1320 -0.1381  0.0128
25211W        W40058  13.920   8.095   2.863  0.1503  0.0346 -0.0982
25212W        W40059  17.131   7.330  15.196 -0.0849 -0.0900 -0.1683
25213W        W40060  14.184  11.799  10.239  0.3003  0.1104  0.1586
25214W        W40061   1.076   2.003   5.347 -0.1789 -0.1460 -0.0518
25215W        W40062  17.546   5.350  14.604 -0.2229 -0.0909  0.0488
25216W        W40063  10.401   6.431   5.261  0.1393  0.2523  0.1064
25217W        W40064   5.397  12.947   1.418  0.1929 -0.1329 -0.0933
25218W        W40065   9.176   1.269   2.219  0.0813  0.1922  0.0642
25219W        W40066  10.027  15.670  15.619  0.0348 -0.2016 -0.0980
25220W        W40067   9.043   1.000  12.349 -0.0674 -0.2338  0.3873
25221W        W40068   0.126  17.174   5.792  0.0364 -0.0575 -0.0326
25222W        W40069   0.094  11.422   4.571 -0.2149  0.0479 -0.2244
25223W        W40070  14.099  13.488  15.131 -0.0734  0.3144 -0.2033
25224W        W40071  15.489   3.299   4.624  0.1231 -0.1014 -0.0524
25225W        W40072   0.754   6.080  16.368  0.1897  0.1681  0.2144
25226W        W40073  14.073  11.015   4.856 -0.0535  0.0538 -0.2118
25227W        W40074  15.054  12.625  11.529  0.0528  0.0480  0.1504
25228W        W40075  12.396   4.328  14.835  0.0789 -0.0676 -0.1774
25229W        W40076  16.521   1.065  14.111 -0.2202  0.1069 -0.1613
25230W        W40077   8.694   2.220  15.541 -0.0235 -0.0506  0.0005
25231W        W40078   3.514   8.536  15.783  0.2813  0.5965  0.0276
25232W        W40079  10.191   8.104  11.909 -0.3935 -0.1388  0.2076
25233W        W40080  15.124  17.726  16.955  0.0055 -0.2642  0.2544
25234W        W40081   1.363   0.347  15.640 -0.2336 -0.1991  0.1499
25235W        W40082  10.058   3.406   5.784 -0.1339  0.0589  0.2092
25236W        W40083   9.997  15.825   2.886  0.3032 -0.2737  0.2858
25237W        W40084  13.266  16.627   5.193  0.0243  0.1268 -0.2009
25238W        W40085  12.553  16.740  13.716  0.0888 -0.0167  0.2326
25239W        W40086  14.835   9.592   0.676  0.0710 -0.1849 -0.1365
25240W        W40087   7.332  15.225  13.580  0.0474  0.0506  0.3067
25241W        W40088   2.019  12.981  16.816  0.0264 -0.0312  0.2226
25242W        W40089   6.526   0.957   2.162  0.1843 -0.0920  0.1375
25243W        W40090  10.733  14.512  16.907  0.0001 -0.0121  0.2016
25244W        W40091  14.528  10.492   3.628 -0.1634 -0.1533  0.0924
25245W        W40092  13.642  15.650  15.340  0.1605  0.1086  0.2587
25246W        W40093  13.733   9.177   4.454 -0.1670 -0.0849  0.0323
25247W        W40094  15.031  12.500   1.566  0.0461  0.0393 -0.2688
25248W        W40095  17.306   2.265   1.768 -0.0890  0.1333  0.1876
25249W        W40096   9.733  14.112   2.533 -0.0352 -0.0230  0.0758
25250W        W40097  15.794   1.310   4.793  0.0083  0.3471  0.0877
25251W        W40098  11.731  14.775   1.447 -0.1215  0.0059 -0.4268
25252W        W40099  11.478   9.784   2.399 -0.1061  0.0564 -0.0056
25253W        W40100  13.088   1.911   1.604 -0.1366  0.1357  0.2517
25254W        W40101  11.799  14.560  13.665 -0.2558  0.0937  0.1134
25255W        W40102  14.848  11.302  13.630  0.1470 -0.1876  0.2420
25256W        W40103  12.903   2.601  15.201 -0.1206  0.1200  0.3872
25257W        W40104   1.668  12.563   3.676  0.1525 -0.0281 -0.1252
25258W        W40105  16.257   7.656  12.351 -0.2266 -0.2689  0.2179
25259W        W40106  12.587  16.698  12.491 -0.2837 -0.0670 -0.1543
25260W        W40107  13.560  15.648  11.511  0.0362 -0.1684  0.2167
25261W        W40108  13.684   8.969  16.917  0.1960 -0.1892  0.1655
25262W        W40109  10.843   5.891  12.087 -0.0042 -0.0748  0.1942
25263W        W40110  13.121   6.992  13.951  0.3408  0.0154  0.0052
25264W        W40111   3.964   9.470  16.382 -0.0127  0.0408 -0.2249
25265W        W40112  17.098  11.024   2.054  0.4361 -0.1767 -0.1995
25266W        W40113   2.050   4.834  16.985  0.2092  0.0090  0.0376
25267W        W40114   0.591  15.890  11.268 -0.4598  0.0471  0.1416
25268W        W40115   0.444  17.521   6.639 -0.1319  0.0887 -0.0255
25269W        W40116  11.702  11.821  14.589  0.2211  0.1063  0.0468
25270W        W40117   3.892   3.034   6.031 -0.0622  0.0177 -0.2923
25271W        W40118   7.868   1.356   3.762  0.0945 -0.0174  0.1705
25272W        W40119  13.855  10.956   3.904  0.0598 -0.0904  0.1989
25273W        W40120   6.834   5.724   3.932 -0.0692 -0.0339 -0.1868
25274W        W40121  10.971   5.335   0.685 -0.0048 -0.0105 -0.2537
25275W        W40122   1.273  17.542  12.374  0.0175  0.4499  0.2495
25276W        W40123  13.307  14.856  14.856 -0.0284  0.1049  0.2082
25277W        W40124  14.172  17.477   5.761 -0.1081  0.1376  0.0899
25278W        W40125  11.126   1.663   1.867  0.1770 -0.0408  0.2246
25279W        W40126   7.308   9.235   5.873 -0.0907 -0.0019  0.4001
25280W        W40127   3.086   1.039   0.978 -0.3386 -0.1012  0.1446
25281W        W40128   0.696  14.004  13.509  0.0677  0.0719  0.1439
25282W        W40129  10.128  12.469  15.190 -0.0689 -0.2581 -0.0587
25283W        W40130  13.603  12.431  15.949 -0.1902 -0.2662 -0.1821
25284W        W40131  10.734  16.105   3.547  0.1360 -0.3810  0.1688
25285W        W40132  16.359   5.367  11.499 -0.0641  0.0595  0.1654
25286W        W40133  14.281   1.531   2.469 -0.2863  0.0245  0.2058
25287W        W40134  11.934  11.722  13.945 -0.2497 -0.1115 -0.2005
25288W        W40135   3.381   4.973   0.042  0.1331  0.0021 -0.0701
25289W        W40136  13.576   3.171   3.272 -0.1021  0.0465 -0.0055
25290W        W40137   0.139   4.981   3.104  0.1593 -0.0869  0.2938
25291W        W40138  14.754   7.957   3.081 -0.1940  0.4135 -0.0677
25292W        W40139  16.065   7.645  10.865  0.1872  0.0958  0.0375
25293W        W40140   3.382   5.777   1.654 -0.5317  0.0139  0.1529
25294W        W40141  12.182   8.919  16.473  0.0176 -0.1849 -0.1675
25295W        W40142   3.647  12.946   0.876  0.0546  0.2060 -0.1856
25296W        W40143  14.166   7.265   3.541  0.1743  0.0005 -0.1123
25297W        W40144  12.858  12.798  11.062  0.2192 -0.0732  0.0280
25298W        W40145  16.221   4.948   5.090 -0.3478 -0.0169  0.0812
25299W        W40146  10.997   1.422  13.576 -0.3746  0.2064  0.1540
25300W        W40147   8.376   5.486   3.013 -0.0843 -0.1528 -0.3792
25301W        W40148   1.942   9.892   2.970  0.2999 -0.0636 -0.2048
25302W        W40149   7.040  15.446  11.564  0.2120  0.0192 -0.1302
25303W        W40150  12.449   9.499  15.895  0.0480  0.0012 -0.1505
25304W        W40151  16.245  12.807  11.246  0.2012 -0.0282 -0.0520
25305W        W40152  16.615  15.708   2.677  0.1839  0.1954 -0.1503
25306W        W40153  14.163  17.317  15.426  0.0637 -0.0509 -0.0133
25307W        W40154  17.617   9.386   3.713  0.0510  0.0325 -0.1583
25308W        W40155  13.161  16.021  12.228  0.1164 -0.3063 -0.2614
25309W        W40156   9.550   7.086  12.293 -0.2240  0.3084 -0.1065
25310W        W40157  14.911   5.177  14.007  0.0069 -0.2899  0.1255
25311W        W40158  13.358  17.247   4.590 -0.0096 -0.0814  0.0205
25312W        W40159  15.194   3.686   4.372 -0.0337 -0.0121  0.0044
25313W        W40160  14.950   2.928   1.994  0.1403 -0.2806  0.0296
25314W        W40161   9.783   7.150   4.028 -0.1056 -0.0354  0.1968
25315W        W40162  12.837   8.030   3.600 -0.0881  0.1890 -0.0977
25316W        W40163   9.651   7.936  12.832  0.0635  0.0835 -0.0329
25317W        W40164   8.890  15.910  12.059 -0.0355  0.0238 -0.0573
25318W        W40165   9.617  11.432  16.625  0.0954 -0.1503  0.1341
25319W        W40166  11.069  11.073  13.738  0.0946 -0.1100 -0.0098
25320W        W40167   9.873   7.755   6.361 -0.0611  0.0117  0.5045
25321W        W40168   7.083  17.353  13.163 -0.1010 -0.0422 -0.1911
25322W        W40169  13.422   6.846   0.844 -0.1848 -0.2002  0.1984
25323W        W40170  15.902   7.948  12.520  0.0499  0.2344 -0.0090
25324W        W40171  12.420  13.826   2.920  0.0141  0.0643 -0.1203
25325W        W40172  11.216  12.550  12.474  0.0831  0.3479 -0.2774
25326W        W40173  11.783   3.673  16.204  0.1229 -0.1914  0.2302
25327W        W40174   2.935  17.952   3.900 -0.0624 -0.3031  0.1891
25328W        W40175   4.582   4.523   5.019 -0.2161 -0.1586  0.1582
25329W        W40176  16.952   4.014  14.694 -0.2301 -0.0070 -0.0120
25330W        W40177   2.474  15.504  12.768  0.1614 -0.1851  0.0674
25331W        W40178  10.819  12.305  12.695 -0.0996  0.0211 -0.0043
25332W        W40179   5.832  13.099   0.207 -0.1464 -0.0612  0.1116
25333W        W40180  14.426  16.060   6.600  0.0687 -0.2080  0.5238
25334W        W40181  13.344  15.586   3.515 -0.0755 -0.0936 -0.1973
25335W        W40182  13.342  17.357   3.070 -0.1180  0.0509  0.0511
25336W        W40183  13.953  14.988   0.992  0.2264  0.2110 -0.0927
25337W        W40184   0.421   3.168   5.139  0.0650  0.0086  0.0309
25338W        W40185  11.260  17.928   0.336  0.0733  0.1019 -0.0574
25339W        W40186   1.425   3.987  14.426  0.0475  0.1113  0.1932
25340W        W40187   5.854   3.151   0.933  0.1157 -0.2069  0.3376
25341W        W40188   0.452   3.278   4.010 -0.0811 -0.2513  0.1344
25342W        W40189   2.848  17.427  15.502 -0.2660 -0.1323 -0.2341
25343W        W40190  10.895   6.515  14.168 -0.1852 -0.1668  0.2472
25344W        W40191   5.282  14.565  13.749 -0.0141 -0.0790 -0.2741
25345W        W40192  10.909   1.185  15.033 -0.2222 -0.0143  0.0209
25346W        W40193  14.479  17.171  14.377  0.0921 -0.1817 -0.4709
25347W        W40194  14.198   5.530   6.117 -0.1200  0.2595  0.1929
25348W        W40195  10.239   2.140   1.034 -0.2748  0.2801 -0.0440
25349W        W40196   9.552   7.487  15.077 -0.3970  0.0691 -0.0358
25350W        W40197  14.670   8.844   4.190 -0.1416  0.0286  0.2766
25351W        W40198  15.646  13.555  15.641 -0.1337 -0.0783  0.1588
25352W        W40199  13.355  10.942  12.134 -0.1068 -0.1443 -0.5302
25353W        W40200  15.823   9.362   5.280 -0.1872  0.1060 -0.0716
25354W        W40201  12.443  15.491  12.913 -0.3389  0.1875  0.0661
25355W        W40202  10.883   2.321  14.219 -0.1442 -0.2053  0.0338
25356W        W40203   7.732   1.618   2.375 -0.2883  0.2324  0.1366
25357W        W40204  15.553  13.387  12.115  0.0356 -0.0854 -0.0732
25358W        W40205   8.045  17.325  12.335  0.0905 -0.0418 -0.3332
25359W        W40206  13.208  15.506   0.713  0.1072  0.0506 -0.0363
25360W        W40207  10.164   2.988  14.652 -0.3237  0.1486  0.0846
25361W        W40208   5.696   0.700  13.908  0.0058  0.2395  0.2312
25362W        W40209  16.206  17.193   3.090 -0.0176 -0.2136 -0.1059
25363W        W40210  16.388   7.236  11.167  0.0762  0.1202  0.2595
25364W        W40211  15.307  13.484  11.165 -0.1364 -0.0635 -0.1019
25365W        W40212   3.617  13.548   4.235  0.2889  0.3393 -0.2223
25366W        W40213  11.880   6.745   6.321  0.1960  0.2456  0.2023
25367W        W40214  11.123  13.583  14.331 -0.1460 -0.1824 -0.0660
25368W        W40215  13.760  12.812  12.726 -0.0276 -0.0882 -0.0634
25369W        W40216   0.356   3.693  12.039  0.0742 -0.0778  0.0248
25370W        W40217  15.639  13.581   5.335  0.0477  0.0359 -0.0068
25371W        W40218  14.131   6.309   3.664 -0.2077  0.0545  0.0747
25372W        W40219   2.303  11.863   5.975  0.2583  0.1015  0.0781
25373W        W40220  11.733  11.259   5.376 -0.2381 -0.1357 -0.0894
25374W        W40221  12.285   3.917  15.144 -0.0275 -0.0424  0.0423
25375W        W40222  17.958   0.224  13.541  0.2900 -0.0935  0.3467
25376W        W40223  17.842   3.433   1.909 -0.2045 -0.0414  0.0946
25377W        W40224   0.415   0.033  16.838 -0.0700  0.1342  0.6180
25378W        W40225  14.974  16.965  14.226 -0.0860 -0.0711 -0.2084
25379W        W40226  11.826  10.748  15.283 -0.2591 -0.0060 -0.0802
25380W        W40227   0.056   7.553  13.140  0.1929 -0.1565  0.1960
25381W        W40228  11.360   0.946   5.017 -0.2288  0.1533  0.1873
25382W        W40229  13.288   6.583   2.042  0.1070 -0.3243  0.0384
25383W        W40230   2.953   5.406  15.528  0.0060 -0.0468  0.0225
25384W        W40231   2.210   6.376   1.667  0.0262 -0.2177 -0.1757
25385W        W40232   6.641  11.346   1.063 -0.1522  0.0459  0.0771
25386W        W40233   1.351   3.430   3.045  0.0046 -0.0991  0.3089
25387W        W40234  14.266  12.495  11.286  0.0976  0.0410  0.0627
25388W        W40235   9.664   1.033   0.583  0.0357 -0.1136  0.0120
25389W        W40236   0.719   5.383   3.957 -0.1760 -0.2728  0.2056
25390W        W40237  15.375  12.938  12.772  0.2360  0.1387  0.2078
25391W        W40238  16.077  13.947  12.230 -0.2609 -0.0460  0.0728
25392W        W40239  14.123   5.577   1.795 -0.1649  0.0820 -0.0944
25393W        W40240   5.975  15.274  15.048 -0.0346  0.0871  0.0174
25394W        W40241  11.229  15.356   1.376 -0.0281  0.1467 -0.1130
25395W        W40242  14.962   2.702  10.126 -0.3801 -0.0236 -0.3454
25396W        W40243   2.741   9.226   1.387  0.3018 -0.1306  0.1173
25397W        W40244  14.428  17.533   0.232  0.1881 -0.0211  0.2538
25398W        W40245   1.331   1.182  15.376  0.0671  0.1424 -0.1030
25399W        W40246   6.736   9.003  16.005  0.1975 -0.0051 -0.0909
25400W        W40247  12.874  13.367   2.552  0.1646  0.0302 -0.3213
25401W        W40248  13.536   8.062   4.200  0.0471 -0.2071 -0.0730
25402W        W40249  11.784  16.289   4.890  0.3397 -0.0336 -0.1307
25403W        W40250   1.777   6.648   1.653  0.0039  0.1859  0.0520
25404W        W40251   4.955  14.638  16.613 -0.1961 -0.0122 -0.0206
25405W        W40252  15.953  11.866   0.552  0.0202  0.1355 -0.1275
25406W        W40253  13.615   2.202  17.077 -0.0066 -0.3701 -0.0773
25407W        W40254  11.689   9.906  15.427  0.1026  0.0746 -0.0982
25408W        W40255   2.169  13.130  15.096  0.1238  0.1049  0.1008
25409W        W40256  11.468  10.703   4.604 -0.1167  0.2772  0.0552
25410W        W40257  17.553  10.775  12.924  0.0380  0.0183  0.1863
25411W        W40258  13.668  17.869  14.421 -0.0366 -0.0608  0.1238
25412W        W40259  15.428  12.826  15.209  0.0669 -0.2708  0.0565
25413W        W40260  16.617  12.352  12.905 -0.1536  0.0867 -0.0005
25414W        W40261  15.407   9.450   3.926 -0.0547 -0.0062  0.0212
25415W        W40262  16.830   6.715   5.247  0.1359  0.0337 -0.0396
25416W        W40263   3.100   6.611   5.954 -0.0608  0.0330  0.3942
25417W        W40264  14.602   3.672  12.690  0.0513 -0.1857 -0.0390
25418W        W40265  13.284   8.395   1.605  0.1049  0.0488 -0.0343
25419W        W40266  10.560   3.495   0.997 -0.1524  0.0288 -0.1618
25420W        W40267  17.314  11.519   2.459 -0.4327  0.0160 -0.0136
25421W        W40268   5.462   5.972  12.645 -0.0663 -0.0890  0.1142
25422W        W40269  17.042  11.506   4.080  0.0285 -0.2914 -0.1700
25423W        W40270  10.325  15.315   5.500 -0.0028  0.0864  0.1010
25424W        W40271  13.496   1.998   2.954  0.1205 -0.1942 -0.0846
25425W        W40272  11.676   5.650   1.386  0.3203  0.0890 -0.0170
25426W        W40273   9.226   4.668   3.869 -0.2158  0.4987 -0.0055
25427W        W40274  16.980  14.365   1.813 -0.0157  0.0004  0.0096
25428W        W40275  12.268   8.620   4.807 -0.1226  0.1452  0.1760
25429W        W40276   1.813   0.772  13.485 -0.2177 -0.1500  0.2821
25430W        W40277  17.455   6.973   3.550 -0.0207 -0.1888  0.1292
25431W        W40278   0.246   2.835   4.718  0.0779  0.3198 -0.0836
25432W        W40279  12.850   0.997   0.092 -0.1287 -0.0336  0.0878
25433W        W40280   9.294  14.174   4.276  0.0996  0.0834  0.4426
25434W        W40281  10.794  11.031  14.242  0.1949  0.0477  0.2616
25435W        W40282  12.845   9.595  16.168  0.3641 -0.1346 -0.1385
25436W        W40283  13.737  15.342   0.700  0.1453 -0.0964  0.0032
25437W        W40284  15.690  15.322   2.883 -0.0700  0.2311 -0.0433
25438W        W40285  12.786   8.154  15.084  0.0925 -0.1004  0.0756
25439W        W40286   2.567  12.686   3.257 -0.2017 -0.0379 -0.3586
25440W        W40287  12.835  13.273  11.982 -0.0145 -0.2430  0.3232
25441W        W40288  11.369  15.301  16.829 -0.0845 -0.2556 -0.0540
25442W        W40289   8.753   5.555   4.752  0.3842 -0.4162  0.0913
25443W        W40290  17.345   6.733   2.652  0.0162 -0.3169  0.0295
25444W        W40291   2.451  16.919   5.638  0.1628 -0.0933  0.1648
25445W        W40292  10.858  12.190   2.742 -0.0285 -0.1388 -0.2486
25446W        W40293   1.180   2.165  11.942  0.3488 -0.2296  0.0275
25447W        W40294  16.344   7.855   3.914  0.0022  0.1392 -0.0625
25448W        W40295  14.859  16.853   5.637 -0.0804  0.5099 -0.0084
25449W        W40296  10.781   6.121  16.105  0.4760 -0.3079  0.3954
25450W        W40297  10.083  13.108  14.071 -0.3155 -0.0684  0.1775
25451W        W40298   7.190   6.088   3.950 -0.2532  0.1309 -0.3098
25452W        W40299  12.172   8.471  11.590 -0.0231  0.1394  0.2713
25453W        W40300  15.176  10.740  10.983 -0.0633  0.0500  0.3251
25454W        W40301   8.099   4.222   5.217 -0.0553  0.1351 -0.0481
25455W        W40302  14.137   6.209  16.068  0.0845  0.0639 -0.2671
25456W        W40303   3.332   0.410   2.334  0.1218  0.0780  0.1093
25457W        W40304  14.548   9.087  11.752  0.1417 -0.4048  0.1711
25458W        W40305   4.744  12.470   5.439  0.2848 -0.2363 -0.0129
25459W        W40306  12.823   5.107   3.131 -0.1117 -0.2351  0.2432
25460W        W40307   8.800   2.756   5.409  0.4300  0.2202 -0.1226
25461W        W40308  14.948  10.373   3.465  0.0040  0.0614  0.2670
25462W        W40309  16.016   1.657  13.026  0.1318 -0.0361  0.3023
25463W        W40310   9.041   7.897  14.023 -0.2628 -0.0507 -0.0911
25464W        W40311   9.709  10.624  14.810 -0.2531 -0.0476  0.0458
25465W        W40312  15.759   8.764   2.881  0.2688  0.1269 -0.0030
25466W        W40313  12.774   9.413   0.473 -0.0037  0.1681 -0.0033
25467W        W40314  11.457  16.686  11.777  0.0623  0.0916 -0.1180
25468W        W40315  12.260   7.093  16.479 -0.4123  0.0685 -0.0361
25469W        W40316  12.680  14.974   4.454  0.1321 -0.0171 -0.0697
25470W        W40317   0.099  16.285   2.216 -0.2801 -0.0999 -0.1822
25471W        W40318  16.195   0.684  13.911 -0.0096  0.0793 -0.0465
25472W        W40319   8.641   5.199  13.950 -0.1126  0.1115  0.2636
25473W        W40320   0.026   7.043   3.283  0.0580  0.0297 -0.0674
25474W        W40321  14.140  17.681  15.055  0.0914  0.0626 -0.2052
25475W        W40322  14.414   6.807   1.815 -0.0586  0.2078  0.0943
25476W        W40323   8.036  14.797  14.674  0.1455 -0.0651  0.1735
25477W        W40324   0.394  10.890   1.894 -0.4088 -0.0410 -0.0720
25478W        W40325   5.913   7.917  12.392 -0.0742  0.0375  0.1941
25479W        W40326  16.719  17.023  12.996  0.2257  0.2529 -0.1547
25480W        W40327  15.237   7.251  12.102  0.0379  0.3441 -0.2577
25481W        W40328  13.376  12.947  12.332 -0.1570 -0.1090 -0.1104
25482W        W40329  15.302  13.280  13.080  0.3808  0.2906 -0.0746
25483W        W40330  12.706   8.323   5.770 -0.2090  0.0352  0.0550
25484W        W40331   1.252  12.648   1.316 -0.3222  0.2178 -0.1462
25485W        W40332   7.917   7.581  16.036 -0.2870 -0.2786 -0.0861
25486W        W40333  11.667   9.412   3.408 -0.6456 -0.1153 -0.0817
25487W        W40334   0.119   2.445   0.852 -0.0356 -0.0827  0.1130
25488W        W40335  16.137   9.365  16.327 -0.1166 -0.2036 -0.2329
25489W        W40336  15.370  11.685   3.029 -0.0194 -0.0801  0.0219
25490W        W40337   2.115   5.134  15.910  0.2735  0.0139 -0.2006
25491W        W40338  10.240   5.672   6.942 -0.0705 -0.0470 -0.1207
25492W        W40339  13.360  17.847  11.062 -0.0634 -0.1901  0.3158
25493W        W40340  15.911   3.189  16.187  0.0501  0.0606  0.1560
25494W        W40341   3.584  12.581  15.879 -0.0078  0.0164  0.1426
25495W        W40342   8.346  15.516  13.247 -0.0477 -0.0944  0.0270
25496W        W40343  16.504   0.077  15.777 -0.0415 -0.0475  0.2075
25497W        W40344   9.571  10.411  12.791 -0.2847  0.2229  0.0452
25498W        W40345  15.387   7.582  15.642  0.0604 -0.1961 -0.2388
25499W        W40346  13.584   2.211   0.448  0.0976 -0.2057 -0.0205
25500W        W40347  13.551  17.867   3.911 -0.0040  0.0491  0.1208
25501W        W40348   4.567  13.234   4.337  0.0994 -0.2550 -0.0471
25502W        W40349   0.820   9.924  13.077  0.1656  0.2470  0.0357
25503W        W40350  13.639   6.417   1.761 -0.0934 -0.0777  0.1405
25504W        W40351  15.141   9.401   5.254 -0.1781  0.0101  0.3078
25505W        W40352   4.276  10.128   0.830  0.2051  0.0329 -0.0818
25506W        W40353  16.393  16.760   0.822  0.4052  0.3335 -0.2032
25507W        W40354  11.230  11.757   0.217  0.0335  0.0182  0.1960
25508W        W40355   0.545   1.093   0.103  0.0390 -0.3673  0.2916
25509W        W40356  17.913  12.898   2.527  0.0637  0.0170 -0.1314
25510W        W40357  14.880   9.608  15.401  0.0804  0.0246 -0.3111
25511W        W40358  15.476   6.364  11.361  0.1271 -0.3956 -0.1387
25512W        W40359  14.276  11.276  14.227 -0.2410  0.2169  0.0366
25513W        W40360  17.665   1.322   0.192 -0.1224  0.3371  0.0418
25514W        W40361   0.551   7.126   3.251  0.1111  0.0954 -0.2486
25515W        W40362   8.029  17.083  11.626  0.1242 -0.1286  0.0831
25516W        W40363  17.200   9.563  12.349 -0.1884 -0.0976 -0.3226
25517W        W40364  10.582  11.641  10.927 -0.5548 -0.0152  0.2426
25518W        W40365   3.609   6.100   4.377 -0.0353  0.2183  0.0798
25519W        W40366  17.655  14.664  11.497 -0.2527 -0.0218 -0.0242
25520W        W40367   3.873   6.205  14.449 -0.0614  0.1013 -0.0509
25521W        W40368   0.821  13.927   5.785  0.4782  0.0663  0.0146
25522W        W40369   5.954  14.778  15.046 -0.2311  0.0437 -0.0737
25523W        W40370  10.427  15.809   0.900 -0.0030 -0.0769 -0.2151
25524W        W40371  12.130  13.300  13.136  0.0677 -0.0128  0.3664
25525W        W40372  10.885  13.783  11.886  0.3580  0.0567  0.0196
25526W        W40373  13.160   4.854  15.108 -0.2284  0.1864 -0.0573
25527W        W40374   8.980   1.288   2.648  0.2180 -0.4228 -0.1682
25528W        W40375  15.720  13.900  13.424  0.1140 -0.1231  0.0530
25529W        W40376   0.318   1.726  12.472  0.0672  0.3891 -0.2587
25530W        W40377   2.865   8.037   4.752  0.2845 -0.1994  0.1738
25531W        W40378  17.002  17.264  15.593  0.1592 -0.1540 -0.1780
25532W        W40379  13.208   4.047  14.055 -0.0641 -0.0815  0.0401
25533W        W40380  10.530  14.131   1.752 -0.0411  0.2477 -0.0951
25534W        W40381  17.220  16.688  16.918 -0.0124  0.1459  0.2139
25535W        W40382  12.733  17.446   5.783  0.3522  0.2720 -0.1307
25536W        W40383   3.227  13.970  16.229 -0.1959  0.1017  0.3352
25537W        W40384  13.719   0.555  15.455  0.0612  0.1460  0.0025
25538W        W40385   0.623   3.910  13.209 -0.0719  0.1855  0.0290
25539W        W40386  10.215   6.758  14.813  0.0818  0.2118  0.0766
25540W        W40387   8.231  11.298  16.586  0.0453  0.1946 -0.0573
25541W        W40388   3.302  17.358  14.005 -0.0414  0.2101  0.0431
25542W        W40389   5.304  17.102  14.801  0.0704  0.0081  0.2526
25543W        W40390  12.747  15.792  11.461 -0.4441 -0.0030 -0.0841
25544W        W40391  16.365   8.813  13.668  0.0279  0.0234  0.1121
25545W        W40392  12.706   0.953   1.560  0.1266 -0.3808 -0.0527
25546W        W40393  13.571  15.891   3.928  0.1206  0.0063 -0.0357
25547W        W40394  10.236  17.567  13.022  0.0975 -0.0418  0.1962
25548W        W40395  17.854  15.538   4.830 -0.0429 -0.0545  0.2207
25549W        W40396  17.831  14.405  16.140  0.2365  0.3337 -0.2014
25550W        W40397  17.084   7.625   0.796  0.1371  0.2338  0.2154
25551W        W40398  13.022  10.323   1.662 -0.0514 -0.1509  0.1002
25552W        W40399  13.808  12.453   2.948 -0.1632  0.0974  0.1812
25553W        W40400  15.484   3.645   0.854 -0.0610 -0.0183 -0.1440
25554W        W40401  14.303   2.178  15.259 -0.1983 -0.0917 -0.1948
25555W        W40402   3.436   4.318   4.306  0.1883  0.1437  0.1798
25556W        W40403   2.017  15.508  11.843  0.0086 -0.1431 -0.1513
25557W        W40404  16.806  10.988   4.219  0.0849 -0.1885 -0.0295
25558W        W40405   5.964   0.999  15.285 -0.0288  0.0658  0.1692
25559W        W40406  11.909  17.182   2.536 -0.2836  0.1187 -0.1255
25560W        W40407  12.279   7.504   0.640  0.3246 -0.0370 -0.3044
25561W        W40408   3.741  15.189   6.644 -0.1690  0.1320 -0.1066
25562W        W40409   1.558   3.533  11.660 -0.1890 -0.0021 -0.0102
25563W        W40410  13.607   2.781  15.048 -0.0473 -0.2640  0.2108
25564W        W40411   2.701   8.170   3.598  0.1371  0.0881  0.1510
25565W        W40412  15.866  16.135  14.293 -0.0143  0.3412 -0.3681
25566W        W40413  12.996  16.481   1.537  0.0232 -0.3918  0.1442
25567W        W40414   1.499   1.184   2.825 -0.1728 -0.1786  0.1049
25568W        W40415   8.442  13.216  16.269 -0.5556 -0.0602  0.1860
25569W        W40416  10.420   6.185   1.176  0.1175  0.1162  0.1082
25570W        W40417  12.775   2.178  12.389 -0.1607 -0.0685 -0.0663
25571W        W40418  12.708   2.474   0.159  0.1241  0.0066 -0.3654
25572W        W40419  13.085  13.219  13.137  0.1336 -0.2907  0.2470
25573W        W40420   4.755   1.376  11.857 -0.0834 -0.1350 -0.0890
25574W        W40421  13.182   5.857  10.723 -0.1013  0.0159 -0.0629
25575W        W40422  16.273   5.297  14.073 -0.0285  0.0812  0.3852
25576W        W40423  12.258   8.355  15.865  0.0202 -0.1434 -0.2241
25577W        W40424   2.529  10.968  12.631  0.1433 -0.3049  0.0722
25578W        W40425   3.823  10.681  16.838 -0.0091  0.2026  0.0121
25579W        W40426  12.698   5.264  11.791 -0.1845 -0.3888 -0.1527
25580W        W40427  12.690   1.733  14.125  0.0863  0.0230 -0.0943
25581W        W40428  11.674   4.711   5.179  0.1950 -0.0833 -0.3839
25582W        W40429   2.126  15.715  13.490 -0.2518  0.1124  0.0369
25583W        W40430  17.035  13.184  12.338 -0.1628  0.2572 -0.1234
25584W        W40431   5.457   9.260  14.166 -0.2979 -0.0955  0.0591
25585W        W40432  13.775  11.692  11.723 -0.2036 -0.0892 -0.1781
25586W        W40433  13.723   8.057  16.035 -0.0288 -0.4442 -0.2694
25587W        W40434   4.167   1.596   1.910  0.0093  0.1125 -0.1054
25588W        W40435   2.605  15.276  16.835 -0.0186 -0.0580 -0.0891
25589W        W40436   5.764   2.939  13.686 -0.2677 -0.2051 -0.2052
25590W        W40437   7.905  12.032   1.472  0.2078 -0.2328 -0.0347
25591W        W40438  13.109   1.450   5.587  0.0054  0.0148  0.0118
25592W        W40439  17.935   3.576  17.042  0.1558  0.3730 -0.1842
25593W        W40440  12.533   4.679   6.739 -0.3451 -0.0417  0.1717
25594W        W40441  11.524   1.102  12.946  0.1059 -0.1156  0.1452
25595W        W40442   8.576  13.399   3.340  0.3748 -0.0508 -0.0620
25596W        W40443  13.767  15.429   2.375  0.2073  0.1637 -0.2808
25597W        W40444   9.648  17.113  14.314  0.0385 -0.0702  0.1995
25598W        W40445  11.249   1.635  16.908  0.0017  0.0580 -0.2147
25599W        W40446  17.656   8.543   4.038  0.0855 -0.1542  0.0716
25600W        W40447   3.150   6.826  14.208  0.3711  0.2244  0.2457
25601W        W40448  15.301  15.728  10.362 -0.2416  0.1157  0.0889
25602W        W40449  10.116  17.030  14.526 -0.1538  0.1321 -0.0471
25603W        W40450  12.990  13.087  11.480  0.3000  0.0753  0.1376
25604W        W40451  17.443  10.823   5.692 -0.0942 -0.0343  0.1671
25605W        W40452   8.728  10.216  16.416  0.1831 -0.0190 -0.1723
25606W        W40453   1.312  10.067  15.276 -0.3365  0.0669 -0.2948
25607W        W40454  16.110   4.928  13.343 -0.0273  0.0113  0.0590
25608W        W40455  14.402   1.557   5.482 -0.0342 -0.1787  0.1231
25609W        W40456  17.327  15.845  14.773  0.0665  0.0738 -0.2066
25610W        W40457  17.824   9.939   2.684  0.0978  0.1966 -0.0288
25611W        W40458  15.124   5.280   4.183  0.0966 -0.0275 -0.3158
25612W        W40459  11.317   7.054  12.376 -0.1857 -0.2345 -0.0139
25613W        W40460  12.125  11.272  13.965 -0.2879 -0.1478  0.2374
25614W        W40461  16.453   6.295   3.720 -0.0335  0.1172  0.0436
25615W        W40462   8.582   3.176   0.550  0.0019  0.1640  0.0204
25616W        W40463  10.924   4.523  11.801 -0.3478  0.0074 -0.1976
25617W        W40464  13.150   4.836  10.683  0.0342 -0.3467 -0.5578
25618W        W40465  11.560   2.188   0.350 -0.0797  0.0764 -0.0427
25619W        W40466   8.442   8.581   1.936 -0.0212 -0.0459 -0.2241
25620W        W40467   9.905  15.599   3.875 -0.0241 -0.0857  0.0500
25621W        W40468  12.283  16.429   5.009 -0.1709  0.0027 -0.0758
25622W        W40469  14.799  17.453   1.635  0.0140  0.0695  0.0835
25623W        W40470  13.479  13.446  13.367  0.0082  0.0086 -0.6337
25624W        W40471  14.750  14.112  14.192  0.1189 -0.2318  0.0348
25625W        W40472   9.557   7.956   4.121 -0.0617  0.2688 -0.3092
25626W        W40473  14.158  11.536  15.945 -0.1603 -0.0291  0.0839
25627W        W40474  11.133  15.486  12.791  0.0738 -0.2753 -0.1328
25628W        W40475  16.692   9.826  13.654  0.3410 -0.3007  0.1620
25629W        W40476  14.202   7.603  13.208 -0.2841 -0.0339 -0.0829
25630W        W40477  14.709   5.522   2.144  0.0381 -0.3150 -0.0454
25631W        W40478  11.156   5.976  12.919 -0.0609  0.0543  0.1765
25632W        W40479  16.764  16.533  13.169  0.0112  0.0140  0.0890
25633W        W40480  17.300   6.136  13.695 -0.0001  0.1440  0.3868
25634W        W40481  11.774   3.317   5.525  0.0741 -0.1209 -0.0422
25635W        W40482  13.981   0.783  12.211  0.0174 -0.0546  0.2948
25636W        W40483  12.529  12.103   0.853  0.1374  0.0515 -0.2646
25637W        W40484   4.557   0.874   0.887 -0.0606 -0.0981  0.3076
25638W        W40485   9.025   6.126   5.544  0.1286  0.0489  0.0445
25639W        W40486  13.463   6.281   0.063  0.1885  0.1619  0.0995
25640W        W40487  11.905   8.312   4.964  0.0178  0.2025  0.1065
25641W        W40488   5.463   4.990   2.794  0.2124  0.0125 -0.1274
25642W        W40489   5.340  15.806   5.319  0.3955 -0.0510  0.3124
25643W        W40490  10.673   9.810   2.734  0.0362 -0.1739 -0.0842
25644W        W40491   4.378   8.573  12.675  0.0358  0.0157  0.3125
25645W        W40492   7.971   5.598   1.215 -0.0044 -0.2448 -0.1260
25646W        W40493  15.361   9.854  16.674  0.1766  0.0643  0.0277
25647W        W40494  16.452  11.817   0.713 -0.0533 -0.0789  0.0945
25648W        W40495  16.896   4.969  12.867  0.2783 -0.1451 -0.1895
25649W        W40496   1.450   8.230  15.301  0.0529  0.1304 -0.0181
25650W        W40497   9.533   6.960  14.374  0.0422  0.3305 -0.2247
25651W        W40498  17.969   0.481  13.016  0.1282  0.2275 -0.0077
25652W        W40499   1.270  15.811  16.161 -0.1642 -0.2684 -0.1524
25653W        W40500   7.742   4.209  14.265  0.1474 -0.1641  0.1832
25654W        W40501   0.235   1.196  12.591  0.1169  0.0164  0.2693
25655W        W40502   2.830  10.745   2.413  0.2951 -0.2715 -0.3640
25656W        W40503  11.707   3.359   1.776  0.2879 -0.2067  0.0589
25657W        W40504   9.034  17.276  12.820  0.3347  0.2666  0.0086
25658W        W40505   0.066  11.362   5.093 -0.0400  0.0711  0.3149
25659W        W40506   1.996  10.077  13.573  0.1691  0.1010 -0.2412
25660W        W40507  12.694   3.030  16.444 -0.1464  0.0465  0.0691
25661W        W40508  10.782   5.601  15.167  0.0080  0.2147 -0.1473
25662W        W40509  13.960  10.518   2.798  0.2318  0.2311  0.2809
25663W        W40510  13.292  17.020   4.160 -0.0286 -0.2431  0.2878
25664W        W40511  17.699  10.232  15.448  0.0277 -0.3074 -0.2851
25665W        W40512  11.001  10.510   4.717 -0.2645  0.1917 -0.0150
25666W        W40513  12.751   4.769  16.466 -0.2261 -0.5247  0.1495
25667W        W40514  16.622  10.150   0.278 -0.0729  0.1205 -0.0027
25668W        W40515  15.890   8.224   1.841  0.2959 -0.1765 -0.1145
25669W        W40516  10.946   2.147  13.761  0.2339 -0.0946 -0.1183
25670W        W40517  16.791  11.946  13.960 -0.2382  0.0934 -0.1426
25671W        W40518   3.824   1.028   1.564  0.2843  0.0043 -0.2329
25672W        W40519  10.473   0.389   1.511  0.3136 -0.2652 -0.0232
25673W        W40520  12.788   6.807   2.748  0.0818 -0.1260  0.2022
25674W        W40521  13.939   8.074   1.081  0.1109 -0.2302  0.0718
25675W        W40522  10.145   9.816   6.350 -0.1227  0.0378  0.2709
25676W        W40523  14.394   6.856   3.337 -0.0258  0.1629 -0.4466
25677W        W40524  12.878   2.347   5.000 -0.3506  0.2090  0.0492
25678W        W40525  11.915   7.773   4.621 -0.0407  0.1248 -0.5844
25679W        W40526  10.343  15.863  15.106  0.0911 -0.2536 -0.0633
25680W        W40527  12.741   0.814   2.478  0.1682  0.0246  0.0043
25681W        W40528   5.561  12.765  15.204 -0.0131  0.0600  0.1849
25682W        W40529   9.907   2.437   3.235 -0.3990 -0.2058  0.0131
25683W        W40530  16.512   8.069  16.977  0.0661  0.1163 -0.1255
25684W        W40531  10.106  15.351  15.091  0.0781 -0.1541  0.1788
25685W        W40532   0.957  10.829   3.147  0.2504 -0.1741  0.1254
25686W        W40533  14.236  13.306  11.865 -0.1228 -0.0898  0.0590
25687W        W40534  13.841   5.984   0.283  0.1859 -0.2363  0.0557
25688W        W40535  12.674   1.547   6.241 -0.0780  0.0737  0.0564
25689W        W40536  14.374   4.927  15.830  0.1402  0.1267  0.2867
25690W        W40537   5.816  13.046  16.821 -0.1438  0.2367 -0.0199
25691W        W40538  10.058  11.898   3.033  0.0742 -0.0292  0.0748
25692W        W40539  15.175   3.952   3.470 -0.1681  0.3876 -0.0631
25693W        W40540   9.133  16.158  14.221 -0.1526  0.2130  0.1871
25694W        W40541   8.536  12.337  13.060 -0.2371  0.1065  0.0799
25695W        W40542  11.450  16.330  12.121  0.0398 -0.0749  0.4369
25696W        W40543   0.098   1.702  11.819 -0.0313 -0.2366 -0.0405
25697W        W40544  15.316  16.571  14.975  0.1317  0.2310 -0.0136
25698W        W40545   1.996  11.782   3.156  0.1161  0.0166  0.1314
25699W        W40546  14.756  15.774  14.880 -0.2295  0.0934  0.1081
25700W        W40547  10.103  15.887  12.361 -0.1707  0.0746  0.0025
25701W        W40548   1.569  14.715  13.392 -0.1053 -0.2261  0.1233
25702W        W40549   2.406   9.879  14.957 -0.0072  0.0883  0.2595
25703W        W40550  15.449  16.536  16.189 -0.2443 -0.0901  0.1047
25704W        W40551   3.617  13.876   2.267 -0.1894  0.0294  0.1404
25705W        W40552  16.417   5.362   0.544 -0.1531 -0.3007 -0.1929
25706W        W40553   4.913  13.631   1.197 -0.3334  0.2460 -0.2560
25707W        W40554   9.402  11.048  14.645  0.1080  0.0202 -0.1209
25708W        W40555  17.488   2.908   5.145  0.0072 -0.1792  0.2155
25709W        W40556   3.114   8.143  12.929  0.1902 -0.0495  0.0120
25710W        W40557   8.587  17.831   5.288 -0.0922 -0.2907 -0.1342
25711W        W40558  10.427   0.410   5.981  0.1690 -0.2741 -0.0275
25712W        W40559   6.669  11.849  15.570  0.0710 -0.2750 -0.0344
25713W        W40560  15.141   2.144  14.720 -0.3210  0.0833 -0.1258
25714W        W40561   1.110  10.719  11.641  0.3523 -0.2816  0.0038
25715W        W40562  13.683  11.730  10.293 -0.2482 -0.2736  0.1524
25716W        W40563  12.153   0.694  13.233 -0.0187  0.0161  0.2181
25717W        W40564  12.704   5.359   5.051 -0.0720 -0.1376 -0.1644
25718W        W40565  13.509  16.042  15.704 -0.0761  0.4987 -0.1860
25719W        W40566  12.520   5.697   4.726 -0.1357 -0.1473 -0.3308
25720W        W40567  10.232  11.561   4.063  0.0954 -0.1057 -0.0765
25721W        W40568   7.481   5.089  16.687  0.0885 -0.0531  0.1318
25722W        W40569  10.357  11.316  14.507  0.0185 -0.1344 -0.0260
25723W        W40570   4.356   1.948  12.779  0.1275  0.0392 -0.4150
25724W        W40571  13.774   3.164  12.962  0.0736  0.1601  0.1144
25725W        W40572  13.890   5.460  15.099  0.1717  0.1548 -0.2071
25726W        W40573  16.118  10.530  15.201  0.1319  0.1927  0.2536
25727W        W40574   0.149  10.266   0.472 -0.1264  0.0065 -0.0806
25728W        W40575  12.524   1.942   6.536 -0.0569 -0.0411 -0.1877
25729W        W40576  14.358   6.085   1.634 -0.1542  0.2930  0.2294
25730W        W40577  12.655  15.364  16.183 -0.2798  0.3849  0.0151
25731W        W40578   2.103   2.842  14.721 -0.0309  0.3443  0.2418
25732W        W40579  10.794   6.448   3.725 -0.0728 -0.0185  0.0022
25733W        W40580  13.303   0.701   5.752  0.0235 -0.0822 -0.0531
25734W        W40581  17.648  16.462   0.589 -0.3235 -0.1447 -0.1461
25735W        W40582  15.721   2.389  16.871  0.0313  0.0073  0.1765
25736W        W40583  17.469   4.331  13.878 -0.1046 -0.3703  0.1820
25737W        W40584   1.338   8.990  10.392  0.2360 -0.1224  0.0390
25738W        W40585  15.677  11.821   6.126  0.0485  0.2824 -0.2123
25739W        W40586  13.758   5.664   5.264 -0.3533 -0.1361 -0.1522
25740W        W40587   0.305   1.511   0.743  0.1212 -0.2061  0.3404
25741W        W40588  11.511  15.372  15.199 -0.0475  0.1428  0.2625
25742W        W40589  17.041  15.080  16.039  0.1195 -0.0528 -0.0314
25743W        W40590  15.089  13.944   3.161  0.1213 -0.2490  0.0121
25744W        W40591  14.029   9.264  16.497 -0.1330 -0.0945  0.0507
25745W        W40592   3.842   6.159   1.013 -0.0507 -0.3413 -0.2343
25746W        W40593  12.999   9.496   4.041 -0.0522  0.2662  0.2352
25747W        W40594   0.115  17.871  14.516  0.2760  0.0267  0.0525
25748W        W40595   5.794  15.805  16.333 -0.2211 -0.2936  0.1232
25749W        W40596  13.374   2.844  13.036  0.2146 -0.5049 -0.0228
25750W        W40597   0.817  12.263   3.734  0.1495  0.2038  0.0279
25751W        W40598  10.034   2.176   3.669  0.1015 -0.3810  0.2009
25752W        W40599  13.140   6.641   1.392 -0.3401 -0.1150  0.0106
25753W        W40600  11.789  16.075  11.752  0.0110 -0.0426 -0.0792
25754W        W40601   8.267   3.482  16.843  0.1960 -0.0230 -0.1655
25755W        W40602   9.922  10.941  15.085  0.0348  0.1202 -0.3138
25756W        W40603  11.732  17.422   0.984  0.0064  0.1855  0.0220
25757W        W40604   6.454   7.972   5.913 -0.1042  0.1885  0.0412
25758W        W40605   5.816   5.871  15.313  0.0741 -0.1608 -0.1125
25759W        W40606   9.481  17.052  16.239 -0.1187 -0.0921  0.0221
25760W        W40607  16.268   2.737  12.418  0.0968 -0.0737 -0.3448
25761W        W40608  15.554  15.675   5.722  0.2291  0.0970 -0.0293
25762W        W40609  14.872   7.756  14.792 -0.1037 -0.4208 -0.0661
25763W        W40610   9.882   1.421  10.715  0.1482  0.0951  0.1294
25764W        W40611  15.518   5.375   2.885  0.2133 -0.0375 -0.0097
25765W        W40612  16.061  15.831  11.266 -0.3356 -0.0236  0.1756
25766W        W40613  11.856  11.434   2.645  0.1526  0.3018 -0.0045
25767W        W40614  15.085   2.472   1.267 -0.3809 -0.1758  0.3444
25768W        W40615  10.288  10.640  16.407 -0.2414  0.1723  0.1069
25769W        W40616  17.566   9.543   2.534 -0.1221 -0.1324 -0.2873
25770W        W40617  12.455   0.480  14.040 -0.1128  0.4473 -0.1075
25771W        W40618  15.393  12.018   3.656 -0.0224  0.0094  0.0252
25772W        W40619   5.338  11.861  17.034 -0.1495 -0.0322  0.1434
25773W        W40620   3.229  12.086   4.269  0.2052  0.0913 -0.0528
25774W        W40621  10.962   2.968  12.882 -0.2880 -0.1023  0.1672
25775W        W40622  13.868   4.461  14.724  0.2481  0.0670 -0.0381
25776W        W40623   1.628  11.066   2.735 -0.1125 -0.0893 -0.2316
25777W        W40624  15.263  17.100   4.689 -0.2036 -0.0450 -0.3581
25778W        W40625  13.176   3.869   1.190  0.2442 -0.0371  0.0340
25779W        W40626   7.403  11.184   6.079  0.2415  0.2925 -0.0687
25780W        W40627  10.661   1.228   4.344 -0.2404  0.2298 -0.1177
25781W        W40628  16.440   3.089  12.136 -0.0139  0.1560  0.4061
25782W        W40629   1.424   9.060   4.952  0.3161 -0.1431  0.0478
25783W        W40630   9.039  12.125   0.590 -0.1857  0.0954  0.0448
25784W        W40631  10.464   4.274  13.783 -0.2130  0.1265  0.1986
25785W        W40632  12.003  12.789  16.343  0.2407 -0.0326 -0.0918
25786W        W40633  15.959   2.383   3.174  0.2712 -0.0856  0.0443
25787W        W40634  12.101   0.191   5.864 -0.1450 -0.0225  0.0132
25788W        W40635  12.852   6.632  12.110  0.1986  0.0952 -0.0125
25789W        W40636   8.478   2.919  14.329  0.0546  0.2773  0.1220
25790W        W40637  16.156   0.337   3.542  0.0705  0.0114 -0.2112
25791W        W40638   2.364  16.434   4.943  0.1021  0.4067  0.0570
25792W        W40639  16.432   0.153  11.007 -0.1912  0.0276 -0.4006
25793W        W40640  13.683   6.369   3.417 -0.1044  0.0890  0.0783
25794W        W40641   5.749   4.815  13.488 -0.1301 -0.5545  0.0428
25795W        W40642   4.376  11.181   1.490 -0.3008 -0.0550 -0.0717
25796W        W40643  10.137  10.539   7.112  0.2359 -0.0763  0.0990
25797W        W40644   0.053  14.881   5.410  0.0683  0.1006 -0.0415
25798W        W40645   0.950   6.480   5.153 -0.1159 -0.0624  0.2483
25799W        W40646  11.955   1.324  10.928 -0.1587 -0.1833 -0.0906
25800W        W40647  13.413  16.975   1.796  0.0254  0.1999  0.1589
25801W        W40648   8.631  10.057  15.920  0.1896  0.1126  0.2339
25802W        W40649  13.632   6.126   0.907  0.0972  0.1341  0.3019
25803W        W40650  15.713  10.169   3.184  0.1544 -0.2812  0.0762
25804W        W40651   6.917   4.794  15.895  0.3215 -0.0918 -0.0320
25805W        W40652  11.121   5.558   2.236 -0.1523  0.0126 -0.3611
25806W        W40653   2.407  17.573  11.060 -0.0400  0.1116  0.1381
25807W        W40654  11.718   0.477   0.991  0.1242  0.2153 -0.2871
25808W        W40655  11.126   7.068  12.864 -0.2891 -0.0569 -0.1017
25809W        W40656  16.899   2.375  10.899 -0.0970  0.0242 -0.0264
25810W        W40657  10.216   8.109   4.074 -0.0083 -0.2426  0.1410
25811W        W40658  14.766   4.510   3.627  0.3115  0.0294  0.1234
25812W        W40659  14.219   0.447   2.428  0.1800 -0.1909  0.5544
25813W        W40660   1.033  11.200  16.827 -0.0847  0.1157  0.0984
25814W        W40661   0.575   0.687  13.606 -0.0288 -0.1682  0.0538
25815W        W40662   1.081   4.987   5.374  0.1113 -0.2450 -0.4071
25816W        W40663  14.146  13.421   3.427 -0.0145  0.0502 -0.3346
25817W        W40664  14.167  10.858   1.479  0.4465 -0.1234  0.1511
25818W        W40665   8.172   9.653  16.687  0.1278 -0.1074  0.0267
25819W        W40666  15.977  14.860  17.080  0.1778  0.0308 -0.2287
25820W        W40667  10.293  13.502   1.737  0.2628 -0.0421  0.2015
25821W        W40668  17.934   2.848   3.460 -0.0139 -0.0003  0.0718
25822W        W40669  16.647   6.024  16.376 -0.5400  0.2623  0.1135
25823W        W40670  13.588   6.486  16.713 -0.3029  0.3116  0.0562
25824W        W40671  16.321  12.506   3.910 -0.2219 -0.0003 -0.3810
25825W        W40672  14.589   7.864  15.148  0.3143  0.0280  0.0737
25826W        W40673  16.616   6.911  15.800  0.0169  0.3251 -0.0130
25827W        W40674  16.444   1.740  16.532 -0.4106  0.0230  0.1851
25828W        W40675  12.770  16.090  11.881 -0.0540  0.0454 -0.1001
25829W        W40676   3.378   9.636  14.140  0.1335  0.1397  0.1289
25830W        W40677   9.132  11.069   6.390  0.2206 -0.0890  0.0130
25831W        W40678   9.729   5.810   1.598 -0.0958 -0.0002  0.1325
25832W        W40679  16.197  10.518  13.529  0.1606 -0.1702  0.1346
25833W        W40680  14.550   6.177  14.749  0.2220 -0.1031 -0.2333
25834W        W40681  12.076   9.140   6.068  0.2317 -0.0072  0.1203
25835W        W40682  13.752  10.169  11.290 -0.1204  0.0717  0.1045
25836W        W40683  15.708  16.186  14.855  0.1605  0.2747  0.1463
25837W        W40684  12.971   6.841   5.346  0.1585  0.2864 -0.0706
25838W        W40685  12.148  17.916   2.741 -0.1824 -0.2991 -0.1475
25839W        W40686  17.513   6.790  15.265  0.1229 -0.1179  0.0103
25840W        W40687   3.499   0.881   3.702  0.4278 -0.1201 -0.1418
25841W        W40688   9.469   0.332  16.150 -0.1430  0.3600 -0.3333
25842W        W40689   2.065   4.289   1.260 -0.1317 -0.2354  0.0860
25843W        W40690   0.331  13.498  12.065 -0.1516 -0.0341  0.2255
25844W        W40691  15.115   9.578  11.283 -0.1625  0.0731 -0.2140
25845W        W40692   3.929   3.251  11.688 -0.0067  0.0258 -0.1088
25846W        W40693  14.583  17.848  16.925  0.0883 -0.3324 -0.1227
25847W        W40694  11.131   0.293  15.365  0.2389 -0.0012  0.2109
25848W        W40695   1.165   5.480   1.649  0.1456  0.3059  0.0694
25849W        W40696  14.572  12.787   3.395 -0.4300  0.0171  0.1545
25850W        W40697  16.681   6.076   4.860 -0.2823  0.2098  0.1391
25851W        W40698   8.939  10.218   1.658  0.0605 -0.0768  0.2511
25852W        W40699  16.191  13.432   3.269 -0.1768  0.1624  0.5381
25853W        W40700  13.391   6.560   5.448  0.1379 -0.1697 -0.3391
25854W        W40701  13.040  11.660  15.338 -0.1407 -0.4926 -0.2861
25855W        W40702   6.232   7.855   4.410  0.1395 -0.2249  0.0805
25856W        W40703  14.311   7.143  13.019 -0.2341 -0.3912 -0.2682
25857W        W40704  17.208   9.978  13.601  0.2493  0.3314  0.2359
25858W        W40705  14.352  14.942  13.229  0.1452  0.1931  0.1732
25859W        W40706  14.720   1.241   0.144 -0.1021  0.4318  0.0471
25860W        W40707  11.294   6.105  14.307 -0.1252  0.1606  0.0281
25861W        W40708   5.130   4.797   2.397  0.0286 -0.1951 -0.2599
25862W        W40709  12.186  11.731  14.394  0.2189 -0.3110  0.1034
25863W        W40710   5.312  10.206   4.979 -0.1909 -0.3904 -0.1672
25864W        W40711   1.927   1.157   1.919  0.0251  0.0394  0.3434
25865W        W40712  15.019   7.153  14.634  0.1925  0.0828 -0.0010
25866W        W40713   3.116  12.855   0.649 -0.1068 -0.0630 -0.0286
25867W        W40714  13.728  17.797   0.924 -0.1425  0.0050  0.0555
25868W        W40715  10.598  11.830  12.814 -0.0928 -0.0517 -0.3555
25869W        W40716   7.558   0.947  13.745 -0.0276  0.1039  0.0117
25870W        W40717  14.436   0.121  15.861 -0.1743  0.0614  0.0179
25871W        W40718  12.989   8.403  12.122 -0.0490  0.1977  0.1410
25872W        W40719  15.273   6.738  11.681 -0.0964 -0.4201 -0.0171
25873W        W40720   9.196   2.209   0.390 -0.1469  0.0644  0.2786
25874W        W40721  10.209  13.019   5.760  0.2588 -0.1957 -0.2134
25875W        W40722   4.658   9.874  12.420 -0.2376  0.3076  0.1708
25876W        W40723   8.222   5.360  16.821  0.0272  0.0867  0.1081
25877W        W40724  16.806   9.917   6.187  0.0129  0.1582 -0.0748
25878W        W40725   0.490  17.258  16.921  0.0341 -0.0126 -0.1685
25879W        W40726   1.183   2.739   3.756  0.4948  0.0952  0.2006
25880W        W40727  16.716   8.508  14.559 -0.1325  0.0068 -0.2052
25881W        W40728  12.200   9.903  11.741 -0.1935  0.2554  0.1459
25882W        W40729  12.085  12.022  11.326 -0.2540  0.1055 -0.1555
25883W        W40730  13.284   3.867  15.053  0.4532 -0.0294  0.1062
25884W        W40731  17.692   4.395   3.764  0.0585  0.2077  0.2178
25885W        W40732  14.828  12.778  13.628  0.0941  0.0439 -0.0143
25886W        W40733  17.718   9.615  12.655 -0.0612 -0.2592 -0.1604
25887W        W40734   9.753   6.186  15.898 -0.0307  0.1713  0.1873
25888W        W40735  12.057   0.433  13.758  0.1357 -0.1634  0.1512
25889W        W40736  16.281   4.193  16.132 -0.2062 -0.1246 -0.0264
25890W        W40737  17.503   9.523   0.270 -0.0483  0.0616 -0.0664
25891W        W40738  16.338   1.029  15.385  0.0202 -0.2413 -0.1764
25892W        W40739   4.546  16.569   0.983  0.0309 -0.2003  0.1365
25893W        W40740  13.919  12.793  16.303  0.2767 -0.3340 -0.0345
25894W        W40741  17.412   1.401  15.101  0.0549 -0.0859  0.0208
25895W        W40742  16.919  17.082  15.135  0.1225 -0.0929  0.1420
25896W        W40743  14.905   2.814  12.539 -0.0251 -0.2753  0.0256
25897W        W40744  12.684  15.784  12.342 -0.3648  0.0215 -0.0116
25898W        W40745   9.653   5.091   3.077 -0.1786  0.0219 -0.0315
25899W        W40746  16.358   1.837  17.072 -0.1763  0.0016  0.1722
25900W        W40747   6.173   6.688   4.799 -0.0092 -0.0389  0.0850
25901W        W40748  16.096  13.626   4.768  0.0287  0.2470 -0.0313
25902W        W40749  17.683  11.682   2.106 -0.2204  0.2790 -0.1588
25903W        W40750  15.370   2.169   1.603  0.0264  0.1527 -0.0075
25904W        W40751  12.372   9.124   1.723 -0.1430  0.0651 -0.1276
25905W        W40752  11.019  12.852  17.050 -0.1462  0.0957  0.0274
25906W        W40753   6.872   7.195   3.901  0.4926 -0.0895 -0.1033
25907W        W40754  17.226  11.919   0.889  0.1045  0.0948  0.0928
25908W        W40755   9.968  12.620   5.269 -0.1818  0.0048  0.1882
25909W        W40756  13.641   7.470  14.531 -0.1349  0.1253 -0.0560
25910W        W40757  15.363  17.082   4.179 -0.1700 -0.1427  0.0674
25911W        W40758   3.412  17.769  11.835  0.0937 -0.2911 -0.0170
25912W        W40759  17.903   7.419  16.668  0.0006 -0.4734 -0.2548
25913W        W40760  14.931  10.799  15.632 -0.1463  0.1063 -0.2701
25914W        W40761  16.446  16.819  14.390 -0.2906  0.0263  0.1484
25915W        W40762   7.127   2.000   1.499  0.1350  0.0644  0.0243
25916W        W40763  15.040   5.168  13.111 -0.1459 -0.5049 -0.0331
25917W        W40764   9.466   2.936  13.720 -0.0136 -0.1483  0.0181
25918W        W40765  13.649  15.432   4.740  0.1389 -0.2125  0.1335
25919W        W40766   9.430   5.841  13.392 -0.1578 -0.0562  0.0449
25920W        W40767   8.027  17.477   3.405  0.0991 -0.2100 -0.1737
25921W        W40768   8.453  10.169   5.107 -0.1730  0.1143  0.1854
25922W        W40769   1.339   5.866  11.869 -0.1565 -0.0532  0.0058
25923W        W40770  13.906   1.873   5.990  0.0337  0.1536 -0.1499
25924W        W40771   7.307   6.901   6.336  0.2303 -0.1178  0.0534
25925W        W40772   0.838   2.775   2.789  0.4095  0.2761  0.2861
25926W        W40773  14.138  10.773   3.512 -0.0622  0.0204 -0.1174
25927W        W40774  12.967   9.779   0.889 -0.0616  0.1003  0.2775
25928W        W40775   5.260  15.425   2.093  0.0678  0.0640 -0.0742
25929W        W40776  10.953   0.986  11.806  0.0330 -0.1168  0.1068
25930W        W40777  10.511   0.425   2.882 -0.0373  0.3605 -0.1186
25931W        W40778   1.949  14.883   2.422 -0.1608 -0.3058  0.1517
25932W        W40779  12.442   6.716  11.840  0.0743 -0.1429  0.0680
25933W        W40780  16.143  12.204  17.010  0.1523 -0.2424 -0.2061
25934W        W40781  15.384  12.924   3.683 -0.0996  0.1818  0.5000
25935W        W40782   1.712   9.642  11.583  0.0316  0.2086  0.1077
25936W        W40783   7.483   9.570   4.529  0.1408 -0.1039  0.0167
25937W        W40784  11.531  11.942   4.390  0.1156 -0.0608 -0.1146
25938W        W40785  15.745   4.621   5.884  0.2123 -0.1848 -0.1561
25939W        W40786  16.825   5.665   3.225  0.0449  0.0971  0.1114
25940W        W40787   0.241   1.290   4.641 -0.0807 -0.2053  0.1954
25941W        W40788   2.670   1.623   2.142  0.2147  0.0952  0.1079
25942W        W40789  15.788   6.241  13.980  0.0491  0.1401  0.0276
25943W        W40790  10.218  16.899  13.651 -0.1694 -0.0381  0.1663
25944W        W40791   1.159   4.311   1.366  0.1267  0.1724  0.1907
25945W        W40792  13.474   7.262  10.342  0.1388 -0.2118 -0.1140
25946W        W40793  12.360  15.009  11.104 -0.1659  0.0159  0.1855
25947W        W40794  17.306   3.353   5.380 -0.1484 -0.0030  0.0976
25948W        W40795  12.774  15.562   5.140  0.0195  0.0289 -0.1912
25949W        W40796   8.630  12.808   4.536 -0.1129 -0.1161 -0.3757
25950W        W40797  17.230   0.944  13.398  0.0340  0.1825 -0.0810
25951W        W40798   5.178  16.791   5.125 -0.0036  0.0115 -0.0364
25952W        W40799  17.711  13.278  14.872  0.0766 -0.1530  0.0109
25953W        W40800  13.862  15.269  12.076  0.0489  0.0732 -0.0341
25954W        W40801   6.464  15.637  16.980 -0.0110  0.1030 -0.0143
25955W        W40802  12.319  13.014  14.041  0.2175  0.1665 -0.0678
25956W        W40803  15.307   6.034  10.559  0.1289  0.1012 -0.0951
25957W        W40804  13.984  13.997  12.345  0.0807  0.1203  0.1563
25958W        W40805  17.003  11.472   6.068  0.3079  0.0184  0.2160
25959W        W40806  13.305   4.529   2.539  0.0531  0.1163  0.2077
25960W        W40807  15.039  17.118  13.428  0.3713 -0.0274  0.0482
25961W        W40808  14.744  12.156   6.089 -0.1287 -0.2152 -0.0013
25962W        W40809   0.750   1.451   2.488 -0.2491  0.0642  0.0146
25963W        W40810   0.973   9.494   3.001 -0.1953 -0.0929  0.1680
25964W        W40811  14.627  16.652  11.212 -0.1043  0.0545  0.1782
25965W        W40812   0.710  12.345   4.580  0.2097 -0.2327 -0.1754
25966W        W40813  16.731   3.299   2.584 -0.1075 -0.1866 -0.0601
25967W        W40814  14.799  11.720   3.100 -0.1086 -0.4744  0.1449
25968W        W40815  13.843   3.792   6.092  0.2266 -0.0133  0.1861
25969W        W40816   9.930  16.249   3.070  0.2982 -0.0171 -0.0232
25970W        W40817   8.240  16.900  16.176  0.1198 -0.2862  0.0258
25971W        W40818  17.416  12.900  12.598  0.2710  0.0760  0.2938
25972W        W40819   9.974   9.203  16.940  0.0508  0.2407  0.2599
25973W        W40820  17.735   5.530   1.003  0.0762  0.0998  0.0512
25974W        W40821  10.558   7.077   0.431  0.1999 -0.2122 -0.0697
25975W        W40822  16.864   2.604  11.501  0.2101  0.0146 -0.0701
25976W        W40823   0.890  16.893  14.449  0.0292  0.0894 -0.1764
25977W        W40824  12.825   8.510   4.038  0.0210 -0.1100 -0.1570
25978W        W40825  17.552   4.748   4.127  0.3476  0.2465  0.1883
25979W        W40826   4.690   8.191  15.705  0.1623 -0.1795 -0.0305
25980W        W40827   1.557   9.415  16.089  0.0948 -0.1544  0.1569
25981W        W40828  14.478   5.335  16.532  0.2927 -0.1163  0.1196
25982W        W40829  15.998   8.385  11.207  0.2016 -0.1535 -0.0804
25983W        W40830  12.191   7.537   0.106  0.0096  0.2090  0.0425
25984W        W40831  15.347   9.415  14.698 -0.3568  0.0009  0.0153
25985W        W40832  12.581  15.718  16.900 -0.0992  0.0861  0.1041
25986W        W40833  11.274   2.343  12.319 -0.0486  0.0912 -0.1023
25987W        W40834   3.567   3.036  10.540 -0.1147 -0.0774  0.1599
25988W        W40835   9.092   5.396   5.154 -0.4000  0.0427 -0.6016
25989W        W40836   0.662  15.484   2.702  0.1495  0.0470 -0.1720
25990W        W40837   8.553   2.858  14.986 -0.2507 -0.0469  0.1223
25991W        W40838   8.608   9.565  13.725 -0.0103 -0.0614  0.1666
25992W        W40839  13.707  14.826   2.803  0.0716 -0.1998  0.3153
25993W        W40840  15.521  15.873  15.454  0.1586 -0.1676 -0.0601
25994W        W40841  12.597  13.070  13.056  0.2091 -0.1902  0.1715
25995W        W40842  11.567   8.277   3.170 -0.0079 -0.3009 -0.3115
25996W        W40843   8.407   8.809  13.154  0.0935  0.0824  0.1079
25997W        W40844  11.142  13.644  12.413 -0.0266 -0.2405 -0.0407
25998W        W40845  16.675  17.212  14.054 -0.0780  0.1469 -0.1881
25999W        W40846  17.968  14.405  15.583 -0.0875 -0.1480 -0.4290
26000W        W40847  17.952  17.584   2.819  0.2201 -0.2076 -0.1638
26001W        W40848   8.599   8.508   3.313  0.0054  0.0177  0.0322
26002W        W40849   2.379   7.685  12.999  0.1929 -0.3117  0.1728
26003W        W40850  13.392   8.637  11.896  0.0378 -0.1669 -0.2224
26004W        W40851  13.676   1.532  17.006 -0.0758  0.2019  0.1259
26005W        W40852  16.856   0.196  15.379 -0.2898  0.1196 -0.1015
26006W        W40853  16.449   0.243   4.688  0.2164  0.4085 -0.1091
26007W        W40854  10.100   1.155  15.425 -0.1790  0.1774 -0.2389
26008W        W40855  13.880   8.654   4.111  0.0373  0.0741 -0.1015
26009W        W40856  14.217   9.584   1.914  0.1614  0.3447 -0.0079
26010W        W40857  15.869  17.531  14.413 -0.0332 -0.3347  0.0389
26011W        W40858   2.527   9.773  13.463  0.0551  0.1153 -0.0366
26012W        W40859  14.991   9.486   2.505 -0.1575  0.1940  0.1413
26013W        W40860  15.708   4.936   1.089 -0.3066 -0.1239  0.0009
26014W        W40861   0.247  12.215   4.590 -0.0006 -0.2225  0.0897
26015W        W40862   7.416   2.809  15.774  0.2825 -0.1805  0.5791
26016W        W40863  12.853   5.871  13.294 -0.0586  0.0746 -0.0775
26017W        W40864   9.921  14.827  13.929 -0.0873 -0.0473 -0.1611
26018W        W40865   0.995   4.473  11.902  0.0413  0.2670 -0.0131
26019W        W40866  12.280  10.625   4.211  0.0248  0.5246  0.6974
26020W        W40867  16.983   6.216   4.504  0.1241 -0.0901 -0.0184
26021W        W40868  15.478   8.578  13.153 -0.1229  0.0038  0.1696
26022W        W40869   0.364   3.360   2.838 -0.0926 -0.2354 -0.0922
26023W        W40870  17.598   1.067  15.874  0.1897  0.0734 -0.3186
26024W        W40871   1.089   9.912  14.737 -0.2347  0.0102 -0.0120
26025W        W40872  15.122   7.328   5.674 -0.0701 -0.0676 -0.0401
26026W        W40873   0.773   5.756   5.581 -0.0324 -0.1471 -0.2187
26027W        W40874  15.510   7.964  14.256 -0.0249 -0.3450 -0.1536
26028W        W40875  15.020   8.858  15.714  0.4268  0.0062  0.0431
26029W        W40876  10.624   2.359   5.871 -0.2360 -0.1109 -0.1433
26030W        W40877  11.332   1.654   3.914  0.1104  0.1168  0.0140
26031W        W40878   8.460   2.572   4.117  0.0596  0.2838  0.0323
26032W        W40879  17.127  14.685  12.973  0.1436 -0.1761 -0.2246
26033W        W40880   9.121   7.232  14.443  0.3631 -0.2475  0.0086
26034W        W40881  13.166   9.204  15.035 -0.1360 -0.0009  0.0626
26035W        W40882  13.270   0.459   5.311  0.1018 -0.0807  0.4409
26036W        W40883  14.970   2.873   0.754 -0.3467  0.1549  0.2295
26037W        W40884   1.246   2.245   0.722 -0.1365  0.1333 -0.0054
26038W        W40885  16.138  10.552   0.437  0.0343 -0.0290 -0.1308
26039W        W40886  11.954  14.546  16.741 -0.2908 -0.2684 -0.0805
26040W        W40887   0.930  11.678  13.586  0.1764  0.3590  0.1368
26041W        W40888  10.501   1.225  13.751  0.1162  0.1717  0.0008
26042W        W40889  12.258   7.939   0.879  0.2583 -0.0360  0.3225
26043W        W40890  15.491  16.604   2.929  0.1391 -0.0230  0.0057
26044W        W40891  17.104   4.824   6.335  0.0328  0.1318  0.1855
26045W        W40892  16.206  12.808   1.003  0.0999  0.0147  0.2922
26046W        W40893  12.198   9.207  15.494  0.0976 -0.2431 -0.1323
26047W        W40894  16.212  10.365  10.737 -0.1821  0.0298 -0.1748
26048W        W40895  13.921   9.644  14.522 -0.0997  0.0527 -0.2065
26049W        W40896   7.626   5.305  12.553  0.0909 -0.1565 -0.3092
26050W        W40897   0.276   7.931   2.269  0.1756  0.2949 -0.1660
26051W        W40898   1.687   8.061  12.541  0.0317 -0.0779 -0.0632
26052W        W40899  16.030   1.725  10.846 -0.2130  0.2096 -0.1579
26053W        W40900  12.292   7.538   4.226 -0.1791 -0.0123 -0.2120
26054W        W40901  10.532   7.923   0.933 -0.0183  0.0540 -0.0891
26055W        W40902   0.075   5.395  16.078 -0.2212  0.0357 -0.0711
26056W        W40903   9.571  11.572  14.420  0.0140  0.1703 -0.0474
26057W        W40904   1.682   4.743  13.872 -0.1211  0.3171  0.1064
26058W        W40905   6.968   0.361  11.835  0.3017  0.0574 -0.2202
26059W        W40906  10.357   6.349  13.261  0.2687 -0.0199 -0.0464
26060W        W40907  16.163   1.388  14.977  0.0767 -0.0280 -0.2464
26061W        W40908  13.357   4.861  13.720  0.1762 -0.0846 -0.2436
26062W        W40909   3.405   3.335   5.006  0.2225 -0.3304 -0.1765
26063W        W40910  14.303  15.309  11.802 -0.2416 -0.3062  0.0044
26064W        W40911  15.444  16.859  15.331  0.1972 -0.1545 -0.4937
26065W        W40912  17.208   8.566  16.591 -0.1326 -0.0117  0.0740
26066W        W40913  13.005  12.061  11.516 -0.1970  0.1281  0.6194
26067W        W40914   2.138   2.912   5.239  0.0815  0.1042  0.0631
26068W        W40915   1.067   1.813  12.324  0.3911  0.0496  0.1354
26069W        W40916  13.923  11.587   5.869  0.1018  0.1158 -0.0634
26070W        W40917  12.003   0.844  15.522 -0.0580  0.0110  0.0379
26071W        W40918   2.913   7.951   1.011  0.0601 -0.4001 -0.2949
26072W        W40919  16.896  11.264  16.100  0.1483 -0.2005 -0.4386
26073W        W40920  12.314  16.230  13.721  0.0941  0.0207 -0.2959
26074W        W40921  11.499   3.853  14.438  0.1649 -0.1550  0.1133
26075W        W40922  13.019  15.012  13.032 -0.1395  0.1318 -0.0309
26076W        W40923   0.267  10.340   4.433 -0.0463 -0.0646  0.2459
26077W        W40924   9.478  13.830   0.977 -0.1495 -0.0715  0.1553
26078W        W40925  11.492  13.870  11.199 -0.1493 -0.1097  0.1777
26079W        W40926  16.911   7.569  12.340 -0.0840 -0.0926  0.2692
26080W        W40927  10.974   5.153   1.490  0.1556  0.1123 -0.0924
26081W        W40928  15.544   0.039   5.139 -0.0372  0.2553  0.0868
26082W        W40929   1.586   2.419  16.585 -0.2348  0.1739  0.0187
26083W        W40930  16.595  11.672  15.783  0.1367  0.0350  0.3222
26084W        W40931  13.297   8.539   4.110  0.0520  0.1345 -0.3672
26085W        W40932  16.954   5.294   0.498  0.0394  0.2938  0.1467
26086W        W40933  11.146   4.305   5.319 -0.2432 -0.0214 -0.1182
26087W        W40934  16.379   1.885   2.990  0.1350 -0.0745  0.0533
26088W        W40935  12.136   1.908   5.609  0.0697  0.1770  0.0844
26089W        W40936   5.438  15.859   1.920 -0.2181 -0.0738  0.0718
26090W        W40937   0.266   9.247  16.023 -0.0636 -0.2850  0.2621
26091W        W40938   5.514  16.861   0.018  0.2323  0.1522 -0.1918
26092W        W40939   0.672   9.387   3.392  0.3054 -0.4393 -0.0573
26093W        W40940  16.742  15.664   4.105  0.0720  0.0889  0.1051
26094W        W40941  17.927   6.305  11.829 -0.0741  0.1418 -0.1905
26095W        W40942  17.262   4.852   4.879 -0.2737 -0.0764 -0.0761
26096W        W40943  16.291   0.020   1.325  0.0309 -0.1507 -0.1488
26097W        W40944   1.279  12.060   1.116 -0.1121  0.1526 -0.0465
26098W        W40945   0.748   2.276  16.724 -0.1195  0.0419 -0.1934
26099W        W40946  14.963  11.198  11.259  0.1479 -0.0650 -0.2608
26100W        W40947  15.497   4.670   0.115 -0.2707  0.1782 -0.1453
26101W        W40948  14.479   4.899  16.311  0.1559  0.1792 -0.4836
26102W        W40949  16.333   1.143   5.635  0.1621 -0.1136  0.1826
26103W        W40950  10.991  12.326   3.226  0.2082 -0.0790  0.1122
26104W        W40951   1.080  10.259   3.445 -0.0675  0.1875 -0.3100
26105W        W40952  15.212   3.691  13.615  0.0351  0.0573 -0.1041
26106W        W40953   2.520   0.816  13.365  0.1269 -0.2099  0.3200
26107W        W40954   4.275  14.877   1.800 -0.1070 -0.1131 -0.2065
26108W        W40955   6.884   7.685   3.761  0.0661 -0.1303 -0.1349
26109W        W40956  12.168  14.614  10.856 -0.4672  0.0421 -0.0475
26110W        W40957   5.087  17.872   5.739 -0.0901  0.1385 -0.1783
26111W        W40958  15.089  11.391   5.496  0.0422 -0.2464  0.0701
26112W        W40959   0.083   3.368   2.382 -0.1662 -0.3747 -0.2432
26113W        W40960  16.658   4.187  16.877  0.0089 -0.0753  0.0530
26114W        W40961  12.227   1.998  15.266  0.1620 -0.2089 -0.2182
26115W        W40962  14.870  11.391  14.964  0.0327  0.1798 -0.1039
26116W        W40963  11.671   5.163  12.930 -0.1523 -0.0889  0.1797
26117W        W40964   9.032   1.659   3.060  0.1192  0.1118 -0.1280
26118W        W40965  16.166  16.182  12.196 -0.0217 -0.0028  0.2397
26119W        W40966   3.701  16.716   5.697  0.3043  0.0505  0.0519
26120W        W40967  10.629  11.843   6.618  0.0251 -0.1443 -0.1228
26121W        W40968  12.779  17.289   2.957  0.1369  0.3521 -0.4273
26122W        W40969  13.935  11.665  14.168 -0.2405  0.1760 -0.0966
26123W        W40970   4.553  13.855  13.588  0.0002 -0.1403  0.0273
26124W        W40971  10.571   0.647   5.405  0.0265  0.0047  0.0576
26125W        W40972   8.456   7.945  14.334 -0.0929 -0.0181  0.1230
26126W        W40973  10.848   6.617  16.939  0.5390 -0.2735 -0.1222
26127W        W40974  16.541  17.451   4.032 -0.1436  0.0740  0.1050
26128W        W40975   9.485   7.172   3.348 -0.1032  0.0555  0.1619
26129W        W40976  15.547  13.362  11.569 -0.4602  0.2423  0.0195
26130W        W40977   8.865   4.996   3.660  0.3233 -0.2311  0.0014
26131W        W40978  15.849  16.556   2.537 -0.0016 -0.1259  0.1990
26132W        W40979  16.165   7.151   6.705 -0.2095 -0.1955 -0.0470
26133W        W40980   8.273   4.685  14.999  0.1770  0.0313  0.2343
26134W        W40981   0.105   8.449   4.770 -0.0740 -0.3263 -0.0524
26135W        W40982  14.266   8.096  13.337 -0.2407  0.1852  0.0773
26136W        W40983  14.605  13.656  12.706 -0.0235 -0.0896  0.0811
26137W        W40984   8.192   1.886   0.861 -0.2791 -0.0751  0.2619
26138W        W40985  13.949   7.859  11.534 -0.0031  0.2720  0.2134
26139W        W40986   9.877   2.437   1.927 -0.1089 -0.1315 -0.0926
26140W        W40987  11.523   3.253  12.132  0.3003 -0.2844  0.1082
26141W        W40988  16.756   7.284  11.486  0.1178 -0.0573 -0.0452
26142W        W40989  15.380   4.778   6.341 -0.1285 -0.1528  0.0523
26143W        W40990  12.859   9.905  11.144 -0.2793  0.1648 -0.3391
26144W        W40991  11.071   2.211  15.852 -0.0026 -0.1316  0.1307
26145W        W40992  13.736   4.386   3.809  0.3085  0.0214  0.0672
26146W        W40993  10.841   8.959  16.672 -0.0528 -0.2031 -0.2828
26147W        W40994  13.954   5.986   3.174 -0.0069 -0.1841  0.0550
26148W        W40995   1.944   0.797   3.583  0.0856  0.0345  0.2330
26149W        W40996  15.920   7.973  14.625  0.2571 -0.2729 -0.0344
26150W        W40997   1.363  14.113   0.468 -0.2655  0.3049 -0.2087
26151W        W40998  12.371   8.850   4.297  0.0080  0.0380 -0.0214
26152W        W40999   9.728   2.542   1.363 -0.1733 -0.1960 -0.0106
26153W        W41000   8.874   7.778   1.986 -0.2676  0.0254 -0.0603
26154W        W41001  11.825   3.697  13.691 -0.3259 -0.0881  0.0295
26155W        W41002   9.446  12.342   0.703  0.0097  0.0689  0.1817
26156W        W41003   0.237   8.314   5.281  0.1618  0.1098 -0.0768
26157W        W41004   1.561   1.615  15.393 -0.0608  0.0007 -0.0412
26158W        W41005  16.926  10.567   0.105 -0.1493  0.0669  0.1310
26159W        W41006  14.333   6.803   2.811 -0.1494  0.0015 -0.0928
26160W        W41007  12.794   2.764   3.948 -0.1320  0.0888  0.1510
26161W        W41008  11.655  14.933  16.624  0.2129  0.6010 -0.1753
26162W        W41009  17.877   8.730   3.545 -0.1530 -0.1353  0.0310
26163W        W41010   0.586  11.050   2.392  0.0584  0.0802  0.0802
26164W        W41011  17.244  12.856   2.694  0.1883 -0.1440 -0.0377
26165W        W41012   0.892  14.941  15.470  0.1294  0.0949  0.0333
26166W        W41013  11.996  14.236   2.038 -0.1461 -0.4459 -0.0221
26167W        W41014   7.503   6.006  15.688 -0.0077 -0.3750 -0.1999
26168W        W41015   5.399  16.975  11.033  0.1033 -0.0088 -0.1300
26169W        W41016  17.122   2.204  14.948 -0.0958  0.0306  0.0007
26170W        W41017  10.491   1.493  14.588  0.0894 -0.1486  0.0303
26171W        W41018  14.955   1.978   3.016  0.1012  0.3869 -0.2829
26172W        W41019  14.561  16.673   6.035 -0.0896  0.2502 -0.0419
26173W        W41020  11.491  14.022   3.321 -0.2807  0.1867 -0.2363
26174W        W41021   7.714   8.639  15.171 -0.3003 -0.0110  0.1423
26175W        W41022  14.514  15.613   5.528 -0.3140 -0.1784 -0.3297
26176W        W41023  17.860   3.234  14.170  0.3097  0.2933  0.0835
26177W        W41024   1.696   5.740   1.329 -0.3556  0.2169 -0.0864
26178W        W41025  10.859   8.995  15.768  0.1875  0.0168 -0.1100
26179W        W41026  14.070   7.816   2.431 -0.2904 -0.0529  0.2147
26180W        W41027  12.576   3.762   3.023  0.0557 -0.1114  0.1256
26181W        W41028  17.794   7.137  13.421 -0.0350  0.2318 -0.2010
26182W        W41029  15.190  15.364   4.501 -0.1168 -0.1528 -0.1736
26183W        W41030   9.348   2.013   2.955 -0.3573  0.2043  0.2501
26184W        W41031   8.314   9.069   4.310  0.1958 -0.0828 -0.0818
26185W        W41032  14.351  15.080   5.418 -0.0967 -0.2356  0.3135
26186W        W41033   7.889   2.535   5.339  0.3081 -0.0604  0.1201
26187W        W41034  12.669   4.029  13.998 -0.2073  0.1440 -0.0962
26188W        W41035  14.305  17.434  11.197 -0.2614  0.1283 -0.0769
26189W        W41036   7.456   4.697  14.646  0.0698  0.1063 -0.3528
26190W        W41037  15.293  16.859   2.504 -0.0667  0.0263 -0.1057
26191W        W41038  14.584   9.963  13.639 -0.0084  0.1104 -0.0737
26192W        W41039   4.860   1.711   1.149 -0.1914  0.1361 -0.3730
26193W        W41040  15.859   6.041   5.823  0.0126  0.0727 -0.0029
26194W        W41041   4.843   9.777   2.336 -0.0081 -0.0541  0.1329
26195W        W41042  12.383  12.230  15.230  0.3232 -0.0193  0.0651
26196W        W41043  15.485   8.015   5.345 -0.1091  0.1847  0.1107
26197W        W41044  13.808  17.061   0.526 -0.1136  0.0753 -0.0509
26198W        W41045  17.263  10.447  15.426  0.1571  0.4102  0.1897
26199W        W41046  10.311  11.130   0.230  0.0335 -0.1469 -0.0694
26200W        W41047  12.853   3.718   0.820 -0.4483 -0.1510 -0.0445
26201W        W41048  15.635  16.711   2.075  0.2003 -0.0120 -0.2548
26202W        W41049  12.736   7.189  11.962 -0.0239  0.1530 -0.0158
26203W        W41050  11.544   7.574   1.776 -0.0684 -0.0271  0.2497
26204W        W41051   0.444   3.440   1.839  0.0242 -0.4384 -0.2546
26205W        W41052  16.097   2.149   4.671  0.0138 -0.1953 -0.1797
26206W        W41053  16.892   5.280  13.385  0.1997 -0.2824 -0.0599
26207W        W41054  10.850  13.453   3.693  0.0547 -0.0655  0.1630
26208W        W41055  14.513  13.432   5.481  0.1799  0.1231 -0.0041
26209W        W41056  16.831   7.975   0.402  0.1650  0.0869  0.0808
26210W        W41057   0.546   0.029   4.263  0.3001  0.0069 -0.2081
26211W        W41058   0.060  10.782   0.480 -0.2341 -0.1077 -0.0054
26212W        W41059  10.972  12.010   1.698  0.2268 -0.1767 -0.0166
26213W        W41060  15.532  15.323   5.389  0.1645 -0.2476 -0.1396
26214W        W41061  14.647  12.847  11.306 -0.0220  0.2157 -0.2782
26215W        W41062   3.797   6.619   0.642 -0.0036  0.0268  0.1359
26216W        W41063  17.230   3.073  16.877  0.0113  0.0754 -0.1512
26217W        W41064   1.449  12.571   3.194  0.0604  0.1956  0.1866
26218W        W41065   2.090  17.713  16.743 -0.2608 -0.1096 -0.1344
26219W        W41066   7.289   7.560   4.934  0.0610  0.3321 -0.0065
26220W        W41067   9.211   9.692  16.985 -0.0893  0.1548  0.1705
26221W        W41068   7.514   7.197  12.924  0.0252  0.0730  0.2597
26222W        W41069  16.637   3.395   5.998 -0.1471 -0.0786 -0.0778
26223W        W41070  16.148   9.222  12.539 -0.5103 -0.3821 -0.2753
26224W        W41071   2.213  14.000  15.633 -0.0759  0.0448 -0.3244
26225W        W41072  10.934  16.425  16.426 -0.0586 -0.3486  0.1365
26226W        W41073  15.470  13.381  12.608 -0.0717 -0.3098  0.1824
26227W        W41074   0.044   1.685  16.718  0.0255 -0.0729  0.1097
26228W        W41075   0.966   4.316  16.329 -0.0521 -0.0143  0.0004
26229W        W41076  13.588  16.467  14.994  0.2519  0.0895  0.0762
26230W        W41077  15.596  16.511  14.055  0.3094  0.0590 -0.0766
26231W        W41078   1.970   1.707   3.310  0.5723  0.1742 -0.1137
26232W        W41079  11.829   9.586   5.707  0.1512 -0.2973  0.1321
26233W        W41080  11.593   2.576  14.770  0.0969 -0.2835  0.0097
26234W        W41081   2.548   2.995  14.441 -0.0295  0.0602 -0.0247
26235W        W41082  13.906   5.028   0.079 -0.0542 -0.1585 -0.2394
26236W        W41083  11.765  15.303   1.386 -0.0758  0.2523 -0.0833
26237W        W41084  11.133   3.601  16.766 -0.0464 -0.0945 -0.2725
26238W        W41085  15.420   4.673   6.817 -0.3289 -0.2270  0.3845
26239W        W41086   1.461   6.398   0.448  0.1069  0.0786  0.0190
26240W        W41087  14.302   3.488   5.425  0.0943 -0.0389 -0.0359
26241W        W41088   3.963   3.259   4.918 -0.1160 -0.0972 -0.2824
26242W        W41089  16.505  16.654  16.388 -0.3827 -0.2814  0.2488
26243W        W41090  14.264  13.930   2.759  0.4459 -0.2304 -0.1800
26244W        W41091  11.800   8.398   1.620 -0.1264 -0.0310  0.0215
26245W        W41092  12.670   7.777   3.206 -0.3287 -0.1425  0.1958
26246W        W41093   0.740   9.417  12.809 -0.0737 -0.1387  0.3972
26247W        W41094  14.366  11.716   3.312  0.0621  0.0253 -0.0882
26248W        W41095   9.805   0.958  15.068 -0.2197  0.0717 -0.0006
26249W        W41096  10.981   2.119  11.158  0.3171  0.0189 -0.0128
26250W        W41097  13.313  17.409  15.857 -0.1152  0.1873 -0.1855
26251W        W41098   2.484   0.313   0.337 -0.3110 -0.1156  0.1906
26252W        W41099   9.189   3.238  14.453 -0.1887  0.1317  0.1609
26253W        W41100  13.609  16.865  11.137  0.0599  0.0227  0.1397
26254W        W41101  11.529  15.892  11.331 -0.2915 -0.1412  0.4145
26255W        W41102   3.447   2.275   0.903  0.1031 -0.0196  0.2926
26256W        W41103  11.014   9.954  13.360  0.0852  0.2343 -0.1058
26257W        W41104  10.425  10.893   5.357  0.3678 -0.0548 -0.3085
26258W        W41105   1.783   4.498  16.683  0.1442  0.0027 -0.1972
26259W        W41106   9.429  14.332   3.432  0.2659  0.0751  0.1521
26260W        W41107  12.581  13.416  14.300  0.0032  0.0685 -0.0556
26261W        W41108  16.726  16.221   5.578  0.0739 -0.1811 -0.0670
26262W        W41109   1.797   7.165   0.264 -0.1550  0.0036 -0.1309
26263W        W41110  13.011  13.520   1.299 -0.1819 -0.0945 -0.0143
26264W        W41111  13.861   0.063   3.514  0.1063 -0.0268 -0.0907
26265W        W41112  17.213   0.913  14.858  0.1897 -0.1869 -0.1606
26266W        W41113   2.886   1.589   0.779  0.1395  0.1843 -0.0765
26267W        W41114   6.269   5.149  14.036  0.1374  0.1871 -0.0069
26268W        W41115  10.420  10.305   5.301 -0.1833  0.0187  0.0929
26269W        W41116  15.938   6.387   2.504  0.0417 -0.0108 -0.0223
26270W        W41117  15.460   2.878   1.109  0.1407  0.2687  0.3737
26271W        W41118  12.112   3.352  14.285  0.0517 -0.1042  0.0885
26272W        W41119   1.186   1.753  10.811  0.1965  0.1870 -0.1093
26273W        W41120   0.444   9.791   1.385 -0.0311  0.0785  0.0697
26274W        W41121   3.872   2.544   2.795 -0.0782  0.0253 -0.1123
26275W        W41122  10.750   1.992   2.074  0.1356 -0.1658 -0.1951
26276W        W41123  15.836  16.422   5.685 -0.1243 -0.0999  0.1893
26277W        W41124  10.466  13.667  16.891 -0.1440  0.2882 -0.4850
26278W        W41125  15.580   0.041  12.217  0.0608 -0.1123  0.2203
26279W        W41126  16.587   9.623  15.018  0.0730 -0.1228 -0.0004
26280W        W41127   0.205   9.953   0.019 -0.2407 -0.0822 -0.0997
26281W        W41128  16.314   2.828  14.496  0.1227  0.1782  0.2359
26282W        W41129   4.433   6.166   5.275 -0.3070 -0.0334 -0.0350
26283W        W41130  11.802   0.929   5.347  0.1950  0.1004  0.1060
26284W        W41131  14.792   0.495   1.348 -0.0226  0.2517 -0.0068
26285W        W41132  17.343   5.713   0.622 -0.1576 -0.1586 -0.1015
26286W        W41133  15.114  12.163   2.261  0.1187 -0.0228 -0.0531
26287W        W41134   4.492   7.158  12.086  0.0609  0.4081 -0.2842
26288W        W41135   0.139  13.288   2.256 -0.3335  0.2195 -0.1364
26289W        W41136   0.627   4.284   0.671  0.0989  0.1041  0.0164
26290W        W41137  11.530   9.174   6.028  0.2209 -0.1196 -0.1030
26291W        W41138   0.637  17.603  10.903  0.1341  0.2293 -0.1302
26292W        W41139  10.724  16.856  12.932 -0.3288  0.1206 -0.0023
26293W        W41140  14.260   8.173  16.965 -0.3331  0.0502  0.1266
26294W        W41141  13.615   6.979  11.147  0.1803 -0.2507 -0.0714
26295W        W41142  16.532   6.731  12.182 -0.1170 -0.1676  0.0090
26296W        W41143  14.059   2.292   1.880  0.0588 -0.0629  0.2057
26297W        W41144  16.274   2.845  12.898  0.0428  0.4916 -0.0411
26298W        W41145  10.979  14.064   1.598  0.1456 -0.1336  0.1212
26299W        W41146  10.075  17.468  15.957 -0.0751 -0.1094  0.0222
26300W        W41147   9.710   5.161  15.127 -0.1061 -0.1137  0.0885
26301W        W41148  14.638   7.797  10.816 -0.0830 -0.0034  0.2044
26302W        W41149  12.580  12.410  14.725 -0.0051 -0.1001  0.0844
26303W        W41150   5.782   3.609   3.945 -0.0026  0.2231 -0.0586
26304W        W41151  13.797   4.303  11.171  0.2275  0.0134 -0.1769
26305W        W41152   3.625  16.544  14.159 -0.0319 -0.0768 -0.0710
26306W        W41153  17.570   7.318  12.925  0.2021  0.1541 -0.0212
26307W        W41154   8.357   7.555  13.338 -0.0462  0.0473  0.0758
26308W        W41155   1.517   8.986   3.896 -0.0511 -0.2871 -0.2351
26309W        W41156  16.965   6.300   0.161 -0.1574 -0.0003  0.0316
26310W        W41157   6.519   8.716   4.706  0.1408  0.0545  0.0963
26311W        W41158  10.496  17.325  16.266 -0.2110 -0.1212 -0.0105
26312W        W41159  15.763   9.636  14.983  0.1724  0.2139  0.1820
26313W        W41160  16.644   8.896   5.255  0.0514 -0.0357  0.0474
26314W        W41161  17.751   2.945  13.696  0.0547  0.1104 -0.3957
26315W        W41162   7.669   9.160  15.163  0.0899 -0.0652  0.0187
26316W        W41163  17.016  15.550   1.142 -0.3353  0.0522 -0.2524
26317W        W41164  11.071   3.215  14.762 -0.1628  0.2632 -0.0572
26318W        W41165  13.315   4.262   6.696 -0.1949  0.0347  0.1528
26319W        W41166  14.565   7.904   5.640  0.3119  0.2735 -0.0769
26320W        W41167  13.519   9.291  13.341 -0.1565 -0.2049  0.2884
26321W        W41168  10.687  11.926   0.143  0.3040  0.0646  0.2526
26322W        W41169  16.695  16.173   1.858  0.2031 -0.3211 -0.0852
26323W        W41170  14.132  13.857  12.823  0.1647 -0.3905 -0.3363
26324W        W41171  12.957   6.509   3.815  0.0662  0.1611 -0.3848
26325W        W41172  16.056  16.366  16.402 -0.0936  0.2148  0.1229
26326W        W41173   3.456  11.724  16.288 -0.1306  0.0015  0.1494
26327W        W41174  12.088   3.343   6.000  0.0707 -0.1195  0.2481
26328W        W41175  13.870  10.996  15.782  0.0469  0.2836  0.2426
26329W        W41176  13.232  11.793   1.856 -0.0258 -0.1264 -0.0720
26330W        W41177   2.258  10.961  14.768 -0.2354  0.3298  0.2531
26331W        W41178  14.434   0.955   1.400  0.3054  0.0449 -0.0285
26332W        W41179  15.640   4.788  16.562 -0.0197 -0.1128 -0.0341
26333W        W41180   1.582   6.284   1.389  0.1888 -0.1962  0.2757
26334W        W41181  10.625   9.920  11.546 -0.0388 -0.1342 -0.1179
26335W        W41182   4.833   6.305  14.910 -0.1107 -0.1536  0.2621
26336W        W41183   9.459  10.769  13.871  0.0484  0.0984 -0.4548
26337W        W41184  11.445   5.365   1.065 -0.1016  0.0142 -0.0239
26338W        W41185   7.964  16.741  15.295 -0.1572  0.1980 -0.1511
26339W        W41186  16.134  16.727   2.115 -0.0735 -0.0410  0.0039
26340W        W41187  12.051  12.963   3.726 -0.0349 -0.1533 -0.2447
26341W        W41188  13.309   5.080   0.920  0.0423  0.0164  0.4735
26342W        W41189  15.443   5.957  16.799  0.3323  0.2130  0.2244
26343W        W41190   6.440   0.930   4.750 -0.1006 -0.0337 -0.0497
26344W        W41191   8.366   1.963   0.412  0.3971 -0.1994  0.0856
26345W        W41192  10.857   7.499   2.249 -0.0504  0.1944 -0.0837
26346W        W41193  10.225   9.372  12.295 -0.2923  0.0713 -0.2131
26347W        W41194   0.127   0.380  14.923  0.3343 -0.0390  0.0635
26348W        W41195   3.201   8.693   2.088 -0.0122 -0.2095  0.0805
26349W        W41196   2.034  12.514  14.145 -0.2280  0.1943 -0.1576
26350W        W41197  13.950  12.097  16.853  0.1237  0.1840 -0.1108
26351W        W41198   0.280   5.658   5.640 -0.2261  0.0696 -0.0521
26352W        W41199  12.565   1.202  12.810 -0.0930  0.3891 -0.2205
26353W        W41200   3.838  15.340  14.705  0.1506  0.0322 -0.0227
26354W        W41201  17.088   4.578  14.043 -0.1533  0.0497  0.0031
26355W        W41202   9.050  17.719  13.546 -0.0643 -0.2170 -0.0662
26356W        W41203  14.649  14.971  10.750 -0.0952  0.1115  0.1269
26357W        W41204   2.941  14.711  13.014 -0.1225  0.0204  0.0666
26358W        W41205  14.891   0.488   3.111  0.0608 -0.1273 -0.3237
26359W        W41206  16.898  10.332  15.769  0.2347 -0.1259  0.3018
26360W        W41207  16.931   5.002  15.496  0.2100 -0.1267 -0.5532
26361W        W41208  11.428   2.156  15.516 -0.1712 -0.0806  0.1171
26362W        W41209   2.197  12.007  14.660  0.3270 -0.0545  0.1395
26363W        W41210  14.399  12.142   4.710  0.2138  0.2011  0.1228
26364W        W41211  17.072   3.715  11.449 -0.0618 -0.2505  0.2599
26365W        W41212  15.727  17.244  13.079 -0.0041 -0.4275 -0.1758
26366W        W41213  17.803   9.899  15.788  0.2590  0.0346  0.1547
26367W        W41214  14.727   1.204   0.623 -0.3293  0.3607 -0.2702
26368W        W41215   4.400   8.823  13.324 -0.0760 -0.0385  0.1069
26369W        W41216  17.196  12.703   4.098  0.0805  0.3089  0.1089
26370W        W41217  14.771  12.004  14.113  0.2903  0.0076 -0.1268
26371W        W41218  13.602   2.663   0.167 -0.6706  0.0780 -0.1441
26372W        W41219  12.000   3.008  15.338 -0.3314 -0.4396 -0.0385
26373W        W41220  11.560   7.050  16.617  0.1548 -0.2852  0.2851
26374W        W41221   1.271  11.628   0.582  0.0031 -0.0531  0.1651
26375W        W41222   1.246   0.648   0.099  0.1889  0.1852 -0.2875
26376W        W41223  11.701   8.891   1.557 -0.0810 -0.1411 -0.0110
26377W        W41224   7.937   4.164   1.492  0.0807  0.2191 -0.1058
26378W        W41225  15.902  14.391   1.850  0.1337 -0.0297 -0.2627
26379W        W41226  12.498  10.241  11.942  0.1023  0.0707 -0.1600
26380W        W41227  11.313  15.867   6.178 -0.1591 -0.0777  0.0180
26381W        W41228  14.649   9.858   6.108 -0.0112 -0.0394  0.1662
26382W        W41229   1.755  11.854   0.162 -0.1491 -0.2586 -0.1282
26383W        W41230  15.821  10.705   1.433 -0.1318  0.1160  0.2699
26384W        W41231  13.995  10.964   0.679 -0.1752  0.0053  0.1052
26385W        W41232  10.602   1.360   4.837 -0.2811  0.0680 -0.0200
26386W        W41233  15.059   4.267  14.284  0.2866  0.0625  0.1719
26387W        W41234  14.340   5.874   5.816 -0.0834  0.0129  0.0760
26388W        W41235  13.227   1.304   0.012 -0.0618  0.2951  0.1854
26389W        W41236  14.107   3.512  12.697  0.0126  0.0722 -0.1830
26390W        W41237  16.614   7.085  15.327 -0.2276  0.0978  0.0023
26391W        W41238  11.270   2.316   1.105  0.2199 -0.0749  0.0499
26392W        W41239  13.068   1.367   6.058  0.0219  0.3685 -0.1400
26393W        W41240  10.281   1.072  15.876 -0.0638 -0.0033  0.0187
26394W        W41241  11.241   3.615   5.244  0.1729  0.0754 -0.1497
26395W        W41242  10.930  16.365  14.301 -0.0460 -0.1345  0.4165
26396W        W41243  13.376   3.459  14.799 -0.0565 -0.3213  0.1926
26397W        W41244  14.407   9.867   0.580  0.0951 -0.0297 -0.2258
26398W        W41245   1.370   2.783   1.326 -0.1122 -0.1135  0.0570
26399W        W41246  16.909  12.364  14.233  0.0473  0.0053 -0.0442
26400W        W41247  10.996  14.902  15.959  0.2595  0.1068  0.0271
26401W        W41248   0.565   7.049   5.735  0.2318 -0.1418  0.2054
26402W        W41249   2.230   2.430   2.046  0.1158  0.0028 -0.2323
26403W        W41250   4.433   1.756  12.050  0.0549  0.2143 -0.0835
26404W        W41251  13.584   9.524  14.175  0.4420  0.0470 -0.2897
26405W        W41252  15.058  16.851  11.461 -0.1295  0.1095 -0.3716
26406W        W41253  15.942  14.616   2.758  0.3695  0.2303  0.2235
26407W        W41254  10.259   0.986   4.090 -0.2172 -0.0649  0.0439
26408W        W41255  12.835  13.917  15.746 -0.2155  0.0389 -0.2166
26409W        W41256  12.585  15.853  13.346 -0.0831  0.0233 -0.2066
26410W        W41257  12.954  10.933  14.689 -0.2407  0.0409 -0.2913
26411W        W41258  14.116   4.534  15.775 -0.0057 -0.0764  0.1088
26412W        W41259   8.799  16.381   1.664 -0.1661 -0.2460  0.1971
26413W        W41260   7.748  10.574  16.030  0.0213 -0.0163 -0.0605
26414W        W41261  15.597   6.713   0.271  0.1821  0.1189  0.1368
26415W        W41262  14.890  11.690  10.299 -0.1257 -0.0852  0.5124
26416W        W41263   4.095   8.866   3.242 -0.0345 -0.0630  0.0789
26417W        W41264  17.551  12.067  15.508 -0.6127 -0.0090  0.1871
26418W        W41265  15.565   2.297   5.509 -0.1099 -0.1113  0.0334
26419W        W41266   0.323  11.995   0.416  0.0932  0.2919  0.2463
26420W        W41267   1.844   4.348  14.181  0.1591  0.0164  0.0255
26421W        W41268  17.389   0.325   4.445 -0.1910  0.0168 -0.0608
26422W        W41269  12.184  16.502  15.675  0.0669 -0.1464 -0.4773
26423W        W41270  15.484  11.215  14.814 -0.1334 -0.2750  0.0925
26424W        W41271  15.798  17.703   4.802 -0.1469  0.0944 -0.0127
26425W        W41272   1.192   4.971   2.509  0.0270 -0.4460  0.0911
26426W        W41273   8.589   6.602   0.709 -0.0381  0.3378  0.1237
26427W        W41274   4.116  13.951  16.293 -0.1218  0.1691  0.0828
26428W        W41275   6.484   2.757  16.097  0.0705 -0.1768 -0.2290
26429W        W41276  12.996   7.720   2.790  0.2583  0.6131  0.2091
26430W        W41277  15.445   8.765  14.755 -0.2181 -0.2507 -0.1626
26431W        W41278  13.616  14.607  13.980 -0.4564 -0.2275 -0.3386
26432W        W41279  10.610   9.323  12.641  0.0043 -0.0478 -0.0569
26433W        W41280  14.219   1.435  13.035  0.2662  0.1794 -0.1307
26434W        W41281  11.767   0.322  15.652  0.0685  0.0318 -0.0059
26435W        W41282  13.886  13.174  14.072 -0.2920 -0.0947 -0.2081
26436W        W41283   1.371   4.436   3.739  0.0562 -0.1202  0.0455
26437W        W41284  16.620   2.599  14.940  0.5683  0.0965  0.2793
26438W        W41285  17.035  11.368  13.241 -0.2677  0.0955  0.0386
26439W        W41286  17.597   6.955   1.881 -0.0483  0.1382  0.2111
26440W        W41287   2.002   9.476   2.670  0.1235  0.1698  0.1177
26441W        W41288  10.440   8.682  13.575 -0.0556 -0.0571 -0.0992
26442W        W41289   7.685  13.758   0.718 -0.1256  0.0332 -0.1957
26443W        W41290  17.023  12.945   2.102 -0.2383 -0.0304  0.0038
26444W        W41291   0.868   3.263   1.627  0.0626  0.2298  0.0189
26445W        W41292  11.687   3.817  11.402 -0.0904  0.1521 -0.0404
26446W        W41293  15.457  10.644   0.645 -0.1788  0.2070 -0.0629
26447W        W41294  16.917   7.652   6.581  0.2875 -0.1158  0.1336
26448W        W41295  11.646   1.531   4.412  0.0129  0.3157 -0.2989
26449W        W41296   9.585   3.194   1.302 -0.0936 -0.1143 -0.2231
26450W        W41297   7.791  11.685  14.084  0.0336 -0.1043 -0.0076
26451W        W41298  15.353  16.401  12.223 -0.2590  0.0081 -0.0220
26452W        W41299   1.830   0.774   1.365  0.2040 -0.0560 -0.1654
26453W        W41300  12.444  17.518   0.429 -0.2647  0.0699  0.0092
26454W        W41301  14.427   0.816  10.529  0.1438  0.0899 -0.1444
26455W        W41302   0.464  12.877   2.542  0.0412 -0.1650  0.0851
26456W        W41303  10.970   1.694   2.601  0.1648 -0.3230 -0.3241
26457W        W41304  10.746   7.188  13.294  0.2152 -0.0066 -0.0210
26458W        W41305  17.255  17.805   3.996  0.3399  0.1806  0.2407
26459W        W41306  10.879   5.423  13.777 -0.1372  0.0997  0.1446
26460W        W41307   0.777   9.421   1.891 -0.0597 -0.1071 -0.0398
26461W        W41308  16.733  16.975  16.000  0.2477 -0.2684  0.0411
26462W        W41309  17.506  15.837  13.981  0.0226  0.3570 -0.0441
26463W        W41310  15.180  12.485   5.833  0.0126 -0.1516 -0.0390
26464W        W41311   6.017  12.237   4.700  0.1963 -0.3016 -0.2159
26465W        W41312  16.858   0.642  14.647  0.1804 -0.0754  0.0928
26466W        W41313   1.121   1.677  11.780 -0.1419 -0.3400 -0.0930
26467W        W41314  17.880   4.477   4.636  0.4221  0.3221 -0.0579
26468W        W41315   3.517   6.882  11.954 -0.0256  0.0812 -0.0332
26469W        W41316  12.006   7.965   3.379  0.1425  0.1050  0.0245
26470W        W41317   1.751   4.334  15.229  0.0582 -0.1562  0.1530
26471W        W41318  16.724  14.454  10.557 -0.0725  0.1546 -0.1845
26472W        W41319  15.131   0.051  15.163  0.0605  0.0735 -0.0257
26473W        W41320  17.473   2.687   2.012 -0.2055  0.1474  0.2354
26474W        W41321   4.397  13.257  13.616  0.0654 -0.2721 -0.1515
26475W        W41322   9.615  15.483  11.146  0.0892 -0.1065  0.0795
26476W        W41323   0.557   4.229   5.588 -0.0363  0.1285  0.1114
26477W        W41324  12.585  15.946   3.975 -0.0539 -0.0669 -0.1757
26478W        W41325   9.856   0.021  12.161  0.0353  0.2828 -0.3287
26479W        W41326   0.032   2.841  13.272  0.1480  0.1445 -0.3456
26480W        W41327   0.232   2.192  13.460 -0.0332 -0.0786 -0.0365
26481W        W41328  14.431  11.155   2.478 -0.1892  0.3954 -0.0445
26482W        W41329   5.910  16.054   0.509  0.2317 -0.3414 -0.3349
26483W        W41330  10.014   7.736  15.245 -0.1760  0.1060 -0.0606
26484W        W41331  14.786   2.371  15.048  0.0221 -0.0508  0.0311
26485W        W41332  11.638   0.229  13.603  0.0810  0.2087 -0.0627
26486W        W41333  15.564   7.932  10.465 -0.3896 -0.2532 -0.0657
26487W        W41334  10.730  10.375   7.030  0.0443 -0.0866 -0.0828
26488W        W41335   8.082  11.061   2.188 -0.0089  0.2687 -0.3443
26489W        W41336  16.233   5.658  16.134  0.1558  0.1997  0.1195
26490W        W41337  14.921   2.305   1.757 -0.1538 -0.1898 -0.2048
26491W        W41338  13.896  16.104  13.965  0.2995  0.1443 -0.1988
26492W        W41339   0.321   6.295   1.161 -0.0803  0.4935 -0.0719
26493W        W41340   2.010   5.762  14.196 -0.2314  0.1462  0.0275
26494W        W41341   9.946   1.909   5.770  0.2058 -0.0753 -0.0749
26495W        W41342   2.373   8.501  16.709  0.0973  0.2644  0.3441
26496W        W41343  14.295   7.819  11.918 -0.1734  0.0285 -0.1220
26497W        W41344   7.607   5.339   6.697 -0.0928  0.1764 -0.4180
26498W        W41345  16.330   5.782   0.261  0.2178 -0.2316  0.1336
26499W        W41346  12.902   2.319   3.635  0.1117  0.1692  0.2407
26500W        W41347  15.136  16.300   3.077  0.2091  0.2143  0.1682
26501W        W41348  10.732   4.108  12.982 -0.1907  0.1934  0.1571
26502W        W41349  12.547   6.212  11.897 -0.0942  0.0170  0.0363
26503W        W41350  14.008   1.796  11.280 -0.0505 -0.0238 -0.0862
26504W        W41351  11.707  11.010   4.946  0.1079  0.0229  0.0561
26505W        W41352  10.560   1.686  16.419 -0.0310  0.0224  0.3955
26506W        W41353  10.959   6.131   4.540  0.0890 -0.2343 -0.4212
26507W        W41354  17.195   5.225   2.360  0.2027 -0.0924 -0.1809
26508W        W41355  15.778   0.146  13.372 -0.0192  0.4883  0.3668
26509W        W41356  14.063   4.089  16.786 -0.2892  0.3948  0.5355
26510W        W41357   7.761   8.196   1.333  0.2294 -0.0286 -0.0966
26511W        W41358   8.785  13.035  10.996 -0.2334 -0.3695  0.2181
26512W        W41359  11.608   4.935   5.657 -0.1023 -0.1003  0.1486
26513W        W41360  13.729   2.370   2.710 -0.3246  0.3950 -0.0483
26514W        W41361  15.950   8.583  13.400  0.0134  0.4065 -0.0247
26515W        W41362  12.684   9.207  11.676 -0.2576 -0.0772  0.2183
26516W        W41363  13.399   7.828   5.542  0.1776  0.1847  0.1685
26517W        W41364   2.969   9.418   3.058  0.0804 -0.3572 -0.1498
26518W        W41365   8.474  16.217   0.112 -0.1036 -0.2124 -0.0003
26519W        W41366  17.428   2.319   2.393  0.1800  0.0222 -0.2873
26520W        W41367   7.234   5.458  15.610  0.1540  0.0998  0.1269
26521W        W41368  17.578  17.159   5.115 -0.2470  0.0257  0.2336
26522W        W41369  14.940   2.725  15.842 -0.2231  0.1006 -0.0475
26523W        W41370  15.226   4.779   4.814  0.1237  0.1668  0.4720
26524W        W41371   3.325  13.082   2.828 -0.0719  0.1771 -0.2368
26525W        W41372  12.903  14.777  13.514  0.3502  0.0027  0.0540
26526W        W41373  10.331  14.671   6.232 -0.0642  0.0492  0.1320
26527W        W41374  12.884   3.631  14.719 -0.2800  0.3548 -0.2065
26528W        W41375  14.820  16.222  13.918  0.3421  0.1896 -0.0712
26529W        W41376   0.808  12.087  14.909  0.1908  0.0907 -0.0434
26530W        W41377  16.539  14.533   0.024 -0.2652 -0.2095 -0.2211
26531W        W41378  15.419  12.526  14.273 -0.1774 -0.0472 -0.0722
26532W        W41379   2.187   5.975   4.564  0.1671  0.1534 -0.1364
26533W        W41380  14.222  17.034   2.372 -0.3960 -0.0035 -0.0036
26534W        W41381  14.002   5.286  12.086  0.1236  0.0122 -0.1757
26535W        W41382  12.558   0.090   2.339  0.1489  0.1157  0.0642
26536W        W41383   4.477  13.811  16.663 -0.1893 -0.1116 -0.0686
26537W        W41384  13.290  13.931   5.906 -0.2883  0.0465  0.1383
26538W        W41385  13.325  12.382   4.052 -0.0824 -0.4925  0.0861
26539W        W41386  15.397  12.524   3.957 -0.4497 -0.2619  0.0403
26540W        W41387   6.495  10.943  13.809 -0.2967 -0.1115 -0.1317
26541W        W41388   2.464  10.283  16.739  0.1635  0.2137 -0.0761
26542W        W41389   9.823   5.588   2.805 -0.0481 -0.2355  0.2179
26543W        W41390  11.268  13.674   6.224 -0.0232 -0.0038 -0.0470
26544W        W41391  14.248  10.503  15.144 -0.1538 -0.3070  0.2537
26545W        W41392  11.974   4.808  14.222  0.1396  0.1508 -0.1914
26546W        W41393  15.001  16.962  15.037 -0.0486 -0.0017 -0.1283
26547W        W41394  14.145   8.634  13.382  0.0766 -0.1537 -0.3250
26548W        W41395  13.002   8.410  16.453 -0.0636  0.0928 -0.0728
26549W        W41396  13.215   1.035   5.308 -0.3043  0.0352 -0.1194
26550W        W41397  13.812  11.237  11.609 -0.1456 -0.0169 -0.0746
26551W        W41398  16.300   4.725  16.930 -0.0283 -0.2656 -0.0139
26552W        W41399  16.005   7.121   1.338  0.0963  0.0331 -0.2114
26553W        W41400  17.157  16.815  13.134  0.1395 -0.0200 -0.3162
26554W        W41401  16.357   4.864  13.839 -0.3180 -0.0047  0.0623
26555W        W41402  14.834   1.481  15.729  0.2579 -0.1418  0.0409
26556W        W41403  13.788   4.572   3.298 -0.1723 -0.3192 -0.0966
26557W        W41404   8.540   3.978   5.504 -0.1661 -0.0779 -0.0040
26558W        W41405  11.500  11.223  12.861 -0.0580 -0.1992  0.0158
26559W        W41406   9.350   6.432   3.637  0.0947  0.1222 -0.1264
26560W        W41407  12.252  10.707   6.680 -0.0164  0.1699  0.2343
26561W        W41408   7.390   3.226  13.482  0.4330  0.2119 -0.1803
26562W        W41409  13.770   4.593   2.305  0.1510 -0.4549 -0.0599
26563W        W41410  16.081  11.475   0.277 -0.1718  0.0891  0.1891
26564W        W41411   0.511   2.501   1.863  0.0673  0.0318 -0.1238
26565W        W41412  16.585  13.522  13.547  0.0792 -0.0175 -0.0388
26566W        W41413   6.195   0.632   0.945 -0.0838 -0.0813  0.3377
26567W        W41414  12.473  13.364  13.726  0.0441 -0.2321  0.1311
26568W        W41415   9.534  10.377  15.838 -0.2605  0.2471 -0.1210
26569W        W41416   3.740   4.923  16.587  0.2414  0.5099 -0.1142
26570W        W41417   9.328  13.376   1.787  0.0446  0.3261  0.2774
26571W        W41418  14.873  12.199   0.867 -0.2018 -0.1877  0.2195
26572W        W41419   6.754   7.894  14.357  0.0287 -0.0421 -0.0814
26573W        W41420  10.517   6.193  12.655 -0.1085 -0.1964  0.1624
26574W        W41421   9.603   8.059   6.034  0.0142 -0.2663 -0.0847
26575W        W41422  11.183   6.434   4.128  0.2777 -0.1320  0.0075
26576W        W41423  17.390  16.735  14.484 -0.0121 -0.1877 -0.0788
26577W        W41424  17.165   8.765   4.449  0.1141  0.0538 -0.1870
26578W        W41425  10.134  13.478  12.683 -0.0218 -0.0759 -0.0322
26579W        W41426  13.659   3.355  12.456  0.1294 -0.0271  0.0405
26580W        W41427  14.872   0.303   0.244 -0.0721  0.1804 -0.1345
26581W        W41428  17.216   4.332  14.962  0.0760 -0.0166  0.3675
26582W        W41429  17.202  17.635  16.518  0.2014 -0.0222 -0.0668
26583W        W41430  17.527  10.367  10.681 -0.1489  0.3228  0.1520
26584W        W41431  16.030   2.005  16.514  0.3184  0.0503  0.2254
26585W        W41432  12.947   6.423  15.959 -0.1400 -0.4069 -0.1484
26586W        W41433  14.094   7.064  11.492 -0.3431 -0.0051  0.0159
26587W        W41434  13.753  13.765  14.302 -0.1506  0.1958 -0.0606
26588W        W41435  15.282  13.722  13.415  0.0533 -0.1993  0.0364
26589W        W41436  11.183   4.465   4.213  0.0246  0.2861 -0.0725
26590W        W41437  16.181   7.766  10.318 -0.0195  0.1814 -0.1225
26591W        W41438   0.386  12.988   5.639  0.1055 -0.0114 -0.2488
26592W        W41439  15.171  14.483  12.471  0.1075 -0.1836 -0.2635
26593W        W41440  16.278  12.725  13.021  0.2027  0.3246  0.1810
26594W        W41441  17.280   0.926   2.271 -0.0999 -0.0236 -0.0544
26595W        W41442   8.912   1.524   0.950 -0.0035 -0.1482 -0.1681
26596W        W41443  12.671   3.635  11.646 -0.1868 -0.2379  0.0464
26597W        W41444  14.516  10.703   2.736  0.2167  0.1149 -0.0300
26598W        W41445  13.755   4.048  16.316  0.1099 -0.2932 -0.0638
26599W        W41446  11.053  16.821   0.853 -0.0494  0.0277  0.0472
26600W        W41447  15.687   5.015   4.850  0.0580 -0.0989 -0.1092
26601W        W41448   9.772   4.919   6.248  0.0675  0.1137  0.4073
26602W        W41449  14.505   4.544   5.604  0.2985  0.1333 -0.1672
26603W        W41450   1.394   7.129  16.987  0.1899  0.0083  0.0150
26604W        W41451   3.789   5.845   3.969  0.2290 -0.3480 -0.2318
26605W        W41452  16.498   5.114  15.715 -0.2542 -0.2504 -0.2769
26606W        W41453  14.689   4.228   4.707  0.5504 -0.0260 -0.1509
26607W        W41454  12.561   3.968  13.528  0.4919  0.0936  0.3656
26608W        W41455   5.246  16.393   1.854 -0.2014 -0.3873  0.0441
26609W        W41456  10.389   4.887  11.939  0.1844  0.3575  0.0772
26610W        W41457   0.997   4.893   5.880  0.2100 -0.0511  0.4665
26611W        W41458  12.401   3.481  13.375  0.2500  0.2604 -0.0664
26612W        W41459  12.201   7.464  14.612 -0.0100 -0.0647  0.0639
26613W        W41460  16.692  17.043  10.117  0.0209 -0.1146 -0.1239
26614W        W41461  13.351  15.165   1.002 -0.0544 -0.0282 -0.1271
26615W        W41462  16.331  13.981   0.750  0.2988  0.0213  0.0782
26616W        W41463  13.839   0.086  10.895  0.0658 -0.3124 -0.1380
26617W        W41464   9.234   4.669   2.151 -0.1138 -0.0853  0.1080
26618W        W41465  14.377  17.084  13.401  0.1218  0.1240  0.1918
26619W        W41466   0.532  10.008  14.766 -0.0433 -0.0615 -0.2515
26620W        W41467   9.501  16.172   3.378  0.0517  0.3225  0.0368
26621W        W41468  13.027  11.749   6.252 -0.1309 -0.0210 -0.0325
26622W        W41469  12.674  11.349  13.769 -0.0408 -0.0342 -0.2218
26623W        W41470  12.283   6.575   4.545 -0.0137  0.0117 -0.0093
26624W        W41471  11.232  16.403  15.996  0.2057 -0.1258 -0.2708
26625W        W41472  17.928  10.782   2.204 -0.1010  0.1879  0.2100
26626W        W41473  17.307  12.189  13.906 -0.0781 -0.0534 -0.0631
26627W        W41474  12.693  16.979  11.585  0.0279  0.2827  0.0747
26628W        W41475  13.992   3.754  15.065 -0.0888  0.1858  0.1270
26629W        W41476  17.754   1.577   3.466 -0.1659 -0.0975 -0.4808
26630W        W41477   4.491  11.385   4.386  0.1104 -0.5003 -0.0935
26631W        W41478   3.333   9.632   4.583 -0.0607 -0.1463 -0.3887
26632W        W41479   5.812   3.351   5.802 -0.2815 -0.0166 -0.0293
26633W        W41480  14.462  13.937  16.753 -0.1358 -0.0789  0.1428
26634W        W41481   9.672   2.602  11.701 -0.0068  0.0211  0.0484
26635W        W41482   7.375  11.248   1.326 -0.0907  0.5557  0.3485
26636W        W41483   3.661   4.133   2.197 -0.0878 -0.0242  0.0249
26637W        W41484   2.310   4.558   3.985 -0.1969 -0.0305 -0.3257
26638W        W41485   6.328   6.982   3.778 -0.1023  0.0891  0.1117
26639W        W41486   7.004   2.962   2.377  0.1682  0.1099  0.0895
26640W        W41487   5.873   9.471  12.342 -0.0266  0.1860 -0.0380
26641W        W41488   6.254   2.690  12.875  0.1451 -0.1386 -0.1284
26642W        W41489  12.584   8.729  16.685  0.0364 -0.0421  0.2279
26643W        W41490   2.074  11.407  11.820  0.0550 -0.1011 -0.0837
26644W        W41491  11.243   3.389   0.245  0.0237  0.1640 -0.2281
26645W        W41492   0.243   5.855  11.875  0.2783 -0.2303  0.0562
26646W        W41493  10.695   3.089   4.560  0.1214  0.1875 -0.2232
26647W        W41494  15.994  17.418   5.731 -0.0726 -0.0016  0.0068
26648W        W41495  14.118   5.507   2.899 -0.0063 -0.0598  0.0867
26649W        W41496  16.062   7.486   2.929 -0.0673  0.0898  0.2743
26650W        W41497  12.608   8.454   4.482  0.2353  0.0587  0.1802
26651W        W41498   0.895   7.393  12.728  0.1624 -0.0162 -0.0667
26652W        W41499   9.338   1.743   2.263 -0.1812 -0.0027 -0.1153
26653W        W41500  15.777   5.334   1.840  0.0197 -0.0556  0.2627
26654W        W41501  13.347  14.177   1.839 -0.3916 -0.0183  0.0330
26655W        W41502  12.896  12.681  16.329  0.0941  0.0657  0.0029
26656W        W41503  14.698  11.972   1.359 -0.2252 -0.0208 -0.3036
26657W        W41504  11.687   5.450   0.563 -0.0273  0.2664 -0.2060
26658W        W41505  15.799   5.320  16.359  0.0472  0.1343  0.2285
26659W        W41506   8.055  12.471  12.656  0.0531  0.1103 -0.1716
26660W        W41507  16.651   7.149  12.941  0.3732 -0.0107 -0.0709
26661W        W41508  16.700   7.204  14.427  0.1484  0.3216  0.2161
26662W        W41509   1.635  10.802   5.477 -0.2194 -0.0964 -0.3076
26663W        W41510  17.954   4.009  14.575  0.1918  0.0699 -0.1511
26664W        W41511  12.830   4.797   5.904 -0.6473 -0.0505  0.2543
26665W        W41512   9.460  17.749   6.540 -0.1871  0.0119  0.1165
26666W        W41513  12.655  15.981   6.407 -0.3241 -0.1465 -0.0642
26667W        W41514   8.045  11.818  16.252  0.1118  0.3068  0.1044
26668W        W41515   1.117   2.735  10.828 -0.1968  0.2452 -0.0740
26669W        W41516  17.919   3.902   4.162  0.0255 -0.1028  0.1454
26670W        W41517  13.249   3.332   0.935 -0.0217 -0.0914 -0.1639
26671W        W41518  11.942   1.281  11.587 -0.0823  0.1006  0.1003
26672W        W41519  13.742   7.991   4.701 -0.4147 -0.0533 -0.0225
26673W        W41520  17.148  12.875   1.145  0.5408 -0.0868 -0.0858
26674W        W41521   8.137   9.495   0.928  0.0406  0.0182 -0.1193
26675W        W41522  13.236  12.155  15.205  0.1474  0.0656  0.1633
26676W        W41523   8.783  16.311  15.007 -0.0076  0.1180 -0.0184
26677W        W41524  16.292  14.495  10.844 -0.1793  0.2120 -0.0920
26678W        W41525   7.043   5.369   1.637  0.1342 -0.1928  0.0866
26679W        W41526  15.979   3.027   1.390 -0.0721  0.0585 -0.3065
26680W        W41527  17.409  10.618  15.938  0.1527 -0.1114  0.1779
26681W        W41528  14.762   8.224  13.139  0.1424  0.1845 -0.0790
26682W        W41529  15.237  15.555  10.955 -0.3765 -0.1966 -0.3652
26683W        W41530  15.830  14.689   3.959  0.0627 -0.0464 -0.0294
26684W        W41531  10.252   6.674   2.904 -0.0068 -0.0999 -0.3251
26685W        W41532  16.308   5.572  15.066  0.4571 -0.1968 -0.0103
26686W        W41533  15.497  13.993  15.976  0.0097  0.0537  0.2954
26687W        W41534  10.851  15.317  16.834 -0.0462 -0.1364 -0.0641
26688W        W41535   2.255   4.674  14.027 -0.1614 -0.2263  0.1600
26689W        W41536  14.096   2.784  15.188 -0.1509  0.0976  0.3356
26690W        W41537   0.406   1.957  16.541  0.1377 -0.0883  0.3898
26691W        W41538   0.760   2.877  14.434  0.1421 -0.2383  0.0670
26692W        W41539  13.865  11.861  11.122  0.1872  0.0214 -0.3819
26693W        W41540  16.538   5.662   6.246 -0.0656  0.0782 -0.1009
26694W        W41541  11.898  14.224  13.004  0.0553 -0.2448 -0.2072
26695W        W41542  15.733   2.766  15.959 -0.0194 -0.1003 -0.0038
26696W        W41543  11.946   0.234  13.190 -0.1326  0.0535 -0.5473
26697W        W41544   4.564  13.967   3.351  0.0129 -0.2183 -0.3459
26698W        W41545  14.573  13.701  15.864  0.4612 -0.1636 -0.0299
26699W        W41546   1.010   6.953  16.156 -0.1242  0.0501 -0.2817
26700W        W41547   2.416  12.608   4.103  0.1015  0.1236 -0.1520
26701W        W41548   6.990  10.579  15.652  0.0325  0.0350 -0.1120
26702W        W41549   5.575   8.460   2.316  0.1804  0.3020 -0.1376
26703W        W41550  10.396  15.452  14.297 -0.1263  0.2110  0.1312
26704W        W41551  13.807   6.034   4.873  0.1615  0.0035  0.1210
26705W        W41552   0.415   0.753  15.668 -0.0133 -0.0036  0.2336
26706W        W41553   2.611  12.097   5.053 -0.1462  0.0002 -0.1449
26707W        W41554  11.887   7.816   2.345 -0.1756  0.0056  0.1249
26708W        W41555  17.079   6.542  13.528 -0.1525  0.2559  0.0230
26709W        W41556  13.447   3.859   2.133 -0.1818  0.0427 -0.0716
26710W        W41557   8.781   9.323   0.974  0.1784 -0.1690 -0.0589
26711W        W41558  17.234   8.328  14.590  0.0499 -0.0137  0.1661
26712W        W41559  10.335   4.893  15.512 -0.0742 -0.2181 -0.1366
26713W        W41560   0.961   1.924   2.321  0.2259 -0.1864  0.3212
26714W        W41561  16.003   3.053  11.770 -0.2268  0.0468  0.1655
26715W        W41562  12.725  16.722  15.486  0.1340  0.0552 -0.0738
26716W        W41563  15.432  12.254   4.516  0.1125 -0.0447  0.0604
26717W        W41564  13.925  12.283  16.349 -0.2203 -0.3901  0.1313
26718W        W41565  14.313   3.342  13.114  0.1881 -0.1484  0.2147
26719W        W41566  11.224   0.983   5.984  0.1109  0.1785  0.0466
26720W        W41567   0.543  16.622   2.055 -0.2653  0.0515 -0.0689
26721W        W41568  17.697   2.869  12.870  0.2650  0.0735  0.2127
26722W        W41569   5.027   2.342   2.272 -0.1582 -0.1105  0.1709
26723W        W41570  16.361   0.633  10.781 -0.3382 -0.1084  0.0959
26724W        W41571   9.947   5.145   1.664 -0.0414 -0.3173  0.1304
26725W        W41572  14.403  10.533   1.884 -0.1009 -0.0269  0.1419
26726W        W41573  15.037   5.961  14.782  0.0526  0.0876  0.3180
26727W        W41574  12.962   3.689  11.257  0.0925 -0.1331  0.3715
26728W        W41575  16.295   5.176   2.476  0.0557  0.0262 -0.0843
26729W        W41576   4.300  10.994   3.224  0.1787 -0.1356  0.0837
26730W        W41577  17.571  12.561  16.442  0.1101  0.0778 -0.0982
26731W        W41578   2.739  12.656   0.958  0.0867 -0.3838 -0.1025
26732W        W41579   1.965  10.371   6.277  0.2297  0.3244 -0.0001
26733W        W41580  14.005  16.697  16.884 -0.3666  0.2646 -0.3724
26734W        W41581   4.613  15.270   0.194 -0.0917 -0.2829  0.1871
26735W        W41582  17.207   6.064   2.438 -0.0818  0.1672  0.2255
26736W        W41583  14.281  15.394   0.965  0.1811 -0.2420 -0.1820
26737W        W41584   8.423   8.884  12.558 -0.1891  0.0683 -0.1702
26738W        W41585  12.397  14.514   0.422 -0.2484  0.1012  0.0487
26739W        W41586   5.043  11.969  14.040 -0.2735  0.0521  0.0787
26740W        W41587  14.928  14.741   5.948  0.0061 -0.0129  0.1808
26741W        W41588  10.592  10.002   0.241  0.0230  0.1614 -0.1482
26742W        W41589  14.111   2.497  12.077 -0.3972 -0.2724 -0.1739
26743W        W41590  14.617  17.545  10.575  0.0343  0.2634  0.2688
26744W        W41591  12.657   9.737   5.628  0.2346  0.0518  0.2933
26745W        W41592  14.755   0.111   3.596 -0.1536  0.0344 -0.3623
26746W        W41593  11.116   0.424  13.549 -0.1420  0.1098  0.1019
26747W        W41594   1.107  15.312  16.244 -0.1834 -0.0985  0.5990
26748W        W41595  14.817  11.765   4.834 -0.0520 -0.1183  0.5498
26749W        W41596  14.368   1.643  15.351  0.0705  0.1074  0.0283
26750W        W41597  14.482  10.234   0.172 -0.3723  0.0495  0.0971
26751W        W41598  14.161  13.096  12.665 -0.0407 -0.0536 -0.1820
26752W        W41599   7.965  10.871   3.470  0.2516  0.0843  0.0222
26753W        W41600  15.247  10.440   0.257 -0.1855  0.1232  0.2614
26754W        W41601  15.762   2.795   2.955 -0.0793 -0.0854  0.2908
26755W        W41602   3.336  16.406  11.549 -0.0737  0.0865 -0.1063
26756W        W41603  17.492  12.166   4.868 -0.4450  0.0150 -0.0885
26757W        W41604  17.445   3.626  16.733  0.1236  0.3050 -0.2689
26758W        W41605   8.211   9.258   3.835  0.0771 -0.1954 -0.3012
26759W        W41606  11.281   2.971   0.558 -0.2167  0.0838  0.1806
26760W        W41607  16.637  14.685  13.326  0.0072 -0.1220  0.2221
26761W        W41608  10.986  15.590  12.126  0.0652 -0.1917  0.0711
26762W        W41609  14.749   1.426   2.673 -0.3624  0.2688  0.1876
26763W        W41610  15.358  17.473  14.376  0.0498 -0.3128  0.0947
26764W        W41611  12.376   9.496  12.509  0.0628 -0.1268 -0.0477
26765W        W41612  10.110   7.329  15.617 -0.2248  0.0233  0.6048
26766W        W41613  16.201   5.517  16.683  0.0986 -0.0874 -0.1216
26767W        W41614   0.507  13.358   4.631  0.1140  0.1452  0.0022
26768W        W41615  14.452   0.707  11.378  0.4773 -0.1379 -0.0221
26769W        W41616  11.092  17.641  12.460 -0.1383 -0.0628  0.1141
26770W        W41617  12.878  16.682   1.980  0.0465  0.0907  0.1045
26771W        W41618  15.634   9.110  11.780  0.1350  0.1026 -0.0051
26772W        W41619   7.600   2.910  12.966 -0.0116  0.0233  0.1604
26773W        W41620  16.127  13.071  13.436 -0.1120 -0.0279 -0.0939
26774W        W41621   8.269  13.312   3.722 -0.1095  0.0129 -0.1953
26775W        W41622  15.098  14.839   2.342  0.1741  0.1361  0.1859
26776W        W41623  10.547  10.393  12.946 -0.1422 -0.2098  0.3649
26777W        W41624   3.089   6.697   3.274 -0.1353  0.2317 -0.0559
26778W        W41625  15.906  16.859  16.498 -0.1892  0.1548  0.0419
26779W        W41626   5.136   3.272  15.479  0.0025 -0.2586 -0.0417
26780W        W41627  16.743   9.646   4.290 -0.0041  0.0977  0.3323
26781W        W41628  16.070  16.981   4.009  0.2060 -0.2158  0.0144
26782W        W41629   0.939  10.221  11.387  0.1805  0.1046 -0.1219
26783W        W41630  11.023   9.268  15.390 -0.2115 -0.1371  0.1230
26784W        W41631  10.472   5.123  13.685  0.2093  0.1603  0.0564
26785W        W41632  15.160  13.772  17.027 -0.0527  0.3538  0.2338
26786W        W41633  12.509   1.371  13.792  0.1403 -0.1136 -0.1017
26787W        W41634  12.900   1.052   6.429 -0.0148  0.1284 -0.0849
26788W        W41635  16.662   8.764   0.912  0.1177 -0.0338  0.2206
26789W        W41636  12.472   5.694  14.115  0.1056 -0.1256 -0.0609
26790W        W41637  15.125  14.009   5.802  0.3272 -0.2190 -0.0746
26791W        W41638  15.119   4.088  16.590  0.1451 -0.0560  0.1377
26792W        W41639   0.904  16.637  10.762 -0.0947  0.1180 -0.2622
26793W        W41640  10.058   6.002   0.048  0.1132  0.0981 -0.2644
26794W        W41641  14.189  15.469  13.036 -0.1548  0.2382  0.3571
26795W        W41642  15.730  10.241   3.686 -0.1218 -0.0732  0.1850
26796W        W41643  17.455  12.577   2.057  0.2294 -0.0898  0.0681
26797W        W41644  13.852   2.722   3.369  0.3108  0.0564 -0.0235
26798W        W41645  10.305  13.968   0.388 -0.0629 -0.1489  0.3564
26799W        W41646   9.233   1.944  12.203  0.0217 -0.4218 -0.1204
26800W        W41647  12.230   5.433   4.381 -0.0316  0.5894 -0.1910
26801W        W41648  14.265   2.956   5.949  0.0467  0.2599  0.1608
26802W        W41649  14.149   1.121   5.462  0.0839  0.0151 -0.0253
26803W        W41650  14.202  16.095   3.345  0.1771 -0.0990  0.1152
26804W        W41651  16.776  16.743  11.711 -0.2711 -0.0025  0.3193
26805W        W41652  11.667   6.438  14.105  0.1963 -0.0450 -0.1478
26806W        W41653   9.800   5.836   5.347 -0.0474 -0.1117  0.0896
26807W        W41654   9.511  15.887   4.440 -0.1640  0.1825  0.0811
26808W        W41655  12.794   3.408  16.808 -0.4678  0.2340  0.2423
26809W        W41656   2.863  14.835   2.895 -0.1005  0.0994 -0.0011
26810W        W41657   2.132   2.149  16.757  0.1825 -0.2674 -0.1513
26811W        W41658  13.052   2.851  12.001  0.0032  0.1176  0.1586
26812W        W41659  17.796  12.211   2.195  0.0285 -0.0415  0.3313
26813W        W41660   0.907   4.567   2.283 -0.1532  0.4072  0.1877
26814W        W41661   3.226   2.484   4.475  0.2877 -0.1819  0.0216
26815W        W41662   9.695   0.497  13.057  0.0563 -0.1718 -0.1858
26816W        W41663   7.360   4.924  13.294  0.1615  0.2753  0.1206
26817W        W41664   7.778  14.125  15.608 -0.2572  0.1783  0.0112
26818W        W41665   9.980   4.228  14.113 -0.0343 -0.1702 -0.3669
26819W        W41666  14.887   8.572   3.770  0.1856 -0.1002  0.1217
26820W        W41667   1.220   3.758   2.232  0.2411 -0.0363 -0.0430
26821W        W41668  15.964  17.617   2.356 -0.0425  0.0179 -0.1028
26822W        W41669   1.954   0.086  10.445 -0.2953  0.4026  0.0312
26823W        W41670  10.386   4.638  13.474  0.3069  0.1103 -0.3599
26824W        W41671  16.154   4.408   1.665  0.0257  0.1554  0.0708
26825W        W41672  17.501  14.559   1.052 -0.3216  0.0018 -0.0804
26826W        W41673   0.281   8.958   1.162 -0.0323  0.0971 -0.1716
26827W        W41674  17.661   0.703   3.131  0.0225  0.2806 -0.0801
26828W        W41675   2.213   2.951  13.265  0.0493 -0.2882  0.1790
26829W        W41676  12.188  14.934  12.775 -0.0924 -0.3712 -0.0754
26830W        W41677   1.836  17.153  14.812 -0.0701 -0.0322  0.0805
26831W        W41678  16.122   9.869   6.143  0.0828  0.3415  0.1060
26832W        W41679  17.409   8.328   1.726 -0.0639  0.0273  0.0926
26833W        W41680  13.018   3.489   2.879 -0.4225  0.0945  0.0289
26834W        W41681  11.895   1.438  13.863  0.1801  0.0151 -0.1747
26835W        W41682  16.450  13.737   4.304 -0.1587 -0.3542 -0.1963
26836W        W41683   6.648   8.527   1.778  0.2224  0.0091  0.0794
26837W        W41684   0.680   2.985   4.408 -0.0469 -0.0332 -0.0113
26838W        W41685  15.120  16.076   4.057 -0.0072 -0.1540 -0.0506
26839W        W41686   1.342   8.411   0.135  0.2610  0.2195  0.2449
26840W        W41687  11.981   0.207  12.407 -0.0158 -0.2839  0.2085
26841W        W41688  16.286  16.295  15.015  0.1054 -0.1253 -0.1032
26842W        W41689  11.559  17.060  16.397  0.2286 -0.0120  0.1999
26843W        W41690  16.889   3.771   2.665  0.1099 -0.0534  0.1928
26844W        W41691   7.481   6.488   3.816  0.0374 -0.2846  0.2764
26845W        W41692  10.227   2.467  16.930 -0.1299  0.0192 -0.0017
26846W        W41693  11.591  13.749  14.969 -0.0035  0.3187  0.2151
26847W        W41694   5.244   3.373  14.293  0.4949 -0.0317  0.1855
26848W        W41695  17.260   2.005  12.598  0.1215 -0.0745  0.1893
26849W        W41696   2.028  13.047  14.056 -0.3055  0.0453  0.0647
26850W        W41697  15.801   2.486  11.047  0.1612  0.3508  0.0974
26851W        W41698  15.681  10.040  14.506 -0.1459 -0.3041 -0.1747
26852W        W41699   4.697  10.909  15.169  0.0360  0.1135  0.5847
26853W        W41700  13.022   1.435  11.992  0.1550 -0.0118  0.2529
26854W        W41701  12.268   7.423  12.417 -0.0006 -0.4791 -0.3463
26855W        W41702  16.889   0.574  13.270  0.0214  0.0980  0.2304
26856W        W41703  11.248  17.106  11.257  0.1609  0.1371  0.3228
26857W        W41704  12.403  13.850   3.806  0.2206 -0.2128  0.0190
26858W        W41705  13.033   9.260   4.851 -0.0458  0.0146 -0.0929
26859W        W41706  15.958   6.441   6.153  0.2651 -0.0422 -0.1817
26860W        W41707  17.939   0.181   3.018  0.0170 -0.0054 -0.0455
26861W        W41708  12.243  13.706  16.403  0.0535 -0.0927  0.0917
26862W        W41709   9.190   1.117  12.890 -0.0655 -0.2381 -0.1063
26863W        W41710   3.940  16.287  12.649  0.1390  0.0555  0.3723
26864W        W41711   0.396  11.772  16.990  0.2082 -0.0993  0.0346
26865W        W41712   8.587  11.567  13.648 -0.2392 -0.0622  0.0162
26866W        W41713   0.143   3.574  14.836 -0.2529 -0.0008 -0.0901
26867W        W41714   9.065   7.797   0.210  0.1155 -0.2013  0.2660
26868W        W41715   9.986  11.580   5.222  0.1017  0.1656 -0.1136
26869W        W41716  14.131  10.159   2.439 -0.2072 -0.2093  0.2150
26870W        W41717   3.100  11.152   2.008 -0.1995  0.1583 -0.5261
26871W        W41718   8.285   7.898   4.162  0.0985 -0.0209 -0.0289
26872W        W41719  12.262   1.921   6.987  0.4141 -0.0797 -0.0941
26873W        W41720  10.910   3.441  12.732  0.0856 -0.1180 -0.0820
26874W        W41721  12.384  12.260  15.844 -0.1814  0.0827  0.2728
26875W        W41722  12.623   7.240  15.805 -0.0535  0.0297  0.1854
26876W        W41723   0.144  16.389  16.217 -0.0942 -0.0277  0.1975
26877W        W41724  14.887   8.779   5.510  0.0185  0.0141 -0.2009
26878W        W41725   4.249   8.662   6.039  0.0946  0.1132  0.2192
26879W        W41726   5.986   9.551   5.153  0.0387 -0.2785 -0.1746
26880W        W41727  11.414  12.602  15.253 -0.3201  0.0939 -0.0026
26881W        W41728  10.590  17.698   3.602 -0.0679  0.1117  0.1994
26882W        W41729   3.002   6.246  11.515  0.2164  0.0758  0.1943
26883W        W41730   0.548   3.931   3.468 -0.2895  0.1786 -0.3896
26884W        W41731  16.840   7.234   0.596  0.2944 -0.0639 -0.1179
26885W        W41732   2.702  11.630   5.066 -0.2989  0.0078  0.3352
26886W        W41733  16.179  13.301   1.109 -0.1041  0.1087 -0.2379
26887W        W41734   8.239   6.276   4.358  0.1760 -0.0135  0.1853
26888W        W41735  17.124  12.543  16.654  0.0546  0.0485  0.1704
26889W        W41736  16.921   2.990  16.448  0.0728  0.1263  0.0932
26890W        W41737  14.829   2.509  11.282 -0.4106 -0.0172  0.3127
26891W        W41738  10.053  16.640   1.186 -0.3801  0.0504  0.0257
26892W        W41739  17.588  10.409  11.748  0.1635  0.0737  0.0316
26893W        W41740  15.392  13.897   2.257  0.0687  0.1849 -0.1981
26894W        W41741  13.576  10.392   1.676  0.4162 -0.2506  0.4154
26895W        W41742  13.882   9.585   0.639  0.1714  0.3052 -0.2071
26896W        W41743  15.438  13.664  14.555 -0.4418 -0.1476 -0.0733
26897W        W41744   3.492   3.986  11.460 -0.2884  0.0568 -0.0568
26898W        W41745  17.277  14.007  11.218  0.5057  0.2771 -0.0688
26899W        W41746  11.054   8.737   0.076  0.3730 -0.2557 -0.0744
26900W        W41747   3.634   5.750   3.020  0.2178 -0.1718 -0.2858
26901W        W41748   8.569   4.973  12.955 -0.0465 -0.1912 -0.1775
26902W        W41749   2.933  17.963   0.954 -0.3127  0.1173 -0.1067
26903W        W41750  14.800  13.088   4.594 -0.2482 -0.0299  0.0689
26904W        W41751   1.026  14.215  12.960 -0.1915 -0.0154 -0.3636
26905W        W41752  13.620  10.059  14.244 -0.2456 -0.0050  0.0546
26906W        W41753   6.980   4.905   0.348 -0.2058 -0.1217  0.0389
26907W        W41754  12.914   0.640   4.976  0.0610 -0.3173  0.1047
26908W        W41755   9.116  11.959  16.711 -0.1592  0.1666  0.0505
26909W        W41756  17.061  17.338  16.074 -0.0108  0.1057  0.0819
26910W        W41757   0.473  10.097  13.683 -0.1006 -0.3648 -0.2098
26911W        W41758   4.837  10.276   3.460  0.0919  0.2624 -0.0325
26912W        W41759   8.106   0.376  13.305  0.0006  0.1948  0.1342
26913W        W41760  16.406  13.874  15.008  0.1969 -0.2030  0.0639
26914W        W41761  15.939   4.148   4.642 -0.2942 -0.0999 -0.0140
26915W        W41762   3.951   4.317   4.375 -0.0210  0.1150  0.1911
26916W        W41763  12.321  14.666   4.858 -0.0428  0.0199  0.0613
26917W        W41764  12.822   5.708   1.425  0.3163 -0.3137  0.1680
26918W        W41765  10.892   8.081  14.377 -0.3511 -0.0036 -0.0594
26919W        W41766   1.019  16.008  15.718  0.0197 -0.0821  0.1535
26920W        W41767   5.574   3.795  13.468  0.1949 -0.0006  0.1551
26921W        W41768  17.156   1.891   4.309  0.0617  0.2275 -0.1910
26922W        W41769  16.885  16.348   0.682 -0.2911  0.1522  0.0055
26923W        W41770  11.140   9.120   4.579 -0.3907  0.1331  0.0590
26924W        W41771  12.713   3.507   4.344 -0.1345  0.0555 -0.2134
26925W        W41772   2.273   6.709   5.285  0.0144  0.3192  0.1853
26926W        W41773  11.125  10.833  17.105 -0.0747 -0.0910  0.0023
26927W        W41774  13.280   7.226   3.509  0.2279  0.3903 -0.3244
26928W        W41775   6.887   8.091   2.460  0.3701  0.1340  0.0153
26929W        W41776  14.081   1.264  15.160  0.3262 -0.0158 -0.0263
26930W        W41777  15.528  14.789  15.589 -0.1004  0.1786  0.1857
26931W        W41778   8.469   0.993  15.539  0.1075 -0.1468 -0.0071
26932W        W41779  16.068  15.154   3.868 -0.3338 -0.2159  0.2369
26933W        W41780  15.427   8.116  12.918  0.0413 -0.0168 -0.0197
26934W        W41781  13.499  15.067  10.344 -0.0761 -0.0211 -0.0641
26935W        W41782   8.752   1.150  14.099  0.0999 -0.0998 -0.2796
26936W        W41783  13.278   4.218  12.436 -0.0511  0.0701 -0.1273
26937W        W41784  13.246   7.261  16.617  0.0412 -0.0480  0.2466
26938W        W41785  13.538  10.169  13.739 -0.1481  0.3713 -0.1763
26939W        W41786   1.331   4.754   1.864 -0.1584 -0.1872  0.1041
26940W        W41787   9.921  13.073   6.640 -0.0706  0.0906  0.1389
26941W        W41788  10.138   5.055   4.280 -0.1156 -0.1314  0.0468
26942W        W41789  15.855   7.041  14.049 -0.3079 -0.1257  0.0812
26943W        W41790  13.091   6.870   4.475  0.0476 -0.0442  0.1142
26944W        W41791   1.833   9.700  13.900 -0.1802 -0.0383 -0.0155
26945W        W41792  15.032  16.416   5.326  0.0025  0.2312  0.1999
26946W        W41793  16.440   5.960   1.994 -0.0957  0.1666  0.0578
26947W        W41794   1.791   4.347   3.990  0.0900 -0.1206  0.0827
26948W        W41795   9.239   8.440  13.179 -0.3358  0.2188 -0.0742
26949W        W41796   0.760   6.584   0.954  0.1368 -0.0697 -0.0754
26950W        W41797  16.097  10.534  11.282  0.2701  0.1670  0.3321
26951W        W41798  15.178  14.019  15.356 -0.0377 -0.1293 -0.0129
26952W        W41799   4.470  16.731  13.349 -0.2884 -0.0239 -0.1511
26953W        W41800   5.052  17.099  17.105  0.1759  0.0585 -0.2549
26954W        W41801   8.645  13.620  12.991 -0.0741  0.2353 -0.3172
26955W        W41802   6.880   3.516  12.680  0.1539 -0.0534 -0.0670
26956W        W41803  14.922  15.742   1.797 -0.3423 -0.3133 -0.0413
26957W        W41804  10.335   8.114  12.429 -0.1826 -0.0804  0.2559
26958W        W41805  17.968  16.351   3.758  0.0880 -0.0491 -0.0679
26959W        W41806  11.751  11.672   3.627 -0.1750 -0.1679  0.0928
26960W        W41807  14.226  11.816  13.713 -0.2669  0.4208 -0.1430
26961W        W41808  15.303  15.342   5.942  0.3266 -0.0996  0.2244
26962W        W41809   8.799  15.817  14.193  0.0703 -0.0808 -0.0934
26963W        W41810   9.230  16.558   3.659 -0.1133  0.3018  0.1579
26964W        W41811  15.079   9.128  13.150  0.3167 -0.4374 -0.0962
26965W        W41812  17.594   6.632   3.224 -0.0780  0.0099  0.1185
26966W        W41813  13.352   9.020   3.206 -0.0033 -0.2820  0.3356
26967W        W41814   9.458   7.383   2.871 -0.0943 -0.2883 -0.2757
26968W        W41815   1.586   3.761  12.159  0.2326 -0.1576 -0.0505
26969W        W41816   1.800   5.325  15.061 -0.0768  0.2539  0.3539
26970W        W41817  13.708  11.688   1.250  0.0731  0.1648  0.3481
26971W        W41818   4.810   6.687  15.254 -0.1632  0.0537 -0.0621
26972W        W41819  15.639  11.934   4.087  0.1230  0.0852 -0.1675
26973W        W41820  12.318   8.273   3.120  0.1194  0.0727 -0.0336
26974W        W41821  14.731  11.154  16.012 -0.1845  0.0457  0.3033
26975W        W41822  10.832  13.369   0.038 -0.2952 -0.1088  0.1207
26976W        W41823  13.191   4.935  11.165 -0.1309  0.1165 -0.0300
26977W        W41824  16.160   8.549   0.445 -0.1087 -0.1310  0.2240
26978W        W41825   2.420  11.933  16.437  0.1273  0.1120 -0.0458
26979W        W41826   0.820   0.644   2.882 -0.1959 -0.0494 -0.0818
26980W        W41827  10.958  16.500   2.659 -0.1796 -0.1954  0.1372
26981W        W41828  12.548   2.377  10.428 -0.0100  0.2160  0.0013
26982W        W41829  12.566   7.510   2.435 -0.1764  0.0530  0.0414
26983W        W41830   2.771   9.289  16.949 -0.1246  0.1420  0.1047
26984W        W41831   6.666  11.948  15.055 -0.0243 -0.0238 -0.1676
26985W        W41832  13.651   2.172  13.713  0.0370 -0.0703 -0.1743
26986W        W41833  11.228   3.013  15.641 -0.1344  0.0228 -0.0767
26987W        W41834  16.622   9.284   0.706 -0.2276  0.0016 -0.0366
26988W        W41835   0.702  14.297  14.799 -0.0225 -0.0421 -0.1458
26989W        W41836  17.520  15.613   5.235  0.0559 -0.1895  0.3220
26990W        W41837  16.705  11.342  11.638 -0.1529  0.1758 -0.0988
26991W        W41838  12.335   2.120  11.331  0.2545 -0.0506  0.1180
26992W        W41839   0.739  13.454   0.321 -0.0473 -0.3027 -0.0135
26993W        W41840  14.084   6.837   4.051  0.1342  0.0644  0.2429
26994W        W41841   2.349  11.003  17.045 -0.3784  0.0459  0.1429
26995W        W41842  13.171  15.996  16.506  0.1406  0.0394 -0.1199
26996W        W41843  14.383   9.472  12.716 -0.0166  0.4497 -0.3307
26997W        W41844   9.807   7.915  16.652 -0.1621  0.2143 -0.2792
26998W        W41845  11.263   4.871  16.884  0.4647 -0.0746  0.1752
26999W        W41846  11.306   1.141   6.700  0.0595 -0.2620  0.0426
27000W        W41847  15.512   3.107   1.621  0.0378 -0.4580 -0.1449
27001W        W41848  17.615   8.471   6.061  0.3189  0.2290 -0.1779
27002W        W41849   0.526  11.774  14.683 -0.1297 -0.0654  0.1308
27003W        W41850   9.552   2.813   0.895 -0.0246  0.1194 -0.4485
27004W        W41851   7.780  16.860  12.389 -0.0603  0.2835  0.2510
27005W        W41852  10.736  15.314   4.075  0.1652  0.0068 -0.0500
27006W        W41853  13.856  11.167   3.414 -0.2614  0.0413  0.1376
27007W        W41854  13.309  14.899   2.430  0.0947 -0.1937  0.2952
27008W        W41855  14.332  16.193  13.774 -0.0367  0.0071  0.2945
27009W        W41856   1.439  16.228  16.421  0.2750 -0.2257  0.2681
27010W        W41857  16.072   4.391   2.832 -0.0283  0.3761  0.3263
27011W        W41858  14.310   6.336   2.608  0.1025  0.0402  0.0357
27012W        W41859   3.198   1.264   3.486 -0.0510  0.0558 -0.0870
27013W        W41860  10.649  14.699  15.643  0.1030 -0.0772 -0.0171
27014W        W41861   0.424  16.154  15.081  0.1990 -0.4356  0.0470
27015W        W41862  13.313   6.300  15.088  0.0184 -0.1325 -0.1007
27016W        W41863  16.749   9.699   0.172  0.1403 -0.1792  0.1514
27017W        W41864  17.770  13.324  11.864 -0.1419  0.1296 -0.1871
27018W        W41865   8.895   2.817   0.059  0.0194  0.0966  0.0497
27019W        W41866   4.106   3.844  14.312  0.1665  0.0553 -0.1868
27020W        W41867   2.316   1.503   0.041 -0.2153 -0.0764 -0.1394
27021W        W41868  11.695   8.485  13.938 -0.1199 -0.1486  0.0958
27022W        W41869  16.109   5.269   1.430 -0.1324  0.2340 -0.0470
27023W        W41870   0.548  10.927  16.703  0.3927 -0.6213 -0.0688
27024W        W41871  10.409   3.499   0.198 -0.1873 -0.1333 -0.3078
27025W        W41872  16.529   3.962  14.347  0.1679 -0.1253  0.0024
27026W        W41873  11.667   8.688  15.861 -0.3239  0.0638 -0.1533
27027W        W41874  12.006  11.092   4.047 -0.2834  0.1488 -0.3035
27028W        W41875   9.085  17.823  14.363  0.2545  0.4555  0.1417
27029W        W41876  15.992  17.026  14.510 -0.2727  0.3346  0.3081
27030W        W41877  13.345   4.780   6.257  0.1331  0.2978 -0.1451
27031W        W41878  15.712  10.703   2.069 -0.0394 -0.2043 -0.0395
27032W        W41879  16.293   1.916   4.293 -0.0929  0.2609  0.0720
27033W        W41880  10.570   3.653  12.466 -0.0037  0.2141  0.1402
27034W        W41881   5.793   7.951   1.631 -0.2652 -0.0767 -0.2430
27035W        W41882   0.605  10.409  12.655 -0.0630  0.0028 -0.0913
27036W        W41883  16.439  15.547  16.652 -0.4157 -0.3685 -0.1461
27037W        W41884  14.209   6.108  15.125 -0.0623 -0.1041  0.2319
27038W        W41885  12.064   5.329  15.015 -0.2772 -0.1441 -0.0406
27039W        W41886  11.946  17.841  15.812 -0.0929  0.1600 -0.1165
27040W        W41887  15.059  12.547   3.569  0.0618  0.4423 -0.0183
27041W        W41888  15.117   2.136  16.362 -0.0091  0.1529 -0.2381
27042W        W41889  15.082   0.261  14.265 -0.0688  0.0097  0.0608
27043W        W41890   1.981  10.200  14.080  0.1208 -0.0512  0.1272
27044W        W41891   1.620   0.339   1.465 -0.2294 -0.0327  0.1608
27045W        W41892  14.301   8.611   2.683  0.0234  0.1685 -0.0301
27046W        W41893  12.814   4.059  14.506 -0.0808  0.0583 -0.2315
27047W        W41894  14.348   0.703   5.256  0.1852  0.3373  0.0518
27048W        W41895  10.453   4.153  14.284 -0.0317  0.0956  0.0439
27049W        W41896  14.259  12.766  13.726 -0.0719 -0.0164  0.0473
27050W        W41897  10.302  17.545  15.393 -0.0969  0.2445 -0.0141
27051W        W41898  13.786  14.548  10.852  0.1591  0.2673 -0.0399
27052W        W41899  12.442  15.175   2.006  0.1821 -0.2421 -0.1228
27053W        W41900  14.348  12.577  16.182 -0.2907 -0.0464 -0.0815
27054W        W41901  16.711  15.756   5.813 -0.1263  0.0127 -0.1004
27055W        W41902  16.112   9.313   6.084 -0.2387 -0.0775  0.0272
27056W        W41903   7.706   8.645   0.215 -0.0540 -0.0556 -0.1266
27057W        W41904  12.436  17.153   1.460  0.0562 -0.0051 -0.0476
27058W        W41905  11.781   3.877   2.505  0.1062 -0.1708  0.0422
27059W        W41906   9.734  11.546  13.431 -0.1210  0.2471  0.0857
27060W        W41907  13.483  13.623   3.308 -0.2485  0.1718 -0.3221
27061W        W41908  13.458  15.963  16.960  0.0036  0.0377 -0.1947
27062W        W41909   0.131  17.178   0.914 -0.3241 -0.0087  0.1216
27063W        W41910   9.225   4.644   4.411 -0.3211 -0.0684  0.1351
27064W        W41911   0.566   7.470   1.929  0.1053  0.0309  0.2362
27065W        W41912  10.642   4.431   1.039  0.2952  0.1063  0.1783
27066W        W41913  14.364   1.643  11.656  0.1382 -0.1528  0.1682
27067W        W41914   4.342  15.654   0.973 -0.2445  0.2728  0.3434
27068W        W41915   6.122  14.335   1.225 -0.0789 -0.4381 -0.1793
27069W        W41916  13.888   9.429  15.379  0.1349 -0.0352 -0.1398
27070W        W41917   6.941   9.320  13.091  0.0077 -0.0057  0.2441
27071W        W41918   8.428   6.513   0.226  0.0338  0.0791  0.2143
27072W        W41919  17.622  17.105  13.745  0.2324  0.0111  0.1664
27073W        W41920   6.205   2.775   1.812 -0.3077  0.4369 -0.2629
27074W        W41921  14.713   1.526  11.305 -0.1154  0.0992 -0.0347
27075W        W41922   9.984   8.846  13.233  0.2924 -0.3833 -0.2921
27076W        W41923   8.330  15.615   6.641 -0.0101 -0.0295  0.0612
27077W        W41924   6.484   5.044  14.453 -0.0362  0.0751 -0.1335
27078W        W41925  16.581   1.694   1.537  0.1522 -0.6039 -0.2024
27079W        W41926  17.590   8.572   2.231 -0.0003 -0.0262  0.1998
27080W        W41927   2.447   6.108  13.781  0.2569 -0.3787 -0.3178
27081W        W41928   4.722   7.487   2.255 -0.0062  0.1574 -0.2144
27082W        W41929  12.407   4.031  12.402  0.2050 -0.1457 -0.1987
27083W        W41930  11.098   4.333   1.013  0.1083  0.0572  0.1009
27084W        W41931  17.783   9.907  11.883 -0.2365 -0.1654  0.2821
27085W        W41932   3.266   6.084   1.220  0.1584 -0.2777  0.2730
27086W        W41933   6.610  16.783   1.007 -0.2812 -0.0260 -0.1175
27087W        W41934   9.503   7.621   4.475  0.2180  0.5179 -0.1070
27088W        W41935  13.409   6.608  14.614 -0.0499  0.0033 -0.0770
27089W        W41936   4.801   7.464   0.223 -0.4104  0.0962  0.0671
27090W        W41937  16.947   9.574   4.824  0.2995  0.3252 -0.2901
27091W        W41938   9.053  11.370  14.481  0.0773 -0.0748 -0.2515
27092W        W41939  16.994  16.706   3.090 -0.1208  0.2291 -0.0575
27093W        W41940  13.283   2.331  13.331 -0.1990  0.0365 -0.0538
27094W        W41941  12.737  10.461   0.248  0.1193 -0.2124  0.0742
27095W        W41942   7.969   7.261  13.087 -0.0814  0.4425  0.3994
27096W        W41943  17.713   0.612   0.344 -0.0922 -0.1965 -0.2992
27097W        W41944   5.714   3.271  13.307  0.0598  0.2592 -0.0284
27098W        W41945   5.469  13.756   5.820 -0.1335 -0.0757 -0.1844
27099W        W41946  15.571   7.219  13.152  0.1569  0.1885 -0.0849
27100W        W41947  16.192  12.733   5.183 -0.1269 -0.1050 -0.2781
27101W        W41948  11.859   7.625  15.856 -0.1746 -0.2775  0.3429
27102W        W41949  14.353  16.990   5.687  0.3346 -0.1222 -0.3106
27103W        W41950  13.533  17.566  13.557 -0.1404  0.0876  0.0145
27104W        W41951  12.341  11.368   2.559 -0.0954  0.1024  0.3244
27105W        W41952  12.576   9.162  12.201 -0.1325  0.0215 -0.1387
27106W        W41953  12.176  10.385   5.208  0.1887 -0.1769 -0.1383
27107W        W41954  16.561   2.036  10.965  0.0830  0.3585 -0.1073
27108W        W41955  15.034   3.507  15.931 -0.0842  0.0234  0.0105
27109W        W41956  17.841   7.062   0.424  0.0666  0.1701  0.1170
27110W        W41957  10.269   7.760  16.843  0.0413  0.0266 -0.0992
27111W        W41958   9.440   7.486   6.188  0.1712 -0.1986 -0.2919
27112W        W41959   1.588   9.239  13.391 -0.0652  0.1519 -0.2063
27113W        W41960  15.975   6.908   2.830 -0.1092 -0.1197 -0.0412
27114W        W41961  17.934  13.992   0.255 -0.1471 -0.1240  0.0776
27115W        W41962   2.036   4.794   6.770  0.1375  0.1708  0.0144
27116W        W41963  13.815  14.152   5.106 -0.2511  0.0239 -0.2122
27117W        W41964  14.619   5.367  14.404 -0.0850  0.1111  0.1786
27118W        W41965  11.835  11.257   6.621  0.2095 -0.4083 -0.3826
27119W        W41966  14.163  14.033   0.277 -0.1064  0.0897 -0.1191
27120W        W41967  11.729   5.908  11.801  0.1278 -0.0430 -0.2799
27121W        W41968  11.387   1.477  12.585  0.1749  0.2228  0.0293
27122W        W41969  14.940   9.627  14.465  0.1893 -0.0334 -0.2545
27123W        W41970   0.416  13.352   6.472  0.1501 -0.1369  0.2251
27124W        W41971  11.977   7.476   3.755 -0.0343  0.2692  0.0197
27125W        W41972  12.352   2.605   3.761 -0.0131  0.1852 -0.2794
27126W        W41973  13.535   9.671  13.720  0.0129 -0.1636  0.1897
27127W        W41974   1.608  16.888  16.100  0.0569 -0.2629  0.1431
27128W        W41975  15.283   8.065   0.683  0.1847 -0.3963 -0.3720
27129W        W41976  15.109   0.764   5.622  0.1472 -0.0205 -0.0461
27130W        W41977  10.145  13.492  16.066  0.4350 -0.3589 -0.3537
27131W        W41978  14.798  14.670  11.120 -0.1526 -0.2032  0.0365
27132W        W41979  14.269  17.936   0.957  0.1973  0.0012 -0.0285
27133W        W41980   4.984  13.964   5.477  0.2549 -0.1566  0.0172
27134W        W41981  11.643  16.549  15.690  0.2863 -0.0927 -0.0900
27135W        W41982  11.860   6.227   4.557 -0.1123  0.0051  0.0144
27136W        W41983  14.673   2.533   0.963  0.0267  0.1311 -0.2153
27137W        W41984  17.080   9.729   2.440 -0.2687  0.2777 -0.1222
27138W        W41985  16.451  10.118  15.295 -0.2414 -0.1073 -0.1021
27139W        W41986  10.064   6.040  12.565 -0.3654 -0.0494 -0.1223
27140W        W41987  10.791  14.576   3.430 -0.1036  0.1453  0.2218
27141W        W41988  17.287  16.065   0.421  0.0862 -0.0303 -0.1141
27142W        W41989  12.149  17.980  17.063  0.0603  0.2876  0.4211
27143W        W41990   4.013   5.408  13.527 -0.1550 -0.0834  0.2918
27144W        W41991   9.161  11.048   2.422 -0.0910 -0.0142 -0.0017
27145W        W41992  13.846  17.967  11.975  0.1078  0.2700 -0.1641
27146W        W41993  16.571  10.426  11.224  0.3209  0.0582 -0.0492
27147W        W41994   9.432   4.528  12.735 -0.1400  0.1978 -0.1218
27148W        W41995  16.370  10.991   4.602  0.0781  0.1404  0.2585
27149W        W41996   7.035   4.411   0.053  0.2695 -0.0612 -0.0029
27150W        W41997  13.759   3.442   2.207 -0.2188 -0.3086  0.0093
27151W        W41998  16.665   6.360  14.946  0.4538 -0.0569  0.0615
27152W        W41999  16.458  17.263   5.797 -0.2267 -0.0315  0.2452
27153W        W42000  16.500   8.639  15.214  0.1370  0.1420 -0.0490
27154W        W42001  14.468   5.953  15.707 -0.0070 -0.0814  0.1010
27155W        W42002   7.793   1.350   4.483  0.1402 -0.1775 -0.3051
27156W        W42003   2.521   3.599   4.040 -0.0225  0.0298 -0.2408
27157W        W42004   0.282   5.041   2.126  0.0295  0.0313  0.1083
27158W        W42005  12.798  13.733   5.037  0.0802 -0.0557 -0.0479
27159W        W42006   9.990   7.477   2.637 -0.0220 -0.2002 -0.1438
27160W        W42007   1.367   8.681  12.140 -0.0229 -0.1407  0.3465
27161W        W42008   0.972   8.793  14.389 -0.4121  0.0934  0.0856
27162W        W42009  17.078  17.938   0.741  0.0135 -0.3251  0.1541
27163W        W42010   2.793  17.922  17.114  0.1489 -0.2183 -0.1374
27164W        W42011  15.879   4.877   1.675  0.2995  0.0488  0.1494
27165W        W42012   7.753  12.056  15.260  0.0829  0.0147  0.0965
27166W        W42013   5.141  13.642   6.556  0.1254 -0.0233  0.0274
27167W        W42014   1.039   3.021   2.382  0.2489  0.1548  0.2821
27168W        W42015  13.787  14.660  13.340  0.2841 -0.1708 -0.0343
27169W        W42016  15.047  10.824  13.687 -0.0541 -0.0086 -0.3158
27170W        W42017  10.577   6.974  16.534  0.4566 -0.1164  0.1543
27171W        W42018  11.927   5.615   2.171  0.3859 -0.2364  0.0248
27172W        W42019  14.821  14.966   5.509  0.0146  0.0862  0.0208
27173W        W42020  13.731   7.342   3.293 -0.2276  0.0875 -0.2456
27174W        W42021  10.978  17.392  14.280 -0.2004 -0.2705 -0.2208
27175W        W42022  16.828   8.092   2.426 -0.1127 -0.0123 -0.0359
27176W        W42023  10.961   0.348  16.271 -0.1539  0.0374 -0.1494
27177W        W42024   2.156   2.491  13.401 -0.1279 -0.0209 -0.3539
27178W        W42025  16.666  17.220   2.762  0.1654  0.1015  0.2510
27179W        W42026   9.253   0.920   1.825 -0.0938  0.0285  0.1521
27180W        W42027  13.143  14.930   0.038 -0.0941  0.1767 -0.1070
27181W        W42028  15.819  16.581  12.220  0.1312  0.4953 -0.0880
27182W        W42029  15.035  13.194  11.563 -0.0772 -0.1124 -0.3939
27183W        W42030   0.737   2.621   3.240  0.2381 -0.1452  0.1583
27184W        W42031  14.411   6.595  15.077  0.0953 -0.2795  0.0849
27185W        W42032   9.299  10.278   4.903 -0.1936 -0.4873 -0.3632
27186W        W42033  15.814  13.314   0.018 -0.0343 -0.0641  0.1085
27187W        W42034   3.602   9.203   4.539  0.0684 -0.0457 -0.1382
27188W        W42035  15.182   6.517  10.557  0.1055 -0.0495 -0.0982
27189W        W42036  10.629   9.454   0.938  0.1060 -0.0312 -0.1032
27190W        W42037  11.675   5.443  12.462  0.5593 -0.2783 -0.1486
27191W        W42038  15.022   9.917   4.730 -0.2575 -0.1089 -0.0443
27192W        W42039  16.674   0.251  16.714  0.3614  0.0053  0.2062
27193W        W42040  12.145  13.283  15.987 -0.0088  0.1895  0.1248
27194W        W42041  13.554  11.009  16.683 -0.1677  0.2663  0.2136
27195W        W42042  15.905  10.664   3.443 -0.0142 -0.2196 -0.1830
27196W        W42043  11.648   2.677  11.490  0.1634  0.0484 -0.0865
27197W        W42044  13.246  14.955  14.390  0.1329  0.0406 -0.1996
27198W        W42045   1.011   2.910  12.309 -0.1627 -0.1323 -0.0524
27199W        W42046  10.590  10.116   6.240  0.0160 -0.0433  0.1498
27200W        W42047  14.910  16.322   5.797 -0.0346  0.3070  0.0588
27201W        W42048   7.068   7.341  12.192  0.1137  0.1751 -0.2025
27202W        W42049   2.136  12.224  15.166 -0.0197 -0.0831  0.2566
27203W        W42050  11.770   2.214   5.505 -0.2231  0.2642 -0.0018
27204W        W42051  10.387  15.027  13.478  0.1220 -0.0327  0.1718
27205W        W42052  16.224  16.566   1.236 -0.1037 -0.0825  0.1353
27206W        W42053  11.190  11.416   4.369  0.2760  0.0544 -0.2103
27207W        W42054  16.826   1.529  11.352 -0.1410 -0.1955  0.1942
27208W        W42055   4.359   2.625   3.579 -0.1972 -0.2799 -0.0629
27209W        W42056  17.182   0.916   3.105  0.0942 -0.1266 -0.1182
27210W        W42057  14.067   1.465  16.717  0.1559  0.1424  0.2040
27211W        W42058  17.756   6.071   0.749 -0.1694  0.0346 -0.0520
27212W        W42059  11.014  11.975   3.545  0.0651  0.2204  0.1144
27213W        W42060   9.176   5.059   5.608  0.2439  0.0521  0.1415
27214W        W42061   1.156  13.082  15.101 -0.0420  0.2649  0.1977
27215W        W42062   8.229   3.404   1.980  0.1004 -0.1085  0.0674
27216W        W42063  17.167   2.727  11.891  0.1631 -0.5200  0.0248
27217W        W42064  13.068   0.735  12.117  0.0561  0.7724 -0.2432
27218W        W42065   5.987   6.990   3.345  0.0929  0.0218  0.1250
27219W        W42066  16.876   6.317  15.959  0.2747  0.0692 -0.0145
27220W        W42067   9.476   1.725  15.005 -0.2999 -0.1394  0.0087
27221W        W42068  12.348   6.630   5.939 -0.3484 -0.3951 -0.2451
27222W        W42069  10.984  14.200   0.758  0.0761  0.0715 -0.1577
27223W        W42070  13.798  10.300   6.229 -0.1239 -0.3412  0.1356
27224W        W42071  11.966   3.316   0.966  0.1937  0.0978 -0.1537
27225W        W42072  17.243   8.100   3.300  0.0229 -0.0435 -0.1012
27226W        W42073   1.426   4.783   1.192  0.0252 -0.0839 -0.1934
27227W        W42074   0.183  16.645   6.498 -0.0231 -0.1418 -0.0648
27228W        W42075  14.584   0.579   2.154 -0.1353 -0.1673  0.0948
27229W        W42076   8.809   8.803   1.148 -0.1529 -0.1902  0.1080
27230W        W42077   2.391  13.449  15.482 -0.1076  0.2427  0.0370
27231W        W42078  12.226  14.678   5.927  0.0690  0.0231  0.3603
27232W        W42079   6.292   4.177  12.902  0.2295 -0.1591 -0.0508
27233W        W42080  10.041  15.823  16.212  0.1313  0.1650  0.0903
27234W        W42081  11.099  11.109   3.767 -0.3701  0.0852  0.2265
27235W        W42082  13.775  17.216   4.144  0.2418  0.0398 -0.0569
27236W        W42083  10.257   8.300  15.915 -0.1451 -0.2114  0.0665
27237W        W42084   6.966  17.770  15.468  0.0603  0.0600 -0.1312
27238W        W42085  14.379  14.097   0.741 -0.1908  0.0261  0.2115
27239W        W42086  15.393  14.018   5.361 -0.2158  0.0500 -0.0098
27240W        W42087  16.581  14.501  15.541 -0.3626 -0.0335  0.1206
27241W        W42088  13.704  16.477   4.983 -0.1808 -0.1282  0.0480
27242W        W42089  17.231  11.053  12.268  0.2246  0.2504 -0.2239
27243W        W42090  14.279  16.103  10.109  0.1528 -0.2173  0.1351
27244W        W42091  10.529  14.207  16.608 -0.0309 -0.0521 -0.5039
27245W        W42092   9.521  12.505  14.427  0.0641  0.1014  0.0914
27246W        W42093  13.522   8.618  15.193 -0.3130  0.0692  0.1416
27247W        W42094  16.625   7.431  11.972 -0.0169 -0.0860 -0.0337
27248W        W42095  14.098   5.063  11.033 -0.0538 -0.0191  0.1970
27249W        W42096  15.220  11.184  15.272 -0.0687 -0.0520 -0.1142
27250W        W42097   3.528  15.443   5.027 -0.2380  0.0463  0.2477
27251W        W42098   4.715  16.079   0.752 -0.0501  0.0704 -0.0816
27252W        W42099  16.230  10.027  13.714 -0.0610  0.4395  0.1472
27253W        W42100  11.111   8.692  14.973 -0.1890  0.1422  0.0803
27254W        W42101  12.995   5.198  13.218  0.0665 -0.2954 -0.0466
27255W        W42102  15.555   5.988   4.203  0.1041 -0.2219 -0.0159
27256W        W42103  14.290  14.903   0.089 -0.2168  0.0432 -0.4800
27257W        W42104  13.387   1.561   3.538  0.2216  0.0843 -0.3770
27258W        W42105  14.644   6.233  16.984 -0.0459 -0.0256  0.0485
27259W        W42106  12.199   1.188   5.616 -0.1468  0.0760 -0.0450
27260W        W42107  12.544  17.836   5.125  0.0992  0.0427 -0.0751
27261W        W42108  13.453   5.100  12.364  0.1282  0.1206  0.0512
27262W        W42109  10.956  12.251  12.216 -0.0106 -0.3848  0.2369
27263W        W42110  17.482   9.794  15.368  0.1477 -0.3921  0.0738
27264W        W42111   4.077   1.338   6.390 -0.0115 -0.0638 -0.2172
27265W        W42112   0.046  16.007   4.616 -0.2332 -0.0885  0.0747
27266W        W42113  14.710   2.582   0.455  0.0007  0.3078  0.2418
27267W        W42114  17.125  14.159   5.815  0.1112 -0.2361 -0.1303
27268W        W42115   4.592  11.895   4.458 -0.2778 -0.1039  0.1554
27269W        W42116  13.834  14.351  16.683  0.2960  0.0678 -0.1157
27270W        W42117   5.929  17.055  14.810  0.1881 -0.0878 -0.3492
27271W        W42118  13.676  14.796  12.437  0.0444  0.2694  0.1024
27272W        W42119  11.924   2.617   3.472  0.1797  0.0224  0.4153
27273W        W42120   0.447   0.266   1.584 -0.1640  0.1114 -0.0884
27274W        W42121   1.203  13.389   5.804  0.1273  0.0955 -0.0917
27275W        W42122  12.833   3.657  13.193 -0.0168 -0.1298  0.0705
27276W        W42123   5.331   4.416  15.591  0.0621 -0.0381  0.3056
27277W        W42124  15.798  14.554  10.885 -0.1092  0.0717 -0.0813
27278W        W42125  16.848  12.563   5.989  0.1889 -0.0931 -0.0408
27279W        W42126  15.552   0.454   5.609 -0.2185  0.0459 -0.1848
27280W        W42127  12.072   3.226  12.179  0.1110 -0.2127 -0.0036
27281W        W42128  11.562   9.699  12.705 -0.2794 -0.2075 -0.0222
27282W        W42129  13.751   1.383  14.721 -0.2612  0.1163  0.2378
27283W        W42130   8.559  14.528  12.856  0.1903 -0.0769 -0.0450
27284W        W42131   0.194  16.182   4.155 -0.1196  0.1304  0.0772
27285W        W42132  12.262   3.967   0.431  0.3462 -0.3923 -0.3748
27286W        W42133  15.119  16.582   2.032  0.2118  0.2037  0.1872
27287W        W42134  13.408   1.066   0.779 -0.3192 -0.4218  0.1106
27288W        W42135   2.518  15.472  11.861  0.3193  0.1643 -0.1669
27289W        W42136   9.987   4.708   1.350  0.0824 -0.0728  0.1424
27290W        W42137   8.248   4.206  16.073 -0.0015 -0.1040  0.1484
27291W        W42138  15.057  14.226   2.552 -0.1007  0.2405 -0.2928
27292W        W42139   7.284   3.088   3.776  0.3290 -0.2537 -0.1720
27293W        W42140  14.290  15.922  10.984  0.0996 -0.1893  0.1596
27294W        W42141   1.392  14.043  16.939  0.1169  0.2004 -0.0604
27295W        W42142   1.878   8.215   5.411  0.0233  0.2388  0.0220
27296W        W42143   8.950   9.658  14.614 -0.0917  0.0124 -0.2364
27297W        W42144   9.061   6.590   4.017  0.1470 -0.1165  0.1398
27298W        W42145   5.477   3.090   2.342 -0.0194 -0.2711  0.0402
27299W        W42146  13.389   6.866   2.495 -0.2038  0.1135  0.0637
27300W        W42147   0.023   2.332   5.642 -0.2395  0.0881  0.2945
27301W        W42148   0.785   5.420  11.284  0.0606  0.1259 -0.3786
27302W        W42149  10.317  13.224  14.924  0.2342  0.1454 -0.2183
27303W        W42150  12.820  16.351   2.387 -0.0871 -0.1367  0.1378
27304W        W42151  13.830  15.934  10.782 -0.2508 -0.1401  0.0885
27305W        W42152   9.133   8.947   4.502 -0.0072 -0.1549 -0.0759
27306W        W42153   7.963  11.071   0.364  0.1316 -0.1630  0.0808
27307W        W42154   3.336   0.010   5.625  0.2129  0.2308  0.0623
27308W        W42155   9.252  10.116  12.343 -0.3456 -0.0741  0.2137
27309W        W42156   9.846   1.698   4.629 -0.1990  0.1178  0.0011
27310W        W42157  17.562  11.780  12.519 -0.0296 -0.1222 -0.0881
27311W        W42158  12.263   0.016   0.476 -0.1669  0.0776 -0.0569
27312W        W42159   7.355   7.949   0.932 -0.1580 -0.2435 -0.0919
27313W        W42160  10.877   5.536  13.245  0.3389  0.1895  0.1439
27314W        W42161   0.171   4.646   0.928 -0.1690 -0.0637  0.2973
27315W        W42162  15.160   5.402  16.000  0.1281  0.1512  0.1921
27316W        W42163  15.062   9.458   6.177  0.1253  0.0451 -0.0302
27317W        W42164  15.189   9.644  16.257 -0.0688  0.0320  0.1138
27318W        W42165   5.180   8.175  15.630 -0.0198  0.1911  0.3916
27319W        W42166  13.666  15.131  15.134  0.2214 -0.1139 -0.3684
27320W        W42167  14.920   7.985   0.338  0.3420 -0.0387 -0.2495
27321W        W42168   8.506   3.143   3.729  0.3206  0.0596 -0.1562
27322W        W42169  14.733  14.991  12.906 -0.3733  0.1125  0.0921
27323W        W42170  13.794   3.640  16.835 -0.3236 -0.1338  0.1402
27324W        W42171  16.433  11.409   1.071 -0.0584  0.1287  0.3882
27325W        W42172  15.298  13.104   4.645  0.1578  0.2165  0.3543
27326W        W42173  11.885  10.819  13.965  0.2292 -0.1612  0.1521
27327W        W42174   2.164   9.171   1.353  0.1176 -0.0454 -0.0610
27328W        W42175  16.391   1.280  13.636 -0.2193  0.1809  0.2553
27329W        W42176   5.314   7.002  14.525  0.1609  0.0862  0.0563
27330W        W42177   4.780  15.433   1.175  0.3008  0.1425 -0.2745
27331W        W42178  15.200  12.903   3.169 -0.0473  0.0636 -0.2938
27332W        W42179  14.257  11.691  16.868 -0.2223  0.0563 -0.0996
27333W        W42180  13.901  15.482  16.198 -0.0090  0.1097 -0.2665
27334W        W42181  12.748  11.203   6.598  0.0507 -0.0897 -0.4157
27335W        W42182  15.246   1.224   3.615  0.0884  0.2587 -0.0628
27336W        W42183  16.312  13.806  11.270  0.3238  0.0186 -0.2002
27337W        W42184  14.791  15.279   1.875  0.2719  0.2618  0.1935
27338W        W42185  10.834   1.438  14.020  0.1969  0.2993  0.1746
27339W        W42186   9.097  12.013  15.635  0.3575  0.4128 -0.3847
27340W        W42187   9.006   2.361  12.624 -0.1820 -0.2369  0.1163
27341W        W42188  12.118   9.718  14.548  0.2192  0.1458  0.2097
27342W        W42189   1.865  13.861   0.631  0.3649  0.0956 -0.0540
27343W        W42190  12.800  13.366   0.331 -0.2299  0.2329 -0.1503
27344W        W42191  17.873  16.109  12.292  0.1350 -0.0760 -0.2638
27345W        W42192  15.467  13.462  16.115 -0.2189  0.2371 -0.2639
27346W        W42193   9.986  14.288  13.902  0.1092  0.3429  0.1859
27347W        W42194  11.922  12.161  11.770 -0.2220 -0.1944 -0.0924
27348W        W42195   2.208   3.402  12.993  0.1403 -0.2089  0.3670
27349W        W42196  17.795   3.595  12.336 -0.1060  0.1485  0.2098
27350W        W42197  14.407   9.151  14.593 -0.0008  0.0410  0.4955
27351W        W42198   9.847  10.298  14.016  0.0246 -0.2587 -0.3555
27352W        W42199  11.242   4.899   1.152  0.1207  0.2371 -0.2618
27353W        W42200  13.682   9.774   3.250  0.2149  0.2627  0.0196
27354W        W42201  12.462  17.676   3.640  0.3128  0.2576 -0.2949
27355W        W42202   7.117  11.785   3.631 -0.1952  0.0456  0.1612
27356W        W42203  12.105   2.143  16.145 -0.1644  0.0949 -0.1057
27357W        W42204  13.329   3.006   4.460  0.0016 -0.1522 -0.0942
27358W        W42205  16.739   9.252  15.840 -0.1548 -0.2804  0.1612
27359W        W42206   5.411   1.487   2.813 -0.0189  0.1197  0.1808
27360W        W42207  11.508   1.724  16.421 -0.3539 -0.3247 -0.0945
27361W        W42208  11.482   3.987  11.892  0.0130 -0.0397 -0.1683
27362W        W42209  15.570  17.799   2.644  0.2679 -0.0999  0.1111
27363W        W42210  17.705  17.861   3.643 -0.0486  0.1136  0.0003
27364W        W42211  16.112   4.733  11.301  0.1031 -0.1002 -0.0991
27365W        W42212   0.861   0.297   0.635 -0.0174 -0.0702  0.0071
27366W        W42213   2.235   3.535   4.803 -0.0515  0.1937 -0.0053
27367W        W42214   1.657  17.164  11.696 -0.2955  0.4246 -0.0085
27368W        W42215  17.455  12.762  10.213  0.0764  0.0500 -0.1513
27369W        W42216  17.897  17.138   4.202  0.1436 -0.0826 -0.1192
27370W        W42217   7.175   8.015  14.661 -0.1150 -0.0578 -0.0725
27371W        W42218  11.603  12.904  13.265 -0.1205  0.2051  0.0604
27372W        W42219   5.847   1.171   2.724  0.0228  0.2564 -0.0955
27373W        W42220   1.480   8.319  13.031  0.3139  0.2192  0.0181
27374W        W42221  16.208   4.637   5.620  0.0857 -0.1376  0.1079
27375W        W42222  17.732  11.413  16.383  0.4843 -0.0476 -0.1217
27376W        W42223  17.806   7.386   5.336 -0.2979 -0.1995  0.0461
27377W        W42224  10.491   8.168  14.621  0.2420 -0.1908 -0.3901
27378W        W42225   8.913  13.626   3.076 -0.1897 -0.0263  0.0495
27379W        W42226  16.860   9.331  13.168  0.2747  0.1769  0.4836
27380W        W42227  11.072   6.810  16.565 -0.0193  0.2659 -0.0435
27381W        W42228   3.518  13.510  14.347  0.4006  0.0435 -0.3021
27382W        W42229  13.423   2.638  13.730 -0.0603 -0.0180 -0.0833
27383W        W42230  10.780   1.351  16.056 -0.1408 -0.1272  0.1616
27384W        W42231  15.481   9.685  13.785 -0.1459  0.3403  0.3582
27385W        W42232   7.306   8.888   0.120 -0.1986 -0.2519  0.0534
27386W        W42233   7.675   0.060  13.049  0.1758 -0.1169 -0.2471
27387W        W42234  16.491  15.263  15.755  0.2542  0.0738  0.1273
27388W        W42235  11.843   0.325  11.870 -0.0647  0.3819  0.2367
27389W        W42236  16.304  12.268  16.505 -0.1272 -0.0618 -0.1174
27390W        W42237   9.930   2.662  12.122  0.1715  0.0360 -0.0065
27391W        W42238  12.109  13.455  16.889 -0.0528 -0.2093 -0.1255
27392W        W42239  16.349  10.256   4.725 -0.0066 -0.2388 -0.1392
27393W        W42240   2.130   6.769   5.814 -0.1460  0.0823  0.2076
27394W        W42241   9.683  13.757   4.731  0.0673 -0.3556 -0.2404
27395W        W42242  15.611  15.028   3.667  0.0986 -0.2130  0.1586
27396W        W42243  17.093   5.428  11.162 -0.0308  0.0126 -0.2319
27397W        W42244   7.020   0.792   2.827 -0.1905 -0.2448  0.0108
27398W        W42245  17.132  14.343  13.465 -0.3247  0.0501 -0.0111
27399W        W42246  14.768   4.654   1.239 -0.1281  0.1478 -0.0420
27400W        W42247  13.983   4.895  15.427  0.0615 -0.0413 -0.0412
27401W        W42248   0.041  15.213   6.398  0.0109  0.0122  0.0734
27402W        W42249  12.304  11.331   5.321 -0.3037 -0.0238  0.0983
27403W        W42250   6.339  15.589   2.967  0.0328 -0.0515 -0.0185
27404W        W42251  11.339  13.848   5.144 -0.0583 -0.2283 -0.2319
27405W        W42252  10.141  10.798   4.665  0.0181  0.1846 -0.1807
27406W        W42253  16.064  14.547  15.653  0.2312 -0.1546 -0.0946
27407W        W42254   7.598   3.698  14.657 -0.3037 -0.2323 -0.0633
27408W        W42255   2.386   2.883   0.328 -0.1615 -0.1832  0.0007
27409W        W42256   1.847  11.532   4.919 -0.0814 -0.1679 -0.0178
27410W        W42257   5.331   8.071   5.208 -0.0514  0.1477  0.0068
27411W        W42258  12.897  12.386  16.889  0.2427 -0.3664  0.1481
27412W        W42259  16.254   8.249  14.858  0.2780  0.0684  0.0507
27413W        W42260  14.161   1.701   1.072  0.0145  0.2744  0.0233
27414W        W42261  16.802   4.526   6.047  0.2695 -0.1021  0.1804
27415W        W42262   9.859   0.076   1.056 -0.1797  0.1585 -0.0319
27416W        W42263  15.744   8.104  16.194  0.2598  0.0200  0.5592
27417W        W42264  17.400   4.095  11.551 -0.2500 -0.0313  0.1449
27418W        W42265  17.203   7.101  11.225  0.1970  0.3247  0.0126
27419W        W42266  15.388  15.194  14.614 -0.1308  0.0294  0.0158
27420W        W42267  12.748   2.390  13.471  0.1519 -0.1917 -0.3136
27421W        W42268  16.517  13.152  13.153 -0.1555 -0.0828 -0.1400
27422W        W42269  13.143  12.857  15.140 -0.1063 -0.1864  0.0910
27423W        W42270  15.285  11.817  10.609  0.1124 -0.3022  0.2302
27424W        W42271  12.739  15.122   2.912 -0.2264 -0.0877  0.4200
27425W        W42272   8.974  12.908  15.588 -0.1960 -0.1369 -0.1224
27426W        W42273  17.320  10.086  16.713  0.3510 -0.2957 -0.2215
27427W        W42274   4.323  13.601  15.469 -0.2843 -0.0914  0.1651
27428W        W42275  16.533  17.003   3.831 -0.3829  0.0212  0.0148
27429W        W42276  16.274   2.149   3.780  0.2345  0.0947  0.3350
27430W        W42277  15.018  12.081  11.398  0.2085 -0.2190  0.2221
27431W        W42278   0.791   8.612  13.473  0.0957 -0.0443 -0.2320
27432W        W42279   1.435   2.598   1.812  0.0052  0.0002  0.0141
27433W        W42280   1.586  11.708  16.824  0.5270  0.0472 -0.0264
27434W        W42281  17.686   6.559   0.634 -0.1763  0.1499 -0.5298
27435W        W42282   9.521   7.496  16.571 -0.0350  0.1254 -0.0978
27436W        W42283   1.190   7.886   5.971 -0.0326 -0.0143 -0.0541
27437W        W42284  17.356  13.853   2.762  0.0844 -0.1269 -0.0480
27438W        W42285  11.638   8.334   1.124 -0.1420  0.0630 -0.1585
27439W        W42286  16.084   4.561   0.326  0.0010 -0.2351  0.1426
27440W        W42287  17.934   2.647   0.419 -0.0347  0.3265  0.2912
27441W        W42288  15.776   3.532   0.443  0.2626 -0.1335  0.1169
27442W        W42289   0.334  13.300   1.779 -0.2385  0.0112 -0.1518
27443W        W42290   0.525  12.903   3.402 -0.2172  0.0631  0.0873
27444W        W42291   3.055  17.516  12.549 -0.0689 -0.1132  0.0423
27445W        W42292  17.922  15.934   0.489  0.0390 -0.2706  0.0404
27446W        W42293  14.817   1.210  16.211  0.1820  0.1481 -0.0824
27447W        W42294  15.732  10.942   0.967 -0.2129 -0.1321 -0.1496
27448W        W42295   9.816  11.930   0.877  0.0169 -0.2299  0.0195
27449W        W42296  11.806   7.294  16.214  0.0265  0.1228 -0.3337
27450W        W42297   3.925  15.598  13.376 -0.0182 -0.0528 -0.4173
27451W        W42298  11.489   0.446  12.292 -0.3493  0.1032  0.1224
27452W        W42299  13.842  10.848  16.261 -0.0387 -0.4392 -0.2080
27453W        W42300   7.635   6.599   3.333 -0.1949 -0.2717 -0.2547
27454W        W42301  16.684  11.964   5.294  0.1165 -0.0004  0.2048
27455W        W42302  13.369  14.410  12.360  0.0967 -0.1382  0.0525
27456W        W42303   0.022   0.755  15.251 -0.2008  0.1790  0.0585
27457W        W42304   3.072   5.844   2.063 -0.1368  0.1660  0.1218
27458W        W42305  13.949   0.067   0.526  0.0751 -0.4144 -0.0805
27459W        W42306  13.266   9.923   2.995  0.1508  0.1093  0.1518
27460W        W42307  12.858   0.939  10.733  0.1523 -0.0878 -0.1154
27461W        W42308  13.989  11.546  13.270 -0.0758 -0.1084 -0.1407
27462W        W42309  15.815  16.690  15.710  0.1912 -0.1836  0.0275
27463W        W42310  13.516   3.346   0.511 -0.2926 -0.2451  0.2450
27464W        W42311  12.644  14.245   3.474 -0.1014 -0.0340  0.0184
27465W        W42312   0.734   5.814   1.691 -0.1193  0.2757  0.1590
27466W        W42313  17.838  11.017  16.073  0.0274 -0.2835  0.2457
27467W        W42314  11.194   6.300  13.320  0.1761  0.2959  0.0668
27468W        W42315  16.592   4.917   5.406 -0.1725  0.2458 -0.0083
27469W        W42316   7.823  15.465  14.664 -0.0924  0.1276  0.0124
27470W        W42317  13.426   6.568  15.843  0.1643  0.1041 -0.2549
27471W        W42318  12.878  16.290  12.565  0.1269 -0.0768  0.2434
27472W        W42319   9.697   4.894   4.093 -0.0784 -0.0021  0.1407
27473W        W42320   6.856   6.779   0.731 -0.3623 -0.0741 -0.1711
27474W        W42321   7.452   8.449  14.567 -0.1150 -0.0924 -0.1812
27475W        W42322  11.401   9.048   5.525 -0.3420  0.1760 -0.0892
27476W        W42323  13.473   8.773   3.677  0.0768  0.0166 -0.0316
27477W        W42324   2.980   1.157   5.282 -0.0284 -0.0156 -0.0619
27478W        W42325  12.225   7.563  13.696 -0.0983 -0.0594  0.0576
27479W        W42326  16.729   5.049   4.899  0.0807  0.0914  0.1203
27480W        W42327   2.738  10.046   5.217 -0.5599 -0.0451  0.4680
27481W        W42328  17.489   3.340   0.071  0.1229 -0.0592 -0.0625
27482W        W42329  10.229  14.470  15.825  0.1840 -0.0792 -0.0263
27483W        W42330  15.218  17.872  16.449 -0.0703 -0.0729  0.1487
27484W        W42331  14.636  15.108   2.616  0.0824  0.2246 -0.3999
27485W        W42332  12.789  10.580  16.493 -0.0647  0.2194 -0.0880
27486W        W42333  17.673   9.443  16.202 -0.1671 -0.0525 -0.1435
27487W        W42334  12.917  10.610  15.046  0.0445  0.1713 -0.3293
27488W        W42335   0.121   4.865  11.565 -0.0963  0.0975 -0.1026
27489W        W42336  14.678  14.314   5.803 -0.0538  0.4281  0.0416
27490W        W42337  17.755   1.348   2.351 -0.5164 -0.1461  0.1698
27491W        W42338   0.453   4.154  12.216  0.1137 -0.0864  0.2270
27492W        W42339  15.191  14.025  12.174  0.0212  0.1599 -0.0127
27493W        W42340  11.458   2.555  15.804  0.0477 -0.0109 -0.0413
27494W        W42341  11.943   7.904  12.558 -0.3487  0.2895 -0.1281
27495W        W42342  13.950  14.964   5.653  0.1895  0.1553 -0.2674
27496W        W42343  15.904   0.806   4.818  0.0515  0.0631  0.1758
27497W        W42344  14.390   6.507   4.760 -0.0901  0.2295 -0.1891
27498W        W42345   9.500   9.772   2.534  0.2225  0.2791  0.2245
27499W        W42346  12.445  13.755  10.966  0.0488  0.0521  0.0856
27500W        W42347   5.313   1.046  11.857  0.0366  0.1940  0.0831
27501W        W42348  10.351   6.163   3.844 -0.0392  0.0888  0.1913
27502W        W42349  10.233  17.539   5.893  0.1227  0.0785 -0.1622
27503W        W42350  15.409   7.975  11.441  0.0969 -0.0436  0.0179
27504W        W42351  12.287   2.383   0.883 -0.3527 -0.2687 -0.2265
27505W        W42352  11.478   1.969  11.281  0.0775  0.0853  0.2171
27506W        W42353   9.341   0.175   0.173 -0.0423 -0.2375 -0.0698
27507W        W42354  17.309   0.756  12.407 -0.0205  0.1421  0.0295
27508W        W42355  14.186  16.510   5.685 -0.0453 -0.0622  0.3246
27509W        W42356  15.405  13.901   4.491  0.0949 -0.2071 -0.1832
27510W        W42357  11.423  13.614  15.474 -0.1231 -0.0245 -0.2481
27511W        W42358  14.023  15.786  12.614 -0.1755  0.0451 -0.1124
27512W        W42359   0.004  13.079  14.099  0.0281  0.0832 -0.3501
27513W        W42360  12.396  13.491  11.929  0.1287 -0.1687 -0.2384
27514W        W42361  12.242   2.570  11.535 -0.1376 -0.2817  0.0463
27515W        W42362  14.191  12.973   0.668 -0.0529  0.2002 -0.0295
27516W        W42363  17.275  11.577  16.150 -0.3500 -0.1153 -0.1325
27517W        W42364  11.359  13.090  14.153 -0.0692  0.0067  0.0723
27518W        W42365  17.364   6.118   5.446  0.0775 -0.0661  0.0058
27519W        W42366   1.255  15.603  12.444 -0.4031  0.0537 -0.0192
27520W        W42367  11.701   3.366  12.613  0.1810  0.1075 -0.2565
27521W        W42368   9.679   7.735  16.103  0.0698 -0.1435 -0.0879
27522W        W42369   5.660   0.301  16.878  0.0617  0.1270  0.0990
27523W        W42370   4.270  12.238  15.167 -0.0392 -0.1125  0.4141
27524W        W42371  11.894   9.675   1.218  0.2541 -0.1042  0.0037
27525W        W42372  15.923   0.889  15.112 -0.2879  0.3094 -0.1353
27526W        W42373  14.279   4.811  13.459 -0.2181  0.0101  0.0324
27527W        W42374  17.731   8.862  12.076 -0.0258 -0.1048 -0.0177
27528W        W42375   8.972   5.571   1.834 -0.4649 -0.1513 -0.0307
27529W        W42376  14.598  10.958   3.794  0.1026 -0.1283 -0.0091
27530W        W42377  15.566  10.959  12.059 -0.2493  0.1608  0.1689
27531W        W42378   0.530   5.721   5.156  0.1526 -0.1779  0.0293
27532W        W42379  12.345   5.620  15.656  0.0428  0.1372  0.3289
27533W        W42380   5.787   5.709   6.310  0.2498  0.4539  0.1086
27534W        W42381   1.324  13.102   3.024  0.1035  0.1214 -0.1375
27535W        W42382   0.474   0.561  14.571 -0.1630 -0.1214  0.0467
27536W        W42383  13.884  16.996   1.559 -0.0914  0.0028  0.3223
27537W        W42384   1.203   6.021  14.930 -0.1832 -0.1204  0.1591
27538W        W42385   4.678   6.781   3.997  0.0221 -0.1575  0.2113
27539W        W42386  15.389   9.349   3.418 -0.2816  0.1138  0.0151
27540W        W42387   9.111   7.071   0.298  0.0366 -0.0147  0.1261
27541W        W42388  14.775  10.327  15.896 -0.1238  0.4494  0.1896
27542W        W42389   1.967  13.611  15.268 -0.1562 -0.1544 -0.1136
27543W        W42390  12.143  14.229  13.476 -0.0992 -0.0126  0.0266
27544W        W42391   2.626  12.240  11.871  0.1435 -0.0842 -0.1723
27545W        W42392  10.022   4.415  12.574 -0.0191 -0.0693  0.0723
27546W        W42393   8.484   0.716   5.245  0.1089 -0.1834  0.0439
27547W        W42394  17.402   9.779   1.692 -0.0188  0.1091 -0.1075
27548W        W42395  17.921  13.073   1.523  0.1676  0.0284 -0.3140
27549W        W42396  17.190   2.388  14.431  0.1530  0.1208 -0.0039
27550W        W42397  14.064  14.019   4.118  0.0936  0.0659 -0.1467
27551W        W42398  15.326   2.350  15.907  0.0671  0.0644 -0.1941
27552W        W42399  14.989   0.756  14.392  0.2435  0.0033  0.1701
27553W        W42400   1.540   2.026   5.548  0.2291 -0.2565  0.1164
27554W        W42401  13.637  14.409   6.819  0.0021 -0.1867  0.0588
27555W        W42402  17.770   9.427   5.753  0.1050 -0.0785  0.1104
27556W        W42403  17.150  15.811  12.072 -0.1285  0.3443 -0.1926
27557W        W42404   4.975  13.479  12.330  0.0305  0.2590  0.0596
27558W        W42405  13.657   5.902  15.095  0.2844  0.0009  0.0119
27559W        W42406  11.707   4.824  16.648  0.1696 -0.3014 -0.2019
27560W        W42407  13.408  12.075  12.844 -0.0699  0.0304  0.0105
27561W        W42408  13.552   6.874   3.170  0.0479  0.2017  0.0160
27562W        W42409  14.294   9.503  16.838 -0.0346 -0.0575  0.0319
27563W        W42410  14.931   3.264   2.382  0.2126 -0.0197 -0.0811
27564W        W42411  12.848  15.011  11.274 -0.0188 -0.1422 -0.4048
27565W        W42412  16.896   1.318   0.381  0.1584  0.0896 -0.0101
27566W        W42413   4.052  16.384  14.891  0.0525 -0.0859 -0.3005
27567W        W42414  11.754   7.620   0.360 -0.5261  0.1092 -0.0181
27568W        W42415  11.025   8.346   6.778  0.0774  0.4554  0.0218
27569W        W42416  15.007  17.387   3.966  0.1023 -0.4991  0.1670
27570W        W42417  16.264   2.403  15.728  0.2502 -0.0900  0.0499
27571W        W42418  12.296   9.851  14.054  0.2216 -0.0426 -0.0656
27572W        W42419   5.947  13.901   5.603 -0.0572  0.1731 -0.0368
27573W        W42420   7.464   0.896   3.078  0.0781  0.0487 -0.4062
27574W        W42421   9.034  10.151  14.972 -0.3789 -0.1329 -0.0300
27575W        W42422   0.647   4.198   1.605 -0.0283  0.1696 -0.0339
27576W        W42423  11.287   9.615   0.589  0.0985  0.0891  0.2059
27577W        W42424  17.406  16.986  15.397 -0.1035 -0.3521  0.0232
27578W        W42425   8.824   7.891   0.759 -0.0621 -0.2504  0.1799
27579W        W42426  17.612  17.945  12.523  0.0431  0.2513  0.0343
27580W        W42427  13.388   5.718  13.199 -0.2217 -0.0791 -0.0753
27581W        W42428  17.399   8.742   4.994 -0.0190  0.0468  0.0656
27582W        W42429   6.683   0.992  16.401 -0.0718  0.2969 -0.3073
27583W        W42430   8.779  12.854  17.050 -0.0796  0.1566 -0.0786
27584W        W42431  13.206  11.405   5.438  0.0987 -0.0974 -0.3232
27585W        W42432   1.310   5.824   2.241 -0.0062 -0.2428  0.1393
27586W        W42433   1.005   6.899   3.426 -0.1219 -0.0484  0.0420
27587W        W42434   4.294  17.688  12.377  0.0142 -0.1893 -0.0389
27588W        W42435  14.365  17.707  12.002 -0.0151  0.1179 -0.3244
27589W        W42436   3.213  15.467   4.242  0.0102  0.1343  0.1169
27590W        W42437   0.353   5.598  11.419 -0.1293  0.0546  0.0007
27591W        W42438   0.373  10.936  15.728 -0.1178 -0.0600  0.2856
27592W        W42439  12.146  17.653  11.044  0.1787 -0.1186 -0.0469
27593W        W42440   0.861   5.254  16.045 -0.0401  0.2000 -0.1029
27594W        W42441  13.126   1.820  11.679  0.0549  0.0971  0.1019
27595W        W42442   3.049  15.241   2.611 -0.0709 -0.1827 -0.2539
27596W        W42443   0.859   1.524  13.357  0.1198  0.0757 -0.2036
27597W        W42444  11.779   8.141  16.000 -0.0880  0.0282 -0.1014
27598W        W42445  15.738  11.278  12.544 -0.0025  0.3821  0.0036
27599W        W42446   4.195   3.962  13.239  0.3169  0.1362 -0.2346
27600W        W42447  14.107  13.516  11.013  0.0030  0.0461  0.0597
27601W        W42448   0.327   3.137   5.666  0.1086 -0.0204  0.1095
27602W        W42449   3.914   6.706   2.728 -0.2317  0.0138 -0.0868
27603W        W42450   0.654   5.975   1.204 -0.3273  0.1983  0.2869
27604W        W42451   0.940   8.225  13.937  0.3551  0.0462 -0.1095
27605W        W42452   9.871   7.202   1.057  0.3596  0.0308  0.0198
27606W        W42453  16.852   4.653   0.569 -0.1989 -0.0855 -0.1995
27607W        W42454   0.924   1.505   2.024  0.1656  0.0255 -0.0383
27608W        W42455  16.149  11.808   3.200  0.2332 -0.1508 -0.2043
27609W        W42456   2.168  12.656   3.614  0.0861  0.4271 -0.0609
27610W        W42457   9.933   2.105  16.841  0.0103 -0.2168 -0.0401
27611W        W42458  10.908  17.445  16.569 -0.1890  0.0547  0.3695
27612W        W42459  17.287  11.354  15.247  0.1487  0.0037  0.1385
27613W        W42460  14.782  13.658  13.286 -0.3022 -0.2340  0.1981
27614W        W42461   1.803  17.231  12.694 -0.2599  0.1588  0.2977
27615W        W42462   1.159  10.551   5.456  0.1090  0.1942 -0.0040
27616W        W42463  10.291  10.872  14.183 -0.0798 -0.0173 -0.0193
27617W        W42464   9.121  11.417  16.822  0.3489 -0.0281  0.0109
27618W        W42465  17.478  13.738   2.269 -0.3395  0.2999 -0.1072
27619W        W42466  12.738  10.305  15.593  0.0223 -0.1064  0.1565
27620W        W42467  11.601  16.964   6.280  0.1905  0.1639 -0.1289
27621W        W42468   1.068  11.247  15.059 -0.0854  0.0588 -0.3144
27622W        W42469   0.760  15.678  12.721 -0.1003 -0.2677 -0.2507
27623W        W42470  13.809   9.400  16.045 -0.3446  0.0477  0.4236
27624W        W42471  10.833   6.683  15.470 -0.1721  0.1429 -0.1098
27625W        W42472  16.054   1.494  11.791 -0.2261 -0.3343 -0.1069
27626W        W42473  14.549  10.329  16.371 -0.0008 -0.0702  0.1035
27627W        W42474  12.822  10.706   4.262 -0.3328  0.0029  0.2415
27628W        W42475  17.944  13.917   4.359 -0.2663  0.0894 -0.1287
27629W        W42476   4.990  15.138   0.592  0.1986 -0.0732  0.3166
27630W        W42477  15.819   0.568  14.198 -0.4336  0.2244  0.0572
27631W        W42478   8.635   0.242  14.143 -0.1032 -0.1822  0.2439
27632W        W42479  13.239   6.974   5.755 -0.0486 -0.1097  0.1019
27633W        W42480  17.814  12.140  11.198  0.0771 -0.1179 -0.0748
27634W        W42481   1.066  11.280   2.960  0.1516  0.0359  0.0367
27635W        W42482   3.700   7.589  14.305  0.3285  0.2105 -0.0694
27636W        W42483   0.153   3.436   1.439  0.0827  0.2161 -0.5160
27637W        W42484  11.044   8.098  13.346  0.1632  0.1243  0.0434
27638W        W42485  13.797  13.814  13.248  0.3066  0.0889  0.1051
27639W        W42486  15.967  11.758  13.326  0.1192 -0.1676  0.1430
27640W        W42487   8.181   6.872  15.535 -0.0784 -0.4093 -0.0647
27641W        W42488  13.038   5.367  17.085 -0.1265  0.0191  0.1648
27642W        W42489  16.298   9.004   1.088 -0.1606 -0.0901  0.0173
27643W        W42490  16.056  15.819  15.770 -0.1910  0.0577 -0.0730
27644W        W42491   0.100  14.277  17.004  0.0481 -0.0536  0.0258
27645W        W42492   3.017  17.605  13.120 -0.0466  0.0105  0.0114
27646W        W42493  11.989  13.728   0.260 -0.0831  0.2502 -0.0547
27647W        W42494   0.053  17.489   3.835 -0.1240 -0.0376 -0.0288
27648W        W42495  16.766   9.577  12.655 -0.1476 -0.0210  0.1704
27649W        W42496  15.082   0.945   3.230 -0.1573  0.0503  0.1591
27650W        W42497  11.639  10.874  17.020 -0.1902  0.0452 -0.0199
27651W        W42498  16.589   3.768  15.928 -0.0482 -0.4041  0.2343
27652W        W42499  16.873  11.631   5.579 -0.0970  0.2370  0.0882
27653W        W42500   1.078  14.300   5.896 -0.1620 -0.2098  0.2844
27654W        W42501  15.916   8.242  12.915 -0.0631  0.3200  0.1515
27655W        W42502   9.529  10.165  15.051  0.2096  0.1031  0.0701
27656W        W42503  17.876   5.052  16.347  0.0397 -0.0120 -0.3320
27657W        W42504   1.906  15.601   0.697  0.0882 -0.1007 -0.1300
27658W        W42505  13.359   8.114  11.833  0.2115 -0.1176 -0.1537
27659W        W42506  15.237   7.337  16.339  0.0588 -0.2699 -0.0010
27660W        W42507  13.291  17.147   6.677 -0.0242  0.1131 -0.4006
27661W        W42508  14.342   3.282  10.897 -0.0056 -0.2436  0.0472
27662W        W42509  10.595  12.874  16.757  0.0266 -0.1037  0.1610
27663W        W42510  10.457  14.168   5.413 -0.0409 -0.1061  0.1391
27664W        W42511   8.301   7.815  12.504 -0.2905 -0.2235  0.0332
27665W        W42512  15.936   2.122  16.003 -0.0012  0.0207 -0.0617
27666W        W42513  16.846  16.523  10.840 -0.0035  0.2936 -0.0664
27667W        W42514  12.239   2.040  12.440 -0.2477 -0.0504  0.1370
27668W        W42515   8.929   4.314  12.788  0.0440 -0.0104 -0.2046
27669W        W42516   0.339  12.845  15.371  0.0488  0.0231 -0.1381
27670W        W42517   6.932  13.513   0.919  0.1428  0.1040  0.2613
27671W        W42518   3.855  16.919  13.454  0.2463 -0.1549  0.4428
27672W        W42519  14.140  10.954   3.005  0.1066  0.2634 -0.2292
27673W        W42520   0.833  11.828   4.492  0.3008 -0.1525  0.0148
27674W        W42521  10.943   7.469  12.121  0.0504  0.0629  0.0677
27675W        W42522  10.506  14.181   3.562  0.0871 -0.2445  0.1015
27676W        W42523   9.320  16.920   5.933  0.1247 -0.3459 -0.2573
27677W        W42524  11.825   1.640  16.036 -0.3317 -0.4514 -0.0910
27678W        W42525  12.815   5.338  15.488  0.0890 -0.1378  0.4810
27679W        W42526   3.694   4.203  14.255  0.0736  0.0077 -0.0005
27680W        W42527  12.677   9.800   0.021 -0.1170 -0.1602  0.2489
27681W        W42528  17.398   3.217   1.846  0.0552 -0.2206 -0.1479
27682W        W42529  13.897   3.467  11.594  0.0566 -0.2348  0.2093
27683W        W42530   0.236   0.582   0.352 -0.1161 -0.3410 -0.1849
27684W        W42531  13.031  14.028   1.033 -0.2463 -0.1751  0.0986
27685W        W42532  10.195  10.582   2.426 -0.2615 -0.0212  0.0392
27686W        W42533  11.463   2.867   3.776  0.0368  0.1175  0.0158
27687W        W42534   8.042   1.448   2.724 -0.2914 -0.0081  0.3994
27688W        W42535  12.140   7.161  12.800 -0.3682  0.0801  0.0542
27689W        W42536  16.526   3.071   3.859 -0.0658 -0.0188 -0.0815
27690W        W42537   5.255   8.358  14.283 -0.0136  0.2677  0.2997
27691W        W42538   8.585   8.340  16.062  0.1345  0.0238 -0.0044
27692W        W42539  12.985   2.224  14.278  0.2804  0.0058 -0.1355
27693W        W42540  11.177   9.734  16.835  0.1445 -0.1779 -0.1809
27694W        W42541  15.680   0.902   1.834 -0.1070  0.2395 -0.3459
27695W        W42542   3.004   6.183  16.645 -0.2238 -0.0398 -0.1512
27696W        W42543   0.003   1.842   2.387  0.3410 -0.1037  0.2579
27697W        W42544   8.428   2.840   0.899 -0.0719 -0.1304 -0.1616
27698W        W42545  13.006  14.624   3.632 -0.0417  0.0606  0.1677
27699W        W42546  16.088   1.021   2.144 -0.1022 -0.2524  0.0878
27700W        W42547  17.150   7.059   5.336  0.3542 -0.2134  0.1633
27701W        W42548  14.573   4.684  11.749 -0.1777  0.0772 -0.0285
27702W        W42549  14.086   7.782  13.709 -0.0498 -0.0973 -0.0874
27703W        W42550  13.519   7.347   0.881  0.0209 -0.2425  0.0595
27704W        W42551   6.907  16.636  16.347  0.0498  0.2326  0.4463
27705W        W42552  11.575   8.125  14.211 -0.2953  0.2118  0.0530
27706W        W42553  17.206   4.349   1.314 -0.2319 -0.0670 -0.2971
27707W        W42554  12.826   8.276   1.964 -0.1858  0.3059 -0.0089
27708W        W42555   9.800  10.081   2.927  0.4011 -0.2520 -0.0217
27709W        W42556  15.617   8.493   1.432 -0.0582  0.2982  0.0577
27710W        W42557  13.222  13.413  12.351 -0.0604 -0.2169  0.0574
27711W        W42558  14.260   7.639  15.874  0.2160 -0.2454 -0.0174
27712W        W42559  12.479   8.943  15.161 -0.3372  0.0505 -0.0360
27713W        W42560   6.507  15.447  15.399 -0.0821  0.1072 -0.0521
27714W        W42561  13.800  12.045   5.931 -0.1184 -0.1647  0.2332
27715W        W42562   8.856   6.044  16.059  0.0365  0.1447 -0.1412
27716W        W42563  14.108  10.093  16.517 -0.0878 -0.0434  0.0037
27717W        W42564  12.271   5.132   1.291  0.1510  0.1288 -0.0376
27718W        W42565  10.838   8.829   1.775 -0.0591  0.0797 -0.0893
27719W        W42566  12.885   1.595   3.683  0.0031 -0.0982  0.0186
27720W        W42567  13.035  15.927  14.202  0.1097 -0.3221  0.0439
27721W        W42568  17.647  15.094   5.063  0.1477  0.1637 -0.0566
27722W        W42569  10.489  15.519   4.616 -0.0094  0.1630  0.0153
27723W        W42570  17.119   6.972  13.011 -0.2939 -0.0023  0.1248
27724W        W42571  16.874  15.983  13.193 -0.0330 -0.1224 -0.0239
27725W        W42572  14.984   5.386   4.634 -0.1002  0.0756  0.2285
27726W        W42573  15.880   0.902   3.468 -0.1601 -0.2678  0.0576
27727W        W42574   0.373   2.700   2.402 -0.2908  0.2908 -0.1843
27728W        W42575  16.031  15.327   5.049  0.1332  0.0119  0.1270
27729W        W42576  16.205   9.611   1.890 -0.4463 -0.1005  0.2670
27730W        W42577   8.373  12.752  12.926 -0.2164  0.0078  0.2456
27731W        W42578  12.121   6.148  16.637 -0.1457 -0.1487 -0.2171
27732W        W42579   5.637  16.349   3.212 -0.0611  0.0785 -0.0314
27733W        W42580  14.021   7.076   3.052 -0.0470 -0.0443 -0.1862
27734W        W42581  10.561  14.749  11.733  0.0354  0.0623 -0.0049
27735W        W42582   9.051  17.379   4.838  0.3263  0.1969  0.0799
27736W        W42583  14.491  13.614   0.206  0.1185  0.0401 -0.1472
27737W        W42584   0.676   9.626   0.902 -0.1267 -0.2697  0.1366
27738W        W42585   0.386  11.504   2.641  0.2197 -0.2391 -0.2260
27739W        W42586   3.437   7.713  16.026 -0.1123  0.0862  0.3066
27740W        W42587  12.839  10.213   4.525 -0.1286 -0.0370  0.0255
27741W        W42588  16.568   5.363   5.778 -0.2612  0.0396 -0.2951
27742W        W42589  10.691   9.662  15.094  0.2102  0.2522  0.2059
27743W        W42590   0.009   9.548   1.181  0.1583  0.0975  0.1670
27744W        W42591   2.279  15.711   5.056  0.2739 -0.2850 -0.1435
27745W        W42592  14.794   4.929   4.506  0.0799  0.0813 -0.0721
27746W        W42593   0.721  11.120  13.999 -0.0746  0.0708 -0.1071
27747W        W42594  16.196  13.956   5.186  0.1537  0.1435 -0.2407
27748W        W42595  17.223   6.464  11.348 -0.2217  0.3084 -0.1018
27749W        W42596  15.650   1.982  10.246 -0.3161 -0.0911  0.1065
27750W        W42597  15.554  16.440  16.701  0.0657  0.0051  0.0072
27751W        W42598   9.244   2.735   5.576 -0.0142  0.0484  0.0794
27752W        W42599  14.050  11.799  16.374 -0.0769  0.2454 -0.1086
27753W        W42600   9.836   9.380   3.986  0.0765  0.3818 -0.1190
27754W        W42601   0.759   4.793  16.319  0.0046 -0.2209  0.2828
27755W        W42602  13.032  16.803   3.793 -0.1500  0.2523  0.0116
27756W        W42603   1.113  11.730   3.678  0.0885 -0.0092  0.0207
27757W        W42604   1.806   1.936  16.464 -0.3035  0.0117  0.1673
27758W        W42605   9.294   7.892  13.127 -0.1969 -0.0612 -0.1747
27759W        W42606  13.210  17.788  14.913  0.1914 -0.5105 -0.1570
27760W        W42607  16.423   1.401   3.195 -0.1399 -0.0931  0.0926
27761W        W42608  16.741   8.143   6.419  0.0535  0.1888 -0.3277
27762W        W42609  11.179  12.482   3.630 -0.0511 -0.1720  0.1116
27763W        W42610  13.223   6.125  13.587 -0.1112 -0.2197  0.0479
27764W        W42611  14.343  13.975   5.552  0.2642  0.3175  0.1104
27765W        W42612  13.945   2.754  16.929  0.0267 -0.1723  0.4059
27766W        W42613  10.637   1.618  11.005 -0.1093  0.2401  0.0844
27767W        W42614   0.123   3.690  14.216  0.0217  0.0249  0.1698
27768W        W42615  15.743  11.671  10.848 -0.1150  0.1043  0.2641
27769W        W42616   8.998   9.438   3.108 -0.2885 -0.0955 -0.1292
27770W        W42617  12.610  15.726   0.296 -0.0879 -0.1807  0.1269
27771W        W42618   8.865   3.809  12.806  0.4218  0.3219  0.1829
27772W        W42619  14.910  11.741  12.296  0.0745  0.2147  0.1752
27773W        W42620   6.831  10.581   2.659 -0.0700 -0.0452 -0.3186
27774W        W42621   1.463  14.343  15.120 -0.0581 -0.0200 -0.0013
27775W        W42622  13.949   0.500   3.400  0.2047  0.0411  0.1867
27776W        W42623  11.512   8.214  15.571 -0.1241  0.0876  0.2490
27777W        W42624  13.788   0.176   2.934  0.2394 -0.2652 -0.3509
27778W        W42625  12.432   3.085   2.249  0.3879 -0.1653 -0.1672
27779W        W42626  14.817   2.044   1.261 -0.0798 -0.0532 -0.1157
27780W        W42627  13.483   3.075  13.462 -0.2318  0.0542  0.7159
27781W        W42628  11.540   1.986   0.890 -0.0536 -0.0515 -0.0000
27782W        W42629   6.290   0.587   5.206 -0.3519 -0.0697 -0.1842
27783W        W42630  11.831   6.717   1.164  0.1541 -0.3034 -0.3734
27784W        W42631   0.581   0.912  14.039  0.2407 -0.0271  0.0052
27785W        W42632   9.262   2.452  15.524  0.1097 -0.1345  0.0356
27786W        W42633  12.607   7.090   4.519  0.1415 -0.2096  0.1602
27787W        W42634  16.535  15.289  15.179 -0.2493 -0.1428  0.0502
27788W        W42635   9.713   9.438  13.010  0.2370 -0.0510  0.1465
27789W        W42636  14.877   8.902   0.621  0.2052  0.0622 -0.1549
27790W        W42637  12.934  12.209   1.169 -0.0227 -0.1765 -0.2704
27791W        W42638   0.911  15.410   5.418  0.0153  0.0619 -0.1093
27792W        W42639   6.972  13.331  15.561  0.2382 -0.0488 -0.0543
27793W        W42640  12.106   1.559   4.696 -0.2052 -0.0079 -0.0542
27794W        W42641   0.790   7.860  12.538  0.1337 -0.0959  0.1653
27795W        W42642  13.699  12.825   0.521  0.0865 -0.2719  0.1272
27796W        W42643  15.008  13.922  16.163 -0.2161  0.2859 -0.1126
27797W        W42644   0.583   2.456   0.598  0.0866  0.0901  0.1473
27798W        W42645   8.450  10.203   3.016  0.2254  0.2794  0.3218
27799W        W42646  17.919   1.467  10.761 -0.0474  0.1099 -0.2272
27800W        W42647  17.212  10.443  12.748 -0.2896  0.0843  0.0412
27801W        W42648  13.047   1.693  14.529  0.2386  0.0539 -0.2761
27802W        W42649  10.383   3.826   3.983 -0.0829  0.0016 -0.0811
27803W        W42650  13.712  10.115   5.381  0.2384 -0.3717 -0.0257
27804W        W42651  11.217   1.107  15.778  0.1006 -0.3860  0.1505
27805W        W42652  14.382   6.189  10.243 -0.2461  0.1736  0.0385
27806W        W42653   3.184  15.259   5.298  0.0652  0.0797 -0.1491
27807W        W42654   6.956   8.773  12.571  0.2033 -0.0603 -0.2539
27808W        W42655  16.714   1.552   4.308  0.2963 -0.1233  0.0284
27809W        W42656   3.395   9.157  14.314  0.0738  0.2826  0.0036
27810W        W42657   0.965   4.358  14.546  0.0007 -0.2591 -0.1592
27811W        W42658  12.566   0.197   6.196  0.1104  0.1265  0.0614
27812W        W42659  13.402   4.249   0.902  0.2006 -0.4005 -0.0727
27813W        W42660  13.234   0.593   1.092  0.1332  0.0967  0.1716
27814W        W42661  14.807   1.024  11.173  0.3934  0.2624  0.3346
27815W        W42662   0.314  16.106  14.602  0.0510 -0.0911  0.1717
27816W        W42663  14.160   4.085  11.401 -0.1368 -0.0182 -0.2454
27817W        W42664   2.395   2.742   3.726 -0.0770  0.0224  0.1249
27818W        W42665   4.843   0.504   3.915 -0.0921 -0.4173  0.2310
27819W        W42666  13.420   0.727   4.859  0.3157 -0.0605  0.2086
27820W        W42667  14.666   6.981   5.472  0.2110 -0.0310 -0.2258
27821W        W42668   9.995   6.751  15.699  0.2161 -0.1672 -0.1364
27822W        W42669   8.529   5.381  15.505  0.2141 -0.4019 -0.0524
27823W        W42670   6.075   7.200   4.852  0.0205  0.1459  0.0833
27824W        W42671  17.887   7.565   0.030  0.1643 -0.1879 -0.0501
27825W        W42672   3.563  13.302  12.481 -0.0288  0.0145  0.1383
27826W        W42673   3.928  11.541  16.091  0.0541  0.0950  0.2261
27827W        W42674  17.774   7.600  15.511  0.1107  0.2884  0.1163
27828W        W42675   6.133   3.071  13.168 -0.1245 -0.1517  0.0402
27829W        W42676   2.601  15.900   5.924 -0.0030 -0.2060  0.0507
27830W        W42677  14.777   2.495   6.628  0.0016 -0.1775 -0.2372
27831W        W42678  10.345   7.977   3.348  0.0641  0.0998 -0.0486
27832W        W42679  16.704   0.383  12.608  0.2001  0.1332  0.1599
27833W        W42680  15.812  17.881   3.719 -0.1744  0.0583  0.0872
27834W        W42681  15.054   6.194   5.287 -0.0409 -0.1025  0.0383
27835W        W42682   2.933   6.877  12.785 -0.1364  0.0719  0.0631
27836W        W42683  13.692   9.920  12.754 -0.1689 -0.1544 -0.1039
27837W        W42684  14.664   2.214  13.129 -0.0367  0.3980 -0.0506
27838W        W42685   6.037  11.662  14.985 -0.0054  0.0190  0.3331
27839W        W42686   3.045  12.354   0.601  0.3306  0.0807 -0.1556
27840W        W42687  11.286  14.589   6.296  0.1830  0.2560  0.0066
27841W        W42688  16.372  15.038  12.818 -0.1256 -0.0195 -0.1003
27842W        W42689  10.460   7.693   4.239  0.1440  0.1121 -0.1252
27843W        W42690   7.479   1.482  12.450 -0.2403  0.0993 -0.2557
27844W        W42691   2.614   4.075  15.719  0.2034  0.3415 -0.0032
27845W        W42692   2.086   3.346   5.672  0.1313  0.0960 -0.1451
27846W        W42693  14.285   5.180  15.148  0.1376 -0.0102  0.1685
27847W        W42694  12.111   8.423  12.574 -0.3225 -0.0902  0.1071
27848W        W42695   1.682  16.657  15.086 -0.0931  0.2933  0.0934
27849W        W42696  11.124  12.890   6.510  0.0106 -0.1791 -0.2090
27850W        W42697  15.215  10.882   1.103  0.0098 -0.1222 -0.0707
27851W        W42698  12.772  11.041  14.182 -0.1334  0.0629  0.0224
27852W        W42699  15.852   4.370  16.996  0.2271 -0.0004  0.2756
27853W        W42700  13.213  14.104  12.757 -0.0686  0.2930 -0.0712
27854W        W42701  14.328  16.708  11.644  0.0144  0.0312  0.0511
27855W        W42702  17.546  14.413  13.849 -0.0204  0.0484  0.0324
27856W        W42703  15.899  13.157   0.505  0.1499 -0.1923 -0.1376
27857W        W42704  10.065   0.547   1.941 -0.1008  0.3112 -0.1858
27858W        W42705  16.860   7.085   4.910  0.2453  0.3697 -0.0495
27859W        W42706  15.218  12.840  13.957 -0.1496  0.1888  0.0694
27860W        W42707   9.598  15.450  11.646 -0.0166 -0.2501 -0.0563
27861W        W42708   9.828  10.574   2.756 -0.2981  0.2097  0.0767
27862W        W42709  15.715   7.624  12.812 -0.0827 -0.0791  0.0719
27863W        W42710   0.711  16.209   4.090 -0.0255 -0.1565 -0.0513
27864W        W42711   1.647  17.718   0.730  0.1065  0.3900 -0.1257
27865W        W42712   6.191  11.306  13.657  0.0956  0.0330  0.0765
27866W        W42713  17.187   4.267   1.825  0.0841 -0.1485  0.0331
27867W        W42714  13.912  11.598   3.045 -0.0671 -0.0098  0.1391
27868W        W42715  11.919  11.109  10.975 -0.0626  0.1235 -0.2679
27869W        W42716  11.694  17.292  12.513  0.2095  0.0814  0.2006
27870W        W42717  12.043  16.488   1.807 -0.1298 -0.1518 -0.0282
27871W        W42718  15.816   9.433  14.525 -0.1973  0.0250 -0.0374
27872W        W42719  17.866   6.793  11.853 -0.1972 -0.0609 -0.2510
27873W        W42720  14.371  16.083   5.535  0.2506  0.1856  0.0050
27874W        W42721  16.119   1.115   1.624 -0.0903  0.1108 -0.1850
27875W        W42722  15.929  12.096  12.270 -0.0402  0.0287 -0.1590
27876W        W42723  13.207   8.276   5.865 -0.0190  0.0009 -0.5234
27877W        W42724  14.626   7.621   4.297  0.2244  0.0446  0.2157
27878W        W42725  13.891   7.012  14.553  0.0267  0.1165 -0.3579
27879W        W42726   5.335   2.396   0.235  0.2405 -0.0143 -0.1117
27880W        W42727   2.295   7.024   0.282  0.2775 -0.0356  0.2371
27881W        W42728  13.309   5.289   6.556  0.0732 -0.0185  0.1160
27882W        W42729  16.549  10.131   4.226  0.2029  0.2973 -0.0961
27883W        W42730  15.480  11.489   2.541  0.1685  0.0677  0.2870
27884W        W42731   1.721  12.549  16.400 -0.1283 -0.0748 -0.4638
27885W        W42732   1.346   7.321   0.325  0.0447  0.0452  0.0356
27886W        W42733  16.230  16.301  11.416  0.0321  0.1668 -0.1718
27887W        W42734  14.988  10.892  17.034  0.0562  0.0543 -0.1015
27888W        W42735  11.223   6.985  17.092 -0.1833 -0.0604 -0.0315
27889W        W42736  13.396  16.223   0.247 -0.1566  0.0080  0.0449
27890W        W42737  15.021   2.971  15.212  0.3351  0.1697  0.1756
27891W        W42738  12.810  14.756  16.757  0.0747  0.1981 -0.0539
27892W        W42739  14.994  12.736  16.875 -0.0259  0.3240  0.0097
27893W        W42740  12.327  13.227   2.199 -0.1037 -0.2329  0.0084
27894W        W42741  17.271   6.156  10.981  0.1054 -0.2299  0.1577
27895W        W42742  15.113  11.085   9.834 -0.0579  0.0295  0.0791
27896W        W42743   1.348  10.928   4.099  0.1528  0.1122 -0.2643
27897W        W42744  12.512  17.540  16.574 -0.1451 -0.1259  0.1280
27898W        W42745   2.159  16.655  14.919  0.1497 -0.2060 -0.1470
27899W        W42746  16.012   7.634  16.446  0.2675  0.0736  0.2338
27900W        W42747   2.182   1.376  14.544  0.1982  0.3971 -0.0974
27901W        W42748  13.161  11.385  17.047  0.1405 -0.0915 -0.2245
27902W        W42749  13.301  10.360  11.836 -0.0091 -0.4336  0.0496
27903W        W42750  17.555   0.943   1.466  0.0021  0.0871 -0.3164
27904W        W42751  13.733   9.006   5.533 -0.2583  0.1188 -0.2522
27905W        W42752  11.104   6.510   6.639 -0.2137  0.1270 -0.1478
27906W        W42753  14.214   5.926   3.968 -0.1984  0.1401 -0.0161
27907W        W42754   1.423   9.613  15.379 -0.0737 -0.1184 -0.0041
27908W        W42755  15.681  14.273  14.557  0.1390 -0.0788 -0.0011
27909W        W42756   9.870  17.551  14.418  0.1284  0.1643 -0.2432
27910W        W42757  13.334   5.954   0.453  0.5379  0.2521  0.1608
27911W        W42758   0.748  15.873  12.193  0.0084 -0.0955 -0.1322
27912W        W42759   1.379   0.477   1.938  0.1834 -0.2634 -0.1620
27913W        W42760  14.575   7.396  14.964  0.1363  0.1745 -0.2027
27914W        W42761  15.321   6.382   4.397 -0.0584 -0.0067 -0.1913
27915W        W42762  10.200   0.056  13.174 -0.1519 -0.2482  0.0696
27916W        W42763  15.819  17.090  11.951 -0.4328  0.0027 -0.1842
27917W        W42764  10.379   2.010  17.116  0.0431  0.1913  0.0518
27918W        W42765  16.062   8.528   1.014  0.0671  0.0166  0.0692
27919W        W42766  12.193  11.998   6.043  0.0135  0.1153  0.2211
27920W        W42767  13.921  10.231  13.115  0.0111  0.1381 -0.2513
27921W        W42768  17.560  14.721   5.494  0.2390 -0.0041  0.2718
27922W        W42769  10.365  16.046  14.163  0.3258 -0.0069  0.1636
27923W        W42770   3.074   8.432   1.213  0.1624  0.1876 -0.0002
27924W        W42771  14.361  13.004  16.476  0.0907  0.2755 -0.0509
27925W        W42772  13.262   9.477   0.627 -0.0856  0.1642 -0.0106
27926W        W42773  11.602  13.743  12.096 -0.0539 -0.2008  0.4762
27927W        W42774   9.815  17.235   3.949 -0.0743  0.1044 -0.2852
27928W        W42775   7.984  16.754  11.185 -0.0342 -0.0466  0.0804
27929W        W42776   4.112   6.379  13.686  0.0326  0.4232 -0.2488
27930W        W42777  10.211   4.683  16.733 -0.0267  0.2607 -0.0668
27931W        W42778  15.369   6.840  13.381 -0.1017 -0.3308  0.1657
27932W        W42779   2.899  14.111   1.292  0.1092  0.3908 -0.0896
27933W        W42780  10.935  13.761  16.680  0.1411  0.0472  0.0826
27934W        W42781  12.635   2.627  12.203  0.2240 -0.0953 -0.1695
27935W        W42782   0.075  14.012   3.413 -0.3464  0.0545  0.1129
27936W        W42783   5.459   4.312  12.491  0.1921  0.1185  0.0649
27937W        W42784   9.412  17.178  11.697 -0.0243  0.1732  0.2384
27938W        W42785  17.172  14.731  13.834  0.0239 -0.0363 -0.1500
27939W        W42786  13.715  14.435   3.119  0.0154 -0.1337  0.1416
27940W        W42787   9.255  14.273  13.363 -0.2748 -0.0532 -0.0467
27941W        W42788   0.586  11.285  17.034  0.0741 -0.1326  0.2275
27942W        W42789  17.100  13.956  11.733  0.1172  0.0687 -0.2649
27943W        W42790  10.474   2.690  12.032 -0.0217 -0.1673 -0.1880
27944W        W42791   0.453   6.799   3.576  0.1800 -0.0190 -0.0553
27945W        W42792   9.308   6.537  13.650  0.1937  0.0739  0.1196
27946W        W42793  12.135   6.039  15.792  0.1560 -0.1637 -0.0211
27947W        W42794   0.919  12.332  12.589  0.3170  0.2205 -0.1707
27948W        W42795  15.937  15.233   1.288  0.0560  0.0600  0.0209
27949W        W42796   6.755  11.582   2.723 -0.1379  0.0150 -0.0992
27950W        W42797  16.482  16.045  11.007  0.0245 -0.2618  0.0001
27951W        W42798  16.230   7.530  14.413  0.0597  0.0965  0.2116
27952W        W42799  13.681  13.752  13.777  0.0976  0.1025  0.2064
27953W        W42800  10.663  17.150   4.296 -0.1308 -0.2127  0.2017
27954W        W42801  15.655   8.527   6.434 -0.0933  0.0447 -0.2003
27955W        W42802   6.913  11.598   2.173  0.2608  0.1103 -0.0002
27956W        W42803   3.020   8.931   4.738  0.1607 -0.1900 -0.2561
27957W        W42804   1.910  12.110   3.549 -0.1567  0.2749  0.0614
27958W        W42805   1.595   9.185  12.483 -0.1050 -0.2332  0.3122
27959W        W42806  14.541  16.733  16.697  0.0869 -0.2704  0.1966
27960W        W42807  16.891   8.905  13.790 -0.0197  0.0207  0.3902
27961W        W42808  12.248  11.140  17.041 -0.1343  0.0029 -0.1294
27962W        W42809  11.972  14.663   0.602 -0.0651  0.0015 -0.0726
27963W        W42810  13.505   7.617  11.561 -0.0715  0.0334  0.1364
27964W        W42811  14.679  17.934   1.395 -0.0254  0.0411 -0.0555
27965W        W42812  10.652   3.649  13.548  0.2541  0.2034 -0.0719
27966W        W42813  15.089  13.819   4.027  0.0630  0.2967 -0.0720
27967W        W42814   6.272  15.792   2.551 -0.2119 -0.0306  0.0427
27968W        W42815   0.449  15.416   5.646 -0.0757  0.0221  0.2426
27969W        W42816  17.881   7.488   1.327  0.0932  0.1108 -0.0448
27970W        W42817  17.504   3.836   0.111 -0.1727 -0.0087  0.1209
27971W        W42818  15.421  12.910  11.805  0.1352 -0.0895 -0.1729
27972W        W42819  13.996   1.786  15.058  0.0234  0.1254 -0.1272
27973W        W42820  13.050  10.223  13.616 -0.0132  0.1326  0.2634
27974W        W42821   1.134  11.052  16.155  0.0753 -0.0781 -0.0080
27975W        W42822  17.921   3.807   1.062 -0.2698 -0.0515  0.2643
27976W        W42823   0.235  13.980  15.405 -0.3325 -0.1352  0.1287
27977W        W42824  17.107   9.655  11.668  0.1093 -0.0797 -0.3119
27978W        W42825  17.156   8.255   4.251 -0.0810  0.2691  0.0744
27979W        W42826  16.416   1.135  11.546  0.2522 -0.0163 -0.0403
27980W        W42827   1.352  11.997  12.667 -0.4987  0.0305  0.0416
27981W        W42828  15.194   9.299  12.586  0.0242  0.0702 -0.0487
27982W        W42829  14.631  10.471   5.366  0.3180 -0.3827 -0.1212
27983W        W42830   1.668  15.377  16.354  0.0452 -0.1219 -0.0189
27984W        W42831   5.336  12.363  16.122 -0.1725 -0.0256 -0.0782
27985W        W42832   3.640   9.521   0.899  0.0205 -0.1125 -0.1922
27986W        W42833  17.291   8.419   5.644  0.1823 -0.0364 -0.2391
27987W        W42834   3.448   7.403  13.965  0.1624  0.1553  0.1758
27988W        W42835  16.731  11.282   2.995  0.0989  0.0110  0.1033
27989W        W42836   0.585   1.129  14.656  0.0730 -0.0833  0.0132
27990W        W42837   2.136   8.954  15.164 -0.1568 -0.0302  0.0924
27991W        W42838  10.559  10.346  14.734 -0.0778 -0.0506  0.0800
27992W        W42839  11.802  10.175   2.250 -0.1479 -0.0788 -0.0006
27993W        W42840  16.230  12.869  13.982 -0.0437  0.3979 -0.2891
27994W        W42841  14.760  14.998  16.406 -0.0917 -0.0960  0.0162
27995W        W42842   9.338  11.952   2.236  0.2908 -0.0191 -0.1636
27996W        W42843   1.961   3.873  11.726  0.0292  0.5008 -0.0490
27997W        W42844  16.632   8.810   3.929 -0.1094 -0.1659 -0.0111
27998W        W42845  12.488  10.015   4.900 -0.1674  0.1889  0.2044
27999W        W42846  15.885  11.076   4.350 -0.0977  0.1111  0.0724
28000W        W42847  14.688   8.646  15.283 -0.2554 -0.1149 -0.0996
28001W        W42848  13.766   3.867  10.926  0.0554  0.0240  0.1103
28002W        W42849  11.722   2.584  13.261  0.1794 -0.0326 -0.1751
28003W        W42850  17.330  12.092  14.405  0.4584  0.1268  0.0969
28004W        W42851  10.491   5.197   5.443  0.1195 -0.1651  0.3147
28005W        W42852  11.836  12.257  15.167 -0.0198  0.4375  0.0813
28006W        W42853  12.808   5.501   2.767 -0.2020 -0.3048 -0.1097
28007W        W42854  14.672   1.710   0.921  0.2690  0.0804  0.0208
28008W        W42855   0.569   8.226  15.183 -0.0768  0.0591 -0.2092
28009W        W42856  17.459   6.207   1.103 -0.1544  0.2165  0.2205
28010W        W42857   4.209   0.702   6.053 -0.3854  0.0378  0.1569
28011W        W42858  11.055   2.815   1.108 -0.3580  0.4930  0.2096
28012W        W42859  12.966   8.648  12.998 -0.3579  0.0647 -0.2238
28013W        W42860   7.895  14.741   3.489  0.1135 -0.0927  0.0729
28014W        W42861   4.365   7.023   1.394  0.3403 -0.3381 -0.0547
28015W        W42862  13.984  10.273   1.940 -0.2396 -0.0424 -0.0787
28016W        W42863   3.025   6.503  15.639 -0.3829  0.1030  0.1468
28017W        W42864  15.356   9.047  16.969 -0.0269  0.1179 -0.2719
28018W        W42865   0.898   4.511   0.242 -0.1145  0.0475  0.0581
28019W        W42866  17.055  14.785   4.053  0.1059  0.0182  0.0616
28020W        W42867   7.907   8.949  14.043 -0.2480  0.1360 -0.1705
28021W        W42868   9.675  16.585  11.688 -0.3175 -0.0290  0.0774
28022W        W42869  10.442   0.599  15.739  0.1948  0.3582  0.1824
28023W        W42870   3.060  10.590   0.227 -0.1024 -0.1255 -0.0805
28024W        W42871  15.103  13.758  12.837  0.0020 -0.3833 -0.0193
28025W        W42872  17.624   1.254   3.140 -0.1059  0.1802  0.1098
28026W        W42873  14.392   1.419  14.850  0.0287  0.1037 -0.0791
28027W        W42874  11.936  11.122   2.251 -0.1839  0.2247 -0.0829
28028W        W42875   1.699   6.393  17.074 -0.1272 -0.0599  0.0272
28029W        W42876  12.029  17.050  13.315 -0.1684  0.0686  0.2499
28030W        W42877   8.331   8.140   2.730 -0.1598 -0.1689  0.2445
28031W        W42878  13.093  12.319   5.098  0.0635  0.0473 -0.3419
28032W        W42879  14.638   2.007  15.643  0.1232 -0.0434  0.0649
28033W        W42880   4.411  17.847  14.155  0.0182 -0.1351  0.2524
28034W        W42881  11.252   6.284  15.266  0.1901  0.3583  0.0484
28035W        W42882  16.189   0.742  15.781  0.2032 -0.0726  0.0119
28036W        W42883  12.854   2.500  15.696 -0.1433 -0.0548  0.1353
28037W        W42884   5.971   0.651  17.072  0.1186 -0.1531 -0.0560
28038W        W42885  12.090   6.657  10.602 -0.0852 -0.1404  0.0427
28039W        W42886   1.912   3.676   6.087  0.3118 -0.1955 -0.3706
28040W        W42887  13.085   2.689  16.456 -0.0052  0.2704 -0.1488
28041W        W42888  15.592   8.371  15.659 -0.2256 -0.0441 -0.0856
28042W        W42889  13.173  12.504   2.509 -0.3147  0.0222  0.1527
28043W        W42890   9.550   0.575  14.245 -0.0182 -0.0188  0.1769
28044W        W42891   4.586   0.168  14.533 -0.2168 -0.1779  0.1866
28045W        W42892  15.022   6.011  16.534  0.0414  0.2668  0.3015
28046W        W42893  15.862  14.606  15.169 -0.0909  0.1582  0.0027
28047W        W42894  10.269  11.410   5.684  0.1450  0.0238  0.1749
28048W        W42895   8.669   6.743   4.917 -0.0348  0.1595  0.2293
28049W        W42896  14.426  16.708   0.936 -0.1328  0.0995  0.0144
28050W        W42897   5.703   5.743  13.499  0.1553 -0.1552  0.0700
28051W        W42898  13.015  16.424  11.589  0.1644  0.0368 -0.0555
28052W        W42899  14.002  13.143  10.154  0.0269  0.2992 -0.0567
28053W        W42900  15.052  11.580   1.195 -0.0056  0.0482 -0.0159
28054W        W42901  10.876  12.867   5.218  0.0340  0.1916  0.1712
28055W        W42902  17.406   3.216  11.824  0.0236 -0.1734  0.3552
28056W        W42903  17.404   6.885  12.596 -0.1798 -0.1216  0.1537
28057W        W42904  12.753  14.228   3.017 -0.0273  0.0408  0.1787
28058W        W42905   1.888   7.364  11.783  0.3034  0.2102 -0.0494
28059W        W42906  16.257  11.371   2.935  0.1411  0.4013 -0.1447
28060W        W42907  11.895  11.750  12.102  0.0496 -0.3614 -0.0194
28061W        W42908   2.657  17.474   2.984 -0.3278  0.2240  0.0573
28062W        W42909  14.598  12.656   4.341  0.0040  0.1144 -0.0387
28063W        W42910  13.661  15.755   5.470  0.1076 -0.1173 -0.3175
28064W        W42911  15.345  14.659  13.799  0.0337  0.1895  0.1322
28065W        W42912  13.892   3.035   4.474  0.2010 -0.1610 -0.2252
28066W        W42913  16.726  12.557   3.029 -0.1925  0.2644 -0.2842
28067W        W42914  14.030  14.210  11.147 -0.0928  0.1972  0.2201
28068W        W42915   8.172   7.370   0.451 -0.2308  0.1408 -0.0715
28069W        W42916   1.291   5.895   3.243 -0.1347  0.1701  0.0978
28070W        W42917  13.497  15.139   5.619 -0.0498 -0.4430  0.1678
28071W        W42918  11.990  15.109   0.854  0.2236  0.0758  0.0248
28072W        W42919   2.425  12.862  14.360  0.1415  0.4212  0.2208
28073W        W42920   0.315   3.049  14.283 -0.0479 -0.1114  0.0335
28074W        W42921  10.271  16.941   3.952 -0.4680  0.2407  0.1772
28075W        W42922  16.971   2.341  13.990 -0.0567  0.1177 -0.1095
28076W        W42923   5.501  12.489   3.572 -0.1166  0.0028 -0.0518
28077W        W42924   7.060   3.882   1.230  0.1064  0.0183  0.1951
28078W        W42925  13.885  17.468   3.633  0.0929  0.2384  0.0823
28079W        W42926   1.936   1.983   6.081 -0.0923  0.3405  0.3867
28080W        W42927   9.492   6.882  15.900  0.0149 -0.3220 -0.2870
28081W        W42928   0.650   3.639  14.957 -0.1830 -0.0985 -0.0184
28082W        W42929   0.302  10.831   4.376 -0.1314  0.0340 -0.1521
28083W        W42930   6.276  14.047   0.423 -0.2417  0.4230 -0.0327
28084W        W42931  12.513  17.052  12.892  0.1400 -0.3296 -0.0771
28085W        W42932   4.395  13.504  12.182  0.0898 -0.1296  0.3804
28086W        W42933   6.912  17.810  12.557 -0.1542  0.1803  0.2209
28087W        W42934  11.360   6.568   1.298  0.0980  0.1275 -0.0246
28088W        W42935  17.716  14.918   1.805 -0.1129 -0.2552  0.2229
28089W        W42936  17.463   0.371  16.166  0.2107 -0.1107  0.0380
28090W        W42937  10.975   6.810   4.666 -0.1877  0.0013  0.0550
28091W        W42938  16.729   6.805  11.281  0.1279 -0.1716 -0.1638
28092W        W42939   9.441   9.028  13.893  0.2216  0.0748 -0.2904
28093W        W42940   8.802   4.777   2.854  0.3026  0.1089 -0.1102
28094W        W42941  16.664  16.327   1.128 -0.3338 -0.0420 -0.0410
28095W        W42942  10.453   8.469   6.018 -0.1796  0.2336  0.0298
28096W        W42943   7.878   4.279   0.854  0.0014  0.0001 -0.1074
28097W        W42944  17.473   4.279   4.256  0.0055 -0.1357  0.2601
28098W        W42945  15.474   1.791   3.867  0.0854  0.0844  0.0984
28099W        W42946  16.607  10.803   0.437 -0.2896  0.2147  0.1802
28100W        W42947  11.646  14.111   2.700 -0.2013 -0.0448 -0.3108
28101W        W42948   7.976   4.340   1.954  0.0160  0.2824 -0.0118
28102W        W42949  14.894  11.115   4.212 -0.0083  0.0084  0.0466
28103W        W42950  15.486   4.321  11.449  0.0367 -0.0781 -0.2153
28104W        W42951   5.648  11.971   5.015 -0.3344  0.0412  0.0283
28105W        W42952  15.644   1.352  13.107 -0.1918 -0.0991  0.0831
28106W        W42953  17.482  14.537  11.964  0.0956 -0.2088  0.1645
28107W        W42954  15.069  16.947   3.833 -0.1396 -0.3141 -0.0666
28108W        W42955  16.350   6.269  12.273  0.1212 -0.1130 -0.2365
28109W        W42956   5.892  12.046  13.257 -0.0161  0.1089  0.1744
28110W        W42957   4.837   7.869  13.306  0.1349 -0.2258  0.0230
28111W        W42958   0.638  10.195   0.819  0.4306 -0.1331  0.0061
28112W        W42959  15.101   9.098  11.861  0.2782 -0.3381  0.2986
28113W        W42960   1.748   5.198  16.359  0.1930  0.0442 -0.3235
28114W        W42961   8.070   5.966   2.091 -0.2126  0.0769 -0.2470
28115W        W42962  14.373  11.307  14.942 -0.0475  0.6368  0.1836
28116W        W42963  13.175   6.476  14.111 -0.0791 -0.0236  0.0993
28117W        W42964   3.168  14.456   0.827 -0.4539 -0.2205  0.1357
28118W        W42965  13.747  17.490   5.425 -0.0205 -0.0414  0.0756
28119W        W42966  12.666  10.357   3.355 -0.1319 -0.0170 -0.0817
28120W        W42967  12.827   6.338   5.317  0.0260 -0.2971 -0.0241
28121W        W42968  16.365   6.481  11.790 -0.0045  0.0265 -0.0621
28122W        W42969   7.140   3.947  12.950  0.1144 -0.2162  0.3333
28123W        W42970  13.661   8.758   0.407  0.0244  0.0481  0.0300
28124W        W42971  16.608   3.934   5.472  0.1950 -0.2754 -0.1728
28125W        W42972  16.902   3.922  13.483  0.0564  0.1097  0.0121
28126W        W42973   6.987   9.704  14.015 -0.2149  0.1178  0.0371
28127W        W42974  10.985  13.153   4.814  0.0168  0.0411  0.0054
28128W        W42975  11.517  13.423   4.996  0.0826  0.1115  0.0564
28129W        W42976   7.133  15.489   5.244 -0.2936  0.0212 -0.2832
28130W        W42977   0.564   9.213  13.781 -0.1429 -0.2850  0.2227
28131W        W42978   5.529   0.502  14.452  0.2423 -0.0595  0.0106
28132W        W42979  12.758  10.992  13.017 -0.0509  0.0264 -0.0949
28133W        W42980  15.534  10.455   1.112 -0.2794 -0.4011 -0.0918
28134W        W42981   3.387   7.066   0.445  0.2180 -0.0007  0.1125
28135W        W42982  10.016  16.469  14.637 -0.2000 -0.0247  0.0560
28136W        W42983  11.884   2.478   6.233  0.0546  0.4462  0.2735
28137W        W42984  16.179  16.965   2.564 -0.3104 -0.3483 -0.1714
28138W        W42985  15.401   7.950  12.364  0.2390 -0.0786 -0.1811
28139W        W42986  12.668  15.886  14.992  0.0553  0.2103  0.0828
28140W        W42987  15.643  16.102  13.510  0.0077  0.0404 -0.2396
28141W        W42988  11.880  13.089   2.539  0.2009  0.0974  0.0213
28142W        W42989  14.148   2.043   2.355 -0.2742 -0.0004  0.2287
28143W        W42990   7.755   9.500   4.087 -0.0180  0.3508 -0.1993
28144W        W42991  17.640   3.698  11.820  0.3341  0.2981 -0.1134
28145W        W42992  10.104   7.123  14.443  0.1000  0.2408 -0.1974
28146W        W42993  10.027   6.367   4.533 -0.1782 -0.1204  0.2136
28147W        W42994  15.371   7.503  14.742 -0.0155 -0.0108  0.1054
28148W        W42995  14.897   4.439  12.194 -0.0766  0.1884  0.0243
28149W        W42996  12.334   2.855  16.184  0.0811 -0.1744 -0.1246
28150W        W42997  16.370   8.246   4.840 -0.0613  0.1027 -0.0091
28151W        W42998   1.824   0.164  13.867  0.0339 -0.1110 -0.0444
28152W        W42999  16.686   7.142   6.615 -0.2164  0.2451 -0.3069
28153W        W43000  11.464   7.419   0.757  0.0361 -0.1320  0.2352
28154W        W43001  11.112  10.715   2.109 -0.1040 -0.0879 -0.0450
28155W        W43002   0.026  10.155   4.955  0.0811 -0.0894 -0.2560
28156W        W43003   8.630  14.871   4.043 -0.1162  0.2317 -0.2647
28157W        W43004  10.757   1.472  11.889 -0.1146  0.1844 -0.0684
28158W        W43005   1.704   0.313  14.355 -0.1477 -0.1139  0.1094
28159W        W43006  13.834  11.411  15.543  0.1729 -0.0112  0.0012
28160W        W43007  11.658  10.441   1.558 -0.2999  0.1793  0.1900
28161W        W43008   9.311   3.036   4.089  0.0433  0.4619  0.3472
28162W        W43009   9.493   9.649   1.331  0.0107 -0.1337 -0.0536
28163W        W43010  15.530   5.056   5.796  0.0777 -0.1104 -0.0203
28164W        W43011   2.858   6.052  12.380  0.0130  0.2559  0.3892
28165W        W43012   0.232   7.894   4.521 -0.1624 -0.2223  0.3543
28166W        W43013  16.655  15.896  14.522  0.3812  0.2241 -0.1943
28167W        W43014  11.628  15.412   0.683  0.3430 -0.0603  0.1438
28168W        W43015   9.740   7.959  14.804  0.1172 -0.0782  0.4286
28169W        W43016  11.271   0.757   1.574 -0.0397  0.1275  0.1385
28170W        W43017  15.735  10.602  10.521 -0.3851  0.1403 -0.0052
28171W        W43018  13.806   2.455  11.658 -0.1082 -0.0598  0.1406
28172W        W43019  13.008   3.484  15.684  0.0823 -0.0994 -0.3925
28173W        W43020  13.513  11.271   3.067  0.1897 -0.0182 -0.1231
28174W        W43021  17.736  10.654   4.666  0.3062 -0.0739 -0.1581
28175W        W43022  10.594   8.038   0.078 -0.4675 -0.1573  0.1099
28176W        W43023  15.542  10.936   2.536  0.0498 -0.0847 -0.1811
28177W        W43024   2.476  14.646   0.323  0.0039  0.2711  0.2380
28178W        W43025  15.034  17.660  15.560 -0.1908 -0.0294 -0.0710
28179W        W43026  12.563  14.726   0.917  0.1383 -0.1452  0.1207
28180W        W43027  11.761  17.377  16.130 -0.3666  0.1330 -0.2736
28181W        W43028  10.604  11.446  11.965  0.0070 -0.0774 -0.2156
28182W        W43029  17.430  15.316   0.515  0.0920  0.1268 -0.0038
28183W        W43030   0.054   7.536  12.142 -0.2241  0.0451 -0.0214
28184W        W43031  17.277  17.266  12.894 -0.0404 -0.1855 -0.2011
28185W        W43032   6.528   2.608   3.117  0.0826 -0.3523  0.1311
28186W        W43033  10.176   9.312  16.058  0.0060 -0.1291  0.1530
28187W        W43034  12.482   0.260  15.044  0.1357 -0.3243  0.1497
28188W        W43035  17.158  14.463   5.331 -0.0339  0.0123 -0.2143
28189W        W43036   4.968   3.758  16.295 -0.1594 -0.1922  0.1482
28190W        W43037  15.168   4.595   5.561  0.0393 -0.1249 -0.3745
28191W        W43038  10.749  13.200  15.183 -0.4331  0.0372 -0.0531
28192W        W43039  17.281   3.998   5.253 -0.2939  0.1331  0.0252
28193W        W43040   8.911   8.582   3.689  0.1283  0.2453 -0.1766
28194W        W43041   1.045   1.883  13.736  0.0863  0.0602 -0.1900
28195W        W43042   4.050  12.902  16.235 -0.3316  0.1606  0.2240
28196W        W43043   9.989  14.725   7.241 -0.0085 -0.0538  0.0198
28197W        W43044  10.852   0.828   2.321  0.2826  0.3579 -0.0970
28198W        W43045  11.993   2.142   3.687  0.2388  0.1997  0.1312
28199W        W43046  14.984   2.618  13.438  0.0011 -0.0395 -0.0851
28200W        W43047   3.804   1.574  13.901  0.4112  0.2852 -0.2032
28201W        W43048   8.266   5.152  16.297  0.3135  0.0371 -0.0796
28202W        W43049  16.906  15.101   4.900 -0.0112  0.2323 -0.1162
28203W        W43050   0.539  13.569  13.638  0.2460  0.1172  0.5181
28204W        W43051  12.718   2.580  11.636  0.0774 -0.0301 -0.0204
28205W        W43052  16.674  15.626  12.955  0.1239 -0.1039 -0.2400
28206W        W43053  17.581  10.281   3.664  0.1442  0.2388 -0.0011
28207W        W43054  14.265   3.781  10.212  0.0245 -0.1454  0.0753
28208W        W43055  11.391   3.490   0.787 -0.2483 -0.0235  0.0096
28209W        W43056   0.390   9.259   5.119  0.0157  0.4054  0.1021
28210W        W43057  13.296  16.109   1.730 -0.0997  0.3156 -0.1321
28211W        W43058   7.710   5.582  15.455  0.0628 -0.0765 -0.0128
28212W        W43059  14.069   1.722  12.130  0.0788  0.1088 -0.1824
28213W        W43060  12.184   9.270   1.280  0.0801 -0.2133  0.2162
28214W        W43061   0.683  12.922  14.224 -0.0717  0.0526 -0.2256
28215W        W43062  11.994  17.200  14.893 -0.2234  0.0097 -0.0070
28216W        W43063  13.729  15.618  13.032 -0.1603 -0.1672 -0.2394
28217W        W43064  10.512  16.575   5.706 -0.2781 -0.1210  0.1300
28218W        W43065  11.486   5.641   3.303  0.0457 -0.0516 -0.4020
28219W        W43066   2.870   2.140   3.672  0.0070  0.1116  0.0737
28220W        W43067   8.475  14.595   4.393  0.2116 -0.1993  0.2720
28221W        W43068  14.074   2.170  12.929 -0.2091  0.0772 -0.0942
28222W        W43069  10.244   1.386  13.355 -0.2523  0.1800  0.3573
28223W        W43070  13.378  14.097  16.567 -0.3523  0.1452 -0.0602
28224W        W43071  11.448  12.662   5.568  0.2955  0.3555 -0.1542
28225W        W43072   9.715   9.595   4.843 -0.3593 -0.1106 -0.1782
28226W        W43073   2.276  12.013   4.256  0.0756 -0.1018  0.0387
28227W        W43074  16.707   2.547   3.876 -0.3820  0.2808  0.1946
28228W        W43075   0.171  11.213  10.357 -0.2625 -0.1864  0.0372
28229W        W43076  17.197   2.264  11.714 -0.0973  0.0578  0.1005
28230W        W43077  16.218   5.922   2.451 -0.0617  0.1144 -0.2565
28231W        W43078  13.946   2.333  16.592 -0.2587 -0.1197  0.0492
28232W        W43079   0.679   3.333  14.237  0.1607 -0.2350 -0.1454
28233W        W43080   0.321   7.702  14.980  0.1665 -0.0519  0.2664
28234W        W43081   7.922   8.897  16.429  0.1341 -0.1465  0.1225
28235W        W43082  15.703  11.202  10.592  0.1825  0.2036 -0.0846
28236W        W43083  11.594   0.252   3.340  0.2024  0.1171  0.0081
28237W        W43084   9.307   8.731   1.401  0.0657 -0.0417 -0.1729
28238W        W43085  14.960  15.250  14.957  0.3054  0.1976  0.2314
28239W        W43086  13.226   2.015   4.967 -0.0087  0.1691 -0.2831
28240W        W43087  16.076   8.821   4.484  0.1076  0.0610 -0.3858
28241W        W43088  14.695   1.794  16.158 -0.0764  0.0312 -0.0761
28242W        W43089  14.006   3.186   0.569  0.0508  0.3277 -0.1354
28243W        W43090  11.626  15.501   5.854 -0.1067  0.0952 -0.0187
28244W        W43091  15.144   7.545  14.250 -0.0585 -0.1185  0.0101
28245W        W43092  13.979  10.458   5.740 -0.0493 -0.1419  0.0042
28246W        W43093   8.744  12.673  14.128 -0.0572 -0.1925 -0.2709
28247W        W43094  12.935  10.120  13.097  0.0249  0.0156 -0.1122
28248W        W43095  11.290   8.714  11.809 -0.1376 -0.1240  0.0468
28249W        W43096   9.652   4.574   3.188  0.1082  0.0107  0.2888
28250W        W43097   4.305   1.684  13.849 -0.0664  0.1096 -0.1763
28251W        W43098  15.643   1.672   0.699 -0.0103  0.0339  0.3577
28252W        W43099  13.555   6.938   4.718 -0.0969 -0.0666 -0.0003
28253W        W43100  17.622   4.042   1.470  0.0891 -0.1682 -0.0049
28254W        W43101  10.161   9.189   0.780  0.1040  0.1484 -0.0719
28255W        W43102  13.761   6.382   3.996  0.2911 -0.1082  0.0637
28256W        W43103   8.949   2.118  13.652  0.1208 -0.1694  0.4637
28257W        W43104  16.423   8.448   3.652  0.3025 -0.0623  0.0503
28258W        W43105  13.462   3.550  14.105  0.4032 -0.3693 -0.1085
28259W        W43106   7.643   5.566   0.453 -0.1754 -0.2232  0.1886
28260W        W43107   0.364   4.313  13.607  0.0378  0.2862 -0.1377
28261W        W43108  16.472   6.269   1.391 -0.1800  0.4135 -0.0628
28262W        W43109  11.695   6.119  16.915  0.0768  0.1411 -0.4069
28263W        W43110  12.812  11.292  11.080 -0.0574 -0.0146 -0.1656
28264W        W43111  12.168   6.931   1.433  0.2792 -0.1387 -0.1341
28265W        W43112  12.390  16.235   2.028 -0.2291  0.2209 -0.1678
28266W        W43113   0.909  11.125  14.563 -0.0986  0.1859 -0.1183
28267W        W43114  11.465   9.438   0.078  0.0903 -0.3616  0.2785
28268W        W43115  14.605   9.390   4.984  0.1252 -0.0477  0.2128
28269W        W43116  14.699   4.966   3.380  0.3347  0.2972 -0.1225
28270W        W43117  12.120   5.224   0.313 -0.0649 -0.4313  0.0647
28271W        W43118   8.259  17.463  13.569  0.1600 -0.0204 -0.0411
28272W        W43119  13.150  13.459  14.448 -0.1364 -0.3640  0.1455
28273W        W43120  14.359  14.719   4.716  0.2615  0.1821 -0.1346
28274W        W43121  16.138  11.892   1.100 -0.2983 -0.2018 -0.1583
28275W        W43122  15.476   8.609  11.141 -0.0659 -0.1034  0.1185
28276W        W43123  11.935  16.303   5.371  0.0714  0.0321  0.0949
28277W        W43124  17.103   5.538  15.520 -0.1134 -0.0645 -0.2094
28278W        W43125  17.637   7.062  14.379 -0.3036  0.3649 -0.0235
28279W        W43126   0.607   3.171  12.429  0.1098 -0.2633  0.2451
28280W        W43127   9.638  13.453   1.430 -0.1258  0.0725 -0.1409
28281W        W43128  16.366   4.283  12.986 -0.3406  0.2475 -0.0736
28282W        W43129   9.667   2.039   0.435 -0.3472 -0.2042  0.0391
28283W        W43130  14.526   9.099  10.997 -0.1911  0.1503  0.0142
28284W        W43131   0.347   3.027   0.614  0.0284 -0.1422 -0.0479
28285W        W43132   7.494  17.722  13.455  0.2332 -0.1214 -0.0752
28286W        W43133  17.742  15.675   3.907 -0.1221 -0.0318  0.0062
28287W        W43134   4.126  17.446   2.654  0.3929  0.2317  0.0690
28288W        W43135  13.251  10.005  12.629  0.1667 -0.0294 -0.1059
28289W        W43136  11.281  10.051  15.725 -0.3427  0.1707  0.4922
28290W        W43137  15.369   7.487   3.439 -0.1939  0.0278  0.0350
28291W        W43138   4.139   3.233   0.511  0.1748 -0.0734 -0.3121
28292W        W43139  16.373  15.362  13.377 -0.0278  0.1628  0.1340
28293W        W43140  14.986  11.731  11.813 -0.0818 -0.0862 -0.2863
28294W        W43141   0.136  14.997  11.476 -0.1358  0.1246 -0.3363
28295W        W43142  16.969  13.044   4.358 -0.1202  0.3167  0.0883
28296W        W43143  10.507  11.187   4.324  0.5318 -0.5053 -0.1286
28297W        W43144   2.657  11.363  13.002 -0.0487  0.3279  0.3099
28298W        W43145  12.825   9.861   3.301  0.1363 -0.2483  0.2469
28299W        W43146  17.302  16.953   5.473 -0.1638  0.3750  0.0011
28300W        W43147   0.193   1.124   1.449  0.0462 -0.1995 -0.0222
28301W        W43148  15.505   3.051   3.317  0.2484  0.0435  0.0484
28302W        W43149  11.737  11.953   1.042  0.2771  0.1068 -0.0959
28303W        W43150  12.042  11.614  11.595  0.1633 -0.2625 -0.0871
28304W        W43151   0.616  10.357  13.289  0.0942  0.1087 -0.1162
28305W        W43152  12.086   9.885   5.319 -0.1405  0.0480  0.0490
28306W        W43153  17.634  11.383  14.431  0.0719 -0.2540 -0.0307
28307W        W43154  13.589  12.274   5.064 -0.2516  0.0693  0.0006
28308W        W43155  14.511   6.785   4.415 -0.0661 -0.0271 -0.1134
28309W        W43156  14.812   3.292   0.553  0.1291 -0.0099  0.1685
28310W        W43157  10.090   4.735   1.868  0.0038 -0.0415  0.1790
28311W        W43158  16.036  16.060   3.522 -0.0207  0.0748 -0.0039
28312W        W43159  12.830  12.534  11.627  0.0081 -0.1002 -0.0225
28313W        W43160  12.327  11.355   5.835 -0.1709  0.1719 -0.0851
28314W        W43161  17.296  11.361   0.778  0.1635 -0.0527  0.1405
28315W        W43162  11.747   5.720  15.741 -0.1763  0.2023 -0.0900
28316W        W43163  12.148   7.283   4.616 -0.3281  0.2194 -0.2719
28317W        W43164   2.109  10.116   1.014 -0.0938 -0.0683  0.1039
28318W        W43165  12.953  13.908   2.134  0.1653  0.0486 -0.0860
28319W        W43166  17.157  13.094  14.107  0.2268 -0.0221 -0.0655
28320W        W43167  16.287  16.259   5.136  0.1113  0.2921 -0.4229
28321W        W43168  17.755   2.964   4.470 -0.0271  0.1748 -0.0598
28322W        W43169  13.901  12.194   5.416  0.0259  0.1496  0.0640
28323W        W43170  17.862  15.639  15.540  0.2855  0.2499 -0.1311
28324W        W43171  13.029   5.174   4.699 -0.0531 -0.1539 -0.0375
28325W        W43172   1.118   9.295  16.259 -0.1350  0.1488  0.1796
28326W        W43173  11.013   9.606  12.455  0.0124 -0.2392  0.0674
28327W        W43174  16.926   2.956  14.174 -0.1744  0.1229 -0.7417
28328W        W43175  12.291   4.318  16.088 -0.1665  0.1889  0.2042
28329W        W43176  13.677   5.634  10.746 -0.0827 -0.0656 -0.0559
28330W        W43177  10.961  16.567   5.067  0.1846 -0.1391  0.1479
28331W        W43178  11.322   2.695   2.006 -0.0982 -0.1310  0.2259
28332W        W43179   4.390   2.402   5.417  0.2360 -0.1008  0.1563
28333W        W43180   3.670   7.948   3.658  0.0378  0.1610  0.2224
28334W        W43181  13.323   8.243   2.049  0.0443 -0.1157  0.0493
28335W        W43182  13.283   5.567  15.659  0.2775 -0.5019  0.0464
28336W        W43183   7.914   7.303  13.770 -0.5281 -0.0797 -0.0948
28337W        W43184  14.771   6.436   2.870  0.2474 -0.1287 -0.0159
28338W        W43185   0.801   3.765   5.337  0.5856 -0.0898 -0.0080
28339W        W43186  13.590  16.838  16.482  0.1516  0.0497  0.1424
28340W        W43187  10.255  15.375  16.536  0.2358 -0.0132  0.0632
28341W        W43188  17.178   9.186  14.143 -0.0851 -0.3068 -0.2414
28342W        W43189  15.273   9.352  15.648 -0.1021  0.0558 -0.3154
28343W        W43190  13.041   3.665   5.651  0.1728  0.1683  0.0092
28344W        W43191   6.237  13.557  14.002  0.0160  0.1463 -0.0848
28345W        W43192   0.841  17.020  15.471  0.0070  0.1486 -0.0056
28346W        W43193  12.189  11.402   4.828 -0.1344 -0.3128 -0.1421
28347W        W43194  16.070  11.729  12.595  0.2330 -0.1225 -0.1760
28348W        W43195  10.156   3.660   2.690 -0.0141 -0.1929 -0.2085
28349W        W43196   9.308   1.794  13.611  0.0777 -0.2302 -0.1613
28350W        W43197  17.648   1.688  14.321 -0.2755 -0.1676 -0.0303
28351W        W43198  11.104   5.728  14.044 -0.3357 -0.0431 -0.3539
28352W        W43199  13.573   4.596  15.263 -0.1228 -0.2345  0.2242
28353W        W43200  12.241   7.087   5.741 -0.0279 -0.0389  0.0974
28354W        W43201  17.307   1.212   1.860 -0.0826 -0.1250  0.0977
28355W        W43202  15.748  11.016  13.059  0.0719  0.3055  0.1449
28356W        W43203  14.311  12.506   5.576  0.0703  0.1262  0.3665
28357W        W43204  15.386   2.703  15.542  0.2524  0.2549 -0.0568
28358W        W43205   9.020   2.918  15.844  0.1867  0.3831 -0.0363
28359W        W43206  12.897  14.640  15.953  0.2736  0.2574 -0.3415
28360W        W43207  14.488  15.345   2.229  0.1196 -0.1727  0.0979
28361W        W43208  12.782   6.277   6.221 -0.4148 -0.0005 -0.0794
28362W        W43209  13.469   5.991   2.689  0.1853  0.1417 -0.1246
28363W        W43210  14.412   8.173   0.820 -0.1965  0.0529  0.0862
28364W        W43211  17.500  17.574   2.086 -0.1956  0.2232  0.1853
28365W        W43212  12.776  12.265  13.520 -0.2947  0.0922 -0.2379
28366W        W43213   3.821   0.730  16.904 -0.2737 -0.2257 -0.2128
28367W        W43214  16.435  11.568  14.200  0.1985  0.0895 -0.0044
28368W        W43215   0.648   1.685   1.049 -0.1999  0.0029 -0.0065
28369W        W43216  13.553  17.465   1.557  0.0064  0.0508  0.2265
28370W        W43217  17.235  16.031  16.256 -0.1085  0.0260  0.0803
28371W        W43218  13.367   2.391  12.412  0.4136  0.0524  0.0243
28372W        W43219  12.776   8.748  12.522 -0.0014 -0.1582  0.2583
28373W        W43220   8.900   1.471   3.514 -0.2942  0.2482  0.0625
28374W        W43221  15.220   4.561  16.722 -0.3567  0.0576  0.0564
28375W        W43222  16.850  17.707   4.334 -0.1010 -0.0098 -0.1697
28376W        W43223  14.932  12.079   2.775  0.2072  0.1278 -0.1937
28377W        W43224  10.563   2.307  13.364  0.0274 -0.0024 -0.0501
28378W        W43225  12.066   3.035   0.156 -0.0909  0.0824  0.2270
28379W        W43226   8.300   1.442  15.502 -0.2446  0.0387 -0.1585
28380W        W43227   5.285   2.768  14.332 -0.2015  0.2875  0.0714
28381W        W43228   6.350  17.586  14.017  0.0196 -0.0147  0.0904
28382W        W43229   9.932  12.909  14.575  0.1181  0.1416 -0.0353
28383W        W43230  17.972  12.107   3.988 -0.1345  0.0608 -0.3727
28384W        W43231  12.949   0.172  12.870  0.1973 -0.0965  0.0374
28385W        W43232  14.564  14.205   2.496  0.0901  0.3077  0.1855
28386W        W43233  12.502   0.149   1.380  0.0451 -0.0585 -0.0833
28387W        W43234  17.454  17.532  15.677 -0.3278 -0.0230 -0.1668
28388W        W43235  10.105  14.036  12.819 -0.0338  0.1992  0.0470
28389W        W43236  15.677   5.416  15.865 -0.0739 -0.1654 -0.1567
28390W        W43237  14.322  10.408  15.695  0.1241 -0.0392  0.3414
28391W        W43238  11.513   6.117   2.843 -0.0982 -0.1979  0.0240
28392W        W43239  11.353  12.504  11.917  0.1364  0.1127 -0.1588
28393W        W43240   9.953   8.227   3.202 -0.1131 -0.0227 -0.0542
28394W        W43241   9.626   1.374  13.473 -0.1015 -0.1273  0.0021
28395W        W43242  16.563  12.724   4.377  0.0357  0.1495 -0.3236
28396W        W43243  14.500  14.652   2.748 -0.2103  0.0309  0.1681
28397W        W43244  17.521  13.315   1.235 -0.0308 -0.2971 -0.1423
28398W        W43245   9.361   9.285   6.667 -0.0732 -0.1361 -0.0069
28399W        W43246  15.325  17.373   2.747 -0.0177  0.5912  0.0677
28400W        W43247   0.183  15.098  12.280  0.2052  0.0271  0.2017
28401W        W43248  14.533   3.010   1.633 -0.1273 -0.3199  0.0654
28402W        W43249  14.642   7.104  12.403 -0.0429 -0.0103 -0.2353
28403W        W43250  16.598  11.219   5.869  0.2510 -0.0084 -0.1755
28404W        W43251   0.292  17.272  15.932 -0.3215  0.0339  0.1077
28405W        W43252   2.060  11.719  12.178  0.1294  0.1824 -0.3838
28406W        W43253  14.350  15.301   1.530 -0.2034 -0.1106 -0.0499
28407W        W43254  12.274   2.730   2.592  0.1433 -0.3102  0.1312
28408W        W43255   9.274   5.235   4.185  0.2425  0.1118  0.0663
28409W        W43256  14.563   8.650  10.784  0.0263  0.2060  0.0129
28410W        W43257  14.922  13.820  14.544 -0.1809 -0.0771 -0.0083
28411W        W43258  16.011   9.373  13.031  0.3113 -0.1927 -0.2176
28412W        W43259  12.186  14.325   0.868  0.0740 -0.2718  0.0334
28413W        W43260  14.622   7.933  13.724  0.0910  0.1814 -0.0594
28414W        W43261  16.780  15.945   0.352  0.5008  0.1337  0.2496
28415W        W43262  14.538  15.922  11.885  0.0015  0.3127  0.0973
28416W        W43263  15.316   9.254  13.606  0.1652  0.0909 -0.0022
28417W        W43264   0.993   5.554  14.776 -0.0530 -0.0743 -0.1521
28418W        W43265   9.029  14.786   6.198  0.2490  0.1509 -0.0832
28419W        W43266  16.510  16.807   5.999 -0.0279  0.0510 -0.1425
28420W        W43267   6.391   8.802   5.438 -0.0307 -0.0161  0.0524
28421W        W43268   2.030   5.427   2.111  0.1198  0.0557 -0.2263
28422W        W43269   3.740   8.545  16.964  0.2103 -0.0526  0.1755
28423W        W43270   8.682  16.837  16.410  0.0915 -0.0364  0.2564
28424W        W43271  10.631   3.968  11.014 -0.3234 -0.0513 -0.0486
28425W        W43272  16.127  15.443  15.366  0.2635 -0.0183  0.2250
28426W        W43273  11.326   7.855  16.122 -0.0012 -0.0191 -0.3292
28427W        W43274  13.325   4.818   3.751 -0.0331  0.1054 -0.1646
28428W        W43275  15.265   2.456  16.727  0.1280  0.1708 -0.0229
28429W        W43276  17.750   3.494   0.546  0.0244  0.2148  0.2402
28430W        W43277  13.922  17.195  16.769  0.1977 -0.3943  0.0789
28431W        W43278   2.090   1.107  13.716 -0.0231 -0.0789 -0.0241
28432W        W43279  17.687  15.554   0.875  0.1408 -0.0688  0.1840
28433W        W43280  11.438  10.894  14.124 -0.1077 -0.2705  0.2217
28434W        W43281   2.820  15.322   2.089  0.0199 -0.1239 -0.2479
28435W        W43282   5.960  12.492   2.021  0.3492  0.1413 -0.0135
28436W        W43283  17.336   7.500  13.315 -0.0109  0.2259  0.1352
28437W        W43284  14.761  17.151   1.068  0.2607  0.2615  0.0161
28438W        W43285   6.767   0.652  12.147 -0.1934 -0.0127  0.0222
28439W        W43286  17.048   9.822  13.179 -0.0056 -0.0222 -0.1464
28440W        W43287  11.890   6.676   0.556 -0.3048 -0.1271  0.1373
28441W        W43288   3.712   4.110   3.436 -0.0564 -0.1651 -0.2134
28442W        W43289  14.391   0.303  15.405 -0.1120 -0.1251 -0.2999
28443W        W43290  13.047   4.844  11.759  0.1369 -0.1318 -0.0616
28444W        W43291  15.214  12.125   5.463 -0.4567  0.2487 -0.2737
28445W        W43292   0.780  17.502  12.307 -0.1987 -0.0118 -0.1762
28446W        W43293  15.015   0.321  12.847  0.2931  0.0499 -0.1467
28447W        W43294  12.086   9.755   4.006  0.1198  0.1859  0.0459
28448W        W43295  15.903   8.634  16.428 -0.0460 -0.2763 -0.0270
28449W        W43296   0.905   2.372  14.591  0.1377 -0.2091  0.1696
28450W        W43297   1.584   5.200   1.720  0.2882 -0.1863  0.1094
28451W        W43298  14.258   2.774   0.252  0.2876  0.0520 -0.1758
28452W        W43299   0.261   5.976  13.313 -0.0388 -0.0309  0.3840
28453W        W43300   4.939  16.309  13.628  0.3174  0.0540  0.0649
28454W        W43301  10.987   6.498   2.853 -0.0908 -0.1351  0.0729
28455W        W43302   9.723   9.571   2.984  0.4701 -0.1943  0.1171
28456W        W43303  12.644  16.782   5.329 -0.1642 -0.2828  0.1753
28457W        W43304   8.122  11.399  11.402  0.4212  0.1172 -0.1501
28458W        W43305  14.878   9.364  15.902  0.3562 -0.0668 -0.2030
28459W        W43306   7.174  11.463  12.270  0.2061 -0.1752 -0.1245
28460W        W43307  15.435  15.785   1.940 -0.2729 -0.0074 -0.0821
28461W        W43308  15.155  17.505   4.424 -0.0220 -0.1810  0.1085
28462W        W43309   9.935   6.096   5.758  0.1579 -0.2993  0.1462
28463W        W43310   9.754   2.129   4.417 -0.1390 -0.0748  0.1649
28464W        W43311   9.880  16.561   1.912  0.1314 -0.1212  0.1932
28465W        W43312  13.970  11.159   2.065 -0.0294  0.0185  0.2071
28466W        W43313   4.018   9.625  15.093  0.1506  0.1551 -0.0694
28467W        W43314  16.188  13.838   2.958  0.0276 -0.0401  0.2146
28468W        W43315   9.723   1.539   0.716 -0.5424 -0.0092 -0.1830
28469W        W43316  10.840   8.552   6.306  0.0309 -0.0459  0.2003
28470W        W43317  14.175   2.196  13.514 -0.0293 -0.2742 -0.4719
28471W        W43318  14.214  10.175   5.426  0.0008 -0.3858  0.2041
28472W        W43319  10.375   6.795  17.051  0.1633  0.1423 -0.1423
28473W        W43320  11.492  12.120   3.385  0.0649  0.3265 -0.0840
28474W        W43321  10.829   4.456   4.624  0.0098 -0.0448 -0.1248
28475W        W43322   8.979  15.285  16.566 -0.1501  0.1267 -0.4175
28476W        W43323  12.249   0.956  12.530 -0.0644  0.4384 -0.2013
28477W        W43324  16.747  16.000   4.980 -0.1219 -0.1087 -0.0200
28478W        W43325   0.870  15.382   6.443 -0.5117 -0.0925 -0.4034
28479W        W43326  17.682   6.957   0.937  0.0508 -0.2599  0.0521
28480W        W43327  10.047   6.898   2.440 -0.2847  0.2772  0.0434
28481W        W43328   9.895   8.922  16.073  0.2413 -0.1212  0.2105
28482W        W43329  16.113  11.445   3.817 -0.2218  0.1415 -0.0517
28483W        W43330   1.012  12.095  15.473  0.0028 -0.3527 -0.0164
28484W        W43331   9.210   7.143  15.507 -0.0122 -0.2785  0.1016
28485W        W43332   1.868  16.791   2.100 -0.1006  0.1071  0.2273
28486W        W43333  16.866  10.374   5.042 -0.0287  0.0155  0.1089
28487W        W43334  14.749  13.662  11.264 -0.0948 -0.1039 -0.0886
28488W        W43335  10.181   1.728   1.444  0.2301 -0.0125  0.1684
28489W        W43336   0.578   5.133  11.614  0.2325  0.3113  0.0828
28490W        W43337   3.889  17.678  16.833 -0.2122 -0.3424 -0.1701
28491W        W43338   6.047  10.098  14.005 -0.1119  0.4932 -0.0758
28492W        W43339  10.512   2.947  15.714  0.0319  0.1142 -0.3880
28493W        W43340  12.241  16.575  17.088 -0.0229 -0.2896 -0.0509
28494W        W43341  10.997  16.956   3.091  0.2197 -0.2905  0.0850
28495W        W43342   9.136  11.585   2.619  0.0140  0.1680  0.0580
28496W        W43343  16.953   2.462   1.381 -0.0065  0.0170  0.2496
28497W        W43344  16.023  11.846  14.250 -0.4382 -0.3820 -0.0641
28498W        W43345   0.794   5.038   2.220 -0.2329  0.1058 -0.2620
28499W        W43346   0.068  12.721   3.388 -0.0553  0.2369 -0.2057
28500W        W43347  17.947   8.180  15.889 -0.0154 -0.0825 -0.1295
28501W        W43348  12.949   7.740  16.602  0.0841  0.2126  0.1693
28502W        W43349  14.879   8.986   6.320 -0.2400 -0.1786  0.1926
28503W        W43350  17.040   9.158   3.725  0.1612  0.0287  0.1783
28504W        W43351  16.142   7.777   1.744 -0.2764  0.1901  0.0597
28505W        W43352  12.491  14.128   2.061 -0.2413 -0.0944 -0.1794
28506W        W43353   0.200  12.244  16.086 -0.2034 -0.0833  0.1786
28507W        W43354   1.229  14.988   6.778 -0.1705 -0.1099  0.0958
28508W        W43355   0.848   8.407   5.130 -0.1461 -0.2923  0.0427
28509W        W43356   1.509   6.223  14.032 -0.0013  0.2151  0.0770
28510W        W43357   2.397   9.688   1.196 -0.3213 -0.0899 -0.0431
28511W        W43358   0.560  17.922   6.375 -0.0128  0.2976 -0.0701
28512W        W43359  15.234  16.108  16.200 -0.2375 -0.1498  0.1874
28513W        W43360   9.066   0.420   1.848 -0.1391 -0.3315 -0.1325
28514W        W43361   6.166  13.029   1.219  0.0911  0.0882  0.0514
28515W        W43362  16.330  13.636  15.916 -0.2664  0.0252 -0.1975
28516W        W43363  17.343   3.779   1.897 -0.0407 -0.1695  0.1180
28517W        W43364  12.066  10.085   0.345 -0.1086 -0.2161 -0.0496
28518W        W43365   3.259   6.492  11.185  0.1954  0.0950  0.3877
28519W        W43366  11.534   5.303   6.001 -0.2202  0.2861 -0.0369
28520W        W43367   2.225   4.519   2.286  0.1255  0.0267 -0.2017
28521W        W43368  10.195   7.147   5.855 -0.0443 -0.0161 -0.1254
28522W        W43369  14.417   5.114  11.897  0.2592  0.1319  0.0200
28523W        W43370  10.979   4.056   2.271 -0.1937 -0.2566  0.0075
28524W        W43371  10.413  13.619  15.195  0.0269 -0.1091 -0.4457
28525W        W43372  12.253  10.321  12.739 -0.1263  0.1962 -0.1179
28526W        W43373   3.065  10.865  16.452  0.0592 -0.1300 -0.2156
28527W        W43374   0.615  15.064   4.707  0.0337 -0.1043  0.0271
28528W        W43375  10.680   7.978  15.760  0.0969  0.0716 -0.0735
28529W        W43376  12.578   1.355   4.676  0.0204  0.1338  0.2862
28530W        W43377   0.613  11.277   1.716  0.1228  0.1959 -0.0291
28531W        W43378  17.029   7.108  12.138  0.0425  0.2252  0.1651
28532W        W43379   7.462  11.999  16.610  0.1107 -0.1557 -0.0140
28533W        W43380  15.073  16.011  12.085 -0.0003  0.1879 -0.4307
28534W        W43381  16.591   6.990   4.183 -0.1762  0.0789  0.2555
28535W        W43382   1.165  11.676  13.087  0.0973  0.2623 -0.3843
28536W        W43383  14.997   9.413   4.697 -0.0395 -0.1330 -0.0845
28537W        W43384  17.215   6.697  16.996 -0.2566  0.1651 -0.1324
28538W        W43385   0.486   5.373   2.459 -0.2805  0.3269 -0.0624
28539W        W43386   9.703   5.001  16.541 -0.0858  0.0413  0.0459
28540W        W43387  16.283  12.205  13.349 -0.0437  0.0101 -0.0051
28541W        W43388   9.472  13.500  14.837  0.4409  0.0714  0.0662
28542W        W43389   0.086   1.954  14.416 -0.3149  0.0065 -0.1130
28543W        W43390  15.329  15.740   3.621  0.0141  0.1339  0.0198
28544W        W43391  11.021   7.560  15.290 -0.0502  0.0514  0.1106
28545W        W43392  12.562   4.722   0.902  0.0049 -0.3634 -0.0013
28546W        W43393   0.836   2.210   4.871 -0.1963 -0.0920 -0.2762
28547W        W43394   8.622   4.684   4.780 -0.0905 -0.0132 -0.0534
28548W        W43395   0.520  15.256   5.167  0.0523  0.1666  0.3082
28549W        W43396  14.641   6.374  11.854 -0.0695 -0.0248 -0.1149
28550W        W43397  17.877  17.632  15.973  0.0343  0.1199 -0.0938
28551W        W43398  12.720   5.694   5.560 -0.0343  0.1515 -0.0001
28552W        W43399  11.236   8.966  14.558 -0.1975  0.0546  0.0801
28553W        W43400  10.924   4.164   0.571 -0.0372  0.1119  0.1585
28554W        W43401  14.327  12.592  14.440  0.1335 -0.0015 -0.1508
28555W        W43402  16.339  11.155   1.683  0.0486  0.1145  0.1011
28556W        W43403  15.766   5.361  16.853 -0.0782  0.3005 -0.0092
28557W        W43404  14.472  12.919  16.990  0.0346  0.0896  0.1195
28558W        W43405   7.376   4.844   3.881  0.1614 -0.1059  0.1235
28559W        W43406   1.135  13.212  13.139  0.1757 -0.1927  0.1902
28560W        W43407   9.305  17.968   5.429 -0.1674 -0.3640 -0.3042
28561W        W43408  14.810   8.320  16.545  0.2870  0.2080  0.1908
28562W        W43409  11.678  10.632  13.261 -0.0505  0.1397  0.2074
28563W        W43410  17.739   4.494   0.568 -0.0691  0.1874  0.0286
28564W        W43411   1.603  14.038   2.175 -0.0832 -0.0682 -0.1134
28565W        W43412  13.984  14.045   1.080 -0.2049 -0.1756 -0.1551
28566W        W43413  17.648  14.126   3.044  0.0749 -0.0355 -0.0799
28567W        W43414   5.509  15.753  14.306  0.0184  0.0497  0.4885
28568W        W43415   0.242   0.246  11.293  0.0274  0.0952  0.0509
28569W        W43416  12.060  10.599  10.850  0.2403 -0.4847  0.1102
28570W        W43417   6.920  10.665  17.016 -0.0407 -0.1275  0.2497
28571W        W43418  11.353   7.631  13.572 -0.1370 -0.0186  0.0568
28572W        W43419  16.972  12.178  11.624  0.1960 -0.2237  0.3520
28573W        W43420   5.866  17.753  12.133  0.1707  0.0484 -0.3398
28574W        W43421  15.616   6.492   2.079 -0.1150  0.0668 -0.1505
28575W        W43422   1.301   7.164  13.079  0.4044  0.0410  0.0598
28576W        W43423  12.488   6.054  15.413  0.3228 -0.3571 -0.1459
28577W        W43424  11.013   9.322   6.326 -0.0233  0.1244 -0.0264
28578W        W43425  16.129  10.490   0.993  0.2131 -0.0835  0.0042
28579W        W43426   8.243  10.352  13.245 -0.1581  0.0633  0.2238
28580W        W43427  13.875   7.263   2.240 -0.2372 -0.0514  0.3133
28581W        W43428  11.025  13.320  11.901 -0.1098 -0.0402  0.1791
28582W        W43429   6.319  16.217   0.294  0.2475  0.2656  0.0181
28583W        W43430   2.074   9.598   1.610  0.2953 -0.0634  0.1052
28584W        W43431  12.383   6.526   2.019  0.1414 -0.1373 -0.0164
28585W        W43432   6.097   9.039  12.504  0.4610  0.2143 -0.1215
28586W        W43433   0.218   1.290   3.541  0.0039 -0.0071 -0.1233
28587W        W43434  13.147  12.646   1.112  0.3359  0.2484 -0.2858
28588W        W43435  15.014  10.190  14.370  0.0339  0.0980  0.1363
28589W        W43436   9.000   3.018  14.011  0.3526  0.0393 -0.0242
28590W        W43437   7.321   0.967   2.439  0.2715 -0.2460  0.0984
28591W        W43438   1.615  10.835  11.760  0.3115 -0.3284 -0.3797
28592W        W43439  15.801  14.384  13.608 -0.1589 -0.0153 -0.1798
28593W        W43440  11.875   5.624   4.948  0.0501  0.1400 -0.2403
28594W        W43441   9.242   6.787  12.571  0.2554 -0.0752 -0.1084
28595W        W43442  12.846   7.274  16.309  0.0815 -0.0665 -0.0314
28596W        W43443  14.241   1.346  11.288 -0.1287 -0.1405  0.0868
28597W        W43444  14.942   6.825   1.414  0.1505  0.0860  0.1759
28598W        W43445  16.169  15.644   4.019  0.1247  0.3207 -0.0173
28599W        W43446   9.431  11.497  14.965  0.0252  0.0832  0.0287
28600W        W43447  17.459   2.527  13.960 -0.0361  0.1937 -0.0276
28601W        W43448   2.022  14.477  15.861 -0.0247 -0.3476  0.0173
28602W        W43449   9.714  11.415  12.759 -0.2421  0.0140  0.2437
28603W        W43450  13.935   0.470  11.782  0.0088 -0.0380 -0.1060
28604W        W43451  12.648   1.408   0.756 -0.0780 -0.3035  0.1892
28605W        W43452   8.950   1.585  12.619  0.1620  0.5294  0.1492
28606W        W43453   8.662   8.556  15.627  0.0105 -0.0857 -0.1423
28607W        W43454  15.597   1.972  15.602  0.0023  0.1380  0.1277
28608W        W43455   7.954   7.718   2.781  0.2458  0.1983 -0.1371
28609W        W43456   0.319   8.989   3.404 -0.1020  0.1218  0.0953
28610W        W43457  14.036   0.993   3.479 -0.1820 -0.0591 -0.0424
28611W        W43458   1.736  13.969  14.040  0.0180 -0.1252 -0.0488
28612W        W43459  14.548  12.593  13.256  0.1082  0.2735 -0.2883
28613W        W43460  15.068   8.741   0.158 -0.1202 -0.1333 -0.3334
28614W        W43461   7.968  14.420   4.302 -0.2246 -0.2163  0.0300
28615W        W43462  14.427   6.972  11.902 -0.1226  0.1403  0.0216
28616W        W43463  11.910   8.790   4.534 -0.0134 -0.1664  0.0264
28617W        W43464  16.463  15.615   0.039 -0.0768 -0.1057 -0.1851
28618W        W43465  14.289   6.421  15.533  0.0352 -0.2230 -0.1210
28619W        W43466  15.564  17.136   5.449 -0.0309  0.0870 -0.1892
28620W        W43467  17.365  15.130   1.033 -0.3466  0.2751  0.3751
28621W        W43468  15.385  10.502  13.523  0.0449  0.0813  0.0047
28622W        W43469  10.649   0.317  13.371 -0.0929  0.0306  0.0750
28623W        W43470   9.440   9.655  12.623  0.2678  0.1800 -0.2844
28624W        W43471  14.737   7.193   3.522 -0.0614 -0.1524 -0.1112
28625W        W43472  13.596  17.761   5.828 -0.3236 -0.2139 -0.1423
28626W        W43473  12.836  11.409  13.284 -0.1219 -0.1325 -0.2150
28627W        W43474  16.433  10.543   0.008  0.1148  0.1791  0.3068
28628W        W43475  17.367   7.982   5.915  0.0264 -0.0112  0.2140
28629W        W43476  10.040   1.001   1.153 -0.2291  0.0860  0.1891
28630W        W43477  12.574  14.937   0.045 -0.0190 -0.0315  0.0346
28631W        W43478  13.911   3.827  15.561 -0.4054  0.0875  0.2825
28632W        W43479  15.662  15.691   0.571 -0.2812  0.1033 -0.2025
28633W        W43480   7.224   6.311  12.808 -0.0772 -0.0755  0.0708
28634W        W43481   8.777  11.775  15.352 -0.0418  0.0115 -0.0265
28635W        W43482   0.962  17.178  13.765  0.1623  0.0268 -0.3036
28636W        W43483  15.515   1.020  12.518 -0.0230  0.5734 -0.2308
28637W        W43484  16.327   2.357  12.747 -0.0190  0.1036  0.0636
28638W        W43485  10.902  15.992  16.145 -0.0858  0.0156 -0.0649
28639W        W43486  10.190   3.493   6.316  0.1497  0.1255 -0.1259
28640W        W43487   2.375  16.247  15.389 -0.2216  0.3411  0.3322
28641W        W43488   4.751   8.784   3.885 -0.1288 -0.1367 -0.1006
28642W        W43489   0.178  15.696  15.171  0.0135  0.0263 -0.0933
28643W        W43490  15.229   5.993  13.691 -0.3054  0.1145  0.3668
28644W        W43491   9.564   1.570  16.322  0.0931 -0.0098 -0.1153
28645W        W43492  12.926  11.622   0.341 -0.0034  0.1197  0.0398
28646W        W43493   9.571   0.653   0.178  0.0785 -0.1075  0.0309
28647W        W43494  15.156  14.736   5.174 -0.4040  0.3252 -0.1151
28648W        W43495  17.866   9.884   3.514  0.1005  0.1404 -0.0082
28649W        W43496  17.309  12.413  15.234  0.0723  0.1073 -0.1156
28650W        W43497  14.652  11.143   0.258 -0.1746 -0.1634 -0.3680
28651W        W43498   9.817  14.403  14.755 -0.4394 -0.2582 -0.1000
28652W        W43499  14.437   2.483   4.000 -0.3373  0.0566  0.4280
28653W        W43500  14.004  13.379   6.284  0.2036  0.0599 -0.2933
28654W        W43501   0.951   5.476  13.830 -0.0402 -0.0246  0.1703
28655W        W43502  10.615  14.315  16.105 -0.1469  0.0787 -0.2041
28656W        W43503  17.546   6.663  13.186  0.2373 -0.3390  0.2767
28657W        W43504  16.425   6.332  13.358 -0.3609 -0.0594  0.0287
28658W        W43505  17.100  16.289   0.059  0.1002 -0.0781  0.0178
28659W        W43506  17.150   7.797  15.033  0.0490  0.0053  0.1928
28660W        W43507  12.158   9.251   2.563 -0.0540  0.0363 -0.2304
28661W        W43508  15.149   2.437   5.711  0.0519  0.2548 -0.0248
28662W        W43509  14.028   6.724   1.512 -0.2371  0.0470 -0.2669
28663W        W43510   2.718   3.514   1.156  0.0343  0.0823  0.0297
28664W        W43511  14.343   9.051  12.200  0.2789 -0.0501  0.4751
28665W        W43512   9.609   3.971   1.799 -0.1260 -0.0895  0.1949
28666W        W43513   7.559  11.803  16.135  0.1123 -0.2251 -0.0475
28667W        W43514   9.084   7.962   6.133  0.0114 -0.1721 -0.1893
28668W        W43515   0.314   2.188   2.184  0.1077  0.1383  0.1487
28669W        W43516  16.185  10.615   5.487  0.0129 -0.0934 -0.0408
28670W        W43517   4.769  14.496   3.984  0.0832 -0.1019  0.0070
28671W        W43518  12.088  17.224  16.428 -0.0229 -0.1099 -0.1926
28672W        W43519   0.139   4.051  13.194  0.3671 -0.3753 -0.0052
28673W        W43520  17.372   5.796   5.843 -0.1500 -0.3752 -0.2228
28674W        W43521  13.186  11.747   1.325  0.2339  0.0879  0.0038
28675W        W43522   0.156   8.552  16.159 -0.0374 -0.2132  0.1045
28676W        W43523  17.251   9.400  12.819  0.1136 -0.1114  0.5550
28677W        W43524  14.339   3.318  14.210  0.0901  0.0316  0.0264
28678W        W43525   4.852   8.747   2.816  0.0808  0.0129 -0.0504
28679W        W43526  13.778  10.517  13.998  0.1887  0.0911 -0.0949
28680W        W43527  15.283  17.072  12.872  0.2919 -0.0354  0.2046
28681W        W43528   6.996   2.300  12.077  0.0240 -0.0729  0.2948
28682W        W43529   5.441   1.600   1.009 -0.4190  0.0409  0.0188
28683W        W43530   0.979   0.615   4.868 -0.3435 -0.0900  0.2197
28684W        W43531  17.062  10.018   4.022  0.2758  0.3044 -0.1731
28685W        W43532  15.394   3.687  16.940 -0.2489 -0.2767 -0.0003
28686W        W43533  13.464  16.245   2.992 -0.1518  0.0704  0.0179
28687W        W43534   0.255  11.184  13.747 -0.2321  0.0460  0.1575
28688W        W43535  15.299  16.259  15.658  0.1372 -0.1390  0.2298
28689W        W43536  16.842   0.902   6.495 -0.2647  0.0325 -0.1840
28690W        W43537  14.227  11.791   4.380  0.0277  0.1820 -0.1276
28691W        W43538  16.623   1.535  16.087 -0.1446 -0.2211  0.1374
28692W        W43539   2.583  13.106   1.094 -0.1205 -0.0248 -0.0872
28693W        W43540  12.117  14.541   1.665 -0.3317 -0.0427  0.0970
28694W        W43541  17.489   8.974  11.655 -0.0372 -0.0167  0.2887
28695W        W43542  17.670   7.088  15.688  0.0151 -0.2839  0.0438
28696W        W43543  15.805   9.084   2.465 -0.1881  0.1758 -0.1507
28697W        W43544  14.307   5.286  16.999 -0.2233  0.0328  0.3870
28698W        W43545   1.071   2.423  11.514 -0.1534 -0.2849  0.4321
28699W        W43546  17.309   5.134   1.849  0.1119  0.1076  0.1985
28700W        W43547  11.468   5.382  13.929 -0.4992  0.0583  0.1157
28701W        W43548  17.212  17.972   1.897 -0.5446  0.0176 -0.1798
28702W        W43549  10.135  17.580  12.516  0.0087 -0.1401  0.0764
28703W        W43550  14.262   0.004  11.136 -0.1617 -0.1351  0.0409
28704W        W43551  11.075  16.195   0.142 -0.0688 -0.3528  0.0053
28705W        W43552  15.531  11.008   3.372  0.0989  0.2294 -0.0164
28706W        W43553  15.339  12.956   6.136  0.1467 -0.0342 -0.0384
28707W        W43554  14.755   6.146  13.862  0.0370  0.0418 -0.0279
28708W        W43555   1.539   2.087  10.477  0.4023  0.1443  0.3832
28709W        W43556  11.452  10.229   2.587 -0.2400  0.1161  0.2108
28710W        W43557   4.129  14.147  14.886 -0.0269  0.0921 -0.2376
28711W        W43558  13.705  14.851  17.075  0.1288  0.1389  0.3413
28712W        W43559  14.347   6.924  14.248  0.2113  0.0213 -0.2736
28713W        W43560  15.447  11.376   4.249 -0.0163  0.1547  0.1125
28714W        W43561  11.609   6.932   1.657 -0.0289  0.0977  0.0261
28715W        W43562   8.020   1.655  16.077  0.0257 -0.1824 -0.0346
28716W        W43563  17.903  16.985   0.521 -0.2720 -0.0801 -0.1125
28717W        W43564  15.291   9.573  15.154 -0.5601 -0.1786  0.1449
28718W        W43565   1.017   7.331  14.336  0.0296 -0.1348  0.3960
28719W        W43566  17.763  11.736  11.852  0.1324  0.2697  0.0185
28720W        W43567  12.273   8.870   2.797  0.1707  0.2381  0.0911
28721W        W43568   9.978   1.765   0.118  0.0672 -0.3213  0.1557
28722W        W43569   1.437   3.479  14.173  0.0762  0.0700  0.0740
28723W        W43570  16.038   2.629  13.376  0.0561  0.1850  0.0582
28724W        W43571  16.600  11.021   2.119  0.0687  0.0351 -0.1067
28725W        W43572   0.097   5.037  12.120  0.0557 -0.1232  0.0261
28726W        W43573  12.850   5.771  11.600  0.0098 -0.0054 -0.0453
28727W        W43574  11.365  12.902  11.646  0.2162 -0.1066  0.1447
28728W        W43575   9.363   7.912   1.948 -0.3957 -0.0812 -0.0383
28729W        W43576  11.874   6.152   0.355  0.2284 -0.1397  0.2373
28730W        W43577   0.859  10.301  11.901 -0.0035 -0.0059  0.2001
28731W        W43578  11.022   3.787  13.178 -0.1456 -0.1136  0.2585
28732W        W43579   5.267   8.532   0.746  0.4165  0.2133  0.1246
28733W        W43580  11.288   9.053   1.847  0.1178  0.1066  0.1940
28734W        W43581  15.451  16.147   0.399  0.1338 -0.0580 -0.0345
28735W        W43582  14.165  17.654  10.774  0.2418  0.0955 -0.1157
28736W        W43583  16.096  12.624  10.761  0.0694 -0.0831  0.1863
28737W        W43584  12.323   3.696   1.676 -0.0145 -0.0367 -0.1043
28738W        W43585   9.170   5.660  16.762 -0.0832  0.0930  0.0698
28739W        W43586  12.487  11.039   4.472  0.0045  0.0416  0.3068
28740W        W43587  16.696   4.550  12.628 -0.1530  0.3488 -0.2011
28741W        W43588   8.570  16.240  15.453  0.0758  0.0947  0.2928
28742W        W43589  13.123   8.487  13.488  0.1158  0.2521 -0.1444
28743W        W43590   8.645   6.654  14.838 -0.1102 -0.1529  0.1872
28744W        W43591  10.576  13.485   2.833  0.0585  0.1736  0.1732
28745W        W43592   7.090   7.300   2.755 -0.0041  0.0308 -0.0232
28746W        W43593   8.604  17.602  16.967 -0.0695  0.0046 -0.2566
28747W        W43594   2.093  15.044   3.808  0.0217 -0.0742  0.0005
28748W        W43595   6.556  14.802   5.525  0.1467  0.2111 -0.1549
28749W        W43596   9.473   4.071   3.809 -0.0600 -0.1821  0.0601
28750W        W43597  11.166   9.210  12.768 -0.2832  0.0240 -0.1149
28751W        W43598   4.421  10.536   3.310 -0.1330  0.1873  0.0942
28752W        W43599  16.352   0.929  17.059 -0.0055  0.1923  0.2662
28753W        W43600  17.173  11.054  12.766  0.0953  0.2217 -0.0988
28754W        W43601   0.382   2.006  12.924 -0.0331 -0.0901  0.2529
28755W        W43602  11.531  14.952  13.419  0.1614  0.0463 -0.0305
28756W        W43603  15.623   7.096  11.790  0.0044 -0.1136 -0.1230
28757W        W43604  10.737   7.780   4.661 -0.0188  0.0092  0.0875
28758W        W43605   0.964   5.547   3.070  0.1283  0.0259  0.0171
28759W        W43606  11.280   5.212   3.528 -0.3835  0.0558 -0.1524
28760W        W43607  11.112  16.020  12.948 -0.0858  0.0482 -0.0339
28761W        W43608  12.828   1.763   4.221 -0.2376  0.4180 -0.2141
28762W        W43609  12.657   4.858   4.347 -0.3097 -0.1369 -0.5143
28763W        W43610  15.834   3.996  13.877  0.2440 -0.1219  0.4229
28764W        W43611  13.388  14.235  10.951  0.0497 -0.1112 -0.3090
28765W        W43612   0.388  10.654   0.885  0.0068 -0.1930  0.1236
28766W        W43613  15.243   9.495   1.625 -0.0179 -0.0273 -0.0355
28767W        W43614  15.885   0.856   5.720 -0.0886  0.2269 -0.0988
28768W        W43615   7.947  12.067   6.841 -0.1705  0.2090 -0.0615
28769W        W43616  15.856   7.828   6.135 -0.1551  0.0534  0.0305
28770W        W43617  11.174  10.933   4.211  0.1621 -0.0927  0.3091
28771W        W43618   0.233   0.579   1.297  0.0271  0.3131  0.1086
28772W        W43619  11.500   8.657   5.837  0.3094 -0.0493  0.1987
28773W        W43620  12.510  11.896  13.052 -0.3051 -0.0407 -0.1040
28774W        W43621  17.133   8.203  16.235  0.0402 -0.2426  0.3179
28775W        W43622   0.905   4.182  15.489 -0.1356  0.1720 -0.3447
28776W        W43623   4.592  14.549   3.441  0.0933  0.1241 -0.1508
28777W        W43624  14.411   9.503  13.816 -0.2088 -0.0579 -0.0574
28778W        W43625  17.258   6.198   1.544  0.0441 -0.0886  0.1270
28779W        W43626  16.673   7.634  12.752 -0.0669  0.0570 -0.1087
28780W        W43627   7.262   1.799   5.258 -0.4426  0.0353  0.3280
28781W        W43628  12.350  16.200   2.582 -0.3281  0.1330  0.0352
28782W        W43629  10.652   5.264  16.567 -0.0333  0.1078 -0.1339
28783W        W43630  15.551   1.556   5.244  0.1142  0.0616  0.0996
28784W        W43631  14.702  16.351  12.818  0.1122 -0.0457  0.2560
28785W        W43632  16.852  14.992  12.625  0.2605 -0.0348  0.3426
28786W        W43633   8.875  17.183   4.379 -0.2194 -0.3298 -0.6510
28787W        W43634  14.226   8.885  13.872 -0.0030  0.0242 -0.0109
28788W        W43635  11.451   8.593   4.605  0.2120  0.0354 -0.0071
28789W        W43636   7.682   2.810  12.433  0.1911  0.0706  0.0029
28790W        W43637   3.001  12.236  14.252  0.0991  0.0687  0.2322
28791W        W43638  15.244   6.406  13.097  0.0054  0.4164 -0.1015
28792W        W43639  13.686   9.993  16.913  0.0060 -0.0202  0.1877
28793W        W43640   2.609   8.857   0.617  0.2223 -0.0120  0.2446
28794W        W43641  17.437   1.244   5.641 -0.0306 -0.0589  0.0933
28795W        W43642   1.800   6.539   5.145 -0.1345 -0.0421 -0.2746
28796W        W43643   1.298   4.781  11.076  0.2440 -0.0973 -0.2900
28797W        W43644  11.085   7.756   5.334 -0.0736  0.0997  0.0172
28798W        W43645   9.713  17.308   5.820  0.2977 -0.0525  0.0227
28799W        W43646   1.332  16.384  13.910 -0.0885 -0.0844  0.2837
28800W        W43647  17.306   1.972  14.045  0.1992  0.3394 -0.0454
28801W        W43648  16.737   6.055   2.386 -0.2088 -0.0516 -0.1184
28802W        W43649  15.995   2.493  14.204  0.0432 -0.0930  0.0312
28803W        W43650  13.376   7.899  15.717  0.1557  0.0589  0.3227
28804W        W43651   2.415   2.771   1.509 -0.3309  0.1569  0.0042
28805W        W43652   8.325   6.020  16.141  0.1799 -0.0746 -0.0369
28806W        W43653  14.036  14.704   5.242  0.0232  0.0662  0.0882
28807W        W43654  10.432  13.526   0.263  0.2555 -0.1080  0.2138
28808W        W43655   5.569   6.145  13.152 -0.3304  0.2450  0.1257
28809W        W43656   1.802   9.189   1.840  0.1487  0.0757 -0.2053
28810W        W43657   6.304   5.008   3.108  0.0333 -0.1612  0.2576
28811W        W43658   7.579   4.213  12.808 -0.1902 -0.3225 -0.0601
28812W        W43659  14.781   6.924   3.084  0.1583 -0.1669  0.0187
28813W        W43660  13.432   0.214   2.570  0.1114 -0.2495  0.0821
28814W        W43661   8.029   1.591  11.978  0.0284 -0.0956 -0.0789
28815W        W43662  12.670   1.066   3.215  0.0495 -0.4985 -0.2262
28816W        W43663  12.073   0.343   3.159 -0.1402  0.1622  0.0447
28817W        W43664  14.856  17.479  12.365 -0.0759  0.0177  0.0356
28818W        W43665  14.742   4.669  12.606 -0.0249 -0.1956  0.2287
28819W        W43666  15.651  17.194   1.812 -0.0974 -0.0845  0.0910
28820W        W43667  15.849   8.759  12.793  0.0509 -0.3815 -0.2410
28821W        W43668   6.333  10.701   1.653  0.0735 -0.0654 -0.1956
28822W        W43669  15.881   6.918   3.597  0.0049  0.2880  0.2686
28823W        W43670   3.224  10.259  15.640  0.0990 -0.1785  0.1780
28824W        W43671  15.961   9.659   4.855  0.0740  0.2520  0.0349
28825W        W43672   9.556  11.822  15.412 -0.1555  0.0180 -0.2794
28826W        W43673  10.007  11.693   1.591  0.0007  0.0602  0.2728
28827W        W43674  15.153   0.640  15.601 -0.1074  0.1503  0.0629
28828W        W43675  15.110  16.028  10.898  0.4164 -0.2108 -0.1716
28829W        W43676  15.885  15.952   1.696  0.3783 -0.1270  0.0222
28830W        W43677   6.626   4.327   4.960 -0.0823  0.1251 -0.0372
28831W        W43678   8.679   0.634   0.758 -0.0849  0.0980  0.1546
28832W        W43679   5.800   0.552   1.953 -0.2244  0.2519  0.0675
28833W        W43680   1.171   2.968   1.888  0.0500 -0.3254 -0.0952
28834W        W43681  15.254  17.018   0.974  0.1048  0.0710 -0.0751
28835W        W43682  14.716   4.604  13.068 -0.1696 -0.2392 -0.2058
28836W        W43683  12.565   2.821  13.196 -0.1240 -0.3008  0.1263
28837W        W43684   1.649  14.907  17.083  0.2538  0.1022  0.0761
28838W        W43685   0.557  17.727   3.822 -0.1514 -0.4309  0.4323
28839W        W43686  12.319   9.944  15.698 -0.3351  0.1523 -0.0228
28840W        W43687  13.427   2.151   6.629  0.0064  0.0619  0.3087
28841W        W43688  11.958   5.387   1.727 -0.0037  0.1695 -0.2167
28842W        W43689  13.391   9.200  13.869  0.0030 -0.0768  0.0322
28843W        W43690  16.492  12.414   0.254 -0.1799 -0.0062  0.1006
28844W        W43691  16.834  16.703   2.584  0.1929 -0.1367 -0.2303
28845W        W43692  16.236   9.286  15.797 -0.3745 -0.2014 -0.0545
28846W        W43693  13.966   4.983   2.027 -0.1770 -0.0681 -0.1121
28847W        W43694  15.855   6.325  16.714  0.0020 -0.0390 -0.2581
28848W        W43695  15.050  16.633   4.865 -0.2661 -0.1324 -0.2322
28849W        W43696   0.752  10.259   2.345  0.0128  0.1371 -0.2138
28850W        W43697   3.446   5.174  14.259 -0.1068  0.0255  0.0978
28851W        W43698   2.096  15.530   5.881  0.0203 -0.0457 -0.3332
28852W        W43699   2.253   0.917   1.520 -0.1792  0.0068  0.0678
28853W        W43700  14.918   2.914  13.896  0.0765 -0.0285 -0.1500
28854W        W43701  12.180   0.490  12.775 -0.1610  0.0550  0.3009
28855W        W43702  17.705   9.432   4.331 -0.3522  0.0577  0.0917
28856W        W43703  13.927  10.467   0.423  0.1515 -0.3330  0.1773
28857W        W43704  16.306  16.208  15.996 -0.2189 -0.1652  0.4481
28858W        W43705  12.251  11.628   0.108 -0.1368  0.1823  0.3166
28859W        W43706   9.592   2.603  16.703 -0.1516 -0.3306 -0.1217
28860W        W43707  12.262  13.048  14.644  0.2701  0.3190  0.3037
28861W        W43708  11.360   6.019   1.113  0.3758 -0.1881 -0.1180
28862W        W43709  13.602   8.529   2.384 -0.0758  0.0238 -0.1334
28863W        W43710  12.903  14.244  16.845 -0.1310 -0.0510  0.2340
28864W        W43711  17.668   4.781  11.092  0.0276  0.3893  0.1256
28865W        W43712  14.944   5.984  13.293  0.2652  0.0710 -0.2663
28866W        W43713  12.989  17.331  14.842  0.1589  0.0523  0.1812
28867W        W43714  12.811   1.058   2.005  0.3097 -0.0006 -0.1560
28868W        W43715  17.282   4.911  12.396 -0.1396 -0.2159  0.3068
28869W        W43716  14.489  17.253  16.908 -0.0573 -0.1343  0.1950
28870W        W43717   3.470   5.230   4.861  0.0709 -0.1920  0.1662
28871W        W43718   5.070  14.994  12.569 -0.2402  0.0253  0.2035
28872W        W43719   1.090   1.939   1.062  0.0510 -0.1880 -0.2848
28873W        W43720  14.575   1.338  10.857  0.0999 -0.1901  0.0069
28874W        W43721  14.387  17.300   4.823 -0.0656  0.2133 -0.0697
28875W        W43722  11.390   5.930  16.522 -0.0234 -0.0631  0.5011
28876W        W43723   5.414  14.256  16.076  0.0284  0.0219 -0.1653
28877W        W43724  13.233   1.186   6.747  0.1521  0.3164  0.0976
28878W        W43725  17.298  16.270   3.215  0.3344  0.5242  0.1265
28879W        W43726   6.426   8.471   3.482 -0.0301 -0.2512 -0.0296
28880W        W43727  13.276   2.132   6.122  0.0218 -0.1105 -0.0888
28881W        W43728  13.450   1.281  11.736  0.0197 -0.1153  0.1151
28882W        W43729   4.715   5.867   1.649 -0.3483  0.0426  0.0331
28883W        W43730  12.281  11.610  13.459  0.1267 -0.0296 -0.1673
28884W        W43731  15.770  15.701   1.088 -0.2163  0.0380 -0.1362
28885W        W43732   5.128  16.670  13.962 -0.2280 -0.1366 -0.0697
28886W        W43733   6.810   6.008   5.370  0.1585  0.0426  0.0810
28887W        W43734   0.379   5.243  16.395 -0.2700  0.1426 -0.3723
28888W        W43735  13.668   5.492   2.081 -0.2347  0.1265  0.0467
28889W        W43736   4.935   0.133  11.667  0.0745  0.0674  0.1694
28890W        W43737  10.280   3.901   1.304  0.1622  0.1561  0.2082
28891W        W43738   2.934   4.653  16.369 -0.1086  0.1058 -0.1390
28892W        W43739   0.097  15.087  10.534  0.1851  0.0179  0.0858
28893W        W43740   9.531  16.086  13.589  0.1258  0.3046 -0.1004
28894W        W43741   9.031   4.286   3.531  0.0672  0.3439  0.3156
28895W        W43742  15.860   9.873   2.267  0.1779 -0.0381  0.0851
28896W        W43743  17.330  10.491   0.827 -0.1094  0.0236  0.1119
28897W        W43744   8.016   3.527   4.395  0.1071  0.0303 -0.1657
28898W        W43745   0.309  12.058   5.922 -0.3204  0.1981 -0.4869
28899W        W43746   0.600  12.625   5.304  0.2122 -0.0610  0.1309
28900W        W43747  11.524   9.399   2.068  0.0343  0.0184  0.3920
28901W        W43748  16.454   9.942   1.178  0.1305  0.1941 -0.1317
28902W        W43749  10.828  11.246  16.049  0.0852  0.0716  0.1204
28903W        W43750  12.480   9.518   0.906 -0.0735 -0.0531 -0.0212
28904W        W43751  15.000  11.166   1.447 -0.0833  0.1979 -0.3217
28905W        W43752  10.860   9.971  12.867 -0.2344  0.0493 -0.1240
28906W        W43753  14.131  17.541   4.411 -0.1204  0.1447 -0.1676
28907W        W43754  13.214  17.922  11.956 -0.0548 -0.1291 -0.0104
28908W        W43755  10.227   5.858  14.201  0.1897 -0.0429 -0.0061
28909W        W43756  16.903   1.126   2.694  0.2795 -0.2331 -0.0222
28910W        W43757  12.191   6.954  15.978 -0.1464  0.0014 -0.1990
28911W        W43758   9.694   0.973   3.934  0.2669  0.1799 -0.0509
28912W        W43759   8.750   6.647  12.649  0.1045  0.0836  0.0617
28913W        W43760  14.767   1.695  14.531 -0.0774  0.3146  0.1627
28914W        W43761  12.783   9.656  10.700  0.2430 -0.4191  0.3116
28915W        W43762  17.476  12.730   4.963  0.0143  0.4419 -0.1950
28916W        W43763  12.189   1.147   5.087 -0.0222 -0.0210 -0.0329
28917W        W43764   0.420   9.788   3.731 -0.3070 -0.0744 -0.2812
28918W        W43765  11.797  11.425  14.335 -0.2362 -0.1819  0.0641
28919W        W43766   1.929   3.414   5.179 -0.3561 -0.1257  0.1306
28920W        W43767  16.238  14.139  15.428 -0.0360  0.0103  0.0570
28921W        W43768  12.382  12.267   3.978 -0.3159  0.0285 -0.2231
28922W        W43769  12.646   9.708  12.052 -0.0568 -0.1705 -0.1554
28923W        W43770  11.685  12.982   4.117 -0.1384 -0.4624 -0.1306
28924W        W43771   4.676   3.138   0.467 -0.1581 -0.4580 -0.0754
28925W        W43772  11.843  17.831   3.164 -0.0176  0.0290 -0.0616
28926W        W43773   4.453   3.296   5.258  0.1918 -0.0051  0.1231
28927W        W43774  16.093  16.871   5.736 -0.2026 -0.2139  0.0139
28928W        W43775  13.703   1.641   4.474  0.3993 -0.0730 -0.1394
28929W        W43776  14.074   0.741  16.876 -0.4216 -0.4862  0.0933
28930W        W43777  12.967  17.373  16.667 -0.1108  0.0026  0.0682
28931W        W43778  12.585  13.292   5.274 -0.2559  0.1825 -0.0891
28932W        W43779   1.995  14.554  13.194  0.1297 -0.1465 -0.0991
28933W        W43780  16.925  10.422  13.776  0.2189 -0.1648 -0.4063
28934W        W43781  15.009   9.358   1.118 -0.0942  0.0529 -0.1447
28935W        W43782  17.068   5.637   3.982 -0.1149  0.1378 -0.2795
28936W        W43783  15.283   8.291   0.175 -0.2947 -0.0594 -0.0559
28937W        W43784   9.939   2.640  13.903 -0.4292 -0.3523  0.0838
28938W        W43785   9.975  16.236  16.472  0.3893 -0.0907  0.3248
28939W        W43786  15.803   6.745   1.707 -0.0420  0.0120  0.1321
28940W        W43787  14.302   5.885  12.732  0.0835 -0.0813 -0.0092
28941W        W43788  14.210   0.425  12.520  0.3339  0.1187 -0.2000
28942W        W43789  15.592  13.783  15.182  0.0965  0.2724  0.0598
28943W        W43790   6.797   8.638   0.235  0.1739 -0.0567 -0.1372
28944W        W43791  16.153   7.109   5.797 -0.2952  0.3703  0.0075
28945W        W43792  14.359   8.926   5.480  0.0476  0.1173  0.1933
28946W        W43793  10.576   0.539   0.002 -0.0686  0.1364  0.0076
28947W        W43794   5.987  17.277  13.765  0.0675  0.0343  0.0069
28948W        W43795  11.597   6.186   3.324 -0.2733 -0.2198  0.1055
28949W        W43796  10.522   4.847   2.806 -0.7769  0.0273 -0.2574
28950W        W43797  11.154  14.848   2.190 -0.1069  0.1502 -0.0406
28951W        W43798   0.025   7.467   2.343  0.0085 -0.3082 -0.4687
28952W        W43799   1.013   5.787  16.796  0.0982  0.0931 -0.1752
28953W        W43800  11.838   2.667   0.416 -0.0166  0.1332  0.0596
28954W        W43801  15.550   9.980   4.526 -0.2251  0.0720 -0.0030
28955W        W43802  15.325  10.489  11.879  0.2945 -0.1853  0.0251
28956W        W43803  14.946   1.094  15.337 -0.2811 -0.2076  0.2774
28957W        W43804  12.324   4.960   5.802 -0.4596  0.0693  0.0303
28958W        W43805  14.787  14.048   5.305  0.0244  0.1432 -0.0247
28959W        W43806  12.813   9.037  14.598 -0.0997 -0.3218  0.0600
28960W        W43807  17.526  11.311  11.636  0.0321  0.2392  0.1576
28961W        W43808   9.911   5.804  16.216  0.2364  0.2382  0.2817
28962W        W43809  10.322  12.824   6.801 -0.0366  0.0421  0.3335
28963W        W43810   9.754   0.196   5.429  0.0962 -0.0913  0.0449
28964W        W43811   7.664   7.751  13.902  0.2224 -0.2055  0.1475
28965W        W43812  14.339   9.453   1.464 -0.1870  0.1053  0.1110
28966W        W43813   4.111   0.895  13.077  0.3172 -0.3907  0.0529
28967W        W43814  16.549   4.424   3.906  0.0210  0.0941  0.0267
28968W        W43815  16.119  13.549  11.951  0.1689 -0.1329  0.1923
28969W        W43816  17.704   9.937   0.052 -0.0047 -0.0694  0.0967
28970W        W43817  17.021  10.517   1.252 -0.0373  0.0137 -0.1655
28971W        W43818  11.858  12.289  16.313 -0.1243 -0.0001 -0.0956
28972W        W43819   2.076  12.877   6.006  0.0259 -0.0619  0.1753
28973W        W43820   4.834  12.605  11.212 -0.0046 -0.1523  0.1879
28974W        W43821  15.556   3.368  11.116 -0.1113  0.0453 -0.1127
28975W        W43822  12.956  10.392  16.947 -0.2942 -0.1727  0.0118
28976W        W43823   2.363   8.931  16.995 -0.1102  0.0920 -0.0763
28977W        W43824  15.705   7.554  16.073  0.1707  0.2370 -0.1160
28978W        W43825  10.846  10.879  11.645  0.1282  0.1220  0.1440
28979W        W43826  12.820   2.106   2.074  0.2751 -0.0171 -0.1968
28980W        W43827  15.038   2.311  15.504 -0.0584  0.0170  0.0090
28981W        W43828   1.081  16.924   3.168 -0.2071 -0.0781 -0.0880
28982W        W43829   2.831   9.243   5.439 -0.2049  0.1044  0.0174
28983W        W43830  13.642   2.125   4.602  0.2780 -0.0238  0.1920
28984W        W43831   8.622  17.667  14.258 -0.0274 -0.2033  0.0866
28985W        W43832  10.027   8.152  15.526 -0.1430  0.0974 -0.1987
28986W        W43833  15.936  16.047  13.064  0.4306  0.2068 -0.0859
28987W        W43834  14.944   0.618   3.621 -0.2414 -0.0108 -0.1721
28988W        W43835  14.441  14.412  11.990  0.1640 -0.0578  0.0236
28989W        W43836  13.913  13.456  11.521  0.0254  0.0460  0.1405
28990W        W43837  17.520   4.379  15.397  0.0991 -0.2675  0.0675
28991W        W43838  14.251  12.678   1.143 -0.4505  0.2762 -0.1928
28992W        W43839  16.329  12.698   1.583  0.2277  0.1454 -0.0541
28993W        W43840   2.885   1.147   2.985  0.3461 -0.1063  0.1232
28994W        W43841   1.342   3.005   2.769  0.0437  0.0770 -0.0134
28995W        W43842   3.027   5.193  13.645 -0.1218 -0.0601  0.1770
28996W        W43843   5.762   0.760   4.027 -0.2688 -0.0878  0.2981
28997W        W43844  15.604   4.091   3.774  0.2812  0.1726  0.0340
28998W        W43845  14.742   1.660   0.413  0.0019  0.1263  0.2094
28999W        W43846  15.341   5.520   3.549 -0.0861  0.2640  0.1538
29000W        W43847   0.035  14.862  17.029  0.1264 -0.1749 -0.3283
29001W        W43848   0.091  15.500   4.317  0.0300  0.0233 -0.3375
29002W        W43849   3.848  15.679   5.355 -0.1790 -0.0918 -0.3012
29003W        W43850   2.178  16.063   2.802  0.0054 -0.1824 -0.2275
29004W        W43851  12.677   7.724   0.226  0.0235 -0.2005 -0.3420
29005W        W43852  14.898  12.775  15.381  0.2287  0.0043 -0.3454
29006W        W43853  12.784   0.931   0.615  0.1213  0.1587  0.2263
29007W        W43854  13.729  15.135   5.116  0.1267  0.1314  0.0729
29008W        W43855  16.287  14.858  15.306  0.0120 -0.2881  0.1736
29009W        W43856  16.972  11.342  15.610 -0.2388  0.1478  0.2441
29010W        W43857   2.809  14.219  13.207  0.2281  0.2018  0.0601
29011W        W43858   8.080  16.942   4.123  0.5235  0.1257 -0.0912
29012W        W43859  10.907  17.788  11.600 -0.2030 -0.0441  0.2536
29013W        W43860   5.897   5.097   2.551 -0.0010 -0.2131 -0.0517
29014W        W43861   3.161  14.123  15.143  0.1601 -0.0190 -0.1288
29015W        W43862  17.181   2.528  16.493 -0.0294  0.0643 -0.0807
29016W        W43863   2.104  13.559  15.955 -0.1642  0.1034 -0.3551
29017W        W43864  11.684   6.270  15.002 -0.0842  0.1355 -0.0088
29018W        W43865  14.789  17.586  11.043 -0.1496 -0.1645 -0.0538
29019W        W43866   6.134  11.462   2.798  0.2436 -0.1583 -0.0481
29020W        W43867  12.713   0.032  16.141  0.4058  0.3757 -0.1873
29021W        W43868   0.615   1.539   0.334 -0.0455 -0.0259  0.1846
29022W        W43869  15.715   4.810  12.611  0.0336 -0.0891 -0.4536
29023W        W43870   8.594   9.125   6.177  0.2010 -0.0557 -0.0358
29024W        W43871  14.636  15.214  12.301  0.0178  0.1080  0.1180
29025W        W43872   8.871  10.703  16.372  0.1240  0.1236  0.0141
29026W        W43873  12.548  11.623  14.790  0.0432 -0.2699  0.1356
29027W        W43874  11.926  16.226  17.022  0.1664 -0.0302  0.0140
29028W        W43875  16.219  10.988  11.369  0.0609 -0.4127 -0.2146
29029W        W43876  12.923  17.090  15.978  0.0357 -0.0862  0.1547
29030W        W43877  13.521  14.676  11.813 -0.3286  0.0909  0.0608
29031W        W43878  14.730   0.158   0.963  0.0324 -0.1859 -0.0358
29032W        W43879   9.699   7.479  13.142  0.3100 -0.0227  0.0502
29033W        W43880   7.138   7.976   1.396 -0.0220  0.1793  0.0788
29034W        W43881  14.723   0.780  16.497  0.0861 -0.1619  0.1446
29035W        W43882   9.367  14.868  15.501  0.0130  0.2778 -0.2397
29036W        W43883  17.299  16.366  15.832 -0.1640 -0.1618 -0.1093
29037W        W43884  15.496  16.343  10.948 -0.0778  0.2399 -0.2701
29038W        W43885  17.305  12.000  12.005  0.2660  0.0109 -0.1012
29039W        W43886  12.054  12.074   6.650  0.1459 -0.0038  0.1612
29040W        W43887  17.912   5.030   5.381  0.0334  0.2781 -0.2222
29041W        W43888  15.319   1.597  14.547 -0.0496  0.1312  0.1755
29042W        W43889  13.758   0.279  14.152 -0.0697  0.0282 -0.0822
29043W        W43890  15.297   1.088   4.854 -0.2024  0.0586 -0.1359
29044W        W43891  15.188   7.392   4.719 -0.2138 -0.1524  0.1637
29045W        W43892   2.112   1.665  15.200  0.0718 -0.2801  0.0122
29046W        W43893  17.496   1.062   5.161  0.3089  0.4737  0.3120
29047W        W43894  10.710   6.666   4.152  0.0714  0.0917 -0.1048
29048W        W43895  14.464   8.647  14.803 -0.0171  0.1056  0.1660
29049W        W43896  10.734  17.255   0.776 -0.0610  0.1000 -0.0273
29050W        W43897   2.816   3.786  12.287 -0.0018 -0.0467 -0.2560
29051W        W43898   1.136  10.644  15.293 -0.3192  0.0604 -0.2019
29052W        W43899  12.862   8.739   6.720 -0.1542 -0.0579  0.0985
29053W        W43900  11.441   1.058   4.430 -0.0183 -0.0392  0.1468
29054W        W43901  13.257   3.165  16.286 -0.1120  0.0512 -0.3684
29055W        W43902  14.807  16.662   1.297  0.0234  0.1397 -0.2297
29056W        W43903  14.903   3.534  16.652  0.3827 -0.3496  0.1102
29057W        W43904  12.420  10.343   2.519 -0.0833 -0.1400 -0.1059
29058W        W43905  12.568  16.571  11.834  0.0237  0.0737  0.1891
29059W        W43906   9.958   9.620   0.993  0.1716 -0.0351  0.0267
29060W        W43907   2.241   4.637   4.961 -0.0208  0.0820  0.1203
29061W        W43908   4.664  15.539   3.184  0.1584 -0.1757  0.3065
29062W        W43909  12.670   5.065   3.884  0.1133 -0.1936  0.2043
29063W        W43910  17.975   5.573  14.383 -0.4053 -0.1480  0.2396
29064W        W43911  15.985   8.721  11.913  0.3209  0.1818  0.0981
29065W        W43912   8.285   1.936   4.539 -0.3391 -0.4604  0.1304
29066W        W43913   3.579  16.218  12.330 -0.0877 -0.1144 -0.0388
29067W        W43914  17.612   1.959   3.830  0.2637 -0.2634 -0.0336
29068W        W43915   9.915   3.332   0.283 -0.2205  0.0870  0.0917
29069W        W43916  15.743   0.584  13.668  0.4774  0.4171  0.0363
29070W        W43917  11.058   6.025  11.118 -0.1401  0.2480  0.0043
29071W        W43918   0.554   4.089   3.991 -0.2234 -0.0808 -0.0295
29072W        W43919  11.262   4.552   4.892 -0.1819  0.2870 -0.0631
29073W        W43920  11.644  15.524  12.219 -0.0874 -0.2574 -0.2529
29074W        W43921   1.877   1.250  15.382  0.2834 -0.0277 -0.1320
29075W        W43922  10.931  13.567   5.813 -0.1294  0.1729  0.6434
29076W        W43923   6.021  10.093  15.144  0.1279  0.2059 -0.1035
29077W        W43924  11.277   9.637   6.017  0.4923  0.0125 -0.2245
29078W        W43925   0.886   6.796   1.539  0.4057 -0.0348  0.0379
29079W        W43926  11.673   0.191   2.769 -0.0118  0.3173  0.1153
29080W        W43927   6.375  14.990  12.384  0.1711  0.1505  0.0828
29081W        W43928  14.471  17.544   1.200 -0.1269 -0.0583 -0.1413
29082W        W43929  13.533  16.784   3.749 -0.0316  0.0560 -0.1530
29083W        W43930  14.269  16.746   3.307  0.2239 -0.1002  0.0231
29084W        W43931  16.254   8.702   2.680 -0.1083  0.0574  0.0482
29085W        W43932   2.656   6.058  15.694  0.0840 -0.0852  0.0511
29086W        W43933   9.788   2.941   4.119  0.1587  0.0553  0.1636
29087W        W43934  14.733   4.556   2.074  0.0110  0.2355 -0.4878
29088W        W43935  17.311   0.365   5.104  0.1479 -0.2115  0.1287
29089W        W43936  13.699   1.407   2.286 -0.2794  0.1285  0.3480
29090W        W43937   1.174   1.931  14.643  0.3552  0.1406  0.0285
29091W        W43938  15.120  17.609  11.422 -0.1612 -0.0868 -0.1770
29092W        W43939   5.514  10.943   3.861 -0.2750  0.1570 -0.2053
29093W        W43940  13.984  16.349   2.801  0.1563 -0.1136  0.0793
29094W        W43941  16.411  16.882   4.917 -0.0941  0.0767  0.3647
29095W        W43942   8.419   8.063   3.207  0.0212  0.0551  0.1020
29096W        W43943  13.516  10.659  15.808 -0.2454 -0.1299 -0.1823
29097W        W43944   9.327   7.008   3.863  0.1424  0.2012 -0.2464
29098W        W43945   2.121   3.909   0.213  0.3577  0.2188 -0.0025
29099W        W43946  17.595  16.827   6.428  0.0418  0.0661 -0.0509
29100W        W43947  15.620   4.914  12.130 -0.1491  0.1474  0.1097
29101W        W43948  13.092   8.238  13.933 -0.2536 -0.0475  0.1458
29102W        W43949   1.232  16.377   3.226  0.0285  0.0689 -0.1107
29103W        W43950  15.220   6.437   3.931  0.0646 -0.3395 -0.1949
29104W        W43951   8.918   0.274   5.294  0.1404 -0.1621 -0.2451
29105W        W43952   9.576   4.365   4.221 -0.0938  0.2410 -0.1860
29106W        W43953  16.134   4.423   4.251  0.1248 -0.1271  0.1863
29107W        W43954   0.110   5.017  14.300  0.0096 -0.0542 -0.0715
29108W        W43955  16.097  14.703   1.461  0.2322  0.1605  0.1727
29109W        W43956  11.801   5.977   5.321 -0.3032  0.0835 -0.2403
29110W        W43957  17.175   4.977   5.363 -0.2469 -0.1019  0.0180
29111W        W43958  16.198  17.688   2.781  0.0030 -0.4745 -0.0675
29112W        W43959  11.787  11.708  15.171 -0.1820 -0.0563 -0.0347
29113W        W43960  17.791  11.474   0.472 -0.3129  0.1000 -0.2204
29114W        W43961  11.346   9.390  14.752  0.0285 -0.2443  0.3160
29115W        W43962   1.272   6.989   4.511 -0.1744 -0.0259 -0.1090
29116W        W43963  16.584   3.618  13.900  0.0331 -0.0043  0.3364
29117W        W43964   7.410   9.449  14.828 -0.0397  0.0922 -0.1878
29118W        W43965  12.959  17.829   1.218 -0.2921  0.0250 -0.0159
29119W        W43966   5.251  10.645  14.379 -0.3482 -0.1653 -0.4060
29120W        W43967   9.957  13.870   1.064  0.2015  0.2347 -0.2575
29121W        W43968   9.321   3.145   2.167 -0.1300 -0.0154  0.0331
29122W        W43969  12.639  15.733  14.500  0.1658  0.0646 -0.0354
29123W        W43970  10.321  12.678  15.785  0.0828 -0.0303  0.1604
29124W        W43971  10.322   1.227  16.454 -0.0342  0.2088  0.1602
29125W        W43972  15.168   7.297  11.592 -0.4316 -0.0008 -0.0041
29126W        W43973   2.027  16.853   3.202  0.0990  0.0138 -0.1801
29127W        W43974   7.664   0.319   2.321  0.2152  0.0075  0.0661
29128W        W43975  17.139   0.115  12.597 -0.0358  0.3892  0.1021
29129W        W43976  15.281   2.384  10.414  0.1987  0.0679  0.0311
29130W        W43977  16.275  14.594   0.427 -0.0602  0.2435  0.1324
29131W        W43978   5.117   2.872   5.008 -0.1317  0.3939 -0.0685
29132W        W43979  15.894   9.030  16.758  0.2265 -0.2743 -0.2010
29133W        W43980  15.405  10.363  16.875  0.1824  0.1188 -0.0524
29134W        W43981  17.701   4.657   5.185  0.3525 -0.2015 -0.2390
29135W        W43982  16.654   6.609   4.729  0.1573 -0.0328 -0.0204
29136W        W43983   0.568   9.802   0.396 -0.1265 -0.2421 -0.1095
29137W        W43984  17.353  10.724  13.930 -0.4261 -0.1313 -0.1758
29138W        W43985  17.098   1.237  16.030 -0.1778  0.1388  0.1528
29139W        W43986  16.391  16.277  10.093  0.0340 -0.0491 -0.1207
29140W        W43987  15.406  12.006   2.615 -0.2952 -0.1729  0.0416
29141W        W43988  11.531   1.161  14.747  0.2642 -0.1459  0.0771
29142W        W43989  17.289   9.951   0.986  0.2892 -0.1895 -0.2785
29143W        W43990   2.230   6.784  12.073 -0.0488  0.1597  0.0980
29144W        W43991  12.845  16.340  16.376 -0.1180 -0.0452 -0.0225
29145W        W43992  15.411   9.027   4.873 -0.2219 -0.0271 -0.3397
29146W        W43993  17.203   0.754  15.974  0.0346 -0.0065 -0.0852
29147W        W43994  17.016   4.321  15.983  0.2649  0.1375  0.3267
29148W        W43995  12.146  16.013   3.314  0.1841  0.0381  0.0712
29149W        W43996  10.456  12.071  12.307 -0.0518 -0.2371 -0.0436
29150W        W43997   8.916  16.054   2.035 -0.1753  0.0498 -0.4953
29151W        W43998   3.701  17.228  16.674  0.0262 -0.2397 -0.0532
29152W        W43999   0.826   1.052  13.314 -0.2732  0.0491  0.2870
29153W        W44000   6.985   4.098   4.223  0.2295 -0.0343 -0.1398
29154W        W44001  15.863   6.379   3.706  0.0850  0.1356  0.2669
29155W        W44002  16.458  11.459   3.424 -0.0989 -0.2180  0.0198
29156W        W44003   8.063   3.061   5.276 -0.0028 -0.3271 -0.1841
29157W        W44004  14.852   1.593   2.151 -0.1805  0.1390 -0.1218
29158W        W44005  11.941   3.625   3.499  0.1241 -0.0945  0.0779
29159W        W44006   7.715   0.562   0.370 -0.0906 -0.1256 -0.0936
29160W        W44007  14.772  10.056  10.498 -0.1285  0.2904  0.0278
29161W        W44008  11.832   8.827   4.989 -0.1253  0.0349 -0.1170
29162W        W44009  11.283  17.114  12.303  0.1445 -0.0933 -0.1245
29163W        W44010   8.920   8.949  15.184 -0.0968 -0.0645 -0.0597
29164W        W44011  15.835   2.946  11.265  0.1244  0.1946 -0.1232
29165W        W44012  17.016   5.802   6.286  0.0752 -0.2497 -0.0957
29166W        W44013  15.539   2.790   5.628 -0.1687 -0.1362  0.2114
29167W        W44014  11.812  13.999  13.706 -0.6933 -0.0291 -0.4717
29168W        W44015  14.749   9.072   2.171  0.2895 -0.2116  0.0654
29169W        W44016   5.797  11.900   0.712  0.2961  0.3094  0.1569
29170W        W44017  13.189  13.338  16.226 -0.3064 -0.0545  0.2795
29171W        W44018  14.943  16.254   4.451 -0.1875 -0.0541 -0.1510
29172W        W44019  11.070  16.984   3.577 -0.3713 -0.2308  0.2819
29173W        W44020  11.638  11.176  15.067  0.3560 -0.0856  0.2250
29174W        W44021   0.924  10.462   5.926  0.2006 -0.0460  0.1415
29175W        W44022  13.860  11.231   2.719 -0.1401 -0.0376 -0.2017
29176W        W44023  12.603   9.666  11.548  0.1672  0.1098  0.0741
29177W        W44024  17.098   7.653   3.346  0.2499  0.2437 -0.0915
29178W        W44025  11.353   1.048   0.571 -0.0736 -0.0153  0.0340
29179W        W44026  14.179  13.914  13.560 -0.1750 -0.0173 -0.0738
29180W        W44027  12.288   3.422  16.987 -0.0256 -0.1469  0.1479
29181W        W44028  14.045   1.949   5.451  0.3018  0.3319  0.2289
29182W        W44029  10.711   2.933   5.028  0.2007  0.1309 -0.0205
29183W        W44030   2.335   8.351   3.891 -0.1437  0.1203  0.1515
29184W        W44031  15.049   3.544   2.733  0.0134 -0.0880  0.2190
29185W        W44032   1.562  16.801   3.328  0.1821  0.3900  0.0361
29186W        W44033  17.695   2.237   0.408 -0.0232 -0.0001  0.1838
29187W        W44034  11.896  10.725  11.831 -0.1310 -0.3369  0.0281
29188W        W44035   8.419  17.867  13.312 -0.1147  0.1729  0.2803
29189W        W44036   2.890   7.177   4.417  0.1815  0.0873 -0.0296
29190W        W44037  14.103   5.897  10.521 -0.2537  0.0621 -0.0208
29191W        W44038   0.833   5.678   2.149 -0.0723 -0.0578 -0.1372
29192W        W44039  11.617  17.310  11.642  0.1023  0.1526 -0.1378
29193W        W44040   1.058  13.258  14.261  0.2031  0.3248  0.0833
29194W        W44041   0.439   1.816   3.438  0.4302  0.2713 -0.0914
29195W        W44042  10.068   9.667  12.656  0.1007 -0.3473  0.2607
29196W        W44043   0.558   7.472  14.323 -0.1072  0.0793  0.3753
29197W        W44044   7.891  17.663  14.686 -0.1364  0.1373  0.1204
29198W        W44045   1.775  17.035  13.223 -0.1878  0.0382  0.3458
29199W        W44046  15.184  11.717   0.034 -0.0202  0.1725  0.1549
29200W        W44047  15.431   4.771   1.471  0.1531 -0.1971 -0.3595
29201W        W44048   7.051   3.536  14.228 -0.1950 -0.1068  0.1023
29202W        W44049   0.421  16.764  16.018  0.0175  0.1276 -0.0917
29203W        W44050   0.055   6.744   1.965 -0.0744  0.2486 -0.2756
29204W        W44051  17.016  12.789  13.203  0.0962  0.3963 -0.3824
29205W        W44052  14.880  10.255  12.142 -0.1397  0.1293  0.0026
29206W        W44053  17.321   4.684  15.753 -0.2347 -0.0785 -0.3381
29207W        W44054  16.859  11.661  11.295 -0.2195  0.1687 -0.1761
29208W        W44055  12.121   1.951   1.821  0.0550  0.0301 -0.1681
29209W        W44056  10.116  11.151  16.673 -0.2170 -0.0815 -0.0393
29210W        W44057  16.130  14.893   5.317  0.1331 -0.0952  0.0172
29211W        W44058  17.702   3.581  14.516 -0.1892 -0.0115  0.0238
29212W        W44059  12.926   5.484  14.897 -0.1209  0.0727  0.0689
29213W        W44060  17.927   0.154   1.677 -0.2550  0.1275  0.3463
29214W        W44061  14.894  14.369   2.050 -0.1048  0.3438  0.2569
29215W        W44062  16.483  10.270   1.604  0.0375  0.2130  0.1166
29216W        W44063  11.921  15.849   5.084  0.1240 -0.3115 -0.2367
29217W        W44064   1.581  14.801  14.216  0.0690  0.1267  0.0614
29218W        W44065  15.703   2.883   4.795  0.0928 -0.0622  0.1710
29219W        W44066  10.946   2.007   3.914 -0.1697 -0.2417 -0.0259
29220W        W44067   1.363  11.498  12.636 -0.1509  0.2931  0.2327
29221W        W44068   4.150   4.915   5.738 -0.1008 -0.1499  0.0024
29222W        W44069   9.579  13.705  15.891  0.0928  0.0975  0.0537
29223W        W44070  11.101  17.453   3.473 -0.0742  0.2267 -0.2218
29224W        W44071   1.358   0.937  14.306 -0.2338 -0.0362  0.1710
29225W        W44072   9.063  11.549   1.003  0.1532  0.3288 -0.0200
29226W        W44073  13.807   3.525  13.456 -0.1117 -0.0449  0.0547
29227W        W44074  10.362  16.316   2.661  0.0791  0.3422  0.2574
29228W        W44075  13.787   5.915   3.764  0.2323 -0.0210 -0.1025
29229W        W44076  15.335  10.407   2.477 -0.0333 -0.5955  0.1695
29230W        W44077  13.569  12.117  11.596  0.2662 -0.1130  0.2476
29231W        W44078  15.548   4.564   3.548  0.2603  0.3265 -0.1107
29232W        W44079  12.049  11.145  16.549 -0.0533 -0.0317 -0.2279
29233W        W44080   6.650   7.557   0.082 -0.1279 -0.0214 -0.0622
29234W        W44081  16.422  10.916  16.205 -0.2721  0.4334  0.3014
29235W        W44082  13.889   1.534   3.261  0.3451  0.2323 -0.2909
29236W        W44083   9.616  12.033  14.266 -0.1599 -0.0350 -0.0908
29237W        W44084  16.319  14.414  15.012 -0.0535 -0.2758  0.0455
29238W        W44085   9.194  12.947   1.504  0.0805 -0.1219  0.3104
29239W        W44086  10.668   7.262   5.962 -0.1580  0.3138 -0.0384
29240W        W44087   0.460   9.294   1.538 -0.0868 -0.3264  0.2126
29241W        W44088  14.697  12.648  14.083  0.0787  0.0839  0.3469
29242W        W44089  12.417   6.035   2.764  0.1047  0.3761  0.1313
29243W        W44090  14.265   3.628  11.246  0.0200  0.4692 -0.0790
29244W        W44091  14.945   7.111  15.468  0.2322 -0.1643  0.3393
29245W        W44092  14.562  16.022   3.940 -0.2618  0.2496  0.1583
29246W        W44093  13.223   7.882  16.211  0.0915  0.0709  0.2295
29247W        W44094   1.251  11.623  10.959 -0.2951  0.1184 -0.1170
29248W        W44095  11.711  16.482   6.226 -0.0858 -0.3196 -0.1095
29249W        W44096  10.449  14.661   2.591 -0.1352  0.3115 -0.1076
29250W        W44097  12.185  17.974  12.013  0.2082 -0.1070  0.2661
29251W        W44098  14.078   9.007   5.927  0.5814 -0.1758  0.0773
29252W        W44099   0.709  12.660  17.006 -0.1210  0.3892 -0.0442
29253W        W44100  10.361  12.413   0.971 -0.0869 -0.0338 -0.0453
29254W        W44101  11.506   4.565   3.645 -0.0805  0.1131  0.4325
29255W        W44102   3.659  14.517  12.623  0.2749  0.1514 -0.0749
29256W        W44103  14.235   9.360  15.724 -0.1584  0.2337 -0.0454
29257W        W44104  12.805  17.307  12.504  0.1441  0.0242  0.0843
29258W        W44105   9.928  10.236   1.038 -0.2031  0.1238 -0.1252
29259W        W44106  11.097   8.256   4.609  0.1224  0.0588  0.0988
29260W        W44107  13.466  16.121   0.708  0.1928 -0.0197 -0.1780
29261W        W44108  12.840   6.953  15.414 -0.0773 -0.1705 -0.0054
29262W        W44109   0.767  13.104   2.854 -0.2945 -0.0044  0.3482
29263W        W44110   0.657   8.827  16.141 -0.1602  0.0588 -0.0204
29264W        W44111  14.504  13.500   4.633 -0.2890 -0.1321  0.3508
29265W        W44112  12.249  10.114   4.324 -0.0603  0.0214 -0.0032
29266W        W44113  17.218   0.724   4.286  0.2405 -0.3258  0.1392
29267W        W44114   0.552   9.009   5.486 -0.2782 -0.4089 -0.2795
29268W        W44115   4.782   4.941  15.359  0.0877 -0.1714 -0.2188
29269W        W44116  10.794  13.821   0.153 -0.1758  0.2268 -0.2921
29270W        W44117   3.702  12.206   2.560  0.1498  0.0995 -0.0813
29271W        W44118  10.099   5.699   4.060 -0.1903 -0.3989  0.4344
29272W        W44119   0.987   8.544  12.625  0.1622 -0.2168  0.2105
29273W        W44120  15.139  16.962   2.962 -0.2569  0.0948 -0.2359
29274W        W44121  12.573   0.454  10.184  0.1900 -0.2282 -0.0806
29275W        W44122   9.717   5.323   3.855  0.0237  0.1374  0.1526
29276W        W44123  16.335  16.542  10.961 -0.3003 -0.0072 -0.0828
29277W        W44124   3.920   4.520  14.795  0.2601 -0.2312  0.2326
29278W        W44125   3.038   1.805  15.682  0.1979 -0.0317 -0.0839
29279W        W44126  13.591  15.917  14.879 -0.0666  0.0251 -0.3553
29280W        W44127   9.515   1.801  16.756 -0.2222 -0.2236 -0.1189
29281W        W44128  13.643  16.283   4.350 -0.0116  0.1710 -0.1146
29282W        W44129  15.061  17.542   1.144  0.0276 -0.0759  0.0225
29283W        W44130  10.863   3.940  13.920  0.4132  0.1116  0.0097
29284W        W44131  12.879   6.082   4.180 -0.0599  0.1248 -0.2439
29285W        W44132   4.676  12.471   0.362  0.0137  0.0053 -0.2252
29286W        W44133  13.156   9.337   0.126  0.3227 -0.0634 -0.1988
29287W        W44134  15.256   3.861   5.764  0.2537 -0.2496 -0.0005
29288W        W44135  12.155   4.046  13.795  0.1051 -0.1920 -0.0913
29289W        W44136   8.989   6.361   0.901  0.3041 -0.0002 -0.2364
29290W        W44137  15.058   6.204  15.639  0.1635 -0.1267 -0.2715
29291W        W44138  15.640  14.567   0.774 -0.0660 -0.0696 -0.1639
29292W        W44139  15.429   1.020   5.901 -0.3610 -0.2085  0.2827
29293W        W44140  10.984   9.974   5.597 -0.1636 -0.5538  0.0094
29294W        W44141  14.476   7.360  14.472  0.0438  0.2549 -0.0588
29295W        W44142  14.119   2.744   0.996  0.1262 -0.0737  0.2351
29296W        W44143   1.112   0.221  10.403  0.0592  0.0019 -0.0507
29297W        W44144  11.136   1.468   5.855  0.0649  0.4479  0.0129
29298W        W44145   6.712   5.929  14.060 -0.0401 -0.0504 -0.0567
29299W        W44146   4.092  17.791  13.750  0.1243 -0.1545 -0.2331
29300W        W44147   0.688  11.094   3.746  0.1519 -0.0959  0.2999
29301W        W44148   5.464  12.293   4.541 -0.1389  0.0159  0.2742
29302W        W44149  13.024  17.484  13.428 -0.2419 -0.1803 -0.1894
29303W        W44150  14.918   8.892   1.158 -0.2598  0.2870 -0.1891
29304W        W44151  13.853  16.390  12.665  0.1561 -0.0262 -0.1002
29305W        W44152  11.866   0.173   4.119  0.0214 -0.2557  0.1350
29306W        W44153  17.488   0.351   5.660 -0.3930  0.0673 -0.2093
29307W        W44154  17.348  16.989  11.426 -0.1327  0.1119 -0.1804
29308W        W44155  17.334   1.692   3.085 -0.0566  0.1612 -0.0487
29309W        W44156  16.473   6.251   0.385  0.0430 -0.2584 -0.1002
29310W        W44157  11.650  16.229   0.287 -0.3271  0.2018  0.0477
29311W        W44158  12.904   3.096   2.352  0.2318  0.0536 -0.1927
29312W        W44159   8.761   2.877   1.435 -0.2122 -0.2346  0.3224
29313W        W44160  12.190  14.131   5.057  0.0254  0.0062 -0.0962
29314W        W44161  14.027   5.924   2.672  0.1472  0.0205  0.0108
29315W        W44162  12.989  12.976   2.848  0.2151  0.0794  0.1442
29316W        W44163  10.257  13.532  13.571  0.2331  0.2728  0.1340
29317W        W44164   4.140  16.359  14.250 -0.2526  0.0293 -0.1999
29318W        W44165   4.878   9.264  13.725  0.0138  0.0080 -0.1206
29319W        W44166  13.089   3.353  11.679  0.1586  0.2400 -0.0692
29320W        W44167   0.164   3.803   2.098 -0.2099  0.4590  0.1496
29321W        W44168  16.853  10.647  14.881 -0.4128  0.1931 -0.1038
29322W        W44169  17.567   2.625  11.650 -0.1136 -0.2713  0.0408
29323W        W44170  13.122  17.399   2.544  0.3381 -0.3206  0.1755
29324W        W44171   2.458   3.735  13.860  0.0302 -0.1666 -0.1969
29325W        W44172  17.664   9.712  14.858 -0.6107 -0.1974  0.0704
29326W        W44173  13.140  11.934  13.222  0.3423 -0.1792 -0.2310
29327W        W44174  13.445   9.503   1.900  0.0121 -0.2520  0.1808
29328W        W44175  13.816  13.858   5.783 -0.0001 -0.5514 -0.1865
29329W        W44176  10.712   9.140  14.342 -0.5216  0.3012  0.0843
29330W        W44177   9.156   7.380  13.218  0.2899  0.0139 -0.0109
29331W        W44178  16.942   0.291  15.968 -0.2402 -0.0575  0.2248
29332W        W44179  11.765   7.372   2.175  0.1606  0.0045  0.0627
29333W        W44180  13.979   6.769   4.622  0.0215  0.1461  0.1143
29334W        W44181  17.699   8.315  16.370  0.1307  0.1632 -0.0045
29335W        W44182  13.011  12.848   0.064 -0.0259 -0.1369  0.5536
29336W        W44183   2.624   4.368  13.048  0.2326 -0.1360  0.1784
29337W        W44184  16.734   5.618  16.605 -0.3055 -0.2123  0.1749
29338W        W44185  10.385   0.279  16.124 -0.2389  0.1205  0.1723
29339W        W44186  15.388  14.190  12.861 -0.1050 -0.0663 -0.1338
29340W        W44187  10.020   8.072   2.317  0.0290 -0.4621  0.2237
29341W        W44188  13.232   3.141  11.206  0.0285  0.0014  0.1303
29342W        W44189  14.417  13.143   1.896 -0.1300  0.0273 -0.1338
29343W        W44190  13.859   1.422  13.413  0.3621 -0.2942 -0.0947
29344W        W44191  13.307   1.348  10.948 -0.1582  0.0186  0.2467
29345W        W44192  17.283  10.577   6.262  0.3464  0.1847 -0.0454
29346W        W44193  17.421  16.857   1.504  0.3130 -0.0907  0.2713
29347W        W44194   2.429  10.438  14.831  0.0698  0.0165 -0.2320
29348W        W44195  14.757  12.312  15.156 -0.3917 -0.0126  0.1017
29349W        W44196  11.983  10.062   4.825  0.1324 -0.1466 -0.0843
29350W        W44197  15.711   0.912   6.293  0.0765 -0.0595 -0.2126
29351W        W44198  16.617   9.030  11.466  0.0075 -0.0644  0.1127
29352W        W44199  15.776   2.807  16.518  0.0591 -0.5378 -0.2333
29353W        W44200  13.333   7.124   1.281  0.2683  0.0134  0.1522
29354W        W44201  16.742   2.055   4.054 -0.1011 -0.2439  0.0338
29355W        W44202   6.736   6.869  14.639  0.0467 -0.0372 -0.2275
29356W        W44203   2.758   8.528  13.268  0.3380 -0.2222 -0.0279
29357W        W44204   2.530   1.355  14.101  0.1827 -0.0902  0.1990
29358W        W44205   5.079  16.234   6.047 -0.0255  0.0854 -0.3155
29359W        W44206   0.398  10.472  10.797 -0.0333  0.0898  0.0549
29360W        W44207   1.421  14.460   0.112 -0.0582  0.0817 -0.0160
29361W        W44208  11.514  13.093   4.592 -0.0300  0.0876 -0.1552
29362W        W44209  11.361  11.923  12.107 -0.0247  0.1615  0.0794
29363W        W44210  15.478   5.550   4.443 -0.0325 -0.1676  0.0229
29364W        W44211   1.132  15.887   4.045  0.0577  0.1302  0.3724
29365W        W44212  16.900  13.368  16.376  0.1320  0.2295  0.2375
29366W        W44213  13.424  14.627   6.417 -0.4112  0.0573  0.1222
29367W        W44214   4.822   9.704  14.281  0.0841 -0.1903 -0.0124
29368W        W44215  14.937   2.159   4.550  0.2528 -0.4386  0.1687
29369W        W44216  17.300   4.241   0.353 -0.3658 -0.0981  0.0147
29370W        W44217  13.332   4.033   5.057 -0.1123  0.0656 -0.5456
29371W        W44218   3.843   0.432   0.765  0.2687  0.1592  0.0262
29372W        W44219  10.624  13.662   6.835  0.2019  0.1438 -0.0735
29373W        W44220  15.588   6.803   2.565  0.0919 -0.1589  0.1667
29374W        W44221  10.433   4.905   1.394  0.1113 -0.2047  0.0506
29375W        W44222  10.278   1.550  16.902  0.0769 -0.4212 -0.2201
29376W        W44223  11.119   6.745   1.724  0.0884  0.0232 -0.1875
29377W        W44224   1.433  14.839   5.959  0.0721  0.2424  0.0763
29378W        W44225   0.226  11.789   4.284  0.1064 -0.0381 -0.0151
29379W        W44226  17.083   0.508   0.327  0.1048  0.3864  0.2234
29380W        W44227  10.131   3.598   3.198  0.3548 -0.1328  0.2964
29381W        W44228  12.187   4.815  16.720 -0.2275 -0.1827 -0.0972
29382W        W44229  13.010   8.062  11.413  0.3708  0.1001 -0.2054
29383W        W44230   2.910   4.218  13.748 -0.0797  0.2315  0.0036
29384W        W44231   2.390   2.626   5.584  0.1179 -0.0358  0.3373
29385W        W44232  16.825  10.059  11.505  0.1865  0.1259 -0.0210
29386W        W44233  15.933   1.059   4.366 -0.0816 -0.1853 -0.2786
29387W        W44234   1.342  15.736  13.710  0.1186 -0.0614 -0.3133
29388W        W44235  10.910  10.069  16.072  0.2015 -0.0701  0.3761
29389W        W44236  13.519  10.653  13.298  0.0983  0.2388 -0.0211
29390W        W44237  12.146  12.864   0.823 -0.1769  0.4705 -0.2810
29391W        W44238   0.602  17.452  10.451 -0.0142 -0.0500 -0.1537
29392W        W44239  16.065  11.291  10.968 -0.1917 -0.0466 -0.2234
29393W        W44240  10.070   8.327   0.958 -0.0286 -0.0074 -0.4541
29394W        W44241   4.905   0.820   2.400 -0.0644  0.2706 -0.1896
29395W        W44242   0.521   2.644  11.570 -0.3023 -0.1454  0.0864
29396W        W44243   6.237   3.599   2.396  0.2737  0.1255 -0.1290
29397W        W44244  15.945   7.318  11.401  0.3040  0.1347 -0.0866
29398W        W44245  17.073   5.336   1.446  0.0544  0.0117  0.3207
29399W        W44246  13.489  12.923  11.334 -0.2287 -0.0614  0.0432
29400W        W44247  16.531  17.940   0.007 -0.2974  0.1644 -0.3068
29401W        W44248  17.610  17.272   2.542  0.3262  0.3413 -0.2404
29402W        W44249  10.503   7.441  16.006  0.1190 -0.1182 -0.1152
29403W        W44250  17.499   0.388   1.705 -0.1380 -0.2258  0.0462
29404W        W44251  14.810   0.537  11.652  0.0229 -0.0186  0.2071
29405W        W44252  13.204   5.264  14.038  0.1309  0.0810 -0.2480
29406W        W44253   2.521   3.998   3.423 -0.0587 -0.1638  0.0389
29407W        W44254  17.043  11.129   2.629  0.0314  0.1398  0.0626
29408W        W44255  11.388   3.715  13.998 -0.2864 -0.0124  0.0220
29409W        W44256  12.725   4.900  12.180 -0.1281  0.0677 -0.0398
29410W        W44257  13.852   0.406   5.213  0.0226  0.1100  0.3363
29411W        W44258   1.061  10.454   4.550 -0.1492  0.0466  0.2207
29412W        W44259  14.545   6.690   3.778 -0.0605 -0.0426 -0.3924
29413W        W44260  13.768   3.979  14.149 -0.0859  0.0149  0.0753
29414W        W44261  14.172  16.271  10.619  0.2038 -0.2443  0.1071
29415W        W44262   0.028   8.324  11.655  0.2040  0.2274  0.1028
29416W        W44263  14.502  17.793  15.499  0.2515  0.2472 -0.1710
29417W        W44264  16.039  13.481   1.563 -0.2498 -0.0147  0.2154
29418W        W44265   7.083   9.869   1.191  0.3279 -0.2001 -0.0355
29419W        W44266  13.675   0.456  16.825  0.0814  0.1602  0.0836
29420W        W44267   4.486   5.561   2.648  0.1874  0.0598  0.3100
29421W        W44268  13.052  12.447  14.817 -0.3045 -0.2084  0.0843
29422W        W44269  16.796  10.856  15.753  0.4099  0.0483 -0.2082
29423W        W44270   8.526  13.470  14.888  0.1158  0.1515 -0.0163
29424W        W44271  13.826   5.694   5.772 -0.1702 -0.2910 -0.0103
29425W        W44272  11.437   1.816   5.315 -0.1614 -0.1263  0.2201
29426W        W44273  13.695  16.149  11.764  0.2502  0.3411 -0.2533
29427W        W44274  10.513   9.760  12.436 -0.0095 -0.3120  0.4748
29428W        W44275  16.122   2.737   2.536  0.1573 -0.1407 -0.1892
29429W        W44276   0.618   4.380   4.368 -0.0968 -0.0074 -0.0924
29430W        W44277  17.012   4.668   0.104 -0.2318  0.1477  0.0223
29431W        W44278   2.328  10.526   1.396 -0.0425 -0.1491  0.2443
29432W        W44279  17.254   0.418  14.427  0.1411  0.2540 -0.1913
29433W        W44280  13.934  11.413  12.715 -0.0442 -0.2061  0.0049
29434W        W44281  13.972   2.096  14.665  0.4923  0.0002 -0.2354
29435W        W44282  12.169  14.267   2.955 -0.2383 -0.0297  0.0415
29436W        W44283  15.768  10.281  11.738  0.1016 -0.0634 -0.2256
29437W        W44284  12.987   3.513   6.168 -0.1228 -0.1329 -0.0073
29438W        W44285  12.568   0.502  10.710  0.2063  0.1235  0.1830
29439W        W44286  17.650   5.677  12.515 -0.0321  0.0544  0.1075
29440W        W44287  17.933   4.056  12.391 -0.0029  0.0618  0.0792
29441W        W44288   5.467  16.200   5.657  0.2141  0.2436  0.1607
29442W        W44289  14.866   2.567   2.789 -0.0206  0.1236 -0.0217
29443W        W44290   2.166   5.458  11.336  0.2636  0.0381  0.1846
29444W        W44291  14.576  14.878  11.860 -0.1048 -0.0089 -0.0578
29445W        W44292   0.603   5.218   5.622 -0.1202 -0.2651  0.2374
29446W        W44293   9.403  17.054   3.717  0.1054  0.1111  0.2008
29447W        W44294  14.356  10.535   4.910 -0.1694  0.0455  0.0963
29448W        W44295   7.851   6.281   1.626 -0.2210  0.0694 -0.2036
29449W        W44296  12.412  15.684   1.934  0.2408  0.0848  0.1662
29450W        W44297  14.149   3.265   1.011  0.0403 -0.4904 -0.1204
29451W        W44298  10.804   8.719   3.453 -0.0074  0.0291 -0.1741
29452W        W44299   7.238   9.608   0.237  0.0273  0.1591  0.0714
29453W        W44300  14.728   8.482   2.970 -0.2003 -0.1357 -0.1830
29454W        W44301  15.032   5.430   0.213 -0.0827 -0.1910 -0.0430
29455W        W44302  11.635   4.181   5.123 -0.0288  0.1938  0.0043
29456W        W44303   8.576   6.490  14.365  0.2781 -0.0520 -0.0546
29457W        W44304  15.232  14.982  13.174  0.1184  0.2683 -0.1365
29458W        W44305  13.786  13.322   3.019 -0.0617 -0.2211  0.2436
29459W        W44306  15.392  15.865   4.465  0.5678 -0.0408  0.0880
29460W        W44307   0.231  11.114   0.810 -0.1154 -0.0214  0.0898
29461W        W44308   6.869   8.987  13.513  0.1362  0.1325  0.0950
29462W        W44309  14.266   3.384   2.412  0.1769  0.0818  0.4421
29463W        W44310  16.790  15.489  14.742 -0.0943 -0.1309  0.0642
29464W        W44311  13.175   2.317  11.919 -0.0789  0.2404  0.1712
29465W        W44312   1.431   7.922   1.882  0.3458  0.0795  0.2074
29466W        W44313  13.774  14.634  11.413  0.2359 -0.1535  0.3173
29467W        W44314  15.723   1.037  13.878 -0.1299 -0.2210  0.0138
29468W        W44315  14.555  11.566  13.278  0.1286 -0.0918 -0.4385
29469W        W44316   7.955   2.673   4.883 -0.1135  0.0319 -0.2999
29470W        W44317   0.129  14.991   4.259  0.0828  0.1266 -0.0954
29471W        W44318  17.387  17.733  12.954 -0.4219 -0.0813  0.1547
29472W        W44319  12.990   7.229   0.884  0.2306 -0.0871 -0.0780
29473W        W44320   8.609  16.174   3.434  0.0116  0.1009 -0.3502
29474W        W44321   5.889  10.723  12.450  0.0751 -0.2521 -0.1075
29475W        W44322   0.928   7.629  13.668  0.1804  0.0963 -0.0439
29476W        W44323  14.514   1.485   1.377 -0.1077  0.1056  0.0263
29477W        W44324  12.940  16.160  16.892  0.5199  0.0304  0.0817
29478W        W44325  15.195   2.265   2.596 -0.0044  0.1285 -0.3259
29479W        W44326  17.671   2.388  17.068 -0.0202 -0.0067  0.0106
29480W        W44327  12.696  12.333  11.182  0.0192 -0.1308  0.2226
29481W        W44328   8.833  13.293   0.746  0.1477  0.1747 -0.0285
29482W        W44329  10.226  16.226  11.878 -0.0279 -0.0988 -0.1738
29483W        W44330  11.827   0.565   2.393 -0.3791  0.1106 -0.0879
29484W        W44331   2.485   4.839   3.183 -0.0068 -0.3452 -0.0262
29485W        W44332  15.621  10.181  16.395  0.3850  0.0708 -0.1623
29486W        W44333  16.404   2.509   2.147 -0.4117  0.1786 -0.3741
29487W        W44334   9.563  15.937  13.108 -0.2759 -0.0705  0.0570
29488W        W44335  16.818   9.901   5.211 -0.0833  0.1184  0.2585
29489W        W44336  14.503  11.649   0.260  0.0310  0.3442 -0.2626
29490W        W44337  13.939   1.254  13.918  0.0036  0.2725  0.1096
29491W        W44338   9.511   6.193   4.421  0.1888  0.3128  0.1207
29492W        W44339   7.529  10.141   1.550  0.1981 -0.0900 -0.2880
29493W        W44340   2.739   4.576  14.057  0.0742  0.2666  0.1161
29494W        W44341  12.459   4.193   0.889 -0.1572  0.0557 -0.0645
29495W        W44342  13.613   0.842  11.920 -0.0653  0.0267 -0.0560
29496W        W44343  10.398  17.357  12.187 -0.4436 -0.1144 -0.0679
29497W        W44344  17.120   2.597  10.486  0.0941 -0.1967  0.3050
29498W        W44345  17.438  11.692  13.199  0.1291 -0.0645  0.1289
29499W        W44346   4.368  10.760  16.753 -0.2821  0.3883 -0.1332
29500W        W44347  10.897   5.013   4.978 -0.0713 -0.0103  0.3204
29501W        W44348  14.755   3.126   2.817  0.1143 -0.0621 -0.0431
29502W        W44349  15.968   6.815   0.874 -0.0029  0.5094 -0.1374
29503W        W44350  12.953  10.884  15.519  0.0391 -0.2320  0.0259
29504W        W44351  14.832  16.312  15.831  0.2403 -0.1798  0.3926
29505W        W44352  14.204  14.991   1.925 -0.0424  0.0156  0.3763
29506W        W44353   1.100   7.526   6.389  0.0424  0.1547 -0.1124
29507W        W44354  13.020  11.521  11.560 -0.1448  0.1075  0.1417
29508W        W44355   9.704   0.992   1.595  0.2355 -0.0052 -0.2119
29509W        W44356  11.390  15.259  11.798  0.2352 -0.1342  0.0360
29510W        W44357  12.793  12.501   2.927 -0.0569 -0.1311  0.0938
29511W        W44358  14.677  12.301  12.414  0.1611 -0.1863 -0.1788
29512W        W44359   8.783   9.310   4.561  0.1304 -0.1026  0.0966
29513W        W44360  14.814  11.322  12.721  0.0566 -0.0980 -0.1303
29514W        W44361   5.703  14.520   4.933  0.0305  0.0736  0.0596
29515W        W44362  14.905   9.292   3.183 -0.1946 -0.1118 -0.0498
29516W        W44363  16.774   3.183  13.744 -0.1540  0.0261 -0.1028
29517W        W44364  13.919  15.568  14.951 -0.1459  0.0606  0.0729
29518W        W44365   9.365   4.352  11.836  0.1001 -0.0569 -0.2607
29519W        W44366   8.402  11.734  12.652  0.0751 -0.3354  0.0386
29520W        W44367   0.770   7.446   0.490 -0.0785 -0.0862 -0.1499
29521W        W44368  10.687  17.219   3.786 -0.0903  0.1185 -0.3292
29522W        W44369   2.400   1.094   3.790 -0.0149  0.0003 -0.0901
29523W        W44370  16.350   3.214  11.034  0.1183  0.0086  0.2261
29524W        W44371  14.390   8.507   4.445 -0.1384 -0.1556 -0.0180
29525W        W44372  16.525  11.067  14.247  0.0894  0.2093  0.0080
29526W        W44373  15.380  10.821   1.652  0.0427 -0.1403  0.0334
29527W        W44374   6.944   4.374  12.800  0.1976  0.3606 -0.4096
29528W        W44375  14.173   4.163  14.368  0.0975 -0.1634 -0.0909
29529W        W44376   1.351   9.842  13.006 -0.2748  0.0651 -0.3483
29530W        W44377   0.144  17.700  11.156  0.1176  0.1467 -0.2002
29531W        W44378  15.227  11.635   5.081 -0.1890  0.1523  0.1401
29532W        W44379  15.375   3.213  16.624  0.1925  0.3682  0.0024
29533W        W44380   6.073  12.567  15.830  0.1287  0.2567 -0.0474
29534W        W44381  11.989   5.101  13.789  0.1342  0.0797  0.1425
29535W        W44382  13.390  13.684   0.818  0.1022 -0.2538 -0.1022
29536W        W44383   9.240  15.117   2.000  0.1695 -0.5699  0.2425
29537W        W44384  15.731   7.024  15.982 -0.1349  0.3791  0.2317
29538W        W44385  11.211   6.755  13.786  0.1021 -0.1013 -0.0070
29539W        W44386   6.884   9.226   2.787  0.0210 -0.0073 -0.0435
29540W        W44387   2.539  14.638   5.472 -0.0567  0.1818 -0.1610
29541W        W44388  14.975  17.896   4.099 -0.3000  0.2270  0.2595
29542W        W44389  15.726  14.369  11.413 -0.1844 -0.3869  0.1561
29543W        W44390  16.466   9.802   4.808 -0.0466 -0.0769 -0.0923
29544W        W44391   2.372   9.239   6.301  0.1117  0.0509 -0.0091
29545W        W44392  10.892   2.743   5.513 -0.1073  0.1643  0.0557
29546W        W44393  17.224   9.657   2.934 -0.2580 -0.0646 -0.0879
29547W        W44394  14.917  12.468  14.492  0.2228 -0.2940  0.1244
29548W        W44395  15.662   6.216  12.860 -0.0342 -0.0285  0.3005
29549W        W44396  12.398   7.871  13.300 -0.2348 -0.1670 -0.0363
29550W        W44397   0.369  13.224  15.056 -0.0503  0.0613  0.2691
29551W        W44398  10.900   7.259  15.706  0.1520  0.1919 -0.2074
29552W        W44399  15.912   1.034  11.694 -0.1461  0.2819  0.0925
29553W        W44400   7.649  10.284   5.326  0.0834 -0.1619 -0.0485
29554W        W44401  14.952  14.430  12.030  0.4083 -0.1624 -0.1151
29555W        W44402  14.959   9.167  16.457 -0.1048  0.1426  0.1616
29556W        W44403  12.672  14.548   5.858  0.4467  0.0932 -0.1104
29557W        W44404   9.139   0.559  16.964  0.3884 -0.0386 -0.0902
29558W        W44405   4.190  16.014  14.607  0.1369  0.1345  0.1170
29559W        W44406  11.469   3.439  11.183  0.2056  0.0807 -0.1018
29560W        W44407   0.333  13.577   4.173 -0.0218  0.0450 -0.0282
29561W        W44408   2.853  10.558  15.715  0.0148 -0.2676  0.1648
29562W        W44409  15.766  16.957   0.693  0.0489  0.2197 -0.3238
29563W        W44410  17.093   9.379  10.552 -0.1763 -0.0635  0.2327
29564W        W44411  16.525   9.581  16.142  0.0433  0.1166 -0.0556
29565W        W44412  13.482  11.370  12.489 -0.2247  0.1666 -0.0636
29566W        W44413  14.307  15.239   5.871  0.0757 -0.1373  0.2237
29567W        W44414  10.969   1.471   1.456  0.1507  0.1111  0.0207
29568W        W44415   0.924   4.654  12.866  0.2882  0.0835 -0.0720
29569W        W44416  10.831   7.628  17.031  0.0925  0.3658  0.2396
29570W        W44417  13.826   5.013  13.540 -0.0151 -0.1508 -0.0518
29571W        W44418  11.439  12.098  15.501 -0.1362 -0.1244 -0.0150
29572W        W44419   0.215   6.707   0.831  0.4447  0.0560 -0.1113
29573W        W44420  11.703   7.395  12.530 -0.1109 -0.3179 -0.0234
29574W        W44421  14.868  17.133   2.539 -0.0386  0.0150  0.0594
29575W        W44422  16.361   0.270  14.216  0.1793 -0.0967  0.0602
29576W        W44423  15.283  10.133   0.803 -0.0379  0.1030  0.0982
29577W        W44424  16.503  11.043   5.421  0.2548 -0.1178 -0.0762
29578W        W44425  14.693  14.031   0.042  0.0315  0.0193 -0.3338
29579W        W44426  11.564   8.656   2.042  0.3653 -0.0472 -0.0736
29580W        W44427   4.446   3.013  12.677  0.0414 -0.0764  0.3475
29581W        W44428  14.517   4.488   0.791  0.0041  0.0396  0.0981
29582W        W44429  17.824  12.119  12.192 -0.3705 -0.5275  0.0578
29583W        W44430   2.501  16.938   2.938  0.1083 -0.1177 -0.2518
29584W        W44431  11.883   2.697  11.942 -0.0941 -0.0241 -0.1544
29585W        W44432  12.752   3.580  15.248 -0.0190 -0.0920  0.1085
29586W        W44433  11.306   4.197  13.980  0.2291 -0.1084  0.0483
29587W        W44434   2.225   9.165  12.192  0.1269  0.0317 -0.2303
29588W        W44435  17.172   3.076   4.324 -0.1047 -0.3843 -0.0482
29589W        W44436  15.607   1.846   4.787  0.1555 -0.0652 -0.2322
29590W        W44437   1.019  17.625   5.031  0.0930 -0.0841 -0.1817
29591W        W44438   2.737   5.477   3.280 -0.0734 -0.2069  0.0030
29592W        W44439  10.968   1.065  12.291  0.1067  0.0522 -0.1120
29593W        W44440   8.584   2.141  16.246  0.0828 -0.0210  0.1328
29594W        W44441  11.858   5.687  16.586  0.2019 -0.1930  0.0863
29595W        W44442   9.686   4.916  17.095  0.0594 -0.0577 -0.0977
29596W        W44443  12.884   6.850  11.579 -0.0773 -0.1009  0.1189
29597W        W44444  15.198   0.266   3.835 -0.0866  0.1083 -0.1459
29598W        W44445   3.880  16.915  14.993 -0.0478  0.0970  0.0990
29599W        W44446  17.226  14.170  15.328  0.1803  0.0768 -0.1762
29600W        W44447  13.591   1.363   0.367 -0.2048 -0.0235 -0.3514
29601W        W44448  11.930  17.458  12.943 -0.0950  0.1292 -0.2723
29602W        W44449  17.962  10.928   3.113  0.0471 -0.1929  0.0463
29603W        W44450  13.698   1.848   2.519  0.0828  0.1500  0.1405
29604W        W44451  12.950   2.936  15.970  0.0977  0.1278  0.3360
29605W        W44452  17.977  15.786   5.537  0.0737  0.0819  0.0071
29606W        W44453   0.297   2.521   3.855  0.2091  0.0447 -0.1060
29607W        W44454  10.917  13.760  15.306  0.2115  0.3858 -0.1753
29608W        W44455   9.509   1.759  11.828 -0.4442  0.2421 -0.0465
29609W        W44456  15.652   0.024   3.228  0.0012  0.1431 -0.1264
29610W        W44457   6.340   7.330   0.410  0.0044 -0.0131  0.0726
29611W        W44458   0.973  16.628   1.860 -0.2758 -0.1910  0.0442
29612W        W44459  13.684  10.367   2.325  0.3243 -0.2495 -0.1244
29613W        W44460  15.654   0.972  17.076 -0.0393  0.2241 -0.1577
29614W        W44461   2.029  16.682  13.482  0.0177 -0.0196  0.0252
29615W        W44462  12.534  17.971  14.085  0.0588  0.3795 -0.0428
29616W        W44463  15.434   8.691   1.058 -0.0291  0.2695 -0.0297
29617W        W44464  15.928  13.229   2.947  0.0221 -0.1625  0.4831
29618W        W44465   2.080  11.363   2.767  0.0964  0.0863 -0.1995
29619W        W44466  15.387  12.996   2.197  0.0653 -0.0379 -0.2300
29620W        W44467  12.255  12.326   5.072 -0.1537  0.1503 -0.1425
29621W        W44468  16.600   7.451  13.972  0.1570  0.0414  0.1225
29622W        W44469   0.836  13.980   1.445 -0.1486  0.0176  0.0944
29623W        W44470  15.040  14.685   2.856  0.0607 -0.0951  0.0157
29624W        W44471   6.647  16.969   1.910  0.1683  0.1287 -0.0163
29625W        W44472  14.303  17.440   6.533 -0.3222  0.2060  0.2842
29626W        W44473  17.843  10.447   0.140  0.0768 -0.0307  0.3937
29627W        W44474  16.319   8.048  11.123  0.0114  0.0849  0.0278
29628W        W44475  13.155   7.854   1.660 -0.2281  0.1787 -0.1757
29629W        W44476   2.047   2.720  12.384 -0.1295 -0.0125  0.0992
29630W        W44477   6.283   5.898   1.970  0.0834  0.4141 -0.4668
29631W        W44478  12.193  17.156   3.970 -0.0624  0.1033 -0.3164
29632W        W44479  14.199  15.164  12.650  0.2590  0.1625 -0.3347
29633W        W44480  16.487   0.287  13.089 -0.1089 -0.1854 -0.0867
29634W        W44481  15.103  15.432   2.269  0.0664 -0.1372 -0.3566
29635W        W44482   0.750   5.868  11.667  0.3459  0.3186 -0.1222
29636W        W44483  14.659  13.072  14.536 -0.0382  0.1410 -0.0909
29637W        W44484  17.622  17.697   6.476  0.0559  0.3291  0.0856
29638W        W44485   8.300   7.540   3.151 -0.0364 -0.0242  0.3522
29639W        W44486  12.284   3.518  12.551 -0.3796  0.1268 -0.4412
29640W        W44487  16.400  11.532   4.332 -0.0002  0.0490 -0.1127
29641W        W44488   5.026  11.799  12.512 -0.2919 -0.0049 -0.3286
29642W        W44489  16.936  13.606  12.071 -0.1030  0.0219 -0.1077
29643W        W44490  15.963   9.567   5.714 -0.3153 -0.0392  0.1563
29644W        W44491  15.107   6.305  16.152  0.0996 -0.1268  0.0295
29645W        W44492   9.753  13.341  13.036 -0.3609  0.3426  0.0134
29646W        W44493  12.157   8.945  10.924 -0.0073  0.0093 -0.0198
29647W        W44494  12.049   2.557  14.600 -0.0937 -0.3019  0.2264
29648W        W44495   7.080   5.851  16.683 -0.4984  0.0250  0.2182
29649W        W44496  11.889  11.997  12.607  0.1083 -0.3559  0.1135
29650W        W44497  12.053  15.157   5.074  0.0636  0.3666 -0.0316
29651W        W44498  16.092   3.453  12.098  0.4049  0.1396  0.3831
29652W        W44499  13.803  10.694  14.994 -0.0743 -0.0361  0.2139
29653W        W44500   6.082   2.525   5.436 -0.0264  0.1320 -0.1056
29654W        W44501   9.359  11.910   0.886  0.1432 -0.0828  0.0944
29655W        W44502   1.192   0.447  14.273 -0.1248  0.1779  0.1852
29656W        W44503  12.633  15.105   4.955  0.0713 -0.4426  0.0770
29657W        W44504   8.542   7.498  12.857  0.2401  0.3413  0.1851
29658W        W44505   8.176   9.300  15.588 -0.1067  0.1604 -0.0075
29659W        W44506  13.643  15.073   3.362 -0.1148 -0.3425  0.3058
29660W        W44507  10.688   5.668  15.839 -0.1834 -0.1205  0.0591
29661W        W44508  14.694   3.902  14.788  0.0716 -0.1183  0.0183
29662W        W44509   2.038  15.250   1.086  0.1153 -0.0384 -0.2317
29663W        W44510  15.238   3.592   4.989 -0.0423  0.1034  0.1668
29664W        W44511  14.088   4.635  10.738  0.0624  0.2872 -0.0256
29665W        W44512   1.217   5.331   2.090 -0.1157  0.0164 -0.2255
29666W        W44513   7.555   0.919  10.851 -0.0832  0.0904  0.0276
29667W        W44514   0.161  13.784   1.007  0.0397  0.1116 -0.0325
29668W        W44515  17.877  15.662  12.637 -0.1570  0.1212  0.0209
29669W        W44516  17.533   5.903   6.365 -0.1668  0.0942  0.0484
29670W        W44517   2.520  11.545   0.398 -0.0762 -0.0705  0.3868
29671W        W44518  16.335   1.726  12.188 -0.2119  0.0826 -0.0292
29672W        W44519  12.486   5.088  13.038 -0.2053  0.0867  0.0212
29673W        W44520  16.697   8.672   4.409 -0.1364 -0.0184 -0.0105
29674W        W44521   0.365  16.033  13.477  0.2317  0.1553 -0.2605
29675W        W44522  12.305   6.039   2.185  0.0804 -0.2357  0.0289
29676W        W44523  13.180  15.539  15.166  0.0602  0.0675  0.2513
29677W        W44524  16.450   0.653  12.252 -0.3628 -0.0961 -0.1238
29678W        W44525  15.404  15.496   4.070  0.0497 -0.1420 -0.2680
29679W        W44526   9.845   6.853  12.675 -0.4295 -0.1277 -0.0297
29680W        W44527  13.291  13.097  11.881  0.0293 -0.0898  0.0398
29681W        W44528  15.882   6.503  12.509  0.1508 -0.0813  0.1054
29682W        W44529  14.891   4.080  16.125  0.2178  0.2956 -0.0094
29683W        W44530  12.125   5.614  16.078  0.0577 -0.0269 -0.0290
29684W        W44531  16.211  13.528   2.161  0.0302  0.1388 -0.3304
29685W        W44532  13.347   7.416   4.026 -0.2071 -0.4157  0.0404
29686W        W44533  16.907  14.915   1.761  0.0411 -0.0172  0.2559
29687W        W44534  11.338  16.876   2.052  0.0641 -0.0501  0.2129
29688W        W44535   2.181   6.333   0.855  0.0979 -0.2242  0.0284
29689W        W44536  16.146  14.517   4.944  0.0216  0.0435 -0.0324
29690W        W44537  15.728  17.108   4.975 -0.0143  0.2760  0.0132
29691W        W44538  16.957  15.635   5.336 -0.2535 -0.1662 -0.0093
29692W        W44539  14.540  10.834   5.746  0.1561  0.2124 -0.0448
29693W        W44540   3.718   3.719   4.852 -0.0242  0.1681 -0.4111
29694W        W44541   9.089   9.559  16.544 -0.3715  0.2508  0.3105
29695W        W44542  13.800   5.467  16.899  0.2617 -0.0800 -0.1456
29696W        W44543  15.464  17.600   4.062 -0.3990 -0.1347  0.3665
29697W        W44544   1.141  13.554   3.695 -0.2627 -0.2195  0.0273
29698W        W44545  17.817  17.662   4.294 -0.0226  0.0040  0.1559
29699W        W44546  16.652   3.848  11.682  0.1052  0.0387  0.0176
29700W        W44547  14.475   8.496   5.279  0.1151  0.2348  0.1671
29701W        W44548  16.145  12.914   4.216  0.0192  0.0282 -0.2709
29702W        W44549   9.683  16.920  16.713  0.1090 -0.1910  0.1082
29703W        W44550   2.771  17.355   1.659 -0.0425 -0.2834  0.1666
29704W        W44551  16.063   7.177   5.302 -0.0820 -0.0389 -0.2296
29705W        W44552  14.546   8.169  12.582  0.0783  0.1333  0.0966
29706W        W44553  16.604  15.496   4.840  0.1810 -0.2882 -0.0285
29707W        W44554   2.218   9.905  12.149 -0.0081 -0.1117 -0.1277
29708W        W44555   3.153   9.825  15.999  0.1061  0.0059 -0.2429
29709W        W44556  15.604  13.574   0.590 -0.0405 -0.0836  0.0734
29710W        W44557  11.045  16.266  12.498 -0.2192  0.1520  0.0059
29711W        W44558  13.674   9.711   4.501 -0.1113 -0.1440  0.1277
29712W        W44559  13.440  17.333   3.828  0.0384 -0.2139  0.4484
29713W        W44560  14.143  11.911   1.421  0.0224 -0.0393  0.2406
29714W        W44561  13.694  16.945  10.132 -0.3536 -0.0976 -0.1994
29715W        W44562  13.832  15.778   4.356  0.2046  0.1736 -0.3638
29716W        W44563  16.767   7.643   2.217  0.1849 -0.1656  0.6426
29717W        W44564  10.923  14.134  15.660 -0.0306  0.4763  0.1810
29718W        W44565  11.558   5.887  13.821  0.0468  0.2102  0.0941
29719W        W44566   2.937  14.265   5.524 -0.0742  0.2157  0.1424
29720W        W44567  11.883  15.430   4.706  0.2645 -0.2126 -0.0951
29721W        W44568  15.504   0.633  14.557 -0.0095 -0.2103  0.0051
29722W        W44569  14.491  11.375   5.522  0.2481 -0.0372 -0.0080
29723W        W44570   9.176  12.777   3.739 -0.1156 -0.2362 -0.1102
29724W        W44571  11.612  16.638  13.933 -0.0945  0.0902  0.0630
29725W        W44572   3.321   3.411   5.493 -0.2000  0.0167 -0.0212
29726W        W44573   1.578   9.636   0.575 -0.0294  0.2914 -0.1660
29727W        W44574  14.470   9.629  14.327  0.0582  0.2619  0.0407
29728W        W44575  12.680   1.095  12.150 -0.1625 -0.3115  0.1132
29729W        W44576   8.450   2.608   2.269  0.0110 -0.2207 -0.1664
29730W        W44577  10.461   2.343   3.961  0.0098 -0.0580  0.0902
29731W        W44578  10.752   3.170   0.244 -0.0709 -0.0952  0.0534
29732W        W44579  13.264   9.733  16.383 -0.2342  0.1473 -0.1201
29733W        W44580  13.395  12.862  16.916 -0.2934 -0.0786 -0.0127
29734W        W44581  11.968  10.419  16.208 -0.0997 -0.2356 -0.0694
29735W        W44582  10.796   0.053   0.075  0.0256  0.0448 -0.2893
29736W        W44583  12.899   3.309   0.512 -0.1665 -0.2440  0.0155
29737W        W44584   2.423   3.695  12.530  0.1498 -0.0080  0.0102
29738W        W44585  12.820   7.807  15.684 -0.1458  0.0299  0.0837
29739W        W44586  14.447   2.954   0.682  0.4646 -0.0041 -0.2815
29740W        W44587  10.591   3.225  14.881 -0.0322 -0.0645  0.2814
29741W        W44588   9.116  12.916  11.932  0.1011 -0.2957 -0.2666
29742W        W44589  10.406  14.290   2.179  0.2171 -0.1841  0.0273
29743W        W44590  12.066   3.865   3.899  0.0019  0.0062 -0.0590
29744W        W44591   1.893  16.901   0.241  0.0222  0.1517 -0.1763
29745W        W44592  14.246   4.953   5.484 -0.1494 -0.2138 -0.0839
29746W        W44593  17.933   9.477  15.248 -0.0118 -0.1108 -0.3126
29747W        W44594   9.926   0.430  15.901 -0.2740 -0.0389  0.3289
29748W        W44595  15.211   1.453  12.787 -0.0164  0.0985  0.1007
29749W        W44596   7.598   2.521  13.380 -0.2825  0.4630  0.1928
29750W        W44597   3.494  11.873   2.972  0.1237 -0.2832 -0.1703
29751W        W44598  16.316  11.433  16.909 -0.3049 -0.1660  0.3123
29752W        W44599  15.332   3.949   0.461  0.2270 -0.1061 -0.1712
29753W        W44600   9.203  11.070  12.593  0.2057 -0.0456  0.0434
29754W        W44601   4.269  13.265   1.866 -0.0528 -0.0451 -0.1654
29755W        W44602   5.466  12.577   1.048 -0.3082 -0.2240 -0.1413
29756W        W44603   5.084  11.731   0.760 -0.1607 -0.1422  0.3078
29757W        W44604  13.019   3.818  16.979  0.1774 -0.0657  0.0901
29758W        W44605   5.430   1.054  13.629 -0.2873 -0.0499  0.1603
29759W        W44606  11.694   3.281  13.942 -0.0922  0.0068 -0.2040
29760W        W44607  16.556  12.640  13.443 -0.0747  0.2874  0.1320
29761W        W44608  10.409  13.547   4.728 -0.2097 -0.0011 -0.3668
29762W        W44609   3.919  11.287   1.663  0.2324  0.1274 -0.2829
29763W        W44610   1.428   1.805  16.822  0.1683  0.0585  0.1731
29764W        W44611  11.371  16.904  15.399 -0.2256  0.1885  0.0035
29765W        W44612  12.137  10.654  14.404  0.1125  0.2222 -0.1618
29766W        W44613  14.712   0.562   6.137 -0.2715  0.3260  0.6158
29767W        W44614   9.398  14.263   0.777 -0.0436 -0.2239 -0.1202
29768W        W44615   3.329   9.174   5.614  0.0492 -0.2725 -0.0239
29769W        W44616  13.277   7.648   1.222  0.0360 -0.0251 -0.1965
29770W        W44617  12.277  12.159   5.557 -0.0684  0.0693  0.0069
29771W        W44618  15.323   6.808  16.285 -0.1670  0.1473 -0.0717
29772W        W44619  10.697  13.055  15.764  0.1116 -0.1720  0.0244
29773W        W44620  13.892  12.634  14.039  0.2457 -0.0808 -0.0802
29774W        W44621   0.525   8.317  15.941 -0.0470  0.2659  0.0142
29775W        W44622  12.724   2.409   1.626 -0.1328  0.2679  0.3071
29776W        W44623   5.864  17.307   0.129 -0.2331 -0.1797  0.0996
29777W        W44624   5.420   8.274  14.868 -0.0678 -0.0619 -0.0359
29778W        W44625  15.571  12.464  13.718 -0.1359  0.1097 -0.1127
29779W        W44626   7.819  11.398   6.814 -0.1916  0.1796 -0.1044
29780W        W44627  14.606   5.587   3.128  0.0555  0.0143 -0.2489
29781W        W44628  17.195  12.035  15.906  0.0907 -0.0710 -0.1933
29782W        W44629  13.801  17.552  13.990 -0.2124  0.2272 -0.3532
29783W        W44630   8.883   8.271   2.013  0.3261  0.1390 -0.3247
29784W        W44631  17.476   1.473   3.847  0.1709 -0.2173  0.1480
29785W        W44632   0.142  16.354   0.084 -0.1174 -0.1579 -0.3488
29786W        W44633   0.611   6.642   4.034 -0.2558  0.1150 -0.3031
29787W        W44634  13.790   8.795  14.098  0.0483  0.0527  0.1126
29788W        W44635   3.750  10.260   0.070  0.2618  0.2553  0.1794
29789W        W44636  17.183   4.876   1.198  0.0618 -0.0417 -0.5923
29790W        W44637  17.307  11.150  14.126  0.0375  0.0736 -0.0361
29791W        W44638  12.076   6.358  15.325 -0.1361 -0.0579 -0.2922
29792W        W44639  16.300  16.188   1.500  0.3896  0.0206 -0.0784
29793W        W44640  11.536  12.804  11.149 -0.1941  0.2670 -0.2359
29794W        W44641  12.239   1.605  12.865 -0.0735 -0.0497  0.0807
29795W        W44642  12.757   7.409   1.999 -0.0157 -0.0420 -0.0683
29796W        W44643  12.660  10.978  11.447 -0.0418 -0.1626 -0.1131
29797W        W44644   1.188   9.007   2.941 -0.2174 -0.3566 -0.3689
29798W        W44645  17.446  17.827   5.556 -0.1269  0.0959  0.0460
29799W        W44646  14.811  14.497  11.546  0.0439  0.1261 -0.0879
29800W        W44647  12.425   4.892  12.547  0.0480 -0.3221 -0.2224
29801W        W44648  14.542  12.284   3.728  0.3267  0.1171 -0.1809
29802W        W44649   9.825   3.775   4.110  0.2428  0.0174 -0.2086
29803W        W44650  12.773   7.442  15.360  0.2689  0.1505 -0.0595
29804W        W44651  16.063  11.893  11.705  0.2747  0.1146 -0.0845
29805W        W44652  11.700  13.264  11.357 -0.0447 -0.1018  0.1291
29806W        W44653  15.183  12.110  10.192 -0.1815 -0.3913 -0.3212
29807W        W44654  15.459  13.446  16.815  0.0384  0.1408  0.0968
29808W        W44655  15.594   4.454  15.752  0.0433 -0.1853 -0.0475
29809W        W44656   7.698   5.713  12.888 -0.0521 -0.1467  0.2692
29810W        W44657  13.775   4.880   4.236  0.1718  0.0885 -0.1836
29811W        W44658   1.145   2.307  15.738  0.1452 -0.1514 -0.0169
29812W        W44659   1.584  12.787  17.025  0.0114  0.2538  0.1009
29813W        W44660   7.630  16.500  10.795 -0.0948 -0.1864  0.2946
29814W        W44661  14.568   2.917  11.180 -0.0831 -0.0380 -0.1833
29815W        W44662  14.720  15.454   5.165  0.0841 -0.1506 -0.2825
29816W        W44663  17.935   3.298   3.188  0.0072  0.0823 -0.0086
29817W        W44664   0.969   6.608   4.386 -0.0737  0.0247 -0.1676
29818W        W44665   9.996   1.116   6.001  0.0446 -0.2515 -0.1727
29819W        W44666  15.299   8.227  13.465 -0.1192 -0.1449 -0.3025
29820W        W44667   9.760  10.065  12.464 -0.0433 -0.3617 -0.0106
29821W        W44668  10.677   5.566  14.196 -0.2286  0.1438  0.1373
29822W        W44669  13.584  10.924   4.848 -0.0456 -0.1777  0.0458
29823W        W44670  17.805   2.468   4.711 -0.3470 -0.2684  0.0396
29824W        W44671  13.663   2.092   3.551 -0.0385  0.0074 -0.1932
29825W        W44672  13.721   0.800  14.059 -0.0439  0.0805 -0.0657
29826W        W44673  10.922  14.146   6.973  0.3186  0.2013  0.1862
29827W        W44674   1.035   0.184   4.541 -0.2320  0.2517  0.1985
29828W        W44675  16.680   5.236  15.048  0.1340 -0.0634 -0.2102
29829W        W44676  11.421   7.169  14.001 -0.2214  0.1627 -0.4233
29830W        W44677   0.740   5.252   4.857  0.1071 -0.1604  0.2884
29831W        W44678  10.448   1.388   5.317  0.1319 -0.1505  0.1079
29832W        W44679  12.082   8.265   2.645 -0.0550  0.3798  0.1333
29833W        W44680  14.217  16.303   2.097 -0.0848 -0.3417  0.0697
29834W        W44681  11.671   0.853  16.409  0.1849 -0.2594 -0.0973
29835W        W44682   8.360   9.223   4.784  0.1643 -0.0117 -0.0343
29836W        W44683   5.457   7.488  14.813  0.1084  0.0774  0.0174
29837W        W44684  14.165   5.461   2.275 -0.1088 -0.1949  0.2174
29838W        W44685   5.919   3.338  12.456  0.0873  0.0894 -0.2466
29839W        W44686  15.582  12.309  16.013 -0.0555 -0.1266  0.0935
29840W        W44687  11.867  11.964  16.880  0.3559 -0.0412 -0.2683
29841W        W44688  15.597   8.319  14.931  0.0887 -0.2891 -0.0897
29842W        W44689  11.638   5.371   4.071  0.2715 -0.0177  0.0459
29843W        W44690  12.544   9.627  15.342  0.1363  0.2860 -0.0240
29844W        W44691  15.554   7.424   2.960 -0.0617  0.0723 -0.0425
29845W        W44692  16.020  12.619  16.239  0.1189  0.2392 -0.0903
29846W        W44693   4.099   7.580  14.677 -0.0097 -0.1166  0.0961
29847W        W44694  17.688   3.730   2.378  0.0705  0.1697  0.1581
29848W        W44695  16.737  13.444   4.631 -0.0543 -0.1192 -0.2340
29849W        W44696  15.827   3.586  14.752 -0.0076 -0.4529  0.1366
29850W        W44697   8.576  12.563   6.364 -0.0619 -0.0213 -0.1614
29851W        W44698   2.402  14.705   2.098  0.1793 -0.0262 -0.2303
29852W        W44699   4.740  15.085   1.636 -0.0699  0.2444 -0.2558
29853W        W44700   3.114  16.407  16.423  0.1463 -0.2846  0.3524
29854W        W44701   0.986  12.370  11.724  0.0994 -0.1465 -0.1470
29855W        W44702  13.611  16.622   0.469  0.0872 -0.2376 -0.0435
29856W        W44703  11.578  16.421   1.812  0.3733  0.0187  0.1028
29857W        W44704   4.907   2.390  14.448  0.4374  0.3204 -0.1105
29858W        W44705   0.727   0.665   6.092  0.1299  0.1231  0.0903
29859W        W44706  15.521   5.148   0.263 -0.2645 -0.2194 -0.0627
29860W        W44707   1.980   2.952   4.278  0.1235  0.2887  0.0665
29861W        W44708   1.051  15.675  14.707  0.2081 -0.1756 -0.0662
29862W        W44709  11.120   8.250  15.214  0.1230 -0.0734 -0.0604
29863W        W44710  17.169   3.737   3.592  0.1084  0.3481  0.0517
29864W        W44711   2.192   5.797  14.696 -0.1265  0.0175  0.0807
29865W        W44712  15.167   1.702   4.937  0.0342 -0.0200 -0.1219
29866W        W44713  16.249  15.539  11.615  0.0692  0.0216  0.2186
29867W        W44714  11.185   8.302   2.112 -0.0262 -0.1862 -0.0018
29868W        W44715   0.775  15.222  14.623  0.1520  0.0926  0.0614
29869W        W44716   6.581   8.472   1.251  0.0123 -0.1456  0.3064
29870W        W44717  15.172   3.831   1.183  0.0846 -0.0314 -0.1090
29871W        W44718   0.729  12.546  15.464  0.0732  0.0930 -0.0065
29872W        W44719   8.431   2.610   5.949 -0.1809  0.1651  0.2554
29873W        W44720   9.655   7.015  15.432 -0.2565 -0.1686 -0.0881
29874W        W44721   3.915   2.733   4.857 -0.4206  0.1711 -0.2080
29875W        W44722  12.879  15.450  13.347 -0.2384 -0.1725  0.2457
29876W        W44723  13.978   0.839   4.873  0.0509  0.0610  0.0512
29877W        W44724  16.962  16.721   3.685 -0.0750  0.0093  0.4034
29878W        W44725  17.661  10.546  16.396  0.0889 -0.0346  0.4028
29879W        W44726  14.023  14.238  11.657  0.1567 -0.0430 -0.1801
29880W        W44727   1.214   7.767   4.690  0.1953  0.1493  0.0121
29881W        W44728   0.008   1.508   1.158  0.5223 -0.1860  0.0231
29882W        W44729  16.011  13.053  14.735 -0.1662  0.5125 -0.3051
29883W        W44730   7.035  16.111  12.194 -0.1409 -0.0229 -0.2260
29884W        W44731   0.852  14.590   3.720 -0.0357 -0.3013 -0.0968
29885W        W44732   5.431   3.773  16.563 -0.2347 -0.1464  0.1446
29886W        W44733  16.379  11.852  12.962 -0.0321  0.0357 -0.0647
29887W        W44734   9.889   0.642   2.432 -0.1916 -0.0691 -0.0460
29888W        W44735  15.640  13.028   5.331  0.1693 -0.2778  0.1576
29889W        W44736  15.434  10.456  14.436  0.0530 -0.0016 -0.2712
29890W        W44737   9.381   4.916  14.721  0.1282 -0.1972  0.2868
29891W        W44738  16.490  16.628   1.697  0.0528 -0.0272 -0.0163
29892W        W44739   2.439  16.587  12.668  0.2586 -0.0119  0.0479
29893W        W44740  14.389  17.000   1.379 -0.0603  0.1451  0.0186
29894W        W44741   7.084   7.339   6.334  0.0806 -0.1138  0.1158
29895W        W44742  17.005  16.703   1.857  0.4078  0.0055  0.1117
29896W        W44743  16.377   8.807  16.756  0.0523  0.1293 -0.1916
29897W        W44744  17.237  13.239   2.391 -0.1089 -0.0801  0.0883
29898W        W44745  12.442   3.462  11.033 -0.0268  0.0268  0.0566
29899W        W44746   0.025   5.009   4.365 -0.0963 -0.2520  0.0366
29900W        W44747  16.258  17.068   0.133  0.0455 -0.0374  0.0154
29901W        W44748  15.179   3.326   5.600 -0.4224 -0.0619  0.1777
29902W        W44749  14.538  12.982   2.886 -0.0931 -0.0752  0.0264
29903W        W44750  16.140  16.026  13.698  0.3221  0.2397  0.0470
29904W        W44751   1.334  13.031  15.788 -0.2675  0.0615 -0.2282
29905W        W44752   0.041   9.997  15.110  0.1026 -0.1560  0.2987
29906W        W44753   2.920   0.317  14.034 -0.0432 -0.1229 -0.1134
29907W        W44754  13.878  17.216   4.657 -0.0699  0.1765  0.1465
29908W        W44755  12.684   8.552   0.914  0.1825  0.0583 -0.3375
29909W        W44756  14.034  10.169  14.720  0.1575 -0.2966 -0.0841
29910W        W44757   8.463   5.977  12.621 -0.1318  0.2085 -0.2106
29911W        W44758  13.725   5.917  16.370  0.2602  0.0318  0.0008
29912W        W44759   0.944  17.370   5.423  0.0240  0.1677  0.3227
29913W        W44760  12.224   0.732  15.008  0.2740 -0.0701  0.1623
29914W        W44761   7.811   0.489  14.541  0.2942 -0.0812 -0.2161
29915W        W44762  17.443  17.660  11.517 -0.0030 -0.3608 -0.1697
29916W        W44763   0.803  17.866   2.832 -0.2207 -0.1824  0.1116
29917W        W44764  12.064   7.947  16.829  0.3115  0.3499 -0.2782
29918W        W44765   0.259   7.249   3.764  0.0289  0.0761 -0.1541
29919W        W44766  12.542  15.153  14.476 -0.0816  0.0396 -0.0428
29920W        W44767   4.133   3.898   4.135  0.2968 -0.1222 -0.0165
29921W        W44768  11.299  16.435  13.094 -0.1962 -0.0698  0.0715
29922W        W44769  11.167  10.956  14.547 -0.0355 -0.1566 -0.2879
29923W        W44770   9.541   2.147   3.878  0.1912  0.1773  0.4125
29924W        W44771  14.040  15.529  11.305 -0.0451 -0.2964 -0.1325
29925W        W44772  11.963   6.874  16.823 -0.2059  0.0136  0.0507
29926W        W44773  16.500   5.771  13.261  0.3068 -0.0590 -0.4752
29927W        W44774  11.330  11.555  12.444 -0.0834  0.0633 -0.0970
29928W        W44775  13.174   2.011   3.367 -0.0852  0.0145  0.1988
29929W        W44776   3.945  13.401   3.775  0.2188  0.1753  0.0284
29930W        W44777  13.341  17.363  10.307  0.0781  0.2799 -0.0486
29931W        W44778  13.187   3.351   0.045  0.0367 -0.1553  0.0189
29932W        W44779  10.612   9.909   5.025 -0.1407 -0.0876 -0.2065
29933W        W44780  11.596   2.950   0.036  0.0418  0.0151 -0.0588
29934W        W44781  16.935   5.690   4.507  0.1499 -0.2354  0.1812
29935W        W44782   9.212  16.463  13.795 -0.1762 -0.1104  0.1337
29936W        W44783  17.011   1.690   5.893 -0.2599 -0.6807 -0.0010
29937W        W44784   8.190  11.796   5.487  0.1437  0.2388 -0.0683
29938W        W44785   5.333  12.117   0.896  0.0817 -0.0771 -0.3087
29939W        W44786  16.127   6.613  14.014 -0.1381  0.1212  0.2013
29940W        W44787  11.280   6.169  12.039  0.1945  0.0791 -0.1650
29941W        W44788  17.078   0.036  11.726  0.1871  0.1459  0.3384
29942W        W44789   7.953  12.373  13.208 -0.0561 -0.0210  0.0847
29943W        W44790   5.989   7.416   3.681  0.2211  0.2880  0.1589
29944W        W44791  13.047   9.989  11.628  0.0618  0.3578 -0.2247
29945W        W44792  10.848   4.216  13.497 -0.2251  0.1610  0.0446
29946W        W44793  11.237  17.719  15.059 -0.2058 -0.0921  0.2807
29947W        W44794  15.182  10.128   5.406 -0.1409 -0.1441 -0.0903
29948W        W44795   9.611   8.863  12.886  0.1873  0.0315 -0.1929
29949W        W44796  14.666   5.113   0.230  0.0146  0.1265 -0.1674
29950W        W44797  13.959   5.800   6.898  0.0339  0.2264 -0.0799
29951W        W44798   9.580   8.732   4.832 -0.2161  0.4504 -0.0323
29952W        W44799  17.026  13.949   5.400 -0.1551  0.3095  0.1745
29953W        W44800   9.190  10.194  16.686  0.1573 -0.3435 -0.1020
29954W        W44801  13.049   7.761  14.107 -0.0045  0.2312 -0.1761
29955W        W44802  13.962   8.640   0.977  0.0158 -0.2090  0.0413
29956W        W44803   5.653  13.263  14.493 -0.0048  0.0230 -0.1928
29957W        W44804  17.250  14.703   4.854  0.3834 -0.0624  0.0261
29958W        W44805   0.713  12.354  15.990 -0.1432  0.0283 -0.2663
29959W        W44806   8.500  12.238  12.555  0.2345  0.1491  0.0894
29960W        W44807  17.312  12.338  11.272 -0.0430  0.1169  0.1184
29961W        W44808   0.018   4.385  15.346 -0.1579  0.3586  0.1138
29962W        W44809  11.221  14.456  10.427  0.1844 -0.1097  0.0233
29963W        W44810  11.241  13.593   4.549 -0.2272 -0.1005  0.1741
29964W        W44811   3.066  10.378   5.007  0.0409  0.1695 -0.2410
29965W        W44812   7.167  12.511   2.569  0.0963 -0.0946 -0.1066
29966W        W44813  11.822   1.100  15.132  0.0111 -0.1160 -0.0903
29967W        W44814  10.336   7.928  16.299  0.0114 -0.0138 -0.1625
29968W        W44815  10.806  12.635  13.656 -0.0817  0.3157 -0.0891
29969W        W44816   1.649   9.245  15.098  0.0855  0.2782  0.0796
29970W        W44817  14.216  10.697  16.501  0.0240  0.0484 -0.2362
29971W        W44818  14.627   3.869   2.014  0.2581  0.2985 -0.0582
29972W        W44819   7.054  11.132   0.154  0.0040  0.1760  0.2632
29973W        W44820  10.342   2.531   0.745 -0.2880 -0.1702 -0.1941
29974W        W44821  11.569  13.370   0.967 -0.1101  0.4856  0.0228
29975W        W44822  13.638  13.697  14.796 -0.1800  0.1094  0.0008
29976W        W44823  10.004  15.993   4.227 -0.0617 -0.1784 -0.2303
29977W        W44824  10.531  12.168  16.044  0.1656  0.2122  0.1051
29978W        W44825  16.514   4.244  15.661  0.0923  0.0328 -0.0093
29979W        W44826  13.707   5.173   5.461 -0.2273  0.0253 -0.1440
29980W        W44827  12.182   6.184   0.808 -0.0972 -0.0159 -0.2555
29981W        W44828  15.227   8.549   5.015  0.1756 -0.0605 -0.1112
29982W        W44829  11.063   2.242   0.613 -0.3220  0.0688 -0.1741
29983W        W44830  11.652   4.767  13.861  0.0992  0.2264  0.0636
29984W        W44831  11.108  12.419   1.446 -0.0369 -0.3030  0.4679
29985W        W44832  11.887  12.253   1.430 -0.1461 -0.0464 -0.0174
29986W        W44833  11.019   1.790  16.130  0.0480  0.2416 -0.0152
29987W        W44834  14.719  10.448  15.316 -0.0809  0.2632 -0.0499
29988W        W44835  15.537  17.554   5.892 -0.1715 -0.2405 -0.2411
29989W        W44836   9.705  13.337  16.290  0.0007 -0.0734  0.1304
29990W        W44837   0.088  12.160  17.106  0.0025  0.0721  0.0406
29991W        W44838  12.748   7.314   5.385 -0.2580  0.0849  0.3048
29992W        W44839  10.997   7.272  16.716  0.0793  0.1509 -0.0769
29993W        W44840  10.422   1.879   4.963 -0.2014 -0.2350  0.2081
29994W        W44841  10.922  14.698   7.042  0.0020  0.0097  0.1776
29995W        W44842   4.755   2.497  15.929  0.3806  0.0669  0.1036
29996W        W44843   8.928  17.066   0.135  0.0136  0.0294  0.1999
29997W        W44844  17.335   7.823   1.662 -0.1399  0.0485 -0.2403
29998W        W44845  14.857   1.622   3.578  0.1497 -0.1118 -0.0940
29999W        W44846  17.622   3.796  13.244  0.1055 -0.1025 -0.0092
30000W        W44847   2.577   6.288   1.339  0.1862 -0.0925 -0.0143
30001W        W44848   8.472   8.466  14.576 -0.1834 -0.1593  0.4427
30002W        W44849  10.847  15.322  13.433 -0.6866  0.0409 -0.2736
30003W        W44850  12.096  17.696   4.023  0.1211  0.0081  0.0081
30004W        W44851  13.398   2.608   6.324  0.1232  0.3177 -0.0352
30005W        W44852  10.407  14.396  12.561  0.1503 -0.1835  0.0062
30006W        W44853  16.581   5.306   3.637  0.0566  0.0533  0.3164
30007W        W44854  13.511   4.729  11.965 -0.1663 -0.0263  0.2946
30008W        W44855   6.691   4.366   3.477 -0.3198  0.0981 -0.0880
30009W        W44856   2.544   0.129   1.321  0.0440  0.4054  0.0817
30010W        W44857   2.007   1.156  11.886 -0.4699  0.3329  0.0866
30011W        W44858  11.870  16.237  14.052  0.1988 -0.0490 -0.0940
30012W        W44859  13.694  10.815  12.541  0.0898 -0.1534 -0.0055
30013W        W44860  14.033   6.752  13.806 -0.0710 -0.0266 -0.3485
30014W        W44861  16.680  15.506  14.167 -0.2093  0.0787  0.1723
30015W        W44862  14.865  10.091   0.466 -0.3243 -0.3256 -0.1473
30016W        W44863  13.635  11.569   1.840 -0.0258 -0.0923  0.0639
30017W        W44864  14.682  11.117  14.530 -0.5181 -0.0219 -0.0272
30018W        W44865  16.004   0.200   0.914  0.1464  0.3068  0.1495
30019W        W44866  15.721  14.172  15.434  0.1237  0.0789  0.2663
30020W        W44867   9.728   6.881   1.579  0.0126  0.3771  0.1132
30021W        W44868  13.971  17.559   2.726 -0.0786  0.2235  0.0827
30022W        W44869  16.951   2.432   6.381 -0.2839  0.0722  0.2160
30023W        W44870  14.552  12.602   4.913 -0.0802 -0.2867 -0.1806
30024W        W44871  14.895  12.201  10.578  0.0247  0.1543 -0.0464
30025W        W44872  14.036   8.154  11.147  0.2670 -0.2393 -0.0012
30026W        W44873  16.227  16.134   4.112  0.0559  0.0508  0.1817
30027W        W44874  12.720   2.573   5.539  0.2029  0.0196  0.0018
30028W        W44875  13.516  11.646  13.012  0.0665  0.4015  0.0278
30029W        W44876  16.943   4.999   5.853  0.1434 -0.1215 -0.1428
30030W        W44877  13.054  17.584  10.724 -0.0862  0.2273 -0.0776
30031W        W44878  12.721   8.483  14.694 -0.0377  0.2990 -0.2646
30032W        W44879  11.966  10.233  12.058 -0.0489  0.1904 -0.2022
30033W        W44880  14.692   5.763   4.162 -0.0825 -0.1195 -0.1402
30034W        W44881  17.250   0.065  13.986 -0.2706 -0.1424  0.0577
30035W        W44882  13.576  17.599  10.678 -0.0742  0.1318 -0.1042
30036W        W44883   5.734  15.223   1.300  0.3569  0.0022  0.1716
30037W        W44884  10.994  15.812  11.460  0.2049 -0.1161  0.0193
30038W        W44885  11.440  14.784  15.710 -0.1253 -0.0532 -0.0438
30039W        W44886   1.320   4.610   5.143 -0.1154  0.0485  0.4065
30040W        W44887  17.651  17.441   4.709  0.0786  0.4075  0.1950
30041W        W44888  11.990   5.244  13.289  0.0578 -0.1274  0.2317
30042W        W44889   9.891   5.020  15.631  0.1104 -0.0010 -0.1813
30043W        W44890  11.363  11.426   2.837 -0.0340  0.1929  0.0784
30044W        W44891  16.141  13.643  15.423  0.0102  0.3083 -0.0873
30045W        W44892   8.221  10.620  15.130 -0.0318 -0.5993 -0.0864
30046W        W44893  13.457   7.602   4.894 -0.4662 -0.1314  0.3933
30047W        W44894   6.494   0.922   4.014  0.0148 -0.1350 -0.0909
30048W        W44895  10.702   8.641  13.978  0.0587 -0.2301  0.0107
30049W        W44896  11.286   7.350   5.109  0.1137  0.0147 -0.1909
30050W        W44897   1.924  11.082  14.426 -0.4419  0.2128  0.0878
30051W        W44898  11.595  16.754  13.431  0.4467  0.0337  0.2789
30052W        W44899   1.402   3.894  15.421  0.1048 -0.2241 -0.1561
30053W        W44900  13.767  15.348   3.838  0.0779 -0.1527  0.0351
30054W        W44901  17.776  11.012  13.871  0.0603  0.2302  0.2140
30055W        W44902  15.722   0.519  12.024 -0.1800  0.0981  0.3710
30056W        W44903  16.919   7.809   4.265 -0.0964 -0.2876 -0.1390
30057W        W44904  15.549   9.209  10.787 -0.0463 -0.3527 -0.2547
30058W        W44905   0.311   8.773   3.889 -0.2273  0.1969 -0.0232
30059W        W44906  12.806   0.876  14.371 -0.4219  0.0815 -0.1711
30060W        W44907   9.076  13.249   0.281  0.2139 -0.0109 -0.0311
30061W        W44908   0.002   5.677   4.277  0.2076  0.0489 -0.2948
30062W        W44909   8.614  17.788   4.717  0.4485 -0.0400 -0.0979
30063W        W44910   3.464  11.014  16.691 -0.3679 -0.0082  0.1044
30064W        W44911  13.450   8.527   0.880 -0.0823 -0.2035 -0.5290
30065W        W44912   5.153   2.376   3.380 -0.1668 -0.1958  0.1687
30066W        W44913  16.156   1.324   3.608  0.0849 -0.2028  0.2840
30067W        W44914   8.737  11.615  16.510 -0.0113 -0.0076  0.0081
30068W        W44915   9.730   5.981   2.474 -0.1143  0.1765  0.1661
30069W        W44916  17.336  16.447   5.408  0.1645 -0.4818  0.2460
30070W        W44917  10.492   1.937  11.879 -0.0666  0.0848  0.0930
30071W        W44918   2.990   8.871   1.022 -0.0254 -0.0225  0.2053
30072W        W44919  11.119  14.910  11.651 -0.2045  0.2588 -0.0342
30073W        W44920   1.497   6.489  10.438 -0.0586  0.2001  0.0673
30074W        W44921  11.404   6.052   0.313 -0.1809  0.2339 -0.0950
30075W        W44922  15.091  13.173  12.138 -0.0939  0.2381 -0.2566
30076W        W44923   8.321  11.690  15.647 -0.0448 -0.4084 -0.1267
30077W        W44924  16.094   2.727  10.809  0.0534 -0.1151 -0.1657
30078W        W44925  16.294   6.550  16.592  0.0047  0.1312 -0.2491
30079W        W44926   0.332  16.819  14.203 -0.0128 -0.3490 -0.3269
30080W        W44927  16.936   2.687  13.634  0.0429  0.2662  0.0550
30081W        W44928   9.287   2.592   6.215  0.0288 -0.1420 -0.3272
30082W        W44929  14.791   0.806   0.395  0.0190  0.1816  0.0481
30083W        W44930  13.124  17.839   6.030  0.0036  0.0059  0.4861
30084W        W44931  15.450  13.904   3.487 -0.0170  0.1809  0.1696
30085W        W44932  15.207   7.182  10.204 -0.0516  0.1483 -0.3826
30086W        W44933   7.495   6.091   0.465  0.2613 -0.1244 -0.0847
30087W        W44934   8.948  14.066   0.630  0.0799 -0.0319  0.1266
30088W        W44935   1.797  15.755   5.011 -0.2614  0.0976 -0.1884
30089W        W44936   6.826  10.655  12.480 -0.0875  0.1078 -0.0971
30090W        W44937   9.616  11.450  11.799  0.0147  0.3662 -0.0772
30091W        W44938  15.614   7.804   1.599 -0.1002 -0.0251  0.0828
30092W        W44939  14.795  14.589   0.940  0.1474  0.0237  0.0859
30093W        W44940  17.427   5.586   4.355  0.0225 -0.0435  0.0337
30094W        W44941   0.147   0.977   2.244 -0.0437 -0.0891  0.1775
30095W        W44942  12.864  13.009  15.505 -0.1571 -0.1595 -0.0429
30096W        W44943  14.528   7.037  11.162 -0.1617  0.0087 -0.1698
30097W        W44944  14.169   8.928  12.751  0.0832  0.4568 -0.0527
30098W        W44945  12.495   6.024   1.763  0.1123  0.1348  0.2420
30099W        W44946   0.661   3.930  16.506  0.4675  0.0851 -0.0333
30100W        W44947  11.381   3.838  12.817  0.2395 -0.0188 -0.1653
30101W        W44948  12.414   5.683  15.088 -0.2457  0.0310  0.0549
30102W        W44949   0.339   9.217  15.450  0.0910  0.0109  0.1936
30103W        W44950  16.307  14.953   4.784  0.1177  0.0899 -0.1732
30104W        W44951  14.805   6.444   1.788 -0.0735  0.0211 -0.0112
30105W        W44952   8.536   4.220   3.716  0.1588 -0.2565  0.1375
30106W        W44953  16.304   1.190   4.666 -0.1293  0.1154  0.1055
30107W        W44954  10.285  15.577   2.006  0.0044  0.0067 -0.1511
30108W        W44955  12.621   3.449   5.345  0.2607 -0.1546 -0.0651
30109W        W44956  10.222   7.773   7.119 -0.1577 -0.3433 -0.0132
30110W        W44957   8.355  16.434  16.314 -0.0073  0.0984  0.4678
30111W        W44958  11.376  13.976  16.709  0.0602  0.0509  0.2241
30112W        W44959   3.240  10.658   6.134  0.1615  0.1262  0.2358
30113W        W44960   2.382   2.549   4.298  0.0215  0.4497  0.1721
30114W        W44961  14.121   0.968  11.692 -0.0553  0.1275 -0.0445
30115W        W44962   0.770   7.656  15.856  0.0206  0.1642  0.4901
30116W        W44963  13.372  14.516   0.328 -0.0224 -0.2858 -0.2015
30117W        W44964  14.414  14.346   1.218  0.1603  0.0663  0.2028
30118W        W44965   5.673   8.835  12.606 -0.1378 -0.2996  0.2316
30119W        W44966  13.831  15.290   6.013  0.0582 -0.2608  0.2255
30120W        W44967  16.456   1.888   2.417  0.0791  0.1500 -0.0939
30121W        W44968   2.452   2.610  13.815  0.6217 -0.2844 -0.0602
30122W        W44969   8.710  14.837   1.221  0.0657 -0.0309 -0.2163
30123W        W44970  15.301   3.712   3.914  0.0874 -0.1825 -0.1386
30124W        W44971  11.024   5.339  16.839  0.1628  0.1630  0.0006
30125W        W44972   4.197   2.495   2.339  0.1340  0.1283 -0.1309
30126W        W44973  15.283  12.498  15.609 -0.1949  0.2057 -0.1432
30127W        W44974   9.558  11.128   1.076 -0.1995  0.1436 -0.1229
30128W        W44975  14.247   4.017   4.575 -0.1276 -0.0127 -0.1214
30129W        W44976   2.086  13.301   3.576 -0.1732 -0.0986  0.0228
30130W        W44977   5.197  11.475  14.711  0.1396  0.0144  0.0395
30131W        W44978  10.037  14.454   5.297  0.2506  0.0717 -0.1464
30132W        W44979   9.670   3.136   3.529  0.2051 -0.2160 -0.1514
30133W        W44980   0.424  13.358   3.205  0.0881  0.0971  0.0251
30134W        W44981   8.469   8.469  13.624 -0.4030 -0.2593  0.1676
30135W        W44982  17.890   2.520   2.163 -0.0077 -0.2891  0.2074
30136W        W44983  17.153  11.576  12.751 -0.0776 -0.0556  0.0110
30137W        W44984   1.752   2.516   2.195  0.3915 -0.1155  0.0598
30138W        W44985  12.565   8.198   0.554 -0.1304 -0.1450  0.0563
30139W        W44986   0.706  17.729   0.601  0.2199  0.0136 -0.2139
30140W        W44987   2.142   7.972   1.368 -0.0815  0.3781  0.1070
30141W        W44988  17.116   8.900   3.190  0.0007  0.1307 -0.1601
30142W        W44989   5.356  16.400  17.038 -0.1729 -0.1026 -0.0407
30143W        W44990  15.704   9.390  11.260  0.0395  0.0131  0.0302
30144W        W44991  16.330   1.444   2.123  0.1676  0.0515  0.0663
30145W        W44992   2.362   3.136  16.944 -0.3261 -0.0618 -0.3196
30146W        W44993  11.202   2.569   0.216  0.4946 -0.2968  0.0892
30147W        W44994  14.631  10.947  13.980  0.0621  0.1521 -0.0354
30148W        W44995  11.427   3.289  16.056  0.0273  0.0234 -0.1200
30149W        W44996  15.056   8.694  13.394  0.0204  0.1883  0.2967
30150W        W44997  16.163   3.017   5.166 -0.1101 -0.0881 -0.1142
30151W        W44998   9.333   1.531  13.144  0.3010  0.1908  0.1269
30152W        W44999  11.459   6.278   5.657  0.0100 -0.2804 -0.1018
30153W        W45000  11.586  12.899   5.154  0.0633  0.1545  0.2334
30154W        W45001  16.277  15.447  14.505  0.1578  0.2134 -0.0834
30155W        W45002  12.638   1.209  11.691 -0.0275 -0.0093  0.0346
30156W        W45003  14.682  11.048  10.826  0.3815 -0.2384  0.0579
30157W        W45004   3.181  14.015  13.562 -0.1104  0.3210  0.0629
30158W        W45005  16.132   4.633  15.742 -0.3203  0.0297  0.2236
30159W        W45006  11.954  14.527   2.487 -0.0118  0.2144 -0.1024
30160W        W45007   0.733   8.010  16.771 -0.0567  0.1133  0.0316
30161W        W45008   0.320  13.482   5.541 -0.2418 -0.2301  0.0009
30162W        W45009  14.604  14.549  16.621 -0.1993  0.0272 -0.3072
30163W        W45010   2.864   9.961   4.337  0.2346 -0.0009 -0.2312
30164W        W45011  16.355   9.742  11.908  0.0781  0.1869 -0.1795
30165W        W45012  16.516   9.726  13.138  0.1721 -0.1454  0.3581
30166W        W45013   0.034   2.614   1.713 -0.0924  0.4025 -0.0261
30167W        W45014  10.567  13.883  12.675  0.2588 -0.1036 -0.1060
30168W        W45015  15.868  16.789  14.983 -0.0089 -0.0856 -0.1746
30169W        W45016  14.120   8.756  11.785  0.2201  0.1331  0.1608
30170W        W45017   4.270   0.449  12.861 -0.0635  0.0578 -0.2510
30171W        W45018  14.516   8.591   1.197  0.1348 -0.1101  0.1833
30172W        W45019  12.655   6.052  10.561 -0.2125 -0.0642 -0.3641
30173W        W45020   6.745  12.504   2.838  0.3617  0.0608  0.2160
30174W        W45021   9.801   7.242  15.945  0.0034 -0.1985  0.0377
30175W        W45022  15.980   6.299  11.476 -0.2181 -0.2988  0.2854
30176W        W45023  12.055   5.785   4.105 -0.0743 -0.0015 -0.1845
30177W        W45024  12.706   0.766  14.881 -0.3077  0.1762  0.2458
30178W        W45025  13.009   7.251   2.573 -0.2094  0.1003  0.2611
30179W        W45026   0.773  14.020  16.246  0.2258  0.3127  0.0208
30180W        W45027  14.880  11.905   3.656 -0.0712 -0.2680 -0.0272
30181W        W45028  15.971  15.568  16.809 -0.3891 -0.0526 -0.0135
30182W        W45029  14.165   6.694  16.294  0.0907  0.1849  0.2286
30183W        W45030  14.655   1.894  10.912 -0.1211  0.3090 -0.0637
30184W        W45031  10.890   7.130   2.580 -0.1290 -0.2453 -0.0592
30185W        W45032  13.889  16.559   1.781 -0.3032  0.2339  0.1518
30186W        W45033  12.960   6.689  14.938  0.1742  0.2029 -0.1085
30187W        W45034  17.268  10.474  12.228  0.1326 -0.0793 -0.3068
30188W        W45035   6.503   6.335   2.199  0.1197  0.0927 -0.1105
30189W        W45036   0.764   8.819   4.685 -0.2180  0.3298  0.1996
30190W        W45037   0.145   7.510   0.585  0.1037  0.3020 -0.0369
30191W        W45038   2.575  10.009  11.748  0.0999  0.0483 -0.1086
30192W        W45039   8.073   0.356   2.594  0.2110 -0.2944  0.2134
30193W        W45040   3.391  11.914   6.813 -0.0155  0.3483  0.0419
30194W        W45041   2.188   7.804  14.678 -0.1918 -0.0251  0.0402
30195W        W45042  15.585  14.835  10.524 -0.0307  0.1348 -0.2082
30196W        W45043   6.210   0.110  14.898 -0.1982  0.2532  0.1346
30197W        W45044  16.669   3.656   3.214 -0.0032 -0.0475 -0.0379
30198W        W45045  11.520   7.473  13.064 -0.4271  0.0987  0.1284
30199W        W45046  14.281   5.721  14.752 -0.0517  0.0575  0.2376
30200W        W45047  17.131  15.794   0.036 -0.3135  0.0073 -0.0660
30201W        W45048  13.872  17.767  13.049 -0.0707  0.2303 -0.0502
30202W        W45049   1.142   3.465   0.435 -0.1960 -0.1721 -0.2376
30203W        W45050  15.157  13.753  11.742  0.1437 -0.0560 -0.2577
30204W        W45051   4.127   8.037   5.634 -0.1875 -0.1541 -0.1958
30205W        W45052  11.799   9.760  13.167  0.0462  0.4113  0.0104
30206W        W45053  10.615   9.020   2.187  0.4595 -0.2252 -0.0985
30207W        W45054  16.089   0.994  11.163  0.1166 -0.0713  0.1939
30208W        W45055  16.901   4.961   3.981 -0.0452  0.2172 -0.2064
30209W        W45056  14.562   4.019   3.801  0.2364  0.0307 -0.1153
30210W        W45057  13.559  10.665   3.646  0.1532  0.2813 -0.0170
30211W        W45058   1.353  13.500   4.692  0.4081  0.2598  0.1909
30212W        W45059   9.527   0.009  15.060 -0.2015  0.1050 -0.1076
30213W        W45060  15.267  15.263   1.811 -0.2373  0.3339 -0.0078
30214W        W45061   9.725  16.065   2.015 -0.1177  0.0958  0.0246
30215W        W45062   6.132   4.955   4.914  0.1532  0.1931  0.1272
30216W        W45063   9.211   0.089   3.618  0.2262  0.1845 -0.0203
30217W        W45064  17.538   4.778  13.584 -0.1412 -0.1265  0.0098
30218W        W45065  11.270  10.739   5.083 -0.1505 -0.0131  0.3483
30219W        W45066  16.046  14.853   0.974 -0.3321 -0.0199  0.0042
30220W        W45067  11.109   4.081  16.541  0.3549  0.1992  0.0447
30221W        W45068  13.463   1.700   5.870  0.4300  0.1677  0.1640
30222W        W45069   9.961   8.412   1.476  0.1621 -0.0540  0.2081
30223W        W45070  12.932  15.095   1.697  0.3623  0.0430 -0.3188
30224W        W45071  17.543  14.862   0.241  0.2230 -0.1301 -0.0339
30225W        W45072  13.419   9.047   1.794  0.3908  0.3552  0.0663
30226W        W45073  13.898   3.441   5.093 -0.3212 -0.2402  0.1464
30227W        W45074  13.166  10.479   5.328 -0.3217 -0.0661  0.0733
30228W        W45075   3.903   7.535  12.930 -0.1040  0.2763  0.3028
30229W        W45076  16.486   3.172  14.158 -0.1079  0.1573  0.0847
30230W        W45077   1.250   5.845  13.815  0.1260  0.0971 -0.0968
30231W        W45078  14.894   0.057   4.628  0.1193  0.0845 -0.1137
30232W        W45079   1.066  15.363   3.973  0.2628 -0.0402 -0.0342
30233W        W45080   9.761  14.823   3.205 -0.1862  0.1030 -0.0848
30234W        W45081   6.457  14.377   4.491  0.1094  0.0201 -0.0062
30235W        W45082  16.291  13.205   4.616  0.1146 -0.1977  0.0905
30236W        W45083  13.180  17.867   1.724  0.0372  0.2455  0.0745
30237W        W45084  13.966  16.273  13.486 -0.1934 -0.0852  0.0502
30238W        W45085   0.611  10.997   0.460 -0.0100 -0.0685  0.2476
30239W        W45086  13.804   8.168   1.997  0.0944  0.1566 -0.0331
30240W        W45087  13.247   1.629   2.586 -0.0593  0.1556  0.2545
30241W        W45088  17.535   2.876  15.224 -0.1241  0.1240  0.2330
30242W        W45089  14.833  14.167  12.687 -0.2299 -0.0016 -0.1711
30243W        W45090  12.442   4.306   4.042  0.1203  0.2047 -0.0697
30244W        W45091  11.753  10.967  14.506  0.2971 -0.2047  0.1183
30245W        W45092   8.882   1.694  11.854 -0.1987 -0.3176 -0.0380
30246W        W45093  12.139   5.729  12.428 -0.0939 -0.1964  0.1189
30247W        W45094  17.696  16.127   4.208 -0.3517  0.0150  0.3014
30248W        W45095  11.844   6.584  12.587  0.1300 -0.0426  0.2808
30249W        W45096  15.245  11.116  16.132  0.3036  0.2132 -0.3178
30250W        W45097   2.093  13.953   5.061 -0.0975  0.0123 -0.1468
30251W        W45098  14.247   5.724   5.115 -0.0275 -0.0625  0.0519
30252W        W45099  17.428   6.462   4.579 -0.0902  0.1149 -0.2076
30253W        W45100  11.323  14.437   4.169 -0.0102 -0.3226  0.1807
30254W        W45101   8.959  12.515   2.778 -0.2862  0.0988  0.4415
30255W        W45102  15.314   2.709   3.005  0.0035 -0.3214 -0.1374
30256W        W45103   9.633   7.335   5.373  0.1253  0.3072  0.0795
30257W        W45104  11.354   4.746  11.873 -0.0556  0.3623  0.0357
30258W        W45105   5.033  11.118  14.353  0.0983  0.1917 -0.0840
30259W        W45106  11.699   4.733  10.880  0.0990 -0.0402  0.0925
30260W        W45107  14.848  13.500   1.229 -0.0939 -0.1059 -0.0863
30261W        W45108  15.574   0.036  16.795 -0.1207 -0.0207 -0.1212
30262W        W45109  13.139   9.915  14.347 -0.0522 -0.0502  0.1766
30263W        W45110  10.739   7.701  14.050  0.0890 -0.0517  0.0228
30264W        W45111  13.660  14.448  15.678  0.2236  0.3300 -0.1622
30265W        W45112   1.719  13.037  11.622  0.2003  0.0862  0.1005
30266W        W45113   3.476  14.523  12.125 -0.0635  0.0121  0.0788
30267W        W45114  10.166  14.172  16.287  0.2456 -0.1123 -0.0804
30268W        W45115   9.061  17.843   5.005  0.1726 -0.1658 -0.2632
30269W        W45116   7.322   1.289   5.567  0.0451 -0.0262  0.2891
30270W        W45117   2.132  13.924  16.958  0.0689  0.0285 -0.2313
30271W        W45118  13.496  14.191   0.949 -0.0358 -0.3503 -0.1055
30272W        W45119  11.410  16.648   3.581  0.1964 -0.0485 -0.3056
30273W        W45120  15.687   5.609  12.069  0.0252 -0.1118  0.0159
30274W        W45121   3.634   8.750   1.849  0.1949  0.2309  0.1894
30275W        W45122  17.913   1.312  16.327  0.0671 -0.4751  0.0175
30276W        W45123  13.206  10.740  12.833 -0.0210  0.1035  0.1043
30277W        W45124   8.256  10.965   3.903 -0.2100 -0.1808 -0.0598
30278W        W45125   1.764  10.864  14.890 -0.3113 -0.3048  0.0136
30279W        W45126  17.595   4.246  12.063 -0.2161 -0.2759 -0.0282
30280W        W45127   7.965  14.152   2.755  0.0153  0.0399  0.0757
30281W        W45128  12.057   5.889   5.781 -0.0838 -0.3579 -0.0279
30282W        W45129  12.809  11.481   2.717 -0.0760 -0.0316  0.1332
30283W        W45130   2.685   0.436   3.025 -0.1489  0.4074 -0.2804
30284W        W45131   1.156  12.760  14.055 -0.1697 -0.2598 -0.0674
30285W        W45132  17.673   5.907  11.926  0.4604  0.0713 -0.1561
30286W        W45133   1.667   4.144   5.999 -0.2454 -0.2619 -0.1364
30287W        W45134  12.011  10.320   6.180 -0.1454 -0.0466  0.3220
30288W        W45135   9.885  10.326  12.034  0.0389 -0.2232  0.0322
30289W        W45136   9.047   5.597  12.147  0.2230  0.0971 -0.0165
30290W        W45137   1.567   4.908  12.789 -0.0332 -0.3021  0.4986
30291W        W45138  13.704   8.167   5.770  0.1141 -0.3186 -0.0660
30292W        W45139  16.352   5.405   5.325  0.2194 -0.1602  0.0935
30293W        W45140   1.328   8.212  10.955  0.2197  0.4122 -0.0550
30294W        W45141  14.442  16.524  13.326 -0.0477 -0.0195  0.4281
30295W        W45142   8.514   0.325   5.576  0.0792  0.1876 -0.0190
30296W        W45143  15.546  17.340  15.597 -0.1018  0.0939 -0.0676
30297W        W45144  17.802  16.551  16.779  0.0584 -0.2905  0.1791
30298W        W45145  13.467  17.398   1.056 -0.0756 -0.1428 -0.4015
30299W        W45146  15.216  12.243   9.771 -0.1531 -0.0565  0.1666
30300W        W45147  13.013  14.246  14.655  0.1574  0.0053  0.1479
30301W        W45148   7.485  17.041  13.340  0.0366 -0.2438 -0.1460
30302W        W45149  13.211   2.017   3.893  0.0859  0.0157  0.0256
30303W        W45150  11.207   0.876  16.314 -0.0045 -0.0715 -0.3413
30304W        W45151  14.662   1.961  13.608  0.0351  0.1516 -0.0292
30305W        W45152  14.790  11.305  12.035  0.1232  0.0065 -0.3658
30306W        W45153  16.430   0.436   2.118 -0.0948  0.1599  0.1337
30307W        W45154  11.137   9.981  14.218 -0.4454  0.0668  0.1974
30308W        W45155  14.627   0.764   0.923 -0.0763 -0.0342 -0.2890
30309W        W45156  15.018   5.412  11.577 -0.0775 -0.1708 -0.0901
30310W        W45157  10.530   7.607  15.489 -0.2410  0.2421  0.0666
30311W        W45158  13.544   9.938  11.699  0.0212 -0.1661  0.0538
30312W        W45159   8.680   7.262  16.378 -0.0137 -0.2082 -0.1163
30313W        W45160   5.860   7.244   2.867 -0.0427 -0.3615  0.0246
30314W        W45161  16.871  15.138  11.409 -0.2650 -0.0365 -0.1633
30315W        W45162   8.041   4.205  12.646 -0.2927 -0.4826  0.0577
30316W        W45163  11.867   8.867  13.086  0.1053 -0.1476  0.0825
30317W        W45164   8.161   4.835   0.289  0.2501 -0.3519 -0.2298
30318W        W45165   1.357   2.222   4.679 -0.1563  0.0794 -0.0685
30319W        W45166   9.528   6.382  12.788  0.0390  0.2356  0.0941
30320W        W45167   2.819  13.280   4.641 -0.0508  0.0098  0.2060
30321W        W45168  12.895  15.935   5.855  0.1769 -0.0867  0.4462
30322W        W45169  17.371   5.762  15.206  0.2864 -0.0424 -0.0183
30323W        W45170  11.675  13.551   3.382 -0.4187 -0.1062 -0.2110
30324W        W45171  16.615  11.089  14.805  0.2196 -0.0212 -0.2835
30325W        W45172   0.320  10.008  12.869 -0.4032  0.1231 -0.2411
30326W        W45173  17.617  12.870  13.858 -0.0135 -0.1270  0.1817
30327W        W45174  13.260  15.447  12.898  0.0753 -0.0870 -0.1254
30328W        W45175  12.561   2.274   4.547  0.0520  0.0359  0.2463
30329W        W45176  13.217   2.675   5.864  0.2249  0.0624  0.1396
30330W        W45177   0.688   0.242   3.818 -0.0229  0.0946  0.2936
30331W        W45178  10.979   7.290   5.507  0.0284  0.1366 -0.0219
30332W        W45179   9.552   1.732   4.177  0.0421 -0.0936 -0.1552
30333W        W45180  11.999  14.845   3.769 -0.0561 -0.0937  0.0310
30334W        W45181   5.496  15.454   3.804  0.1494  0.2273  0.0787
30335W        W45182  14.629  15.371  14.086 -0.2444 -0.1712 -0.1515
30336W        W45183  14.359   0.491  16.318  0.2723  0.0250  0.0243
30337W        W45184   6.638  12.205   5.373  0.0749 -0.1121 -0.5772
30338W        W45185  14.584   3.229   3.304 -0.1299  0.1886  0.0280
30339W        W45186   9.213  13.392   1.143 -0.0760  0.0158 -0.3653
30340W        W45187  14.029   9.892  11.698 -0.1324  0.0218 -0.3389
30341W        W45188   0.437  14.919   2.470  0.1029 -0.2428 -0.0349
30342W        W45189  14.651  16.233   2.929  0.0948  0.0470  0.1526
30343W        W45190  13.543   1.784  15.838 -0.0476  0.0252 -0.0714
30344W        W45191   7.206  11.499  13.385  0.1967 -0.0569 -0.2303
30345W        W45192  13.545   0.190   4.354 -0.4242 -0.0830 -0.3584
30346W        W45193  10.351   1.457   2.962 -0.0321 -0.1878  0.1420
30347W        W45194  15.899   4.607  13.058 -0.0566  0.2459  0.0276
30348W        W45195   6.846  15.580  14.844  0.0111 -0.0478  0.0028
30349W        W45196   6.138  11.641   0.453  0.1744 -0.0629 -0.0130
30350W        W45197  14.203   1.811  16.420  0.3505  0.0580 -0.0429
30351W        W45198  16.684   8.454   0.551  0.0408  0.2290  0.0276
30352W        W45199  17.847   0.975   6.289 -0.1818 -0.2185 -0.1294
30353W        W45200  10.459   7.237  14.788  0.0988  0.0375  0.1023
30354W        W45201  15.514   0.842   2.407 -0.2041  0.1527 -0.2567
30355W        W45202  13.589   0.561   0.681 -0.0322 -0.1702  0.3308
30356W        W45203   8.147  11.894   0.044 -0.2721  0.0282 -0.1461
30357W        W45204   1.729   6.747  14.074 -0.1041  0.0575  0.1435
30358W        W45205   0.946   2.226  14.113 -0.0972 -0.2957  0.2998
30359W        W45206   7.726   4.752  14.066 -0.0917  0.1090 -0.2242
30360W        W45207  13.533  17.891   0.374  0.2631  0.2408 -0.0189
30361W        W45208  11.675  14.441   0.180  0.0930  0.1848 -0.1570
30362W        W45209   0.976  17.354  14.592 -0.3130  0.2140  0.0609
30363W        W45210  16.007   0.736   0.309  0.2220  0.0073  0.0039
30364W        W45211  14.321  11.340   0.610 -0.0870 -0.1993  0.1997
30365W        W45212  13.608   5.276  11.139 -0.2485 -0.0524  0.1138
30366W        W45213  12.516   4.504  17.022 -0.0894 -0.3042 -0.1747
30367W        W45214   7.662  17.613  16.491 -0.0136  0.1946  0.0131
30368W        W45215  15.081   8.693   1.988  0.1391 -0.0028 -0.0414
30369W        W45216  15.104   9.062   5.817  0.2055 -0.2017  0.0486
30370W        W45217  13.134   8.709   4.986 -0.0791 -0.2041  0.2353
30371W        W45218   1.508  17.322  15.527 -0.4409  0.0468  0.1830
30372W        W45219  13.368   3.465  13.129  0.1305 -0.1769  0.4440
30373W        W45220  14.148   8.008  12.848  0.2804 -0.0063 -0.1485
30374W        W45221   1.405   7.237   2.835 -0.0959  0.0732  0.1467
30375W        W45222  10.276  11.012   6.463 -0.0955  0.0768  0.0093
30376W        W45223  14.893  17.447   4.833  0.1671  0.0816  0.2002
30377W        W45224  10.899   8.173  16.178 -0.3905 -0.0467 -0.0392
30378W        W45225   8.421   6.282   5.256  0.0331  0.1609  0.5237
30379W        W45226  15.399   0.422  11.005  0.3211 -0.0817 -0.0875
30380W        W45227   2.164   6.840   6.320 -0.1193 -0.0161  0.0926
30381W        W45228  17.023  13.454  13.784 -0.0452  0.1103  0.0186
30382W        W45229   7.025  11.596  12.906 -0.4280 -0.0718 -0.0628
30383W        W45230   7.533  16.848   0.354  0.1359  0.0692 -0.0908
30384W        W45231  12.615  13.375   3.011 -0.0103  0.5080  0.2380
30385W        W45232  12.970   3.148  13.104  0.1131 -0.0633  0.0034
30386W        W45233   0.171   6.039   0.371  0.1948  0.0706  0.3927
30387W        W45234   0.446  15.351  16.048  0.1197 -0.1721 -0.0089
30388W        W45235  13.687   1.788  16.536 -0.2237  0.2434  0.4840
30389W        W45236  12.515   6.192   5.742  0.1182  0.0062  0.0848
30390W        W45237  10.671  14.037   2.571  0.4374  0.2592 -0.0565
30391W        W45238  11.780  10.654   5.909  0.0798 -0.0286  0.1493
30392W        W45239  13.783  15.527   6.502  0.0088 -0.2228  0.0077
30393W        W45240  16.471   6.460   2.318 -0.0593 -0.1278 -0.0418
30394W        W45241  14.642   1.782  12.626 -0.2404 -0.1584 -0.3822
30395W        W45242  12.855  17.138  13.771  0.2839 -0.2790 -0.3062
30396W        W45243  11.200  14.615   0.135 -0.1223 -0.0920 -0.1960
30397W        W45244   1.365   4.942  11.826  0.1293  0.3019  0.0921
30398W        W45245  15.850   0.047  11.810 -0.1656  0.0865 -0.3772
30399W        W45246   0.235   7.538   5.677 -0.1205 -0.0667  0.1063
30400W        W45247  12.707   9.899   1.772  0.1971 -0.0995 -0.1391
30401W        W45248  17.316   0.902   0.253  0.0466 -0.1231  0.2101
30402W        W45249  11.071  11.484   2.082  0.0920 -0.1178 -0.0612
30403W        W45250   4.244   6.566   5.604  0.0099  0.0273  0.0558
30404W        W45251  16.862   0.589  10.873 -0.0823 -0.1447 -0.1293
30405W        W45252   9.518  16.518   5.821  0.0779  0.1622 -0.2361
30406W        W45253  16.071   6.512   4.150  0.2178 -0.2073 -0.1105
30407W        W45254   1.978   1.550   0.965  0.2681  0.0860 -0.1241
30408W        W45255   1.669   5.623  12.766 -0.2266 -0.0917  0.2687
30409W        W45256  12.828   4.088   1.981  0.3001 -0.1440  0.3457
30410W        W45257  13.209  14.474   4.578  0.2431 -0.0844 -0.0395
30411W        W45258  15.688   6.638  10.949  0.1274  0.0921 -0.0353
30412W        W45259  14.925   8.014  14.323  0.0953  0.4729  0.1705
30413W        W45260   8.799   4.989   5.232 -0.1112 -0.0835  0.1075
30414W        W45261   9.105   8.821  15.616  0.2122  0.0883  0.0984
30415W        W45262   3.344  10.314  13.243  0.0823  0.1828 -0.2747
30416W        W45263  17.596  13.309  16.169  0.1278 -0.1383  0.0431
30417W        W45264  14.761   2.830   4.349  0.1779  0.0815  0.6587
30418W        W45265   8.513  17.390   4.119 -0.3247  0.0607  0.0442
30419W        W45266   1.931   3.343  14.131 -0.2184 -0.2647 -0.0187
30420W        W45267  15.078   1.679  16.558 -0.2340  0.0282  0.1153
30421W        W45268  10.599  11.532   5.293 -0.2927  0.2518  0.1365
30422W        W45269  15.652  17.838   1.207  0.0034  0.0193  0.0803
30423W        W45270  13.102   2.346  16.095 -0.0768 -0.0778 -0.2305
30424W        W45271  10.945  15.023   1.687 -0.0297 -0.4203 -0.0072
30425W        W45272  11.054  16.218  14.823 -0.1203 -0.3855  0.1565
30426W        W45273  12.807   6.198   2.154  0.0412  0.1195  0.2061
30427W        W45274  11.751  17.094  13.753 -0.0055 -0.0690 -0.2791
30428W        W45275  17.520   4.388   2.869 -0.0813  0.0346  0.1460
30429W        W45276   0.047  16.446  10.983 -0.1461  0.0994  0.0590
30430W        W45277  10.828   0.147   0.579 -0.1779  0.0042  0.0945
30431W        W45278   5.257   9.764   1.154  0.1850 -0.1519 -0.1588
30432W        W45279  14.506   1.318   5.879 -0.1196 -0.0375  0.0611
30433W        W45280  12.468   3.981  17.002 -0.0418  0.0009  0.0794
30434W        W45281  13.439  11.797  14.132  0.0006  0.0842  0.2839
30435W        W45282   9.675  12.243   6.484  0.0404 -0.1264  0.0443
30436W        W45283  16.429   4.465   5.125 -0.2324  0.1018  0.0533
30437W        W45284   9.277   7.406  17.080  0.1464  0.1438 -0.0610
30438W        W45285  10.468   5.388   0.681 -0.1633  0.5503  0.2780
30439W        W45286  11.880   1.301  12.628  0.1523 -0.0031  0.0648
30440W        W45287  17.857   9.375  15.716 -0.1685  0.0714 -0.0473
30441W        W45288   3.793   0.167  13.605  0.1698  0.1226  0.0171
30442W        W45289   3.002   6.345  12.996 -0.0891  0.2915  0.0952
30443W        W45290   1.327  13.628  14.073  0.2343 -0.0746  0.0524
30444W        W45291  14.916  13.217  11.101  0.0427  0.0145  0.2125
30445W        W45292  15.955  14.967  10.102 -0.0604 -0.0222 -0.4274
30446W        W45293   3.999   5.673   4.404 -0.1056  0.0526 -0.1277
30447W        W45294  11.542  11.491   1.025  0.0397 -0.2487  0.0459
30448W        W45295  15.796   4.674  11.654 -0.3893  0.1035 -0.1532
30449W        W45296   3.412   4.240  13.818  0.0916 -0.2957  0.2224
30450W        W45297   7.991   5.868   2.573  0.1405 -0.0637 -0.1448
30451W        W45298  15.197  10.022  13.508 -0.3479 -0.1804  0.0445
30452W        W45299  14.016   0.760   3.925 -0.2558 -0.2708 -0.0289
30453W        W45300   4.520   9.033  12.821 -0.0938 -0.0512  0.1926
30454W        W45301  16.642   0.218   3.466 -0.1033  0.3040 -0.1374
30455W        W45302  16.942   9.893   3.257  0.0658  0.1188  0.1241
30456W        W45303  17.582   7.298  13.863  0.0763  0.0997  0.1355
30457W        W45304   8.789   2.501  11.665 -0.0044 -0.1957 -0.0054
30458W        W45305   1.384   5.982  12.489  0.4171 -0.0898  0.4111
30459W        W45306  11.788  13.305   0.088 -0.1675  0.1541 -0.1501
30460W        W45307  13.603   8.324   3.782 -0.1117  0.1236 -0.1023
30461W        W45308  15.689   2.263   6.372 -0.1119  0.0032 -0.0710
30462W        W45309  13.712   0.658   4.421 -0.2512 -0.4861 -0.0342
30463W        W45310   7.784   2.032  15.831 -0.0293 -0.5260 -0.1068
30464W        W45311  13.512   1.174   5.880 -0.5035  0.1588  0.0771
30465W        W45312  17.924   5.383  12.899  0.0461 -0.1248  0.1591
30466W        W45313  16.691  15.246   4.433 -0.1038 -0.0155 -0.3828
30467W        W45314  16.007   0.105   4.484 -0.1914  0.1906 -0.0492
30468W        W45315  13.638   9.058  15.022  0.0348  0.1460  0.0333
30469W        W45316  12.247   3.199   1.794 -0.3743  0.2806  0.1709
30470W        W45317   9.998  16.575  15.595 -0.0414  0.0392  0.1142
30471W        W45318  15.073  12.458  13.362  0.3777 -0.0847 -0.1286
30472W        W45319  11.275   7.681  14.168  0.2456 -0.3674 -0.1857
30473W        W45320  17.231   5.918   4.818 -0.1620  0.1082 -0.4425
30474W        W45321  13.350   7.074  13.324 -0.0244 -0.0882  0.3262
30475W        W45322   8.987   0.769   5.279 -0.2038 -0.3289  0.3408
30476W        W45323  12.675   0.345   5.369  0.2401  0.1128  0.0051
30477W        W45324  14.491  10.075  14.591 -0.2204 -0.0069  0.0631
30478W        W45325  12.901   6.427  16.451 -0.2633 -0.1958 -0.2464
30479W        W45326   7.468   2.795   5.077  0.1234  0.2612  0.2067
30480W        W45327  16.140  10.053  13.205 -0.3616 -0.1594  0.0708
30481W        W45328  10.364  13.892  15.909 -0.0099  0.0505  0.2091
30482W        W45329  14.749  11.434   3.761  0.1456  0.0912  0.1937
30483W        W45330   1.734   6.136  16.107 -0.3092 -0.2991 -0.1707
30484W        W45331  17.845   1.354  13.012 -0.3604  0.0271  0.2840
30485W        W45332  17.818   2.079   3.375 -0.3687 -0.2876  0.0767
30486W        W45333  10.205  15.037   2.320 -0.2091 -0.2135  0.0682
30487W        W45334  15.634  12.430  12.563 -0.1601  0.0228  0.1373
30488W        W45335  12.200   0.869  16.535 -0.2342  0.2055 -0.0612
30489W        W45336   3.241   0.044  13.704 -0.0507 -0.0637 -0.1011
30490W        W45337  15.986   8.507  15.906  0.0461 -0.1383  0.2164
30491W        W45338   2.016   4.792  16.313  0.0257  0.0947 -0.1000
30492W        W45339  13.951   5.050   3.130  0.0565 -0.0671  0.5128
30493W        W45340  11.885   8.856   1.017  0.3595 -0.0975  0.1563
30494W        W45341  11.132  14.975  12.876 -0.0025  0.1006 -0.1007
30495W        W45342   3.353   0.977  14.532 -0.3280 -0.0199  0.2535
30496W        W45343  17.649   0.214   3.975 -0.2516 -0.1086  0.1775
30497W        W45344   0.496   0.026  14.807 -0.1387  0.0361  0.1472
30498W        W45345  12.247   0.845  10.886  0.1076  0.0843  0.1092
30499W        W45346   3.001  11.362   5.474 -0.1396 -0.1530  0.2403
30500W        W45347   2.268   8.248  13.335 -0.2675 -0.1131 -0.0486
30501W        W45348  13.416  14.117   6.385  0.3726 -0.0815  0.0053
30502W        W45349   7.025   4.933   4.440 -0.0721  0.0655  0.0643
30503W        W45350   3.707   8.659  13.981  0.1138 -0.0641  0.1645
30504W        W45351   8.853   9.602   0.169 -0.0320  0.1033 -0.4486
30505W        W45352  13.573  15.938   4.783 -0.2068  0.2281  0.1590
30506W        W45353  15.237  10.439  15.763  0.2629  0.0446  0.2217
30507W        W45354   2.065  17.137   4.664 -0.0720 -0.1819 -0.3585
30508W        W45355  13.180   4.383   0.171 -0.0090  0.0243 -0.3250
30509W        W45356   6.257  16.322  12.208 -0.0785  0.1454  0.2470
30510W        W45357  15.989  11.546  15.773 -0.0268 -0.0397 -0.3105
30511W        W45358   1.481   1.005  10.370 -0.0356  0.2225  0.1743
30512W        W45359  16.839   0.278  11.318 -0.2112 -0.0767  0.0064
30513W        W45360  15.003   0.809   5.114  0.0020  0.0862 -0.1298
30514W        W45361  13.030  13.224  14.051  0.2352  0.3015  0.0449
30515W        W45362  15.380   1.457   2.353  0.0031  0.2258 -0.1374
30516W        W45363  17.974  13.392   5.211  0.1799 -0.0813  0.4535
30517W        W45364   0.543  14.182  11.402  0.2182  0.0210  0.0958
30518W        W45365   1.383  16.708  14.275 -0.1962 -0.0080 -0.2116
30519W        W45366  16.362   5.694   4.399  0.0000  0.1416  0.0074
30520W        W45367   5.263   2.031   1.183  0.0391  0.0782 -0.2560
30521W        W45368   1.477   9.711   2.869  0.0829  0.0787 -0.0482
30522W        W45369  17.570  17.316   3.622  0.0006  0.1858 -0.2288
30523W        W45370   5.191  12.744  15.705 -0.0398  0.1415  0.0179
30524W        W45371  16.190   7.040  16.596 -0.2574 -0.0875 -0.2151
30525W        W45372   0.195  14.421  13.180  0.2147  0.0534  0.1796
30526W        W45373  13.299   2.617  16.932 -0.1071 -0.1896 -0.0122
30527W        W45374  16.931   7.847  17.072 -0.2831 -0.3265  0.1077
30528W        W45375   8.329   8.078  14.869  0.0739 -0.0925  0.1597
30529W        W45376  11.082   8.957   2.699 -0.1784 -0.2116  0.0003
30530W        W45377   6.541   8.129   0.266  0.2073  0.1267 -0.0683
30531W        W45378  16.153  10.943   6.016  0.0294 -0.1335 -0.0019
30532W        W45379   9.074   1.197  13.533 -0.1887  0.0481  0.1514
30533W        W45380  14.370   4.817   1.562  0.2179  0.2912  0.1014
30534W        W45381   0.736   4.874   2.641  0.0090 -0.2777 -0.1783
30535W        W45382  12.827  14.763   0.418 -0.1188  0.2591  0.2839
30536W        W45383   9.159  10.017  12.842  0.2286 -0.0178 -0.0250
30537W        W45384   1.743  15.427  13.617  0.3077 -0.2355  0.0519
30538W        W45385  13.977   8.524  15.451  0.1560 -0.1286 -0.1229
30539W        W45386  14.900   9.929   1.005 -0.1365  0.0185  0.2880
30540W        W45387  14.111  15.148   3.494 -0.1049 -0.0201 -0.1823
30541W        W45388   7.264   2.258  15.852  0.1113 -0.1504 -0.0276
30542W        W45389  12.805  17.251   5.331 -0.0238 -0.0780  0.1790
30543W        W45390  16.039  11.320  14.398 -0.0200 -0.0025  0.3338
30544W        W45391  14.252   0.003   0.169 -0.3235  0.1291  0.1640
30545W        W45392  14.957  13.411  16.124  0.0012 -0.1208 -0.1032
30546W        W45393  15.661  10.308  12.763 -0.2049 -0.0464  0.1872
30547W        W45394  15.300   4.615  14.605 -0.0644 -0.1164 -0.2188
30548W        W45395  12.751   1.808  13.623 -0.0394 -0.1372  0.0556
30549W        W45396   5.539  11.402   3.525 -0.1866  0.2568 -0.0821
30550W        W45397  13.949  15.437   1.848 -0.0122  0.1927 -0.3634
30551W        W45398   7.345   3.444   1.524 -0.0014 -0.0160  0.1767
30552W        W45399   6.232   1.576  12.028 -0.1528  0.2039  0.1010
30553W        W45400   1.761   4.772   1.607  0.1026  0.0019  0.0672
30554W        W45401  14.848  17.542  11.865 -0.1990 -0.0185 -0.2304
30555W        W45402  15.037   9.273   0.290  0.1807  0.0053 -0.0892
30556W        W45403  12.151   1.127  14.698  0.1973  0.2519 -0.4496
30557W        W45404  14.309   4.160   0.330 -0.0338  0.5492  0.0373
30558W        W45405  17.955   2.378  16.328  0.0517 -0.2155 -0.0486
30559W        W45406  14.640   6.417   0.767  0.0807 -0.1943  0.0428
30560W        W45407  12.058   3.478   2.692  0.2629  0.3181 -0.0135
30561W        W45408  13.859   2.427  12.510 -0.0182  0.2607 -0.2424
30562W        W45409  14.472   8.063   4.055  0.3364 -0.0965  0.0162
30563W        W45410   1.361   2.297  14.943  0.0334 -0.0599  0.0219
30564W        W45411  15.271   6.385  14.079  0.3223  0.1213 -0.0543
30565W        W45412   8.322  10.803   5.363  0.1323 -0.0357 -0.0710
30566W        W45413  12.608  11.522   3.371  0.1157  0.2370 -0.3275
30567W        W45414  15.699   9.890  10.061  0.1674 -0.0963  0.0569
30568W        W45415   7.944   8.468  14.393 -0.0584 -0.2473 -0.0905
30569W        W45416   0.870   4.378  13.269  0.3569 -0.1078 -0.1268
30570W        W45417  13.002   1.048  12.572 -0.0949 -0.1575  0.1481
30571W        W45418  16.117  13.392  13.809  0.1312 -0.1716 -0.2052
30572W        W45419   8.207  14.879  12.579  0.1158  0.1279  0.2056
30573W        W45420   7.776   9.956   5.784 -0.1321 -0.0363  0.0808
30574W        W45421   3.268   4.155   3.157 -0.0921 -0.0227 -0.0503
30575W        W45422  11.316   9.564  13.131  0.1893  0.5222  0.1330
30576W        W45423  14.600   3.315   2.002  0.0768 -0.0257  0.1702
30577W        W45424  13.248  14.313  15.991 -0.1708 -0.1267 -0.1196
30578W        W45425  12.408  13.376   3.947 -0.0474  0.1109  0.0576
30579W        W45426  12.978   2.598   4.473  0.0030 -0.1111  0.1477
30580W        W45427   0.451   3.436   3.327  0.1866  0.0701  0.0799
30581W        W45428  11.580  15.797  16.817  0.3126  0.0787 -0.0228
30582W        W45429   8.831   0.689  13.402  0.0401  0.4140 -0.1810
30583W        W45430  17.213  10.038  11.956  0.0632 -0.3887 -0.1168
30584W        W45431   9.428  15.080   5.405  0.0673 -0.1214  0.0947
30585W        W45432  14.663   3.914  14.296 -0.0480 -0.3151  0.1267
30586W        W45433  14.255   5.625  12.312  0.0726  0.0906  0.1645
30587W        W45434  12.501   5.141   2.658  0.0921 -0.0225  0.0863
30588W        W45435  13.651  10.731   6.017 -0.0357 -0.3031 -0.1200
30589W        W45436  11.463   6.413  16.117  0.0927  0.0019  0.2957
30590W        W45437  17.839   1.756  12.716  0.0856  0.0006  0.1872
30591W        W45438  10.575   1.803   4.170  0.0426 -0.0984  0.2997
30592W        W45439  17.514  14.169  14.308  0.0047 -0.5854  0.0999
30593W        W45440  10.548   6.280   2.773 -0.1631  0.0331 -0.0534
30594W        W45441   4.283   7.554  12.572 -0.0919  0.2776 -0.0368
30595W        W45442  14.981  17.329  14.668  0.3010  0.0063 -0.0865
30596W        W45443  13.847  12.126   4.646  0.2927 -0.1245 -0.0606
30597W        W45444  15.575   7.334   6.088 -0.1560  0.1734  0.2602
30598W        W45445  12.177  15.480  10.810 -0.1669  0.1683  0.2871
30599W        W45446   0.273   6.154  11.455 -0.0293 -0.0061 -0.2814
30600W        W45447   1.665  13.989  13.554 -0.0969  0.0793 -0.0633
30601W        W45448  16.358   3.618  10.715  0.3098  0.2774  0.1841
30602W        W45449   1.873   1.751   4.605  0.1131 -0.2504  0.2850
30603W        W45450  10.755  17.382  15.637 -0.0376 -0.2620 -0.0003
30604W        W45451  14.788  15.569   2.743 -0.1232 -0.0560  0.2859
30605W        W45452  17.737  16.809   5.614  0.1822  0.2747  0.3640
30606W        W45453   3.167   5.386   0.856  0.0040 -0.0704  0.4808
30607W        W45454  11.650  10.988   2.890  0.1994 -0.1237  0.0512
30608W        W45455  14.460  14.547  13.551  0.0252 -0.0110 -0.0841
30609W        W45456  10.771   7.362   1.331  0.1371 -0.1603  0.0082
30610W        W45457  16.760   4.684  16.707  0.1622  0.0225 -0.1355
30611W        W45458   7.831   4.879   2.814  0.2791 -0.2714 -0.0600
30612W        W45459  11.561   2.732   4.238 -0.2198 -0.2554 -0.1596
30613W        W45460  12.917  11.710   3.788  0.0883 -0.0631 -0.1285
30614W        W45461   3.856   8.351   5.952  0.1683  0.1086 -0.0782
30615W        W45462   5.294  11.778   3.090  0.1702  0.0938 -0.0597
30616W        W45463  12.714  14.832  14.070 -0.1841  0.0468  0.2130
30617W        W45464  10.982   3.916  11.956  0.1051 -0.0997  0.1173
30618W        W45465  11.870   6.811  11.922 -0.1294  0.0018 -0.0788
30619W        W45466  13.457   3.739   2.974  0.2002  0.1028  0.0955
30620W        W45467  15.673   3.647  14.286  0.0088 -0.2656  0.1533
30621W        W45468  14.485  13.608  14.834 -0.2973 -0.1611  0.0412
30622W        W45469   7.701   6.811   5.674 -0.2219 -0.2472  0.0838
30623W        W45470  11.359   7.900  14.690  0.0521 -0.0574  0.0290
30624W        W45471  16.515   1.181  16.420 -0.0600  0.2700  0.1113
30625W        W45472   6.072  10.346  13.183  0.0265 -0.1140 -0.1039
30626W        W45473  15.636  15.940  16.756  0.3242  0.2034  0.0992
30627W        W45474  15.495   2.677  11.494 -0.1238 -0.1865 -0.1204
30628W        W45475  12.998  15.924   5.371 -0.2768 -0.0014  0.1026
30629W        W45476  12.956   9.007  14.014 -0.0639  0.1148 -0.0647
30630W        W45477  15.092   4.688  13.379  0.1818  0.5325  0.2407
30631W        W45478   2.516   4.107   2.418 -0.1680 -0.0541 -0.0235
30632W        W45479  10.411  13.055  11.056 -0.1218 -0.0431  0.5132
30633W        W45480   9.715   7.666   2.269  0.1713 -0.1252 -0.1171
30634W        W45481   2.103   2.058  15.554 -0.1352 -0.1261  0.2064
30635W        W45482  10.031  13.503   5.623 -0.1453 -0.2215  0.3044
30636W        W45483   1.663  15.720   3.846 -0.0937 -0.0955 -0.1164
30637W        W45484  15.965  10.476  14.690  0.0702  0.0528  0.0740
30638W        W45485   2.216  14.147  11.755  0.1035  0.0816  0.2099
30639W        W45486  15.956   3.106  12.516  0.2921 -0.1918 -0.1354
30640W        W45487   0.821   5.472   1.218 -0.2731 -0.1156 -0.3165
30641W        W45488   1.571   9.485   0.075  0.1090  0.2030  0.0881
30642W        W45489   5.654  13.687  14.781  0.0314 -0.2885 -0.2964
30643W        W45490  12.226  10.604  12.323 -0.1168  0.0245  0.4120
30644W        W45491  13.920   7.436   2.767  0.3251  0.0514  0.0875
30645W        W45492  10.899  14.799  13.326  0.1151 -0.0660 -0.0140
30646W        W45493   0.416  10.038  16.006  0.1610  0.2384 -0.3046
30647W        W45494   2.218   1.311   0.625  0.2051 -0.0579  0.2633
30648W        W45495   0.056   3.323   0.947  0.1274 -0.0406  0.0702
30649W        W45496   8.155  17.384   1.366 -0.1782  0.0767  0.1443
30650W        W45497  12.149  10.086  13.556 -0.2248 -0.0265 -0.1864
30651W        W45498   2.847   0.679   0.427 -0.0287  0.0892 -0.0152
30652W        W45499   3.149   5.139   2.558 -0.1045  0.0488 -0.1559
30653W        W45500   8.918  13.148  12.845 -0.0310  0.0182  0.0463
30654W        W45501  13.908  14.822   3.831  0.1613 -0.3381  0.1585
30655W        W45502  16.349  12.141   1.641 -0.0622  0.1504 -0.0091
30656W        W45503  13.475  12.369   0.612 -0.1397 -0.4332  0.0145
30657W        W45504  13.577  17.832  12.503 -0.4712  0.0559 -0.0566
30658W        W45505  12.801   0.090  10.529 -0.2079  0.3253 -0.0713
30659W        W45506  17.812  14.016  12.983  0.1207 -0.0567  0.0774
30660W        W45507   7.392   9.770  15.898 -0.1061  0.1524 -0.2912
30661W        W45508   8.922  11.295   4.321  0.1484 -0.0746 -0.1207
30662W        W45509   3.587  17.801  13.899  0.1674  0.3570 -0.0742
30663W        W45510   3.078  11.006  13.949 -0.1027  0.0802 -0.0154
30664W        W45511  17.961   6.450  16.131  0.1258 -0.0448  0.1208
30665W        W45512  14.901   2.321   4.095  0.1424 -0.0815 -0.0646
30666W        W45513  11.623  11.553  15.595  0.1773 -0.0440  0.2720
30667W        W45514  15.767   8.123  13.432  0.0595  0.1530  0.2747
30668W        W45515  12.549  12.363   2.085  0.0330 -0.0177  0.1229
30669W        W45516  14.326  11.123   4.245 -0.0974  0.0217 -0.2354
30670W        W45517   0.413   2.881   0.188  0.2074 -0.2283  0.0769
30671W        W45518  17.675   6.733  14.786 -0.0665 -0.0881  0.2135
30672W        W45519  14.866   2.369  10.751  0.3121 -0.1039 -0.1852
30673W        W45520  14.034   9.289  14.896  0.1198 -0.2287  0.1173
30674W        W45521  17.042  14.168   4.865 -0.0646 -0.0570 -0.3468
30675W        W45522  11.663   7.558  14.469 -0.2554  0.3254  0.1127
30676W        W45523  11.562   6.438  11.733 -0.2072  0.3308  0.1283
30677W        W45524  12.264  14.026   1.590 -0.0818  0.2283 -0.1735
30678W        W45525  13.356  15.163  12.073  0.0105  0.1355 -0.1693
30679W        W45526  11.523   1.466   2.139  0.0310 -0.0913  0.1020
30680W        W45527   9.310   2.295   1.504  0.0939 -0.2444 -0.2677
30681W        W45528  16.492  16.141  12.864 -0.1242  0.0150  0.3074
30682W        W45529   4.635  14.163  14.010 -0.3639 -0.2280 -0.0760
30683W        W45530  13.097   2.938   3.154  0.1883  0.0601  0.2667
30684W        W45531  10.801   9.885  12.004  0.0609 -0.0737 -0.0233
30685W        W45532  16.057  16.421  12.648  0.1672  0.0487 -0.1307
30686W        W45533  14.601  10.909   9.939  0.2099 -0.1466  0.1379
30687W        W45534  14.134  16.083   1.598  0.1371 -0.1609 -0.0072
30688W        W45535   7.848   8.879   3.274 -0.2558 -0.0489  0.0050
30689W        W45536  14.479   8.962   4.740  0.1221  0.0122  0.0266
30690W        W45537  13.877   8.774  12.294 -0.3206  0.1156 -0.0015
30691W        W45538   2.746   4.601   4.892 -0.0408  0.1345  0.2719
30692W        W45539  15.528   6.380  13.535 -0.2240  0.2035 -0.1309
30693W        W45540  14.676   9.469  13.088 -0.4091 -0.0330  0.0210
30694W        W45541   6.831   8.616  15.268  0.4071 -0.3797  0.0360
30695W        W45542   9.143   1.507  14.078  0.1178 -0.0584  0.0686
30696W        W45543  14.532  11.497  11.031  0.0309  0.3930  0.0136
30697W        W45544   3.422  10.393  12.590 -0.0831 -0.1029 -0.1473
30698W        W45545   9.407   2.217   1.983  0.1933  0.0633  0.0072
30699W        W45546   8.133  17.948   5.486 -0.1322  0.0833 -0.1347
30700W        W45547  13.852  16.064  16.203  0.0875  0.2021  0.0308
30701W        W45548  16.660  17.222  11.487 -0.0665  0.2716  0.0081
30702W        W45549  14.441  13.133   3.705  0.0268 -0.0290  0.1103
30703W        W45550   6.785  11.395  15.820  0.2161  0.1181 -0.0183
30704W        W45551  12.878  16.867  13.266  0.0928  0.2710 -0.1519
30705W        W45552   9.255   0.189  14.030  0.1221 -0.3456 -0.0710
30706W        W45553   2.038   8.463  12.724  0.0201  0.1533  0.0103
30707W        W45554  11.178  13.261  16.773  0.2659 -0.0203  0.0238
30708W        W45555  14.674   4.929   3.898 -0.3149 -0.1228 -0.2633
30709W        W45556   9.504   1.155   1.104 -0.2761  0.0371  0.1533
30710W        W45557   6.917   2.797  12.650  0.0111 -0.2283  0.0200
30711W        W45558   8.317  16.141  14.135 -0.1555 -0.0189 -0.0390
30712W        W45559  11.117  14.593   3.077 -0.1780  0.0291 -0.0475
30713W        W45560  13.243   4.033  10.200  0.0103  0.0270  0.1836
30714W        W45561  15.921   9.805  12.385  0.3311 -0.0185 -0.0197
30715W        W45562  12.819  11.502  16.503 -0.2466  0.2900  0.4105
30716W        W45563  15.177   5.049   0.635 -0.0457 -0.1024  0.2388
30717W        W45564  16.172   9.110   2.127 -0.2009  0.1668 -0.0056
30718W        W45565  17.452   6.863  12.100 -0.0080  0.0578  0.3120
30719W        W45566  13.188   0.832  13.607  0.1956 -0.2571  0.1907
30720W        W45567   1.546  17.900   3.908 -0.0637 -0.4912  0.1123
30721W        W45568  13.648   8.084  12.660 -0.0308 -0.0376 -0.3152
30722W        W45569  16.393   5.309  12.485  0.0760  0.2252 -0.0439
30723W        W45570   3.520   7.554   2.448  0.1483  0.0078  0.1238
30724W        W45571  17.696   5.985   4.521 -0.2336  0.1768 -0.0335
30725W        W45572  16.730   3.266  13.063  0.0510  0.2108  0.0850
30726W        W45573   0.640  17.550  15.019  0.3425 -0.1891 -0.0993
30727W        W45574   7.735   5.107  14.651  0.1560  0.2107 -0.0022
30728W        W45575  12.079  12.408   1.010 -0.1883 -0.1605 -0.0042
30729W        W45576  12.729   1.739  11.280  0.3242 -0.3237  0.0873
30730W        W45577   6.721  12.657   0.622 -0.0866  0.0382 -0.2727
30731W        W45578   0.348   6.723  15.093 -0.2001 -0.0559 -0.0570
30732W        W45579  12.195   6.860   2.763  0.0778  0.0493  0.3172
30733W        W45580   9.233   8.729  12.568 -0.0199 -0.2717  0.3709
30734W        W45581  10.061  17.440  14.833 -0.0814  0.2523 -0.4114
30735W        W45582   0.133  11.068   2.627  0.4378  0.4118  0.2452
30736W        W45583   7.886   9.035   5.545  0.0908 -0.0724 -0.0717
30737W        W45584  14.325  11.416  15.439 -0.0305  0.1105  0.0207
30738W        W45585  13.590  12.615  14.978  0.3043  0.0698 -0.0035
30739W        W45586  13.881   1.040  13.094  0.2425  0.0699  0.3590
30740W        W45587   1.877   8.164   3.801 -0.0105  0.1453  0.1791
30741W        W45588  14.532  12.827   2.408 -0.2063  0.3890 -0.1974
30742W        W45589  15.007  14.955  14.124  0.3184  0.1737  0.2719
30743W        W45590   6.088  16.718   1.867  0.1107 -0.2303  0.2564
30744W        W45591  13.494   8.228  16.470  0.1073  0.0352 -0.0888
30745W        W45592  17.354  17.958  16.868  0.0436 -0.1127  0.1261
30746W        W45593  13.330   2.772  11.597 -0.1857 -0.1924  0.0476
30747W        W45594  12.530  15.664   3.471  0.4379 -0.0604  0.2638
30748W        W45595  16.232   9.702   5.292 -0.1563 -0.2917  0.2914
30749W        W45596   0.629  13.630  16.878  0.1053 -0.0963  0.0721
30750W        W45597  14.471   0.307   0.604  0.2894  0.1189  0.1150
30751W        W45598  11.159  17.697   2.121  0.2004  0.0507  0.2647
30752W        W45599  11.922   9.347   4.355 -0.2514 -0.1333  0.4386
30753W        W45600  15.099  11.129   2.441  0.2822  0.1964 -0.2696
30754W        W45601  11.224  17.082  13.735  0.1592  0.0320 -0.1692
30755W        W45602  13.246  13.699   1.730 -0.1071 -0.0022 -0.0658
30756W        W45603  15.237  13.280  15.409  0.2503  0.1149 -0.1250
30757W        W45604  16.166   2.629  16.165 -0.2577  0.1190  0.2006
30758W        W45605  13.040   6.456   2.493  0.2639 -0.3393  0.0071
30759W        W45606   1.926   9.039   6.329 -0.1921 -0.1933  0.1189
30760W        W45607  16.306   0.501  15.236 -0.0966  0.2534 -0.1093
30761W        W45608  10.033   6.634   4.934 -0.0207 -0.2554  0.1069
30762W        W45609  17.900   9.997  11.441  0.4113  0.2067  0.1339
30763W        W45610   0.045   2.753  17.005  0.1422 -0.1230 -0.0388
30764W        W45611  11.380   6.323  11.292 -0.0946  0.3270 -0.0450
30765W        W45612   8.369  15.152   4.488 -0.1546  0.1426  0.1157
30766W        W45613   9.275   0.589   0.572  0.0231  0.0830  0.1140
30767W        W45614  12.333   4.270  14.247 -0.0562 -0.2766 -0.1249
30768W        W45615  16.453   7.969  13.982 -0.0836  0.0256 -0.2448
30769W        W45616  13.790  12.981  13.630  0.2604  0.0106  0.3325
30770W        W45617   8.621   4.624   6.664  0.0293  0.0759  0.1321
30771W        W45618   1.633   3.853   5.134 -0.3373  0.0309 -0.3471
30772W        W45619  14.016   3.948   3.763 -0.1503 -0.0808  0.1891
30773W        W45620  14.628   2.078   3.695 -0.0395 -0.0374  0.0344
30774W        W45621   4.892   3.494   6.463 -0.0696 -0.3355 -0.1790
30775W        W45622  11.623   1.879   1.809 -0.0587 -0.1869 -0.1472
30776W        W45623  16.076   2.975   0.908  0.2419  0.1432 -0.1210
30777W        W45624  12.328   3.655  12.044  0.1018  0.1960 -0.0543
30778W        W45625  11.145   9.501  14.312  0.2321 -0.0752  0.1120
30779W        W45626  16.459   6.974   1.055  0.2194 -0.2828  0.1372
30780W        W45627  15.282   8.253   1.799  0.0927  0.0063 -0.0435
30781W        W45628  10.384  13.517  11.244  0.3143  0.2520 -0.1638
30782W        W45629  10.008  16.628  13.243  0.1850 -0.2231 -0.2107
30783W        W45630   9.183   4.913   4.913 -0.1021 -0.0065 -0.1545
30784W        W45631  10.645   4.375   3.701  0.1138 -0.2981  0.0834
30785W        W45632  14.798   8.420   0.521  0.1253  0.3199  0.1524
30786W        W45633  14.581   4.199  12.559 -0.2951  0.0500  0.0959
30787W        W45634   0.351  10.861   5.975 -0.2186  0.0873 -0.3558
30788W        W45635  17.574  10.797   3.807  0.0050 -0.1483  0.1162
30789W        W45636  13.758   3.926  14.649 -0.2029 -0.1320 -0.0074
30790W        W45637  13.867  16.255  17.087 -0.2320  0.2358 -0.3110
30791W        W45638  15.997   0.309   4.945 -0.2275  0.2298 -0.1195
30792W        W45639   0.696   9.046   4.255 -0.1086  0.1293  0.3908
30793W        W45640  15.909   1.900  13.970 -0.1092 -0.2214 -0.2484
30794W        W45641  12.842  12.351  15.902 -0.0536  0.1431  0.0560
30795W        W45642  13.131  10.354  14.121  0.1277  0.4095  0.2779
30796W        W45643  17.234  11.529  14.730 -0.0062 -0.1218 -0.0900
30797W        W45644  14.188   1.276   3.977  0.1226  0.3288  0.1813
30798W        W45645  10.204  16.062   3.732 -0.5391  0.2336 -0.0716
30799W        W45646   4.506  12.445  12.485  0.0272  0.0394  0.1742
30800W        W45647  15.049   3.661   2.198 -0.4185 -0.0375 -0.0709
30801W        W45648  15.488   8.787  13.641 -0.0312  0.0811 -0.1894
30802W        W45649   9.435   7.521  14.084  0.2298  0.2026  0.1295
30803W        W45650  12.631  17.669   6.234  0.0132  0.0600  0.1834
30804W        W45651  13.309  12.458  11.351 -0.2412  0.1059  0.2942
30805W        W45652  10.791  14.538   1.618  0.1779 -0.3638  0.1655
30806W        W45653  12.987   8.168   3.113 -0.0081  0.0174  0.1164
30807W        W45654  10.776  14.673  12.696 -0.1679 -0.0562 -0.1586
30808W        W45655  13.372  16.378   3.480 -0.0790 -0.1379 -0.2291
30809W        W45656  12.113  13.150  11.639  0.0238  0.5340  0.1649
30810W        W45657   0.699   1.915  15.090  0.2094  0.1813  0.2608
30811W        W45658  12.211   3.512  11.507 -0.0624 -0.2584 -0.2319
30812W        W45659  12.239   8.354   1.182  0.0292 -0.1992 -0.1531
30813W        W45660  16.967  11.837   0.139 -0.2513  0.2467  0.0721
30814W        W45661   3.706  11.730   1.561  0.1011  0.1641  0.0877
30815W        W45662  12.291   5.755  11.878 -0.0100 -0.0278  0.1816
30816W        W45663  16.033   8.314   2.927 -0.2364 -0.0620  0.1580
30817W        W45664   0.518  16.039   4.818  0.2545 -0.1484  0.2830
30818W        W45665  15.896   3.533   2.647  0.2686  0.0369 -0.1634
30819W        W45666  14.215   8.403  13.801  0.0226  0.2176  0.0708
30820W        W45667   9.594   4.332   2.344 -0.0498 -0.0541  0.1089
30821W        W45668  10.288   8.969  16.450  0.0327  0.1680 -0.0555
30822W        W45669  14.105  16.647   0.460  0.0500  0.1879 -0.1012
30823W        W45670  13.447   2.718  15.975 -0.2051  0.0510  0.2281
30824W        W45671   3.379  15.994  16.591  0.0350 -0.1733 -0.4382
30825W        W45672  15.507   1.537   0.180  0.0501 -0.0947 -0.1453
30826W        W45673  14.350   0.444  14.881  0.2112 -0.0830  0.2114
30827W        W45674   7.620  13.025  16.758  0.0388  0.2472  0.2528
30828W        W45675   2.487   7.415  13.852  0.1204  0.0044 -0.1268
30829W        W45676  10.356   7.071   3.271 -0.0702 -0.1477 -0.2145
30830W        W45677  12.052   4.890   1.662  0.1234  0.2256 -0.1322
30831W        W45678  15.012  10.710   2.725  0.0849 -0.0374 -0.2343
30832W        W45679   2.145  10.039  12.680 -0.1502 -0.2893 -0.0561
30833W        W45680  15.385   2.625   6.128  0.0502  0.0258 -0.2086
30834W        W45681  17.366   8.815   3.593 -0.0518 -0.0757  0.0765
30835W        W45682  12.699  16.433   0.785  0.0735 -0.0237  0.1426
30836W        W45683   8.501  16.761   1.825  0.1998  0.1664  0.0767
30837W        W45684   0.715   2.944  13.903  0.0957  0.0938  0.0046
30838W        W45685  15.182  10.816  11.526  0.1116  0.2136  0.0959
30839W        W45686  12.497  17.162  11.128 -0.1722  0.3610 -0.2722
30840W        W45687  16.864  16.824   4.737  0.0318 -0.0930  0.1502
30841W        W45688  17.619  13.724  17.044  0.2559  0.1073  0.0709
30842W        W45689  13.683  13.169  14.983  0.2038  0.0373 -0.1722
30843W        W45690   4.367  10.739  14.858 -0.0417  0.2212 -0.2390
30844W        W45691  14.170  12.088  12.451  0.2180  0.1187 -0.0741
30845W        W45692  10.448  13.819   1.369  0.2410 -0.0306 -0.3016
30846W        W45693   1.927  15.070   5.791 -0.1205  0.1099 -0.0857
30847W        W45694  12.359   1.038  14.237  0.0783  0.2278  0.1127
30848W        W45695   4.215   1.510  12.489  0.2083 -0.2979  0.0860
30849W        W45696   1.775   1.630   4.125 -0.0520 -0.1809  0.2267
30850W        W45697  16.430   3.914  12.618  0.0880 -0.0424  0.1043
30851W        W45698  17.957  12.164   3.503 -0.2686 -0.1303 -0.0064
30852W        W45699  12.333   3.955   2.521 -0.1298  0.0013  0.0836
30853W        W45700  14.734  17.912  14.414 -0.1699  0.1189 -0.4679
30854W        W45701   2.881  14.381  14.393 -0.0558  0.0167  0.2033
30855W        W45702   2.275   4.360   3.135 -0.2201  0.0888 -0.0480
30856W        W45703  10.289   5.819  16.754  0.0769 -0.1438 -0.2029
30857W        W45704  15.843  14.018   2.163  0.0477 -0.0030  0.2039
30858W        W45705  16.592  12.686   3.473 -0.0390  0.2002  0.2634
30859W        W45706   9.224   1.037  14.297 -0.0352 -0.6402 -0.1679
30860W        W45707  11.003   7.348  13.846  0.3268  0.0833 -0.0328
30861W        W45708  11.045   1.866   0.880 -0.2489 -0.1650 -0.2260
30862W        W45709  16.888  13.739  12.572  0.1921  0.0971  0.0707
30863W        W45710   1.757   0.179   1.991  0.1564  0.1741  0.0891
30864W        W45711  14.680   5.548  13.188  0.0152 -0.1261  0.4118
30865W        W45712  10.426  11.624  14.875 -0.0223 -0.0101  0.0319
30866W        W45713  11.907   2.560  15.607  0.1743 -0.0285 -0.2197
30867W        W45714   1.836  12.897   3.962  0.0324  0.2786  0.0669
30868W        W45715  14.807   4.763  14.293  0.1441 -0.2386 -0.3134
30869W        W45716  10.357   7.474   1.107 -0.1802 -0.1422 -0.0131
30870W        W45717   3.165   1.702   4.202  0.0018 -0.3334 -0.1567
30871W        W45718  15.594   6.458   1.127 -0.0674 -0.4134 -0.2658
30872W        W45719  16.437  12.137  12.432 -0.1521 -0.2711  0.3111
30873W        W45720   7.979  17.634   5.839  0.0749  0.2652 -0.2406
30874W        W45721   9.904  17.387  16.447  0.1602 -0.1360  0.1093
30875W        W45722   1.307   6.208   4.209  0.5277  0.0478 -0.0413
30876W        W45723  16.103   5.025  16.606 -0.0517  0.1994 -0.1293
30877W        W45724  13.276   5.133  10.316 -0.1137 -0.0405 -0.3326
30878W        W45725   0.151  16.100  11.320  0.0489 -0.1655  0.0371
30879W        W45726  12.524  11.751  10.326  0.0175  0.0934  0.0714
30880W        W45727  16.361  16.146  15.475  0.1143  0.1925  0.2861
30881W        W45728   0.584   2.712  12.576 -0.1010 -0.0727  0.2133
30882W        W45729   5.193  13.164  16.124  0.2620  0.1706 -0.0184
30883W        W45730  10.421   0.604   4.309 -0.0913 -0.1540  0.0653
30884W        W45731   1.663  10.978  13.939  0.2347  0.1193 -0.2271
30885W        W45732  13.246   8.860   0.099  0.4522  0.4356  0.2875
30886W        W45733   9.831  15.390   2.064 -0.0500  0.3547 -0.2226
30887W        W45734  17.497   9.646  16.820 -0.1663  0.2144  0.0610
30888W        W45735   9.672  12.028  15.825  0.1658 -0.1137 -0.1457
30889W        W45736  17.669  14.984  13.196  0.0577  0.2601  0.3230
30890W        W45737   1.090   7.176  15.216 -0.0503  0.1057 -0.0070
30891W        W45738  17.579   1.769  10.905 -0.1614  0.2535 -0.0356
30892W        W45739  12.887   4.994  14.615 -0.0705 -0.2871 -0.1366
30893W        W45740  14.176   0.997  13.465 -0.0147  0.0861  0.0666
30894W        W45741  14.739  11.400   2.184 -0.1430  0.2660 -0.2702
30895W        W45742  16.654   8.981   3.491 -0.3281 -0.1123 -0.3503
30896W        W45743  15.902   1.461  13.548 -0.0540 -0.0198 -0.1427
30897W        W45744  11.003  13.899  13.920 -0.0510 -0.1426  0.0180
30898W        W45745  10.725  12.698   1.762  0.1532 -0.1293  0.4355
30899W        W45746  15.475  13.393   3.030 -0.1444 -0.0228  0.1416
30900W        W45747   1.767   9.415   5.123 -0.0921  0.1394  0.1758
30901W        W45748  13.325  14.148   0.018 -0.1146 -0.0446  0.0285
30902W        W45749   2.394  12.441   6.165 -0.0553  0.1793 -0.3169
30903W        W45750  16.688   4.436   5.520 -0.1270  0.1981  0.2446
30904W        W45751  12.649   9.331   2.547  0.2637  0.0463  0.1031
30905W        W45752  11.670  14.189   1.679 -0.3038 -0.0379 -0.1027
30906W        W45753  14.252   7.279   0.443 -0.1538 -0.1111  0.1818
30907W        W45754  15.854  14.791   4.643 -0.0716 -0.1062 -0.0727
30908W        W45755  14.465  11.428   4.615 -0.2296 -0.3785  0.2813
30909W        W45756  13.440   4.020   1.603 -0.1896 -0.1526  0.1128
30910W        W45757   0.717   2.366  13.700  0.0002 -0.0151  0.1217
30911W        W45758  11.260   7.520   0.158  0.0486 -0.1912 -0.1597
30912W        W45759  15.105  16.056  12.648  0.3468  0.0372  0.1129
30913W        W45760  11.358  11.869   2.010  0.0423 -0.1715 -0.0665
30914W        W45761  16.655   2.895   4.298  0.0207  0.0568  0.1438
30915W        W45762   0.333   3.351   4.634 -0.0678 -0.1704  0.0666
30916W        W45763  15.985  16.746   5.164  0.1554  0.0022 -0.1022
30917W        W45764   1.820   9.920  13.140  0.2445  0.1594 -0.1319
30918W        W45765  15.006  15.561  12.318 -0.1222  0.0158 -0.0407
30919W        W45766  11.153   8.016   0.002  0.1619 -0.1597  0.0604
30920W        W45767  15.909  15.789   4.440 -0.0872  0.0745 -0.1965
30921W        W45768   6.400   2.724  14.558 -0.1743  0.2438 -0.1027
30922W        W45769   9.092  10.534  12.695  0.0809  0.0557 -0.0398
30923W        W45770  15.560  16.673   4.665 -0.0015  0.2418 -0.2282
30924W        W45771  15.188  17.139   2.046 -0.0383 -0.5156 -0.0415
30925W        W45772  14.583   9.067  16.109 -0.2957 -0.0101  0.2245
30926W        W45773  13.721   3.717  12.919 -0.1263 -0.2291  0.3310
30927W        W45774   3.358   6.239   2.018  0.2235 -0.0928 -0.2454
30928W        W45775  16.210   1.383  15.691 -0.0095 -0.1136  0.2603
30929W        W45776   1.905  14.267  12.736 -0.0231  0.0796 -0.1677
30930W        W45777  16.055  14.636  14.557 -0.0500 -0.1580  0.1235
30931W        W45778  10.950   6.678  12.425 -0.1902 -0.1036 -0.1125
30932W        W45779   7.578  14.565  14.789  0.0063  0.0277 -0.1248
30933W        W45780   4.626  13.687   2.059 -0.1449 -0.1121 -0.3018
30934W        W45781   5.708   2.658  15.959 -0.0249  0.0678  0.1789
30935W        W45782  10.146   8.826   1.133  0.2485 -0.4005 -0.0207
30936W        W45783  13.861   2.521  15.542 -0.1430 -0.0975  0.1774
30937W        W45784   0.162  14.923   2.061  0.0083  0.3113  0.0218
30938W        W45785  17.936  15.408  13.306 -0.1082  0.0430  0.1595
30939W        W45786  16.914   9.772  15.913 -0.0270  0.0851  0.0449
30940W        W45787   4.928  14.978   5.317  0.0000 -0.1848 -0.1057
30941W        W45788   1.501   2.779  12.511 -0.3795 -0.0791  0.0669
30942W        W45789  15.461  12.055  10.982  0.2223  0.2388 -0.2122
30943W        W45790  10.841   1.417   2.185 -0.1000 -0.0260  0.0994
30944W        W45791   0.642  13.911  15.114 -0.1515 -0.1432 -0.1388
30945W        W45792  10.859  15.080   1.088 -0.1336  0.0072 -0.2942
30946W        W45793   9.798  13.793   2.961  0.4111  0.3604 -0.1693
30947W        W45794   7.726   3.408   1.139  0.0597 -0.0586  0.0509
30948W        W45795  16.752  16.837  16.923 -0.0467  0.3031 -0.2200
30949W        W45796   3.701   6.800  16.289 -0.0978  0.0119  0.1007
30950W        W45797  15.541   5.075  14.617 -0.1554 -0.0232  0.0477
30951W        W45798  13.806   9.638   5.228 -0.2213  0.0344  0.0361
30952W        W45799  13.426  14.724   1.295  0.2429  0.0997 -0.0364
30953W        W45800  13.686  15.778   1.553  0.2100 -0.1079  0.2288
30954W        W45801  12.887  16.975   5.759 -0.4115 -0.0361  0.1799
30955W        W45802  11.056   1.404   6.384  0.4173  0.2035  0.2761
30956W        W45803  15.748  12.945  13.873  0.2318 -0.2052  0.2255
30957W        W45804   2.342   2.242   5.238 -0.0012 -0.0319 -0.0970
30958W        W45805  17.175  16.283  14.606  0.0636  0.2463 -0.0779
30959W        W45806   3.302   9.301  16.457 -0.4430 -0.2292  0.3081
30960W        W45807  12.084  16.482  12.692 -0.0859  0.0735 -0.0983
30961W        W45808  15.655   9.900   4.007 -0.2151 -0.1889 -0.2547
30962W        W45809   3.301   4.703  14.060  0.2190 -0.3120 -0.0683
30963W        W45810  11.949  10.292  11.546 -0.3415 -0.3025 -0.2517
30964W        W45811  14.868  15.797  14.303  0.0097  0.0235  0.2141
30965W        W45812  17.847   9.221   4.978  0.1412 -0.2855  0.3833
30966W        W45813  11.217  14.816   5.399 -0.0363 -0.4287  0.0838
30967W        W45814  17.204   2.584  17.004 -0.1214 -0.2989  0.0505
30968W        W45815   0.329  11.335   3.522  0.2459 -0.1832  0.0906
30969W        W45816  14.871   7.981   0.957 -0.2359 -0.1895  0.0705
30970W        W45817   7.999   7.213   2.878 -0.3515 -0.0310 -0.0889
30971W        W45818  10.434   6.189  12.052 -0.1849 -0.0316  0.0278
30972W        W45819   0.993  11.159  12.526  0.0377 -0.2099 -0.3667
30973W        W45820  14.855   3.392  11.830  0.3390 -0.3379 -0.0765
30974W        W45821  14.846   1.277  12.447 -0.1598 -0.2340 -0.2787
30975W        W45822   1.439  15.478  15.882  0.2169 -0.1277  0.3096
30976W        W45823   4.414  13.779   2.550 -0.3020 -0.1465  0.3326
30977W        W45824   8.423  16.430  12.945  0.0334 -0.4753  0.1472
30978W        W45825  16.908   6.782   3.755  0.1938  0.0644  0.0913
30979W        W45826  13.822   2.706   5.965  0.1614 -0.0118  0.2454
30980W        W45827  10.075   9.677   3.555 -0.2318 -0.2701  0.1043
30981W        W45828  17.942  15.163  16.007  0.0961  0.0643 -0.0946
30982W        W45829   5.927   5.560  16.879 -0.0509  0.1340 -0.0499
30983W        W45830   4.934   2.113  16.987 -0.1867 -0.0337 -0.0806
30984W        W45831  14.373  11.185  12.908 -0.0845 -0.1578 -0.1913
30985W        W45832   9.169  16.825  16.630  0.2315 -0.1249 -0.3873
30986W        W45833   7.068  13.260  16.717  0.0840 -0.0427 -0.3699
30987W        W45834  12.552  16.268   5.575  0.0085  0.0416 -0.0668
30988W        W45835  10.159   9.545  15.272  0.1223 -0.0538 -0.1253
30989W        W45836  11.403   0.353  16.500  0.0467 -0.1615 -0.0227
30990W        W45837  17.027  12.455   2.299  0.3629 -0.0403 -0.1583
30991W        W45838   2.988   7.395   3.817 -0.0804 -0.0070 -0.2291
30992W        W45839  12.520   6.947  10.643  0.0273 -0.0299  0.0089
30993W        W45840  15.762  15.471   1.740 -0.5894  0.0166  0.2349
30994W        W45841   0.970  17.781   4.139 -0.2193  0.0859 -0.0582
30995W        W45842   1.233  17.869  12.755 -0.1797 -0.1941  0.2688
30996W        W45843   0.204   9.063  16.972 -0.3354 -0.1161 -0.1287
30997W        W45844   0.708   9.901  12.535 -0.0240 -0.1499 -0.1878
30998W        W45845   8.291   4.436   0.584  0.0292  0.0427 -0.0184
30999W        W45846  11.001  12.959   0.426  0.0652 -0.0878 -0.1658
31000W        W45847  14.553  11.547   1.345 -0.3227  0.2543 -0.1503
31001W        W45848  11.178  10.260  12.132 -0.2041 -0.2513 -0.1137
31002W        W45849   1.076  14.430  13.430 -0.0524 -0.1244 -0.0770
31003W        W45850  11.646   5.586  14.920  0.0327  0.3498  0.2809
31004W        W45851  17.005   5.176   4.499  0.3547 -0.2487  0.2801
31005W        W45852  14.401   3.397   4.892  0.1261 -0.0092  0.1017
31006W        W45853  12.374   4.676  15.698 -0.0078 -0.1734 -0.1366
31007W        W45854   0.087   9.509  13.072  0.0835 -0.2052 -0.2113
31008W        W45855  12.958   1.885   5.379  0.0126  0.0849  0.1157
31009W        W45856  17.652   2.962   3.945  0.3029 -0.2484 -0.0036
31010W        W45857  11.972  15.263  16.870 -0.2666  0.2527 -0.0092
31011W        W45858   1.872   5.657  15.852 -0.1272  0.0443  0.2363
31012W        W45859  17.749   0.655   5.253  0.1304 -0.0983 -0.0459
31013W        W45860  17.885   2.575   3.018 -0.1788  0.1041 -0.0318
31014W        W45861   6.007   8.769   3.472  0.0167 -0.0932  0.3324
31015W        W45862   7.437  13.391  16.417 -0.0449  0.2217  0.0374
31016W        W45863  13.822  16.699   5.987 -0.0123  0.4494 -0.1462
31017W        W45864  17.010   5.678  13.701  0.3026 -0.0620 -0.2189
31018W        W45865  17.009   9.277   2.678 -0.0023  0.0637  0.0096
31019W        W45866   7.854  10.978  15.034 -0.0580 -0.0422 -0.0843
31020W        W45867   8.600   8.156   4.490 -0.0976  0.2034 -0.0082
31021W        W45868   9.651  10.909  12.774  0.4256  0.1099  0.1317
31022W        W45869  11.411   2.638   6.134  0.0483 -0.1965 -0.0143
31023W        W45870  11.964   2.465  15.112 -0.3555  0.1558  0.0484
31024W        W45871  16.415   9.728   5.797 -0.2532 -0.0923  0.1571
31025W        W45872   9.405   9.206   4.931  0.2010  0.5122 -0.5195
31026W        W45873  11.243  13.281   2.385  0.2565  0.3107  0.1836
31027W        W45874   4.284  12.721  12.096  0.0985  0.0916 -0.1270
31028W        W45875   9.518  14.586   1.151  0.0004  0.0226  0.1858
31029W        W45876  12.967  13.813   0.002 -0.0155 -0.1835  0.2643
31030W        W45877  10.175  11.596   1.031  0.0217 -0.1890  0.0902
31031W        W45878   4.497   0.760  13.754  0.2884 -0.1345 -0.1638
31032W        W45879  13.277  12.759   4.826  0.2433 -0.0452  0.2155
31033W        W45880  16.344  13.082  12.627 -0.0398 -0.1617 -0.0201
31034W        W45881  13.794  17.074   2.060  0.3032  0.3143  0.1870
31035W        W45882  15.745  13.647  11.037  0.2401  0.0477 -0.1685
31036W        W45883  16.025   8.481  12.428 -0.1816 -0.3054  0.2546
31037W        W45884   8.533  17.927  14.783  0.1819 -0.1815 -0.3040
31038W        W45885   7.363   8.031   5.060 -0.1483  0.3043  0.1107
31039W        W45886  10.044  11.718  14.575  0.0006  0.0588 -0.1083
31040W        W45887  12.799   3.555  12.634  0.4006  0.0979 -0.0417
31041W        W45888  13.417   0.773  15.878  0.2202 -0.0803 -0.0944
31042W        W45889   9.453   4.496   1.328 -0.1330  0.1775 -0.3042
31043W        W45890  14.951   2.988  16.761 -0.2476  0.3557 -0.0845
31044W        W45891  11.900  16.729   4.041  0.2852 -0.0308  0.0159
31045W        W45892  11.197   7.812  15.686 -0.2269  0.1436  0.1884
31046W        W45893  12.344  12.680   0.110 -0.0677  0.0769 -0.0812
31047W        W45894   0.037   1.614   1.746  0.0002 -0.3361  0.0334
31048W        W45895  17.251  16.561  11.728 -0.2837  0.1813 -0.3167
31049W        W45896  17.587   1.526  11.763 -0.1681 -0.1773 -0.3928
31050W        W45897  12.058   9.422  14.084 -0.0338  0.0622 -0.2559
31051W        W45898  10.011  10.130   3.821 -0.2409 -0.0539  0.3125
31052W        W45899   2.513   9.173   3.354  0.1295  0.1907 -0.0962
31053W        W45900   7.342   3.745   4.902  0.3212 -0.2772 -0.1127
31054W        W45901  15.438   4.425   5.114 -0.2025 -0.1966  0.1964
31055W        W45902  16.258  10.936  13.286 -0.0890  0.2066  0.1108
31056W        W45903   1.056   7.318  11.484 -0.2786 -0.0243 -0.0265
31057W        W45904  14.561   5.898   0.647  0.0838 -0.4070  0.1398
31058W        W45905   7.406  11.472  16.560 -0.3920 -0.1717  0.0421
31059W        W45906  11.259   1.063  13.381 -0.2496 -0.1517  0.0822
31060W        W45907   2.659   8.650   0.181  0.0060  0.0916 -0.5484
31061W        W45908  15.784  17.548   3.215 -0.3061  0.3987  0.0118
31062W        W45909   0.388  16.442  11.683  0.2338 -0.0208  0.1319
31063W        W45910  13.441  11.320   4.447 -0.1570 -0.0260  0.3022
31064W        W45911   1.830  14.912  13.775 -0.3461 -0.0709  0.0393
31065W        W45912  16.180   2.578  16.678  0.3894 -0.2198 -0.0137
31066W        W45913   1.923  11.591   4.405 -0.1314  0.0080  0.3159
31067W        W45914  15.632  12.118  14.057  0.1756 -0.1656  0.0950
31068W        W45915   0.797  17.323   4.097  0.0025 -0.3790 -0.2149
31069W        W45916  13.864   1.776  10.355  0.4185 -0.0189 -0.1366
31070W        W45917   0.064  13.895   5.201  0.1221  0.2693 -0.3728
31071W        W45918   0.110  15.881   3.666 -0.2272  0.1812 -0.1484
31072W        W45919   0.086  12.492  12.931 -0.3331  0.0314 -0.0982
31073W        W45920  11.986  15.227  13.151 -0.1976 -0.1768  0.0364
31074W        W45921  11.084  17.527   0.037 -0.2417  0.0009 -0.1858
31075W        W45922  17.267  15.204   0.003  0.0060 -0.0208 -0.0275
31076W        W45923  10.394  16.267   1.114 -0.4062 -0.2551 -0.1340
31077W        W45924  11.926  16.013  13.528 -0.0064  0.1914  0.2686
31078W        W45925  11.278   0.470   6.287 -0.1906  0.0136  0.0616
31079W        W45926  16.283  14.959  14.197 -0.0207 -0.1857 -0.0285
31080W        W45927   0.606  16.404   4.506 -0.1438 -0.2680  0.2946
31081W        W45928  15.905  12.977  11.737  0.0840  0.1694  0.2576
31082W        W45929  14.509   9.088  16.604  0.2937  0.1988 -0.1933
31083W        W45930  15.224  11.590  11.398  0.0952 -0.3003 -0.0190
31084W        W45931  10.645  11.665   5.798  0.0459  0.0925 -0.3303
31085W        W45932  14.630  17.419  15.185 -0.0368 -0.0142 -0.0225
31086W        W45933  15.066  12.636  14.960 -0.3513 -0.1489  0.0459
31087W        W45934   4.771   9.662   2.784 -0.3428 -0.0241 -0.2471
31088W        W45935  14.616   7.842   6.158  0.0876 -0.0188  0.1051
31089W        W45936   0.027  17.595   2.216  0.1379 -0.0941 -0.1080
31090W        W45937   9.683  17.045   2.873 -0.0383 -0.2148  0.0399
31091W        W45938  13.257  17.147   0.207 -0.2265  0.1374 -0.0588
31092W        W45939  14.337  16.383   4.975 -0.0631  0.3304 -0.0965
31093W        W45940  13.466  17.422   0.567 -0.2004  0.1530  0.0423
31094W        W45941   8.188  11.412   4.113 -0.2324 -0.1086  0.0481
31095W        W45942   9.274   3.151   0.745 -0.0421 -0.0533 -0.0049
31096W        W45943  16.833   6.481  16.778  0.0700 -0.1435  0.1642
31097W        W45944   2.167  15.013  11.882 -0.2182  0.0902  0.0569
31098W        W45945   0.237   5.378   4.731 -0.2115  0.2259 -0.3216
31099W        W45946   6.446  14.806  15.043 -0.2743 -0.0058 -0.0041
31100W        W45947  16.959  15.712   4.547 -0.1390 -0.0239  0.1696
31101W        W45948  11.926   3.824  14.183  0.2730  0.4684 -0.0529
31102W        W45949   1.220   1.236  16.049  0.1411  0.1115 -0.1071
31103W        W45950   8.058   1.703   0.005 -0.2547  0.1520  0.1103
31104W        W45951  13.142   2.209  13.815 -0.2275 -0.0051  0.1060
31105W        W45952  17.626   4.932  16.958  0.1688  0.0335 -0.1448
31106W        W45953   8.500   2.498  12.947  0.2153  0.0465 -0.0086
31107W        W45954  12.765   2.793   2.761 -0.0882  0.4010 -0.2759
31108W        W45955   0.786   9.632   4.933  0.0006 -0.0408 -0.0045
31109W        W45956  13.831   6.646   2.817 -0.0330 -0.0035  0.0721
31110W        W45957  13.623  12.247  10.195  0.0375 -0.0055 -0.1218
31111W        W45958  13.080  10.342  10.996 -0.3623 -0.0964 -0.0188
31112W        W45959  12.088  16.388   0.507 -0.0885 -0.1990  0.1539
31113W        W45960  14.305   6.913   0.824 -0.1562  0.0988 -0.1856
31114W        W45961  13.089   9.801   1.535 -0.2445 -0.0234  0.1877
31115W        W45962   9.115  15.139   3.875  0.1837  0.1135 -0.1334
31116W        W45963   9.923   9.160   4.823  0.1090  0.0058  0.1198
31117W        W45964   0.483  14.656   5.163  0.1745 -0.2568 -0.0624
31118W        W45965  12.565   6.774   0.084 -0.2999 -0.0474 -0.1835
31119W        W45966  13.129   4.331  15.159 -0.0161 -0.1687 -0.1204
31120W        W45967   4.320  15.047   1.239  0.2650 -0.2207 -0.2754
31121W        W45968   9.304   4.958  13.837 -0.1178 -0.0344 -0.2201
31122W        W45969  10.162  17.658   5.010 -0.1898  0.1202 -0.0219
31123W        W45970  17.022  14.576  15.829  0.3784  0.0983  0.1509
31124W        W45971  16.700  10.277  11.952  0.0204  0.3252  0.0360
31125W        W45972  15.321   6.503  16.701 -0.0461  0.2698  0.2413
31126W        W45973  16.564  13.396   5.582 -0.0947  0.3679  0.1678
31127W        W45974  14.345   4.135   2.336 -0.0063 -0.0812  0.0035
31128W        W45975   0.079   5.563  12.258 -0.1825 -0.0567  0.0027
31129W        W45976   9.922   8.125   4.904  0.0316  0.0484 -0.4040
31130W        W45977  16.038  11.897   9.968 -0.0912  0.0708  0.0197
31131W        W45978   2.768   1.740   2.654  0.0758 -0.3238 -0.0190
31132W        W45979   2.892   1.985  12.935 -0.2998  0.1928  0.0889
31133W        W45980  15.007   8.641   2.458 -0.0622  0.0804 -0.1141
31134W        W45981  15.397   6.289  14.572  0.0259  0.2293 -0.1681
31135W        W45982  16.355  16.351  14.142  0.1833 -0.0169  0.0528
31136W        W45983  12.411   7.774   3.628  0.1499 -0.1886 -0.0399
31137W        W45984  13.766   0.878  15.066  0.0088  0.1358  0.1693
31138W        W45985  15.679   2.115  10.736 -0.1862  0.3490 -0.1702
31139W        W45986  15.321   4.700   0.950 -0.0152  0.1183  0.0831
31140W        W45987   0.634  14.152  14.344 -0.2925 -0.0911 -0.0106
31141W        W45988  11.610   8.999  14.257  0.1856 -0.0559  0.2210
31142W        W45989   5.648   9.153   0.096  0.1620 -0.2915  0.0282
31143W        W45990   1.711   0.132   6.487  0.0098 -0.0574  0.2720
31144W        W45991  15.817   1.562  16.421 -0.1209  0.0609 -0.4023
31145W        W45992  14.952   7.958   2.241  0.3520  0.1598 -0.2352
31146W        W45993   0.595   4.959  12.309 -0.0050  0.0888  0.4458
31147W        W45994  15.357  17.418  12.260 -0.1595  0.0385 -0.0345
31148W        W45995  15.868   8.222   4.477  0.1297 -0.0270  0.3495
31149W        W45996  12.991   1.419   1.625  0.1770  0.0936 -0.2117
31150W        W45997   0.757  11.356  12.968 -0.1951 -0.0611  0.0016
31151W        W45998   8.323  15.842  12.809  0.0009  0.1397 -0.0589
31152W        W45999  12.977   8.080  14.501 -0.3028 -0.2386 -0.1593
31153W        W46000  11.786  16.073   1.359  0.0153  0.1495  0.1736
31154W        W46001   0.937   2.899  11.772 -0.2658  0.2288 -0.1813
31155W        W46002  15.678  13.489   3.481 -0.0263  0.2056 -0.0176
31156W        W46003  14.280   0.282   3.758  0.2381  0.0253  0.1677
31157W        W46004   7.277   3.134  12.585 -0.0093 -0.1221  0.3281
31158W        W46005  13.267   3.929  13.009  0.2976 -0.4949 -0.2536
31159W        W46006  13.487   7.346  11.993 -0.1407  0.2584  0.0518
31160W        W46007   6.047  14.583   5.643  0.3601 -0.2378  0.0516
31161W        W46008  13.323   9.474  11.593  0.2269  0.2748 -0.2716
31162W        W46009  13.138  12.745   0.612  0.0241  0.0372 -0.3004
31163W        W46010  10.858   4.581  13.076 -0.1394 -0.0118 -0.0786
31164W        W46011  13.462  15.450  13.405  0.1363 -0.1716  0.2552
31165W        W46012  13.494  11.376  15.053  0.1816 -0.1101 -0.1554
31166W        W46013  15.125   9.100  15.256 -0.2851 -0.1197  0.0736
31167W        W46014   9.744  16.156  12.010 -0.1222 -0.2112 -0.0866
31168W        W46015  13.886  15.683   0.020  0.0011 -0.1252  0.2454
31169W        W46016   7.638   4.769   1.049  0.1886 -0.0301 -0.3452
31170W        W46017  14.247  17.345  13.916 -0.0311 -0.0856 -0.0117
31171W        W46018  14.922  11.622   1.733  0.0966  0.0769 -0.2641
31172W        W46019   0.046   5.893  12.771  0.1170  0.2355  0.1170
31173W        W46020  11.342  17.234  14.978  0.1704  0.1217  0.0938
31174W        W46021  11.610  13.719   2.311  0.1546  0.2769 -0.0090
31175W        W46022  11.477  10.274  15.077  0.0920  0.2606  0.3793
31176W        W46023  15.975   0.058   5.341  0.0100  0.0459 -0.1017
31177W        W46024  12.230   9.939   0.940 -0.0915  0.2094  0.2215
31178W        W46025  11.026  11.686  11.829 -0.0346 -0.2118  0.0312
31179W        W46026  11.869  14.995   2.681  0.0484 -0.4951  0.4571
31180W        W46027   0.886   4.180  12.598 -0.2092 -0.3367  0.0952
31181W        W46028  11.074  13.161  12.520  0.0406 -0.0442 -0.1969
31182W        W46029   6.119   0.930  14.858 -0.0976  0.3310  0.3380
31183W        W46030  12.014  11.882  16.009  0.2138 -0.1332  0.0144
31184W        W46031   9.224   6.731  15.054 -0.0605 -0.2067 -0.1962
31185W        W46032   8.280   7.972  13.007 -0.3478 -0.1121  0.5321
31186W        W46033  11.403  11.142   1.954 -0.1505  0.0698 -0.2812
31187W        W46034  12.121  12.228   0.156  0.0285  0.1938  0.0192
31188W        W46035  17.000   1.271  12.311  0.3122  0.0245  0.0102
31189W        W46036  11.447  10.749  12.791 -0.0810 -0.1300  0.0697
31190W        W46037  12.876  14.311   0.235  0.0197 -0.1759  0.1474
31191W        W46038  14.002   1.035   2.507  0.0091 -0.1369 -0.1482
31192W        W46039   6.063  15.023   0.583  0.2163  0.1535  0.1802
31193W        W46040  12.934  17.851  11.376  0.0500  0.1444  0.1272
31194W        W46041   2.593  10.677  13.421 -0.3500 -0.0765 -0.0865
31195W        W46042  12.213   4.089   2.021  0.2201  0.3237  0.2481
31196W        W46043  14.234   8.240  15.081  0.2371  0.0027 -0.1481
31197W        W46044  16.521  11.917  15.326 -0.4185  0.0661 -0.1746
31198W        W46045  15.011   0.588  11.161  0.3577 -0.4269 -0.2921
31199W        W46046  15.072  14.807   1.843 -0.0124  0.3328 -0.2655
31200W        W46047  12.025  14.658  15.562  0.1763 -0.0032 -0.1127
31201W        W46048  14.116   2.921  15.734  0.0301  0.1911 -0.1723
31202W        W46049  15.668   4.785   0.588 -0.2677  0.1859 -0.0775
31203W        W46050  15.947   7.625   1.292  0.2278  0.2043  0.2988
31204W        W46051   2.026  12.016   6.364 -0.0541 -0.0473 -0.3088
31205W        W46052   0.460   1.067   2.760 -0.1559 -0.2352 -0.1836
31206W        W46053  14.193  16.178  12.961 -0.1630  0.0422  0.0233
31207W        W46054   1.265   0.619   4.369  0.2978 -0.2220 -0.1053
31208W        W46055  14.944   9.007   5.057  0.1579 -0.0899 -0.0998
31209W        W46056  12.400   8.088  12.816  0.0093  0.1767 -0.1343
31210W        W46057  14.269  17.109   4.305  0.0819 -0.1232  0.2304
31211W        W46058  12.101   6.957   4.186  0.0091 -0.0413 -0.0636
31212W        W46059   6.635  17.716   3.225  0.0036 -0.2345  0.0682
31213W        W46060  11.835   4.805   0.462 -0.2619  0.1370 -0.1785
31214W        W46061  13.464  15.747  16.117  0.1436 -0.0682  0.0443
31215W        W46062   1.431  16.511   4.578 -0.2182 -0.1084 -0.2883
31216W        W46063  17.782   8.930  16.164  0.0284 -0.1070  0.0265
31217W        W46064  12.573  13.896  16.695  0.2166 -0.1464  0.3161
31218W        W46065  11.689   6.639   0.068  0.1903 -0.2683 -0.0513
31219W        W46066   3.150   6.698   2.244  0.0606 -0.2219  0.0774
31220W        W46067   8.498   0.178   0.849 -0.0345 -0.0502  0.1387
31221W        W46068  13.418  14.586  16.358  0.1274  0.3501 -0.1032
31222W        W46069   3.811   5.886  14.904 -0.0485  0.0693  0.2101
31223W        W46070   2.166  15.942   0.364 -0.0503 -0.3226  0.1049
31224W        W46071  16.446   2.946   4.734 -0.0659  0.5309  0.0211
31225W        W46072   8.999   5.822   1.064 -0.2140 -0.1572 -0.0997
31226W        W46073   0.455  16.302  12.221 -0.1889  0.0594  0.1217
31227W        W46074  17.588  14.741   4.213  0.1611 -0.1435  0.2264
31228W        W46075   5.965   8.252   4.527  0.0544  0.0092  0.0010
31229W        W46076  16.649   9.773   0.648  0.0919 -0.1799 -0.0262
31230W        W46077   2.339  12.081   2.280  0.0125 -0.1253 -0.0204
31231W        W46078   5.065  12.655   3.257 -0.1649  0.0327  0.0545
31232W        W46079  10.434  15.948   3.143 -0.1820 -0.2544  0.0630
31233W        W46080   1.352  16.090   0.482 -0.0383  0.0664  0.0160
31234W        W46081   8.281  11.386  16.072 -0.1068  0.1233  0.1221
31235W        W46082  16.469  10.679  14.540  0.4614  0.2996  0.0851
31236W        W46083  14.308  12.958   4.694  0.0322  0.0005 -0.1379
31237W        W46084  15.267  12.166  15.157  0.2177  0.3653 -0.0330
31238W        W46085  17.720   2.619   5.987 -0.0167  0.2147  0.1641
31239W        W46086  14.274   3.784  14.027  0.0336  0.0810  0.0347
31240W        W46087  13.555  11.800  15.394  0.2072 -0.2633  0.2688
31241W        W46088   3.009   7.581   6.507  0.0181  0.0328 -0.1365
31242W        W46089   1.663   0.328  13.445 -0.0940 -0.1128  0.0623
31243W        W46090  11.181  17.165  11.804 -0.1545 -0.0846 -0.3205
31244W        W46091  14.259   5.722   4.418  0.0104 -0.1132 -0.4113
31245W        W46092   1.714  11.892  14.886 -0.1489  0.1383 -0.4027
31246W        W46093  14.604   2.975   1.125  0.0127  0.0328  0.2209
31247W        W46094   2.943   9.363   2.071 -0.3433 -0.3761 -0.0434
31248W        W46095  15.399  15.706  13.579 -0.0727 -0.1607 -0.2021
31249W        W46096   1.752   5.550   0.877  0.0115  0.2175  0.1690
31250W        W46097   9.157  11.443  15.435 -0.0031  0.1490  0.0682
31251W        W46098  15.671   9.112   1.652 -0.0846 -0.0340 -0.0138
31252W        W46099   1.860  13.071  13.585  0.0465  0.1633 -0.0019
31253W        W46100  17.060  14.138  13.921  0.2106 -0.0533  0.0148
31254W        W46101   6.983   6.171   4.857 -0.0704 -0.2922 -0.1456
31255W        W46102   8.287   1.524  13.456  0.1244 -0.0354  0.2538
31256W        W46103  16.426  15.061   0.736  0.2245  0.1532 -0.0181
31257W        W46104   0.844   5.745   4.713 -0.0254 -0.3001  0.2343
31258W        W46105  11.597  14.344   5.009 -0.2544  0.1020  0.1695
31259W        W46106  12.330  16.388  14.786  0.2049  0.0299  0.0095
31260W        W46107  17.563   2.378   6.356  0.0040  0.0741  0.1731
31261W        W46108  12.758   8.241  13.197 -0.2699 -0.0912 -0.0935
31262W        W46109  14.769  14.676  15.582  0.0008  0.0192  0.1203
31263W        W46110  15.810  16.981  17.053  0.0191  0.0007  0.2865
31264W        W46111  14.734  12.227   5.602 -0.2582  0.0169  0.0768
31265W        W46112  14.678   6.942   4.893  0.0266 -0.0692 -0.0349
31266W        W46113  13.811   6.920  16.030  0.0582  0.1623 -0.1365
31267W        W46114   7.463  15.809  14.524  0.1075 -0.0892  0.0486
31268W        W46115  15.827   1.398  11.322  0.1080 -0.3208  0.1926
31269W        W46116  14.063   5.446   0.268  0.1985  0.0207  0.0268
31270W        W46117  15.879  17.933   5.887  0.1846 -0.0017  0.1163
31271W        W46118  15.669   8.315  13.894 -0.0223  0.2419  0.0783
31272W        W46119  12.138  14.026   2.503 -0.1007 -0.0648 -0.0584
31273W        W46120  14.045   2.604   2.297  0.1893 -0.1959  0.3229
31274W        W46121  17.075   1.733  15.892  0.1459 -0.0976 -0.1167
31275W        W46122   2.693   9.656  15.944 -0.1018 -0.0012  0.1630
31276W        W46123  13.985  16.741   4.198  0.1391  0.3177  0.1567
31277W        W46124   8.584   1.410  15.885 -0.2154 -0.2263  0.0923
31278W        W46125  13.687   3.067  11.349 -0.0855  0.0299 -0.2861
31279W        W46126  12.410  15.379  12.366 -0.3098 -0.3265 -0.0050
31280W        W46127  12.457  12.785  11.373  0.0438 -0.0172  0.0229
31281W        W46128   8.806   2.661  15.394  0.2644 -0.1255 -0.0960
31282W        W46129  13.381   8.671  16.571  0.1950 -0.2920 -0.3448
31283W        W46130  17.234   2.265  13.545 -0.0647  0.0669 -0.0385
31284W        W46131  11.463  11.347  14.674  0.0401 -0.5364  0.0258
31285W        W46132  15.971  16.030  11.790  0.0715  0.1359  0.1285
31286W        W46133   9.957  12.234   1.652  0.0850  0.0433 -0.2712
31287W        W46134  13.394   1.411  16.472  0.1177 -0.2770 -0.2310
31288W        W46135  13.445   1.906   5.442  0.0277 -0.0772 -0.1482
31289W        W46136   6.253  17.269   4.069  0.0266 -0.0523  0.1038
31290W        W46137  12.515   2.428  14.841 -0.2408 -0.2577 -0.2025
31291W        W46138  10.425  14.997  13.978  0.4104  0.1471 -0.2167
31292W        W46139   9.317   0.772   4.826  0.0809  0.2360 -0.0450
31293W        W46140  14.570   5.071  11.396  0.0655 -0.0548 -0.0514
31294W        W46141   9.456   9.502   0.758  0.0253  0.1912 -0.0045
31295W        W46142  10.849   4.839  13.549 -0.1384 -0.0645 -0.0492
31296W        W46143  16.491   0.068   4.220 -0.2854 -0.1744 -0.0077
31297W        W46144  17.563  14.158  11.638  0.2990 -0.6397 -0.1901
31298W        W46145  15.540   4.455  14.030 -0.1414 -0.0145  0.0080
31299W        W46146  12.552  12.575   1.005 -0.1517  0.1777  0.1353
31300W        W46147  16.044   3.570  10.280  0.2655 -0.2396  0.5084
31301W        W46148  17.613   1.863  15.355  0.1552  0.0965 -0.1464
31302W        W46149  10.391   3.476   3.594  0.3381  0.0170  0.1858
31303W        W46150  13.201   1.550  10.491 -0.1782 -0.2234 -0.2325
31304W        W46151  16.739   5.859  11.324 -0.2407  0.1266  0.0675
31305W        W46152  14.326   5.852  11.810  0.0500 -0.2276 -0.3430
31306W        W46153   8.193   6.945   5.797  0.0742 -0.0257  0.1991
31307W        W46154  15.796   6.741  13.661 -0.0096 -0.0127  0.0411
31308W        W46155  12.156   5.909  17.099 -0.2887  0.0156 -0.3643
31309W        W46156   8.543  12.562   4.145  0.1794 -0.2399  0.0129
31310W        W46157   4.293   8.119   6.113  0.0243 -0.0504  0.1559
31311W        W46158   0.466  11.633  10.612  0.1031 -0.1492  0.1575
31312W        W46159   2.426   3.938   2.928 -0.0127  0.2330 -0.2169
31313W        W46160  13.246  16.270   1.136  0.0612 -0.1301  0.2007
31314W        W46161  11.858   1.836   2.223 -0.3187 -0.1629 -0.3794
31315W        W46162   8.493   1.919  14.713 -0.1705  0.1590 -0.0526
31316W        W46163   4.397   4.295   5.852 -0.1262  0.0080 -0.1138
31317W        W46164  11.163   6.746  15.087  0.0654  0.1785  0.1841
31318W        W46165   7.143   5.824  16.009 -0.1433  0.1265 -0.1271
31319W        W46166  16.849   1.960  14.440  0.0141 -0.1287 -0.0378
31320W        W46167   8.579  15.336   4.080  0.0213 -0.2321  0.1505
31321W        W46168  10.862   2.180   5.287 -0.0623  0.0989 -0.2595
31322W        W46169   7.793  16.154   1.874  0.2176 -0.3167 -0.0775
31323W        W46170   4.775  14.090  12.424  0.2644 -0.1420  0.2214
31324W        W46171  12.670  10.122  16.134  0.3567  0.1245 -0.0708
31325W        W46172  14.726   0.411   4.010  0.2351  0.0467 -0.1412
31326W        W46173  15.520  10.313   1.618  0.2289  0.0364 -0.3122
31327W        W46174  16.342   5.615   3.317 -0.2213  0.2092 -0.1456
31328W        W46175  15.277   5.238  15.492  0.0118  0.1337 -0.3066
31329W        W46176  11.445  17.825   1.668  0.2168  0.0447  0.2271
31330W        W46177   0.148  17.743   0.706  0.0917  0.2731  0.1912
31331W        W46178  14.308   8.248  11.560  0.3400 -0.0002  0.0813
31332W        W46179  15.543   6.213  12.241  0.0901 -0.3474  0.1111
31333W        W46180   2.130   6.286  12.075  0.1640  0.0125  0.5363
31334W        W46181   9.571   0.791   3.036  0.0661  0.1362 -0.0478
31335W        W46182  14.840   6.906  15.042  0.2046  0.2471 -0.2755
31336W        W46183  17.242   3.830  14.353 -0.1019 -0.2390  0.5770
31337W        W46184  16.419   8.322  15.713  0.2444  0.0401  0.0951
31338W        W46185  10.843  11.941  16.338 -0.0379  0.2382 -0.0638
31339W        W46186  16.425  13.611  12.303  0.1470 -0.2619 -0.0669
31340W        W46187  11.139  13.013   5.719 -0.0792  0.0146 -0.0909
31341W        W46188   9.388   6.483  14.150  0.0944  0.5688 -0.1276
31342W        W46189   9.006   5.624  15.645 -0.1920  0.1957 -0.3512
31343W        W46190  14.586  15.983  12.484 -0.0357  0.1556 -0.3500
31344W        W46191  15.343  15.851   5.264  0.2110 -0.1455 -0.4303
31345W        W46192   2.309   5.073  16.625  0.0388  0.1178  0.1740
31346W        W46193  13.759   3.158   0.096 -0.1494  0.1373 -0.0750
31347W        W46194  11.629   8.565   5.341 -0.1172 -0.0700  0.1089
31348W        W46195   2.980  12.530  13.216  0.1039  0.2513  0.1586
31349W        W46196  14.322  14.582  10.924 -0.1947 -0.1880  0.2229
31350W        W46197  12.285   1.307  15.188 -0.4057  0.2654 -0.1291
31351W        W46198   0.418   6.237  10.889  0.0895  0.0924 -0.5582
31352W        W46199  15.724  15.306   4.488 -0.4316 -0.2016 -0.2667
31353W        W46200  15.949  11.733   5.611 -0.0509  0.2375  0.0647
31354W        W46201   2.490   7.060   5.581  0.2411  0.1041  0.2507
31355W        W46202  10.329   8.237   1.807 -0.2537 -0.1719  0.1388
31356W        W46203  16.988   7.427  16.557  0.0503  0.1586  0.6043
31357W        W46204  17.025  13.405   1.296  0.0197  0.2561  0.1120
31358W        W46205   3.467   2.058   1.364  0.2041  0.0812 -0.1544
31359W        W46206  13.618   3.501  15.350  0.1720 -0.6068  0.1137
31360W        W46207   2.546  17.303  15.201 -0.1871 -0.0185 -0.0116
31361W        W46208  15.199  11.112  12.354 -0.1546 -0.0756  0.1915
31362W        W46209  13.407  11.168  15.535  0.0756 -0.1767 -0.0834
31363W        W46210   7.902  16.804   5.703  0.1628 -0.0922  0.0851
31364W        W46211   5.872  12.916   1.632  0.0632  0.2269  0.0455
31365W        W46212  14.270   9.896   2.830 -0.0072  0.3304  0.1163
31366W        W46213  17.755   0.402   2.583 -0.1632 -0.2037 -0.0624
31367W        W46214  13.423   1.551   3.013  0.2324  0.3538 -0.2976
31368W        W46215  14.702   7.686   1.788 -0.0909  0.1559  0.0470
31369W        W46216  12.498   8.126  10.749  0.1471  0.1010 -0.0712
31370W        W46217  13.359   3.850   6.295  0.1572 -0.0346 -0.0291
31371W        W46218  15.645  14.504   4.954  0.2022 -0.0122 -0.0286
31372W        W46219  11.816  12.401  15.763 -0.0884  0.0705 -0.0396
31373W        W46220  16.750  14.277  16.773  0.4490 -0.0633  0.0033
31374W        W46221  12.396   3.823  14.529 -0.3047  0.1733 -0.0734
31375W        W46222  13.852   9.234   1.979 -0.0009  0.1001 -0.0206
31376W        W46223   1.527   5.851  16.972  0.2286 -0.0867  0.3772
31377W        W46224  13.302  16.108   2.273 -0.2431 -0.0598 -0.1286
31378W        W46225  11.848   4.610  14.667  0.1937  0.2706  0.0469
31379W        W46226  16.353   3.330  12.680 -0.0816 -0.0310  0.3631
31380W        W46227  14.533  16.846  12.195  0.2920  0.2614  0.0973
31381W        W46228  12.829   9.239   5.396 -0.2007 -0.2663  0.1209
31382W        W46229  14.258  10.724   6.124  0.4255 -0.0082  0.2089
31383W        W46230  11.740   4.305   6.615 -0.3075 -0.1435 -0.2660
31384W        W46231  11.672   0.277  12.734  0.1261  0.0268  0.0466
31385W        W46232  17.403   0.260   3.109  0.3652  0.0327  0.2772
31386W        W46233   5.613   9.307   3.984 -0.2514 -0.1423 -0.1779
31387W        W46234  16.600  13.888   4.745 -0.1180  0.2417 -0.0770
31388W        W46235  13.151  11.319   1.659 -0.2841 -0.1497 -0.2131
31389W        W46236  12.424   0.789   5.353  0.0799 -0.1121  0.0208
31390W        W46237  12.457   7.453   1.623 -0.0767 -0.2333  0.1811
31391W        W46238  10.736   7.146  12.451 -0.2162  0.2262 -0.1295
31392W        W46239   6.575   3.249  16.107 -0.1872  0.1811  0.4673
31393W        W46240  12.142  17.817  14.393 -0.2263 -0.2626 -0.0853
31394W        W46241  14.200   8.187   1.450 -0.0401  0.2050 -0.1976
31395W        W46242  13.294  10.908   3.950 -0.1496 -0.2224  0.0525
31396W        W46243  12.797   0.373   0.996 -0.0102 -0.0271 -0.0150
31397W        W46244   6.345  11.606  15.915 -0.0222  0.0679 -0.0225
31398W        W46245  15.092   6.261   3.220  0.2974 -0.0620  0.0630
31399W        W46246  12.677   7.455   6.041  0.1431 -0.1016  0.1921
31400W        W46247  15.924  10.105  15.062 -0.0475  0.2462 -0.0000
31401W        W46248   1.446   6.801   3.614 -0.1320 -0.1823 -0.1999
31402W        W46249  17.214  10.171   5.985  0.1079 -0.1073  0.4599
31403W        W46250  12.079   2.193   6.613 -0.0723 -0.0428 -0.1109
31404W        W46251  14.525   7.353   3.042 -0.0085 -0.0562  0.1674
31405W        W46252  16.365  15.773  15.044  0.3754 -0.1992  0.2408
31406W        W46253  15.201  13.448   2.082 -0.0031 -0.4366 -0.1032
31407W        W46254   8.615   9.366  15.231 -0.0317 -0.1134  0.0781
31408W        W46255  12.372   7.913   1.418 -0.2977 -0.1168  0.2121
31409W        W46256   1.381  16.046   2.853  0.0684  0.2639 -0.1659
31410W        W46257  10.188   7.241  16.857 -0.1539  0.1598 -0.0909
31411W        W46258  15.407   1.364   4.386 -0.1087 -0.0906 -0.3738
31412W        W46259  14.533   3.997   0.726 -0.2437  0.3414 -0.0944
31413W        W46260   1.125   9.316   0.614 -0.0464 -0.1909  0.0798
31414W        W46261   7.790   2.238  14.170  0.1474  0.2390  0.1190
31415W        W46262  11.652   5.645  13.378 -0.0002  0.1400  0.0826
31416W        W46263  15.371  17.934   4.594  0.1134  0.4182  0.0111
31417W        W46264  15.140   7.807  10.846 -0.0739  0.1254  0.0737
31418W        W46265  14.238   4.732   4.057  0.0395 -0.1932 -0.0206
31419W        W46266   0.166   0.087   1.141  0.2157  0.1679 -0.1323
31420W        W46267   3.058   0.059   5.161 -0.0252 -0.3208  0.1267
31421W        W46268  11.335  12.604   4.082 -0.0205  0.1457 -0.0967
31422W        W46269  14.466   9.251   0.539  0.3286  0.0693 -0.0310
31423W        W46270  16.883  13.043  12.803 -0.1250  0.0999 -0.1192
31424W        W46271  13.815  15.048  15.570 -0.3032  0.1445  0.0010
31425W        W46272  15.281  12.026   1.721 -0.0421  0.0977 -0.0657
31426W        W46273   9.993  11.178   3.735  0.0427 -0.4234 -0.0752
31427W        W46274  13.755   1.114   4.226  0.0304 -0.3407  0.1425
31428W        W46275  15.725  10.465  12.246  0.1371 -0.0073 -0.2944
31429W        W46276  11.247   7.235   5.961 -0.0137  0.4156 -0.1775
31430W        W46277  15.933   2.629   6.555  0.2946  0.0098 -0.2101
31431W        W46278  15.140   4.586   0.497 -0.2809  0.0251  0.0752
31432W        W46279  14.396  13.701   2.343 -0.0721 -0.0974  0.2479
31433W        W46280   8.150  10.115  14.913  0.1747  0.4255 -0.1030
31434W        W46281   2.241   7.326   3.257 -0.1446 -0.0183 -0.1842
31435W        W46282  14.613  17.623  13.218  0.0860 -0.1716  0.4158
31436W        W46283  12.382  15.045   0.496  0.0553 -0.0481 -0.0609
31437W        W46284  12.935   7.135   4.865 -0.0023  0.1900  0.1998
31438W        W46285  10.356  10.000  15.279  0.0355  0.0024 -0.3045
31439W        W46286  11.036   2.403  13.264  0.0039  0.0919 -0.1155
31440W        W46287   1.197  17.721  16.421 -0.0051 -0.0741 -0.2202
31441W        W46288  14.008   8.292  16.473 -0.1154  0.3939 -0.0373
31442W        W46289  17.222  16.952  14.040 -0.0161  0.0322 -0.3146
31443W        W46290   9.236   6.924   2.968 -0.0348 -0.1036 -0.2642
31444W        W46291  13.547   7.113  12.738  0.1752  0.1051 -0.1346
31445W        W46292  11.056  14.140  17.014  0.3757 -0.2618 -0.0129
31446W        W46293  12.363  17.039  15.645 -0.2282 -0.0029 -0.0876
31447W        W46294  11.316   2.490  10.954 -0.3677  0.0839 -0.0332
31448W        W46295  16.537   8.003  13.054  0.0422 -0.3110  0.0513
31449W        W46296  17.879   0.964   1.094  0.0068  0.3069  0.0760
31450W        W46297  14.680  10.828  16.458 -0.1311 -0.1623 -0.0358
31451W        W46298   8.844   8.760  16.059 -0.1791 -0.2228  0.3206
31452W        W46299   0.787   0.444   3.387  0.0381  0.0488 -0.0952
31453W        W46300   9.726   9.643  17.009 -0.0287  0.2744  0.0243
31454W        W46301   9.050   6.295  12.522 -0.1082  0.3014  0.0855
31455W        W46302   0.705   3.807   2.896  0.2847  0.2680 -0.2356
31456W        W46303   3.220  14.980  13.739  0.0304  0.2260  0.0211
31457W        W46304   1.012   8.120   4.170  0.2031 -0.1623  0.2207
31458W        W46305  13.043   7.239  12.929  0.0012 -0.1626 -0.0688
31459W        W46306   6.504   4.629  12.708 -0.0505 -0.0569 -0.2372
31460W        W46307  13.971  13.121  12.219  0.2349  0.0788  0.4077
31461W        W46308   1.117   2.179   5.875  0.2113  0.3524  0.0150
31462W        W46309  12.313   8.358  13.402 -0.1535  0.0495 -0.0628
31463W        W46310   2.928   3.035   1.159 -0.1486  0.0468 -0.2685
31464W        W46311  14.740   6.146   3.887 -0.0844 -0.0251  0.0801
31465W        W46312   8.874  15.714   0.117 -0.2111  0.1962  0.0793
31466W        W46313  16.925   2.017   3.099  0.0823 -0.1890  0.0231
31467W        W46314  16.188  17.233   0.584 -0.3329  0.0204 -0.0962
31468W        W46315  14.910  16.699  16.212 -0.2799  0.0458 -0.2540
31469W        W46316  13.168  17.215  13.041  0.3256  0.0795 -0.5715
31470W        W46317  11.781  11.587  13.490 -0.1816 -0.2330  0.1330
31471W        W46318   4.125  15.561   0.110 -0.0509  0.1831 -0.2690
31472W        W46319   2.120   7.551   1.043  0.2101 -0.1376 -0.3215
31473W        W46320   6.314  11.838  13.633  0.1466  0.1946  0.0563
31474W        W46321   9.314   7.369  15.963 -0.1065 -0.1711 -0.0529
31475W        W46322   2.043  10.582  12.695 -0.0649  0.3623  0.2429
31476W        W46323   9.707  16.709   3.906 -0.1929 -0.0347 -0.1530
31477W        W46324  11.013  11.595  13.746  0.1122  0.0739 -0.0614
31478W        W46325  13.553  14.690   0.807  0.0070 -0.2776 -0.1041
31479W        W46326   6.095  12.872   2.295  0.1716 -0.3394 -0.0981
31480W        W46327  14.435   3.533   1.542  0.2352  0.0537  0.1896
31481W        W46328  17.343  15.656   3.146 -0.2903  0.0592 -0.1212
31482W        W46329   6.862  15.119  17.088  0.2499 -0.1622  0.4001
31483W        W46330  13.325   1.714   6.903  0.0663  0.1720 -0.1180
31484W        W46331   7.163   7.757   0.099  0.0217  0.2408  0.1660
31485W        W46332  13.096  17.704   5.482  0.1442 -0.2523 -0.1785
31486W        W46333  15.247   0.056   2.299  0.1774  0.1138 -0.2808
31487W        W46334   1.242  13.220  12.606  0.1026  0.3490  0.1804
31488W        W46335  14.166   5.462   5.539 -0.0191  0.4385  0.1938
31489W        W46336   9.949   0.316  16.386  0.1321 -0.0201  0.0735
31490W        W46337  15.115  16.506  14.205  0.0663 -0.2193  0.2765
31491W        W46338  11.038  13.066   3.902  0.0596  0.0810 -0.0282
31492W        W46339  11.217  11.469  13.267 -0.0144 -0.2266  0.2268
31493W        W46340  10.148   5.362  16.513 -0.2438 -0.4269 -0.2404
31494W        W46341  13.437  10.086  13.176  0.2320  0.1845 -0.2746
31495W        W46342  13.885  17.486  12.096 -0.5601  0.0483 -0.2316
31496W        W46343   1.100   6.852  11.237  0.1721  0.0596 -0.2772
31497W        W46344  14.308  14.677   0.795  0.0565  0.1765  0.0266
31498W        W46345   6.121  17.608   3.056 -0.1437 -0.0127 -0.1839
31499W        W46346  15.681  10.741  11.459  0.0889  0.1208 -0.0521
31500W        W46347  13.604   0.872   1.971  0.1894  0.3516 -0.0964
31501W        W46348  13.936   3.390  13.944  0.0191  0.0196 -0.1029
31502W        W46349  12.468  12.250   2.612  0.1876  0.2381  0.2741
31503W        W46350  17.208   0.509  15.548 -0.0350 -0.3900  0.2202
31504W        W46351  15.157   4.309   3.840  0.0977 -0.0021 -0.0085
31505W        W46352  13.852  11.723   3.555  0.2726  0.1571 -0.2417
31506W        W46353   1.439  13.518  15.038 -0.1420  0.0120 -0.0042
31507W        W46354  17.067  17.074   0.219  0.1479 -0.1279 -0.1331
31508W        W46355  16.521   9.670  15.592  0.0967  0.2290 -0.0327
31509W        W46356   2.425   2.491  15.518  0.1585 -0.0800  0.0904
31510W        W46357  11.794  13.177  15.590  0.0639 -0.2456  0.1798
31511W        W46358   8.313  10.379  14.233  0.1535  0.2313 -0.1478
31512W        W46359   5.366  10.891  14.851  0.2090  0.5071 -0.1881
31513W        W46360   8.779  10.770   2.570  0.1123 -0.1013  0.0890
31514W        W46361  13.635   6.634   5.978 -0.0877  0.0782 -0.2776
31515W        W46362  13.874   1.065   1.519 -0.1010  0.1827  0.0975
31516W        W46363   7.665  12.520   4.858  0.0835  0.0937 -0.0024
31517W        W46364   8.986  15.729  10.598  0.0799 -0.0820 -0.1412
31518W        W46365  13.694   4.285  15.822  0.0791  0.1119 -0.2245
31519W        W46366  13.187   4.698  12.360 -0.0976 -0.1195 -0.0073
31520W        W46367  11.709  15.826   3.544  0.0913 -0.1289 -0.2657
31521W        W46368   7.364  14.771   0.921  0.2199  0.1753  0.1846
31522W        W46369   3.683   5.400  17.070 -0.0721 -0.0535  0.0379
31523W        W46370   1.069   9.547  13.488 -0.0066  0.3616  0.0300
31524W        W46371  17.918   4.676   1.937 -0.0303 -0.0319  0.2183
31525W        W46372  12.923   9.547  16.739  0.0913 -0.1100 -0.0749
31526W        W46373  14.645   4.136   6.503 -0.0394 -0.0166  0.0223
31527W        W46374   2.999   9.842  15.538 -0.1229  0.1143 -0.6971
31528W        W46375  11.832   8.505  13.455  0.0311 -0.1358  0.3113
31529W        W46376   2.012   2.455  16.365 -0.2434  0.1025 -0.0404
31530W        W46377  13.080   1.367   0.457 -0.1095  0.0126  0.2450
31531W        W46378  13.648   4.870  11.485 -0.1167 -0.0705 -0.2752
31532W        W46379  16.785  14.358  11.108  0.3222 -0.3179 -0.0117
31533W        W46380   4.386   5.483   4.761 -0.2928  0.1389 -0.0915
31534W        W46381  15.475   9.954   2.615  0.2009 -0.0403  0.2424
31535W        W46382   8.200  10.788  14.647 -0.1457  0.1920  0.1054
31536W        W46383   1.499  12.271   5.623  0.0008  0.2297  0.2608
31537W        W46384   0.095  17.163  13.927  0.0422  0.0207 -0.1052
31538W        W46385   0.737   9.108  13.263  0.1272 -0.2244  0.1664
31539W        W46386  14.487   0.506  13.565  0.1963 -0.0217 -0.1827
31540W        W46387  17.210  17.729  14.436 -0.0911 -0.1168 -0.0705
31541W        W46388  10.296   3.699   5.389 -0.0850  0.2862  0.0496
31542W        W46389   0.482   0.988   0.600 -0.0769  0.1290 -0.0765
31543W        W46390  16.171   3.692   4.545  0.1974  0.2817 -0.1530
31544W        W46391  14.786   3.987   4.306  0.0938 -0.0088 -0.1167
31545W        W46392  16.590   9.329   1.804 -0.1980  0.0335 -0.2845
31546W        W46393  17.169  17.441   5.337 -0.0404  0.0410  0.0021
31547W        W46394  10.860  14.362   4.391  0.1250  0.0413  0.4140
31548W        W46395  16.907   8.379  15.812  0.1426 -0.3785 -0.0406
31549W        W46396  15.261   7.731   1.907 -0.0577 -0.0219  0.0798
31550W        W46397   7.764   9.372   1.905 -0.0259 -0.0049  0.0825
31551W        W46398   0.869  12.013  14.397 -0.3127  0.1415  0.1220
31552W        W46399  15.236   2.210  13.651 -0.0319  0.2957  0.0129
31553W        W46400  12.807   6.220  15.038  0.1576  0.1973 -0.2392
31554W        W46401   8.657  11.119   1.590  0.2588 -0.2345  0.3240
31555W        W46402  10.294   3.950  12.782  0.2398 -0.0313 -0.3688
31556W        W46403   4.005  14.462  16.308 -0.0511 -0.1729  0.2060
31557W        W46404   1.499  17.556   6.368  0.0445 -0.0985 -0.1487
31558W        W46405  13.517  14.274   2.714 -0.0747 -0.0849 -0.0207
31559W        W46406  16.422  12.790  11.824 -0.3002 -0.1229  0.1478
31560W        W46407  17.938   2.457  12.186 -0.1992 -0.1274 -0.1507
31561W        W46408   0.447   5.605  14.656 -0.1373  0.1074 -0.2772
31562W        W46409   9.812   4.369  12.133  0.6652 -0.0931  0.1934
31563W        W46410  13.841   6.505  14.226 -0.1167  0.0206  0.0970
31564W        W46411  11.837   1.127  14.298 -0.0107  0.0463  0.1101
31565W        W46412   9.465  10.228   2.036  0.1659 -0.1313 -0.2420
31566W        W46413  15.877  11.418  10.054  0.0201  0.2511 -0.1828
31567W        W46414   0.304   2.879   3.074  0.0367 -0.1814 -0.1721
31568W        W46415   9.695   9.139   1.195  0.1964  0.0530 -0.2251
31569W        W46416  13.313  15.222   2.048 -0.1055  0.0519  0.0997
31570W        W46417   8.193  15.516  15.912 -0.2933  0.1620 -0.0073
31571W        W46418  14.005   0.487  11.183  0.1441 -0.1486 -0.0618
31572W        W46419   2.404   8.795   3.658  0.3606 -0.2442 -0.4823
31573W        W46420  15.273  16.440  17.092  0.1046 -0.3364  0.0428
31574W        W46421   2.218   0.450  12.110 -0.0281 -0.2590  0.1583
31575W        W46422  13.836   0.286   1.102  0.2972 -0.1985 -0.0344
31576W        W46423  10.201  15.228   0.259  0.0968  0.1229  0.0754
31577W        W46424  13.371   5.114   2.930 -0.3270 -0.0470  0.0249
31578W        W46425  10.057   2.423   0.294 -0.2151  0.2768  0.2276
31579W        W46426  11.120   5.146  16.288  0.0711  0.0350  0.0179
31580W        W46427   1.760  15.622  15.414 -0.3332 -0.2352  0.0790
31581W        W46428   1.590   2.815   4.021  0.0859  0.0610  0.0736
31582W        W46429  16.839   0.147  14.397  0.0140  0.1087 -0.2755
31583W        W46430  10.186   6.621   5.735 -0.1024 -0.2141  0.0597
31584W        W46431  13.419   8.561  12.685 -0.0696 -0.0787 -0.3371
31585W        W46432   9.182   4.813  15.215  0.0194 -0.2325 -0.1006
31586W        W46433  11.073  11.690   6.701  0.2494  0.2459 -0.0304
31587W        W46434   3.376   4.373  13.374  0.1590  0.2326  0.0508
31588W        W46435   8.927  11.411  13.318  0.0162 -0.0997 -0.0357
31589W        W46436  17.537   1.548  16.069 -0.0195  0.1942  0.0671
31590W        W46437  16.031   2.225  12.186 -0.2106  0.1972 -0.0103
31591W        W46438   4.887   0.862  15.031 -0.1896  0.0593 -0.0551
31592W        W46439  14.213  15.507  10.063 -0.4738  0.1516  0.1772
31593W        W46440  10.012  17.791  16.827 -0.2537  0.2164  0.3407
31594W        W46441  11.897  10.792   3.631 -0.1163 -0.3594  0.1134
31595W        W46442  16.625  10.230  13.358 -0.2122 -0.1147 -0.1284
31596W        W46443   7.286   3.682  11.892  0.1270 -0.0895  0.1324
31597W        W46444   1.893  14.238   0.231  0.1437 -0.0064  0.0947
31598W        W46445   4.407  14.928  13.467  0.0670 -0.2658 -0.0278
31599W        W46446  13.612   3.029   6.680  0.0906 -0.0203 -0.1464
31600W        W46447   0.841  14.887   1.034  0.2935 -0.0559  0.1149
31601W        W46448   3.337  17.034  13.435  0.1602 -0.0826  0.2488
31602W        W46449   6.890   3.388  16.487  0.0864 -0.0678  0.0677
31603W        W46450   9.218  10.622  14.914  0.0021  0.0882  0.1204
31604W        W46451  10.137   5.387  15.999 -0.2622 -0.4672  0.1473
31605W        W46452  13.955   0.503   0.282 -0.0970 -0.2094  0.3606
31606W        W46453   9.338  12.156   4.490 -0.1743 -0.0615 -0.1558
31607W        W46454  11.570   4.202   2.964  0.3327 -0.2214  0.1391
31608W        W46455  16.987  14.676   0.997 -0.0246 -0.2383 -0.2312
31609W        W46456  14.789  16.301  14.952 -0.1570 -0.1687 -0.1821
31610W        W46457  12.444  16.746   2.209  0.1927  0.1114  0.2102
31611W        W46458  14.217  10.812  12.486  0.1748  0.0383  0.2257
31612W        W46459  16.265  17.093  11.709 -0.3541  0.0644  0.1969
31613W        W46460  17.720   7.383   3.841 -0.2272  0.0746 -0.1804
31614W        W46461  13.933  10.267   3.680 -0.0140  0.0311  0.1010
31615W        W46462  13.485   0.419  13.757  0.3225 -0.0685  0.2363
31616W        W46463  13.902  15.581  13.711  0.0940 -0.3236 -0.0841
31617W        W46464   0.229  16.047   3.210 -0.3761  0.1689  0.2520
31618W        W46465  15.463  11.282  11.049 -0.0083 -0.2587 -0.0309
31619W        W46466  12.211  11.564   4.295 -0.5042 -0.0514  0.3352
31620W        W46467  10.504  10.962  11.976 -0.0639  0.0177 -0.0380
31621W        W46468  14.806  14.446  16.154  0.0712  0.1665  0.2590
31622W        W46469   4.676   8.832  14.307  0.0617 -0.1405 -0.0072
31623W        W46470  11.205  13.513  15.875  0.0380  0.0871 -0.0299
31624W        W46471  10.227   7.018   1.338  0.1173 -0.4189  0.1689
31625W        W46472   5.502   3.226   5.376  0.0907  0.5822 -0.0246
31626W        W46473   0.226   4.387  11.604 -0.0021 -0.0451  0.1835
31627W        W46474   5.604  14.291   5.730 -0.3855 -0.0760 -0.1249
31628W        W46475   8.066  13.415   0.087 -0.2501  0.0340 -0.0662
31629W        W46476  12.740   4.847   1.370  0.1254  0.1729  0.1364
31630W        W46477  12.536   7.985   4.124  0.2930 -0.0248  0.2718
31631W        W46478  12.825  13.729  10.674 -0.1576 -0.0697  0.1679
31632W        W46479  14.974   4.715  11.202  0.2338 -0.1353 -0.0098
31633W        W46480  17.628   8.069   4.185  0.0825  0.0148  0.0326
31634W        W46481  17.668   0.500  12.627 -0.2775 -0.3443 -0.1187
31635W        W46482   7.665   1.689  12.897  0.2363  0.1238  0.1316
31636W        W46483   5.963  12.598   3.756 -0.2906 -0.1599 -0.2114
31637W        W46484   3.510  15.427   3.042 -0.0215  0.0883  0.0485
31638W        W46485  13.903   4.482  16.216  0.1361  0.2984 -0.0218
31639W        W46486   9.529  14.749   5.040 -0.0015 -0.3371 -0.2348
31640W        W46487  16.767   7.812  13.614  0.4597  0.0465 -0.1213
31641W        W46488   4.775   4.564  14.525 -0.0182 -0.0318  0.0194
31642W        W46489  16.450  11.296   4.960 -0.2177 -0.0560  0.3597
31643W        W46490  14.011  14.431   2.721 -0.2563 -0.0364  0.1191
31644W        W46491  12.734   1.626  16.609 -0.2005 -0.1040  0.0341
31645W        W46492  15.447  10.145  14.003  0.0639  0.3731 -0.0270
31646W        W46493  15.176   7.266   0.984  0.0019 -0.0967  0.4007
31647W        W46494  11.531   4.201   6.143 -0.2744  0.1161 -0.1407
31648W        W46495  10.721  14.926   0.108  0.0981  0.0248 -0.1267
31649W        W46496   4.154  10.134  13.663 -0.0944 -0.1649 -0.0959
31650W        W46497  10.979  11.680   6.197  0.1641  0.1936 -0.1325
31651W        W46498  15.056  15.509   5.505  0.2170  0.1961  0.0824
31652W        W46499  10.158   5.118   2.148 -0.1435 -0.0794 -0.0751
31653W        W46500   9.231   0.768   3.834 -0.1510  0.0169 -0.0721
31654W        W46501   2.219   2.453   0.626  0.2085 -0.3354  0.0906
31655W        W46502   2.918   5.902   3.042  0.0778 -0.1455 -0.0525
31656W        W46503  17.158   9.677   0.611 -0.3165 -0.2775  0.4375
31657W        W46504  13.634   4.792  15.866 -0.0189  0.1888 -0.0272
31658W        W46505  11.453  14.204  13.946  0.2233  0.2026 -0.1623
31659W        W46506   0.688  16.318   2.402  0.0095  0.1325 -0.0129
31660W        W46507   0.185   0.612   2.861  0.1620  0.2267  0.0046
31661W        W46508  15.148   6.751   6.779 -0.1663  0.0867  0.0835
31662W        W46509   3.565  16.786  14.577 -0.1070 -0.1350  0.0979
31663W        W46510  12.450  11.430   2.039 -0.1949 -0.3009  0.2984
31664W        W46511   7.513   2.267   1.256 -0.1886 -0.0817 -0.1885
31665W        W46512   4.875  10.687  16.494 -0.1251  0.1499  0.0532
31666W        W46513  14.444  13.077  13.411 -0.0868 -0.1858  0.1213
31667W        W46514   5.901   6.517  12.552 -0.1873  0.1065 -0.2290
31668W        W46515  11.994  17.514  14.021  0.2346  0.0147  0.0581
31669W        W46516  10.218  17.263  16.782 -0.0692 -0.0101  0.0530
31670W        W46517   4.634   5.525  13.026 -0.3574  0.1591 -0.1156
31671W        W46518  17.611   8.511   3.107  0.0598 -0.0106 -0.2719
31672W        W46519  15.937  12.663  16.720 -0.2003 -0.1000 -0.1008
31673W        W46520  15.349   4.029  15.889 -0.0519  0.0590 -0.6478
31674W        W46521  16.100  14.044  11.727 -0.2175 -0.2143  0.2128
31675W        W46522   8.392  12.174   1.339 -0.1140  0.0320 -0.0653
31676W        W46523  12.183   6.028  10.571  0.4034  0.1544  0.0398
31677W        W46524  15.730   1.173   0.519  0.1701 -0.0465  0.1263
31678W        W46525  12.814   4.663   2.859  0.1182  0.3134 -0.2024
31679W        W46526  13.095  15.785   0.319 -0.1389  0.2778 -0.2697
31680W        W46527  14.723   8.053   1.479  0.0071  0.0664 -0.3198
31681W        W46528   9.902   3.718   3.642  0.0225  0.0152  0.1517
31682W        W46529  11.315   8.826   5.049  0.0644  0.3396 -0.1337
31683W        W46530  13.877  15.243  16.817 -0.1097 -0.2473  0.0929
31684W        W46531  12.242  17.694  14.895 -0.1823  0.2575  0.1414
31685W        W46532   2.549   0.756  15.122 -0.0909 -0.1617 -0.1608
31686W        W46533  10.075   0.749  14.094  0.0158  0.2318  0.0054
31687W        W46534  14.135   1.823   2.852 -0.1940  0.0802 -0.0488
31688W        W46535  11.693   9.522  16.152  0.1113  0.1918  0.0366
31689W        W46536   0.322   6.315   2.412 -0.0473 -0.2747  0.0851
31690W        W46537  14.612   0.930   4.752  0.0869 -0.3342  0.1865
31691W        W46538   0.508   1.851   0.002  0.1554 -0.2168  0.4346
31692W        W46539  14.975   3.990   6.181  0.0691  0.3589  0.1104
31693W        W46540   6.297  10.095  13.564  0.0172 -0.2128  0.1266
31694W        W46541  11.189   5.414  14.864 -0.2165 -0.3318  0.2347
31695W        W46542  14.353  17.628  16.519  0.0871  0.1961 -0.2771
31696W        W46543   4.188   2.052   2.772 -0.2098  0.0397  0.1835
31697W        W46544  13.350   5.206  14.688  0.1945 -0.1751  0.1929
31698W        W46545  16.453   4.777   6.393  0.0076 -0.0140  0.0897
31699W        W46546  10.178  12.327   2.338 -0.0346  0.2015 -0.0277
31700W        W46547  17.758   8.043  14.630  0.2922 -0.0123 -0.3027
31701W        W46548  17.304  14.209  12.990 -0.2971 -0.0408  0.1755
31702W        W46549   2.378   1.291  15.544 -0.2206 -0.1157  0.1966
31703W        W46550   4.125  14.205  16.747 -0.0164 -0.0686 -0.0954
31704W        W46551  17.315  11.420   1.879  0.1309  0.0197  0.0239
31705W        W46552  12.720   0.513  11.253 -0.3886  0.1001  0.0139
31706W        W46553   5.504  14.133   5.267  0.1956 -0.1200 -0.0526
31707W        W46554  14.341  17.439   3.831  0.0677  0.0443  0.2709
31708W        W46555  15.781  11.668  13.769  0.2832  0.2378 -0.3641
31709W        W46556  14.437   1.385  13.547 -0.1897 -0.1120  0.1415
31710W        W46557   5.338  13.449   1.317 -0.0658  0.3152  0.0098
31711W        W46558  10.483  11.954  11.832 -0.0848  0.1521  0.0024
31712W        W46559   0.943   9.136   5.871  0.0467 -0.1145 -0.0457
31713W        W46560  15.683   9.021  12.357 -0.2847 -0.4596  0.8410
31714W        W46561  15.790   9.335   0.843  0.0647 -0.1040  0.0646
31715W        W46562  17.237   5.232  13.810 -0.1092 -0.5006 -0.2677
31716W        W46563  15.462  10.946  15.714 -0.0398 -0.2890 -0.0086
31717W        W46564  17.414   6.735   5.015  0.0675  0.2267 -0.5230
31718W        W46565  10.762  11.205  13.382  0.0213 -0.1889  0.1299
31719W        W46566   0.240   8.550  12.058 -0.0168 -0.2173  0.1639
31720W        W46567  13.796   8.293  14.055  0.1554 -0.1413 -0.2454
31721W        W46568  15.425  14.448   1.716 -0.0596  0.0513  0.1007
31722W        W46569   1.408   5.431  15.942  0.4604 -0.0822 -0.4947
31723W        W46570   0.752   3.285   5.435  0.1164  0.1768  0.1429
31724W        W46571  14.373  13.404   1.434 -0.2336 -0.0049  0.0137
31725W        W46572  10.143  14.458  16.797 -0.2658  0.0631 -0.2555
31726W        W46573  15.331   9.880   1.274 -0.0146  0.2484 -0.2453
31727W        W46574   3.806   5.925   0.017 -0.0230 -0.0221 -0.5936
31728W        W46575  13.644   1.335  10.442 -0.1782  0.1922 -0.4381
31729W        W46576   6.370  17.720  16.119 -0.0643 -0.0295 -0.3132
31730W        W46577   1.440  16.967  13.839  0.0544 -0.0940  0.1381
31731W        W46578   7.893   3.959   2.467 -0.2098  0.0425  0.2686
31732W        W46579  13.392   5.944   4.213 -0.2094  0.1820 -0.3675
31733W        W46580   3.078   3.358   3.421 -0.1077  0.0240  0.0362
31734W        W46581   4.141  15.377   2.971  0.1357  0.2075  0.0242
31735W        W46582  17.933   0.408  11.706  0.0939 -0.1226 -0.2273
31736W        W46583  13.471   3.713  12.111 -0.0078  0.2357  0.2302
31737W        W46584  14.587   0.522   4.462 -0.1020 -0.1707 -0.0446
31738W        W46585  14.651   5.701  13.703 -0.1764 -0.3270 -0.0850
31739W        W46586   0.174   9.645  14.667  0.1356  0.5573  0.0995
31740W        W46587  13.824   0.690  12.746 -0.0281 -0.2017  0.0906
31741W        W46588  12.880   0.513  15.252  0.0171 -0.1972 -0.2828
31742W        W46589  17.162   3.499  14.718 -0.2434 -0.2099  0.1517
31743W        W46590   1.166   9.048  13.566 -0.2179  0.1132  0.0168
31744W        W46591  15.482  12.902  11.316  0.4440 -0.0869  0.2457
31745W        W46592   3.010   4.488   3.944 -0.0421  0.4224  0.0921
31746W        W46593   5.492  17.952  14.446 -0.1241  0.2416  0.0766
31747W        W46594  17.453  16.659   2.736  0.2931 -0.2287  0.1632
31748W        W46595  16.424   9.544   6.404  0.0790 -0.0025  0.0174
31749W        W46596  16.704  12.814  12.252 -0.1995  0.1512  0.0230
31750W        W46597  12.087  15.893   5.616 -0.1334  0.2018  0.1263
31751W        W46598   5.672  14.899   1.729  0.0557 -0.0119 -0.0592
31752W        W46599  15.737   0.079   2.221  0.1424 -0.1102  0.2003
31753W        W46600   0.709   7.564  15.297  0.0078  0.2533 -0.1122
31754W        W46601   9.309   6.142  16.834 -0.2301  0.2337 -0.2250
31755W        W46602  12.220   9.831   5.889  0.2202 -0.0750  0.0035
31756W        W46603  13.480   3.508  11.357 -0.1817 -0.0040  0.1498
31757W        W46604  17.782  11.111   5.419  0.1334  0.0863  0.1195
31758W        W46605  15.484  14.346   3.305 -0.0131 -0.0344 -0.1262
31759W        W46606  14.998   4.671  17.101  0.4336  0.0944  0.1278
31760W        W46607  17.530   7.457   2.447  0.1336  0.0882 -0.0310
31761W        W46608  10.179   3.149   2.584  0.0820  0.3029 -0.2918
31762W        W46609   0.399   2.646  14.720  0.2420  0.0337  0.1116
31763W        W46610  13.992   2.963  14.242  0.3196 -0.0607  0.3319
31764W        W46611  14.953  13.264  13.511 -0.4007  0.0839 -0.0518
31765W        W46612  13.902   8.947  14.555  0.1191 -0.1026  0.1152
31766W        W46613  13.718   4.249  12.796  0.0486  0.0576 -0.0128
31767W        W46614   5.308  10.746  16.298 -0.1759 -0.0539 -0.0273
31768W        W46615   9.348  12.235  12.527  0.1503  0.0397 -0.1265
31769W        W46616  10.201  13.749   2.701  0.1417  0.1166 -0.3163
31770W        W46617  13.686   5.999  16.867 -0.1032  0.0969 -0.1541
31771W        W46618   6.887   8.216  16.932  0.1246  0.2455  0.1389
31772W        W46619  15.760  11.230  17.015  0.0140  0.0694 -0.3094
31773W        W46620  13.867   8.449  16.906 -0.0780  0.1782  0.2788
31774W        W46621  12.227  16.723   2.666  0.0316 -0.1090 -0.0800
31775W        W46622   8.548   5.868  14.369  0.4587  0.0040 -0.0349
31776W        W46623   0.997  16.739   4.597 -0.1312  0.1706  0.0720
31777W        W46624  13.509  15.930  10.001 -0.1090 -0.2323  0.0118
31778W        W46625   4.323   6.663   1.750 -0.0581 -0.0574  0.1098
31779W        W46626  10.709   4.032  11.529 -0.1373 -0.0130 -0.0144
31780W        W46627  12.750   0.612  12.489 -0.1538  0.0910  0.0711
31781W        W46628  11.592   4.517   0.805  0.4559 -0.2602 -0.1066
31782W        W46629   0.102   2.888   1.121 -0.0682  0.1301  0.0471
31783W        W46630  12.473  12.461  16.258 -0.0350  0.0009 -0.3070
31784W        W46631  13.835   3.021   2.463 -0.3208  0.2428 -0.1496
31785W        W46632  13.867  12.951   4.858 -0.0973 -0.1874  0.0476
31786W        W46633   8.229   2.192  17.083  0.0018 -0.0532  0.0425
31787W        W46634  15.062  14.320   6.232 -0.1176  0.2607  0.1604
31788W        W46635  12.914   4.107   4.172 -0.1753  0.1712 -0.1468
31789W        W46636  13.947   8.597  14.866  0.0684 -0.0673  0.0575
31790W        W46637  12.817   7.367  12.488 -0.0557 -0.1224  0.1343
31791W        W46638  12.842   5.217  10.879  0.0075  0.2857 -0.0897
31792W        W46639   8.791   4.909   6.344 -0.3054 -0.3161  0.5047
31793W        W46640   2.102   2.865  14.198 -0.0541 -0.3213  0.0745
31794W        W46641  15.675  14.055   0.953  0.2165 -0.1637  0.0573
31795W        W46642   4.534   0.098  15.817 -0.3851  0.0847 -0.0102
31796W        W46643  11.526   3.876  16.580  0.0843  0.1750  0.3103
31797W        W46644  17.829   8.734   1.386  0.1867  0.0528  0.3189
31798W        W46645   3.602   9.696  16.576 -0.4561  0.0978 -0.1644
31799W        W46646  13.166   4.427   5.934  0.1201 -0.0453 -0.3433
31800W        W46647   8.040   5.141   3.236 -0.2366 -0.1835  0.1566
31801W        W46648  16.102  13.257  14.282  0.1557  0.1731  0.0201
31802W        W46649  14.601   8.673  12.425  0.0474  0.0129 -0.1571
31803W        W46650  16.286   2.577  10.261 -0.0322 -0.2850 -0.0721
31804W        W46651  16.929   7.523   2.631 -0.1751 -0.1279 -0.1094
31805W        W46652  17.661   0.444  14.001  0.2489  0.1682 -0.0197
31806W        W46653  14.025   8.547  15.944  0.1757 -0.0376 -0.1894
31807W        W46654   9.703  12.314  15.456  0.1046 -0.2027 -0.2472
31808W        W46655  17.659  10.886  11.939  0.1752 -0.1661  0.0942
31809W        W46656  14.219  11.843   5.489  0.0670  0.1609 -0.0022
31810W        W46657  13.176  10.554  12.370 -0.1936 -0.0392 -0.1174
31811W        W46658   2.052  11.709   3.860 -0.2457  0.1469  0.2336
31812W        W46659  10.348   3.894   1.826  0.1898 -0.0769  0.0830
31813W        W46660   1.345   3.126  14.962 -0.0595  0.0692 -0.5099
31814W        W46661  15.467   5.592   5.438  0.1349  0.0934 -0.1736
31815W        W46662  12.143   5.333  14.219  0.1821  0.3869 -0.1261
31816W        W46663  12.652  12.845  14.990 -0.1655  0.2388 -0.0296
31817W        W46664  16.126   4.173   3.780  0.0298 -0.0053  0.1834
31818W        W46665  14.690   8.336  13.980 -0.2995 -0.0334 -0.3027
31819W        W46666  11.577   3.800   3.836 -0.1988 -0.2897  0.0454
31820W        W46667  15.000   6.229  10.939 -0.4259 -0.1347 -0.1191
31821W        W46668  16.853  13.523  15.854  0.1818 -0.0352  0.2739
31822W        W46669  13.501   5.818  12.721  0.0958  0.2017 -0.3150
31823W        W46670   2.102   4.064  13.157  0.0061 -0.2415 -0.0787
31824W        W46671   9.024   3.824  16.992  0.2065 -0.1742 -0.1390
31825W        W46672  12.465   6.669   5.456  0.0201  0.0927  0.1668
31826W        W46673  12.310  16.167  13.017 -0.0649 -0.0326  0.2309
31827W        W46674   1.380   1.923  14.147  0.0125  0.0790 -0.1016
31828W        W46675  13.151   7.448   5.722  0.2614 -0.0683  0.2435
31829W        W46676  15.620  16.210  12.708 -0.0621  0.1242 -0.1903
31830W        W46677   5.116  10.740   4.856  0.0014  0.1098  0.1633
31831W        W46678  15.390   5.050   1.883 -0.2034  0.2886  0.1539
31832W        W46679   7.218   7.821   2.747  0.0573  0.1215 -0.2206
31833W        W46680   2.429   6.774   3.921 -0.2035  0.2877 -0.1090
31834W        W46681   9.559   5.382  16.941  0.1805 -0.1326 -0.1327
31835W        W46682  13.830  15.420   1.211 -0.2031  0.1024 -0.1216
31836W        W46683   7.821  10.657   2.513  0.1599  0.0993 -0.0222
31837W        W46684  16.113   3.682   5.467  0.1257  0.1602  0.1371
31838W        W46685  13.743  16.125   1.219  0.1647  0.0622 -0.0029
31839W        W46686   2.160  13.517   5.235 -0.1825  0.2892 -0.0794
31840W        W46687  12.344  10.600   3.674 -0.2491 -0.1903  0.4229
31841W        W46688  13.994   4.319   2.664 -0.0244  0.1139 -0.2671
31842W        W46689   0.965  17.826  14.823  0.1870  0.1536 -0.3976
31843W        W46690   0.356   1.614  14.786 -0.1838  0.0951 -0.0500
31844W        W46691  17.738  11.178   3.475  0.2664  0.2196 -0.0777
31845W        W46692  12.039   5.835   2.997 -0.2606  0.0706  0.2536
31846W        W46693   5.050  12.111   5.135 -0.3287  0.0032 -0.3442
31847W        W46694  16.467   8.946   6.130  0.1369  0.1057  0.2482
31848W        W46695  12.697   7.371  13.761  0.1291  0.1927 -0.1403
31849W        W46696   7.957   8.620  13.648 -0.0276 -0.1016  0.0243
31850W        W46697  16.216  10.844  16.773  0.0003  0.2470 -0.3522
31851W        W46698  12.697   3.200  11.916  0.2520  0.1535 -0.0855
31852W        W46699  15.252   0.726   1.133  0.1914 -0.0444 -0.0084
31853W        W46700  14.048  14.651   4.304 -0.0084 -0.1838  0.3234
31854W        W46701   1.221   0.305   5.711 -0.2313  0.0504  0.2062
31855W        W46702  10.439   0.827   2.628 -0.1110 -0.2402 -0.0898
31856W        W46703   6.686   4.405   5.490  0.3396  0.1200 -0.0674
31857W        W46704   0.555  12.178   4.141 -0.1977  0.0699 -0.0849
31858W        W46705  17.011   4.855  13.584 -0.0573 -0.0195  0.1016
31859W        W46706   0.273   2.007   0.512 -0.2698 -0.4357  0.2130
31860W        W46707   8.757  13.405  16.973 -0.4199  0.2994  0.0349
31861W        W46708  10.651   3.800   6.403 -0.0668  0.0269 -0.1206
31862W        W46709   0.030  16.584   1.760 -0.2649  0.2979  0.0873
31863W        W46710  12.990  12.748  13.102  0.0305 -0.0833  0.1819
31864W        W46711   4.117   7.064  12.554 -0.1463  0.0728 -0.2339
31865W        W46712   0.197  17.334   4.816 -0.0041 -0.0075 -0.0335
31866W        W46713  16.561   9.966  11.082  0.3933  0.1975  0.1520
31867W        W46714  16.346   7.683  15.641  0.2352  0.3674  0.0572
31868W        W46715  17.151   5.541  16.855 -0.0457  0.1257  0.0494
31869W        W46716  15.661  12.572  10.990  0.1290 -0.0827  0.1844
31870W        W46717  16.534  15.217   5.242  0.1326 -0.1844 -0.0338
31871W        W46718   0.092   8.505  11.203  0.1128 -0.2053  0.2748
31872W        W46719  10.565   0.053  11.363 -0.0426 -0.2142 -0.0644
31873W        W46720  15.020  15.971  16.641  0.3209  0.0718  0.2339
31874W        W46721  16.649  17.513   5.270 -0.4179  0.1828  0.2524
31875W        W46722   2.852   4.075   0.142  0.1804  0.0519  0.0811
31876W        W46723   0.766   7.240   3.747 -0.3548  0.3878 -0.0068
31877W        W46724   0.474   1.582   1.538  0.0103 -0.3087 -0.1154
31878W        W46725   1.874   9.032   2.366  0.0423 -0.3272  0.1729
31879W        W46726  14.012   6.508   0.872 -0.0336  0.0515  0.0113
31880W        W46727  14.792   8.283  11.606  0.0583  0.0495 -0.0907
31881W        W46728  12.276  15.288  11.515 -0.0818  0.6303 -0.3112
31882W        W46729   9.022  17.910  14.905  0.1614 -0.2087  0.2383
31883W        W46730  17.251  11.947   2.160 -0.1658 -0.3859 -0.1114
31884W        W46731  16.541   6.242   6.302 -0.0636 -0.0389 -0.2972
31885W        W46732   8.819   6.775   2.661 -0.0698 -0.1712  0.2870
31886W        W46733  17.341   5.205   4.043 -0.1402  0.1016  0.1094
31887W        W46734   0.402  10.696   2.940 -0.2134  0.2256  0.2068
31888W        W46735  11.213  10.483  15.428 -0.0735  0.1151 -0.0720
31889W        W46736  17.858  14.787  16.480  0.1771  0.2477  0.2997
31890W        W46737  14.281   0.315  14.009  0.1747 -0.1462 -0.1102
31891W        W46738  14.021   3.366   4.073  0.0115  0.1885 -0.0214
31892W        W46739  15.501   4.191   5.552  0.1198 -0.2885  0.1095
31893W        W46740  13.422   1.250  13.839 -0.1817 -0.3342 -0.0178
31894W        W46741   1.275  14.810   0.875  0.1685 -0.0186  0.2901
31895W        W46742  16.779   0.741  15.202  0.3339 -0.4468  0.1742
31896W        W46743  16.909   1.982   1.297 -0.0408 -0.1010 -0.0239
31897W        W46744   6.037   4.423  12.494 -0.2054 -0.2364  0.0112
31898W        W46745  14.996  15.391  16.081  0.1165  0.3454 -0.0060
31899W        W46746  17.249  13.434   4.475 -0.0029 -0.0541 -0.0717
31900W        W46747  16.201  10.931  13.783  0.1423 -0.0270  0.1056
31901W        W46748   5.451   6.002  14.141  0.2665 -0.0034  0.3823
31902W        W46749   6.551  13.095  14.053  0.2052  0.0106  0.0877
31903W        W46750  10.854  12.399  16.483 -0.0082 -0.0378  0.1854
31904W        W46751  10.859   7.061   3.474 -0.3102  0.2367  0.3419
31905W        W46752  14.373   1.831  13.214  0.0267  0.1957 -0.3041
31906W        W46753  17.569   0.438  16.653  0.1291 -0.0118  0.2607
31907W        W46754   9.690  13.040   1.936  0.0183 -0.3040  0.1263
31908W        W46755  12.519  17.501  17.072 -0.2089 -0.3554  0.2272
31909W        W46756  12.309   8.316   1.673  0.1445  0.1156 -0.0754
31910W        W46757  11.420   3.877   0.023 -0.1291 -0.1603  0.1243
31911W        W46758  15.887  14.529  12.562  0.0361 -0.2503  0.1137
31912W        W46759  14.594   6.331   3.418 -0.0075  0.0085 -0.1434
31913W        W46760  13.604  13.681   4.432  0.2218  0.0911 -0.1162
31914W        W46761   9.809  13.794  16.292  0.1866 -0.1259  0.0541
31915W        W46762   9.979   1.643   2.369 -0.1800 -0.0763  0.1173
31916W        W46763  17.276   8.056  12.232  0.1240 -0.2163  0.0017
31917W        W46764  17.723  15.378  11.451 -0.3128 -0.1167 -0.0794
31918W        W46765  16.033   9.614   1.322  0.0461  0.2921  0.0501
31919W        W46766   8.256   8.789  15.404 -0.0488  0.1531  0.1831
31920W        W46767   3.896  10.575  14.962  0.0626  0.1230 -0.0004
31921W        W46768  16.661  10.544   1.972  0.0353  0.0092  0.1071
31922W        W46769   0.134   7.547  15.917  0.4416  0.2586  0.1182
31923W        W46770  13.404  15.622  14.136 -0.0338 -0.0444 -0.0010
31924W        W46771  17.277  14.541  10.618 -0.3137 -0.0969  0.0200
31925W        W46772   6.427   8.980   2.634  0.0040 -0.0395  0.1507
31926W        W46773  13.091   6.071   1.760 -0.0214 -0.1442 -0.2187
31927W        W46774  13.373   1.235  13.315 -0.0949 -0.3005 -0.2071
31928W        W46775  17.285  10.507  14.677 -0.0352 -0.1530  0.1515
31929W        W46776   3.203   0.048   3.491 -0.0237  0.1777 -0.6404
31930W        W46777  15.653   9.610  17.033  0.1912 -0.0387 -0.1090
31931W        W46778  14.261  13.881  11.864 -0.0211  0.2263 -0.1129
31932W        W46779  15.581   8.250   2.735  0.0604 -0.1484  0.3287
31933W        W46780   1.088   3.206  16.237 -0.2800  0.3472 -0.0266
31934W        W46781  17.913   6.860   2.812 -0.0327  0.0266 -0.0548
31935W        W46782  13.806  11.367   0.519  0.1632  0.3684 -0.1532
31936W        W46783  13.804   0.436  14.764  0.0886  0.0684  0.1580
31937W        W46784  12.167   3.983   1.281  0.2184 -0.2724  0.1789
31938W        W46785   9.953   5.484  15.412 -0.0928 -0.1089 -0.1021
31939W        W46786  13.128   3.366  12.196 -0.0873 -0.2089  0.0798
31940W        W46787  12.350   3.429  16.432 -0.3781 -0.2159  0.2192
31941W        W46788   0.816  16.326  13.610  0.1071  0.0521 -0.4298
31942W        W46789  13.097   1.854  10.978  0.0255 -0.0277 -0.0407
31943W        W46790  10.220   6.314   6.172  0.2809 -0.1846 -0.3490
31944W        W46791  14.569  10.200  10.905 -0.0539  0.4704  0.1594
31945W        W46792  16.853   7.566  13.194  0.0624  0.0977  0.1721
31946W        W46793  12.379  10.208  16.559  0.1578 -0.1929  0.2250
31947W        W46794  12.984   0.236   1.474 -0.0130 -0.4021 -0.2541
31948W        W46795   6.944  10.287   2.233 -0.0274 -0.0355 -0.1296
31949W        W46796   1.511   8.414  16.310 -0.2058  0.1146  0.2362
31950W        W46797   5.123  12.269   1.405  0.0539  0.1031  0.0925
31951W        W46798  12.407  10.213   0.027  0.3656 -0.1566  0.1486
31952W        W46799  10.681  10.474   3.422 -0.0479 -0.0018 -0.0057
31953W        W46800  17.226  13.675  15.530  0.0271  0.0331  0.0143
31954W        W46801  12.909  12.654   3.878 -0.0754 -0.2990  0.0745
31955W        W46802  11.583   4.242   4.601 -0.0252 -0.1344  0.0197
31956W        W46803  17.140  10.895  15.356 -0.3877 -0.0051  0.1602
31957W        W46804   4.055  16.811  13.995  0.0648  0.3026  0.0058
31958W        W46805   1.128  12.047  16.079  0.3280 -0.1297 -0.1203
31959W        W46806  14.082  17.866  12.436  0.3689 -0.2248  0.1663
31960W        W46807  16.448  10.834  10.957  0.1233  0.0794  0.0635
31961W        W46808  15.201  12.141   1.218  0.1468  0.0045 -0.0523
31962W        W46809   9.710  12.211  13.793  0.1659  0.1587 -0.0482
31963W        W46810   1.179  12.299   4.565 -0.4370  0.0822 -0.2916
31964W        W46811  12.823  17.513   1.684  0.2106 -0.3030  0.1999
31965W        W46812  17.670   3.887  10.455  0.0242  0.0955 -0.1384
31966W        W46813  14.420  10.276  13.296  0.1569  0.0589  0.2708
31967W        W46814  14.943   0.394  14.740  0.1416  0.0416  0.4255
31968W        W46815  16.685   7.559   4.710  0.1384 -0.1395 -0.2408
31969W        W46816  16.727  10.605   0.886 -0.2963  0.0077  0.0296
31970W        W46817  13.430  16.093   5.786 -0.1037  0.1135 -0.2807
31971W        W46818   9.985   4.694  13.794  0.1117 -0.2262  0.2258
31972W        W46819  15.448  13.842  16.435  0.0634 -0.1829 -0.1201
31973W        W46820   3.442   2.769   1.875 -0.1975  0.2262 -0.1115
31974W        W46821   8.804   8.124  16.515 -0.0811 -0.0390 -0.1195
31975W        W46822  10.115  13.402   1.258 -0.2232 -0.0157 -0.0998
31976W        W46823  16.766  15.638  11.213 -0.1438 -0.1005  0.1924
31977W        W46824  13.022  15.445   3.176  0.0299  0.2866  0.3278
31978W        W46825  11.363   0.672   2.174 -0.0681  0.1948 -0.0531
31979W        W46826   0.019  12.736  14.948  0.1325 -0.0998  0.2960
31980W        W46827  13.206   8.518  11.439 -0.0463 -0.0681 -0.0433
31981W        W46828   1.718  16.384  16.061 -0.3637 -0.1028 -0.3236
31982W        W46829  15.188   7.080   3.719  0.1458 -0.0473  0.1123
31983W        W46830  16.172  12.565  12.302 -0.0189  0.1061 -0.1330
31984W        W46831  16.967   4.727  16.218 -0.2763  0.0756  0.1792
31985W        W46832  13.813   1.070  15.518  0.4392  0.0370 -0.1480
31986W        W46833   9.713  16.131  15.502 -0.1940 -0.1333  0.1876
31987W        W46834   6.979   5.171   3.943  0.1085 -0.3174 -0.1065
31988W        W46835  13.443  12.872  14.181  0.2548 -0.0982  0.2438
31989W        W46836   2.445   7.037  15.537  0.2671  0.1726  0.3152
31990W        W46837  16.971   0.512   3.129  0.0385  0.2706 -0.0168
31991W        W46838  10.640  15.948   4.002  0.1243 -0.2969  0.1007
31992W        W46839  14.733   5.782   5.439  0.0290 -0.0866 -0.3421
31993W        W46840   6.826   6.064   3.621 -0.0810  0.0545 -0.2764
31994W        W46841   9.812   6.616  13.132 -0.1705 -0.1196 -0.0294
31995W        W46842   2.015  15.560  13.013 -0.0505  0.1483 -0.0398
31996W        W46843   0.237  11.211  14.307  0.0811 -0.0474  0.2990
31997W        W46844  15.127  13.294   0.772  0.0575  0.0220 -0.3120
31998W        W46845  13.158   3.187   1.440 -0.3055  0.0025  0.1346
31999W        W46846  14.608  16.805   4.798 -0.1993  0.1430 -0.1137
32000W        W46847  10.487   0.283  14.680 -0.1258 -0.0899 -0.1790
32001W        W46848  13.740   4.642   0.966  0.1749 -0.1888  0.1268
32002W        W46849  16.132   8.972   5.206  0.1973 -0.0266 -0.0049
32003W        W46850  14.624   3.750   5.896  0.0020 -0.1514 -0.2082
32004W        W46851   2.625  11.683   3.961  0.3794 -0.0551  0.0198
32005W        W46852  16.044   5.944   3.026  0.2017 -0.1427  0.0024
32006W        W46853  13.098  12.066   0.203 -0.0808 -0.1687 -0.0006
32007W        W46854  17.447   3.344   5.903  0.0452 -0.3538  0.1337
32008W        W46855   0.989  15.300   1.740  0.3863  0.1395 -0.2032
32009W        W46856  17.178  11.274  11.247  0.0133  0.0347 -0.3186
32010W        W46857  14.940   7.803  16.405  0.1455 -0.0690  0.0298
32011W        W46858  12.664   9.742  14.422 -0.1400 -0.0985  0.1291
32012W        W46859   0.071   4.445   1.473 -0.0420 -0.0211 -0.2050
32013W        W46860  10.697  17.588   1.819  0.0912  0.2478 -0.1775
32014W        W46861  14.614   3.604  16.241 -0.2279  0.2752  0.0650
32015W        W46862  14.427   3.128  12.628  0.2224  0.1077  0.0104
32016W        W46863   9.597  16.151  14.614 -0.1584  0.1649  0.0288
32017W        W46864  16.131  17.603   1.046  0.2872 -0.1876 -0.2525
32018W        W46865  14.765   4.548   3.111 -0.0889 -0.3259 -0.0952
32019W        W46866  16.384   3.531   6.395  0.2750  0.0937  0.2156
32020W        W46867  14.905   3.187  12.952 -0.0399 -0.1524  0.0449
32021W        W46868   5.173  16.631   3.090 -0.0559 -0.0169  0.0833
32022W        W46869  10.041   3.305   3.929 -0.2957  0.0645  0.0437
32023W        W46870   2.179  17.938   0.657 -0.1062  0.1087 -0.1062
32024W        W46871  12.182   8.060  16.263 -0.1307  0.0964  0.1163
32025W        W46872   0.099   6.743   4.198  0.1992  0.1128 -0.0740
32026W        W46873  10.140   9.894  12.103  0.2979 -0.1979  0.1449
32027W        W46874  13.552  15.527  16.623 -0.0841  0.1557 -0.1906
32028W        W46875  16.317   3.413  15.127  0.0966 -0.1097  0.1417
32029W        W46876  14.226  15.390  15.505  0.1205  0.0245 -0.1053
32030W        W46877  11.368   0.183  11.638 -0.0261 -0.0817 -0.1009
32031W        W46878  16.914   4.203   4.413  0.0856  0.1599 -0.2741
32032W        W46879   0.763  16.844   4.160  0.0450  0.1213 -0.0431
32033W        W46880  13.797   4.498  14.269 -0.3491 -0.1048 -0.1716
32034W        W46881   5.863  11.620  14.505 -0.3278 -0.0962  0.1340
32035W        W46882   1.739  15.120  15.537 -0.0180 -0.5164  0.0493
32036W        W46883  14.852  16.215  13.342  0.1731  0.0290  0.3401
32037W        W46884   9.274   8.519   1.971 -0.0549 -0.2288 -0.0903
32038W        W46885  12.722  12.182  12.540  0.1624  0.1222 -0.2754
32039W        W46886  10.312   3.234  13.439 -0.0305 -0.2765  0.3893
32040W        W46887  17.305   6.972  13.484 -0.1000  0.0189  0.1878
32041W        W46888  10.296   1.524   4.453  0.0994 -0.0996  0.2640
32042W        W46889  15.412   8.619  16.043 -0.1637  0.1957  0.2444
32043W        W46890  12.844  15.262   2.353 -0.2191  0.0401 -0.2604
32044W        W46891   9.775   7.586  17.033 -0.1437  0.1610 -0.3165
32045W        W46892   9.510   9.178  15.760 -0.2851  0.1160  0.1921
32046W        W46893   2.893   6.304   2.106 -0.1789 -0.1974  0.2277
32047W        W46894  15.519  17.383   0.911  0.1420 -0.0383 -0.2656
32048W        W46895  15.577  17.068   3.216  0.0250 -0.0990  0.1945
32049W        W46896  16.195  17.598  15.508 -0.0111 -0.0960  0.1094
32050W        W46897  17.547  13.330  13.878 -0.2267 -0.0488  0.1910
32051W        W46898   2.134   4.765   5.458  0.2981 -0.1791 -0.0529
32052W        W46899  16.053  15.964  10.515  0.2365 -0.0249  0.1853
32053W        W46900  16.605   0.553  15.645  0.1009  0.3377  0.0086
32054W        W46901  17.858  12.256  15.131  0.4335 -0.0938  0.0868
32055W        W46902  15.477   7.074  15.509  0.1205 -0.2213  0.1048
32056W        W46903  14.551   5.333   5.289  0.1762 -0.1001 -0.1904
32057W        W46904  13.531  14.149  11.844  0.0494  0.0597 -0.1308
32058W        W46905  14.955  10.076   5.856 -0.1021 -0.0742  0.3927
32059W        W46906   9.354  12.015   3.882  0.0807 -0.1219 -0.1479
32060W        W46907  13.635  12.652   2.510  0.0477  0.1576  0.2983
32061W        W46908  10.177   8.535   2.196 -0.0476  0.1609 -0.1294
32062W        W46909  17.454   5.572   1.713 -0.0050  0.1137 -0.0783
32063W        W46910  11.848   1.411   3.360  0.0154 -0.0093 -0.1601
32064W        W46911  10.300  15.605   4.163 -0.1235 -0.0067  0.2834
32065W        W46912  17.020  12.620  13.787 -0.2492 -0.0366  0.1880
32066W        W46913  16.891   5.492  12.854 -0.0741  0.1862 -0.2302
32067W        W46914  12.889   4.542  14.824 -0.0131 -0.1114  0.3039
32068W        W46915  10.384  12.568  16.385 -0.3681 -0.1989 -0.0042
32069W        W46916  12.941  12.567   5.565  0.0038 -0.5095 -0.0641
32070W        W46917  16.062  11.376   4.689  0.2690 -0.0198  0.0639
32071W        W46918  11.088   3.506  15.651  0.1793  0.2164 -0.2566
32072W        W46919   8.598  11.502   1.878  0.0256 -0.0190  0.0097
32073W        W46920   5.129  11.679   3.561  0.0937  0.1176 -0.2921
32074W        W46921   5.289   4.361  16.865 -0.0436  0.1353 -0.1166
32075W        W46922  17.386  10.818  11.386 -0.2913 -0.0684 -0.0544
32076W        W46923   8.840   0.557   4.818  0.1582 -0.3381  0.4211
32077W        W46924  15.925   2.135   1.523 -0.3501 -0.2037  0.1088
32078W        W46925  16.836  10.106   4.614  0.2501 -0.1286 -0.0524
32079W        W46926   8.300  10.141   6.015  0.1219  0.0252 -0.2146
32080W        W46927   7.905  16.084  16.382 -0.1532  0.4117 -0.2164
32081W        W46928   0.808   9.442  12.306 -0.1589  0.2229 -0.4131
32082W        W46929  12.500   0.571   5.763  0.2332  0.0051 -0.0264
32083W        W46930  12.917   8.547   2.420  0.2499  0.2216  0.2123
32084W        W46931   4.705   5.828  13.421  0.0297  0.0620 -0.0759
32085W        W46932  17.140   6.293  15.063  0.0473 -0.0985 -0.1669
32086W        W46933  13.763   2.139  12.102  0.0373 -0.0514 -0.0105
32087W        W46934  14.476  11.863  12.007 -0.0329 -0.0474 -0.1442
32088W        W46935  16.170   7.303   3.827  0.0635  0.0302  0.0978
32089W        W46936   0.272   8.140   3.383 -0.1258 -0.0573  0.0326
32090W        W46937  11.395   0.262   1.378  0.1062 -0.2116  0.0370
32091W        W46938  10.570   0.646   0.568  0.2513 -0.1112  0.2114
32092W        W46939  14.372   5.322  13.969  0.0380 -0.1658  0.0870
32093W        W46940   4.451   1.478   2.741  0.0130  0.0012 -0.1781
32094W        W46941  13.271  12.003  14.658  0.1745  0.2538  0.1882
32095W        W46942   7.520  11.056   4.568  0.0994  0.0538 -0.1407
32096W        W46943  14.462   0.725   3.590  0.1312  0.0737  0.2681
32097W        W46944  17.525   7.288   4.368 -0.1003  0.2374  0.1268
32098W        W46945  16.033   3.258   3.882  0.0380 -0.0922 -0.1171
32099W        W46946   3.106   8.457   4.639  0.1797 -0.2212  0.1635
32100W        W46947   9.528   7.995  14.307 -0.0797  0.0750 -0.1054
32101W        W46948  12.149  15.427   5.928 -0.0337 -0.1279 -0.0029
32102W        W46949   2.548  15.721  11.164  0.1871 -0.0625 -0.0142
32103W        W46950  13.997  15.733  15.798  0.3724  0.2407 -0.2303
32104W        W46951  11.858   4.797   2.863 -0.1412  0.1862  0.0935
32105W        W46952  10.619  15.063   5.938  0.1259  0.0828  0.2155
32106W        W46953   7.067  10.928   3.752  0.1031 -0.0153  0.0877
32107W        W46954  17.478  17.266  12.372  0.0083 -0.2116  0.0189
32108W        W46955  16.923   1.388   1.281 -0.0660 -0.2202  0.1300
32109W        W46956  16.817  16.081  14.970  0.1320 -0.2460  0.3303
32110W        W46957  15.861  15.261   2.293  0.0313  0.0009  0.1047
32111W        W46958   0.416  15.179  16.881 -0.1401  0.2067  0.0386
32112W        W46959   8.727   7.880  17.004  0.1831 -0.1192  0.1084
32113W        W46960  15.713  11.163  13.913  0.2603 -0.4763 -0.0325
32114W        W46961  15.260   6.633  15.796  0.1040 -0.2278 -0.0184
32115W        W46962  14.037  16.271  15.662  0.0418 -0.0585 -0.0796
32116W        W46963  11.669   7.282   1.245  0.2696 -0.0457  0.0352
32117W        W46964  16.259  11.504  15.325  0.1227  0.2887 -0.0389
32118W        W46965   4.741  11.752  14.849 -0.2605 -0.1416  0.3782
32119W        W46966  11.340  16.902   4.955 -0.0664  0.2433 -0.0692
32120W        W46967   1.297   0.641   5.321 -0.1045  0.4053 -0.0876
32121W        W46968  14.016  10.536  13.518 -0.0587  0.2862 -0.4087
32122W        W46969   3.623   7.246  16.100 -0.1788 -0.1642  0.2274
32123W        W46970   2.209  11.662   5.225 -0.1593  0.4803  0.6005
32124W        W46971   3.143  11.028  17.100 -0.2391  0.3269 -0.1696
32125W        W46972  17.632   5.424  17.096  0.0394 -0.1603  0.0484
32126W        W46973  13.779  12.229   3.693 -0.0512  0.1214 -0.0476
32127W        W46974   8.462   0.132   3.953 -0.0590 -0.0234  0.2502
32128W        W46975   0.638   8.024  14.648  0.1568 -0.2863 -0.1887
32129W        W46976   7.433   9.491  13.846  0.4703  0.5118 -0.0473
32130W        W46977  12.102  11.800   1.473  0.0654  0.0550 -0.1739
32131W        W46978   2.643  16.018   4.877  0.1728 -0.1134 -0.0057
32132W        W46979  17.470  14.692  15.904 -0.1867  0.3088  0.0802
32133W        W46980  14.311   2.913   3.534  0.0322 -0.1171  0.3550
32134W        W46981   0.502  15.594  13.262  0.1758  0.0590  0.3248
32135W        W46982   8.490   0.226   4.985 -0.0536 -0.0350  0.0258
32136W        W46983  13.363  11.959   3.733 -0.2009  0.2683 -0.0108
32137W        W46984  10.192  13.609  14.095  0.2257  0.0520  0.4070
32138W        W46985   2.839  17.846   1.600  0.3777  0.2389 -0.2761
32139W        W46986   0.552  15.672  14.798  0.0783 -0.1408 -0.1306
32140W        W46987  12.999  17.809  12.448  0.0809 -0.0638 -0.1631
32141W        W46988  17.329  16.477  14.048  0.0672  0.3466 -0.3038
32142W        W46989  10.407   1.484   2.122  0.4594  0.1082 -0.1611
32143W        W46990  10.816  17.330  13.033  0.0210 -0.0960  0.0584
32144W        W46991  15.144   4.492   2.674  0.0168  0.1601 -0.0264
32145W        W46992  16.194   6.309   5.468 -0.1810  0.3124 -0.0692
32146W        W46993  11.281  12.617  16.694  0.2352  0.0776 -0.1225
32147W        W46994  15.613  15.343  15.519 -0.1389  0.0112 -0.4205
32148W        W46995  17.746   2.074  16.655  0.0962 -0.0883  0.1906
32149W        W46996   6.856  11.195   2.453 -0.2242  0.0051 -0.0062
32150W        W46997  11.015  13.110   0.903 -0.3751  0.2315 -0.1560
32151W        W46998   0.474  15.901  11.762 -0.0114 -0.0222 -0.0714
32152W        W46999   9.899  13.143   3.711  0.0418 -0.3171  0.3471
32153W        W47000   1.115  11.182   3.463 -0.1410 -0.2215 -0.4601
32154W        W47001  14.326   0.857  14.041  0.2453  0.1443 -0.1154
32155W        W47002  16.467  13.552  14.656  0.2729  0.1642  0.0099
32156W        W47003  10.787   4.489   0.219 -0.0314  0.1029  0.4813
32157W        W47004   0.512  14.421  13.576 -0.0261  0.2721  0.0841
32158W        W47005  16.715  16.510  14.725 -0.1676  0.0751 -0.0048
32159W        W47006  11.849   5.658  12.918 -0.0087  0.0989 -0.3754
32160W        W47007   1.136   0.317   1.073  0.0959  0.1785  0.0256
32161W        W47008  15.024  11.519  13.194 -0.2015  0.3075  0.0066
32162W        W47009  16.694   5.029   0.884 -0.1201 -0.1596 -0.3082
32163W        W47010  13.773  14.705  14.901  0.0816  0.1797 -0.1892
32164W        W47011   5.352   8.789  16.052  0.0285 -0.0038 -0.0662
32165W        W47012  10.998   0.881  14.118 -0.1949 -0.1210  0.0160
32166W        W47013   9.022  15.229   1.558 -0.1618 -0.1705  0.0697
32167W        W47014   9.071   6.682  15.553 -0.0482  0.0437 -0.2030
32168W        W47015  10.725   3.765  15.958  0.1706  0.0773 -0.0070
32169W        W47016   1.497   4.554  11.538 -0.3577 -0.0831  0.1324
32170W        W47017  14.579   8.289  11.114 -0.4550  0.1113 -0.5602
32171W        W47018   3.472   8.770   4.850  0.0347  0.2310 -0.2463
32172W        W47019  12.663  16.979  12.107  0.2579 -0.0584 -0.0825
32173W        W47020  15.227  14.724   4.704  0.1322 -0.2562 -0.1291
32174W        W47021  16.167  12.107  15.771 -0.0740  0.1558  0.0343
32175W        W47022  10.368  14.017   4.857  0.2084 -0.2170 -0.0797
32176W        W47023  15.398  17.478   4.997  0.0894 -0.3661  0.0563
32177W        W47024  14.292   3.430   3.677  0.1081  0.0102 -0.0489
32178W        W47025  16.750   5.003  12.373  0.1884  0.0181  0.1361
32179W        W47026  12.129   3.364  15.930  0.2496  0.2001 -0.0235
32180W        W47027   2.032   0.565  11.607  0.2148 -0.0480  0.1455
32181W        W47028   0.635  17.060  10.079  0.0940 -0.1130 -0.1633
32182W        W47029  15.360  17.291  11.737 -0.1516 -0.3634  0.2715
32183W        W47030  15.946  16.713  11.213  0.0956  0.1736  0.1034
32184W        W47031   2.588   5.876   4.838 -0.1883 -0.0774  0.1178
32185W        W47032  13.987  11.335  14.663 -0.1610 -0.0197 -0.0002
32186W        W47033  13.279   3.877  14.530  0.0278 -0.1675 -0.0272
32187W        W47034  11.880   8.552  16.334  0.1583 -0.1804  0.3133
32188W        W47035  14.578  12.782  12.700 -0.2095  0.1971  0.1156
32189W        W47036  11.719   2.461  17.003  0.2267  0.4307 -0.1431
32190W        W47037  11.336   3.334  13.007  0.0098 -0.0066  0.0596
32191W        W47038  11.468   3.187  16.607 -0.2328  0.0389 -0.0968
32192W        W47039   2.703   3.510  13.401  0.0141 -0.1462 -0.0960
32193W        W47040   9.261  10.127   1.265  0.1244 -0.2823  0.0196
32194W        W47041   0.816   6.738  11.678 -0.0431  0.0391 -0.0446
32195W        W47042   9.762   5.123  12.555 -0.2093  0.1664 -0.1303
32196W        W47043  15.493   6.106  15.114  0.1253  0.1518 -0.1573
32197W        W47044   0.295   5.877   1.570  0.2956 -0.6439 -0.0500
32198W        W47045  14.068  11.864  15.541  0.2340 -0.1952 -0.4190
32199W        W47046  15.584   1.460  14.047  0.1679 -0.0247 -0.1601
32200W        W47047  15.350   8.890  12.774 -0.0305  0.2350 -0.1606
32201W        W47048  13.427  17.444  14.350 -0.1285  0.0992  0.0402
32202W        W47049  11.784   6.515  11.103  0.2101 -0.1374  0.1295
32203W        W47050   6.695  15.697  13.878 -0.2083 -0.1066 -0.0348
32204W        W47051  16.325  17.630  10.227  0.0124 -0.0058  0.1614
32205W        W47052   0.241  16.616   3.455 -0.2501  0.2461  0.0073
32206W        W47053  15.161  17.320  13.939 -0.1240  0.0962  0.0011
32207W        W47054   0.011   5.121   1.130 -0.2286 -0.1547 -0.2191
32208W        W47055  12.316  10.898   1.866 -0.0589  0.2026  0.1742
32209W        W47056  12.023  11.534   0.685 -0.2537 -0.0417  0.1379
32210W        W47057  13.188   8.895   6.260 -0.2535 -0.1860  0.2658
32211W        W47058  13.840   4.729   5.242 -0.0240 -0.3729  0.1690
32212W        W47059  14.516  14.014  16.263  0.2954  0.3158  0.3182
32213W        W47060  10.991   6.014   5.793 -0.1193  0.0879 -0.1914
32214W        W47061   3.888  14.342  12.243 -0.0412  0.0313  0.3127
32215W        W47062   3.283   1.028  15.232 -0.2500 -0.2859  0.0358
32216W        W47063  11.122  15.396  10.681 -0.0910  0.1533 -0.1247
32217W        W47064   3.858   9.660   3.327  0.0616 -0.0711  0.1678
32218W        W47065  14.270   8.574  14.265  0.0670  0.2664  0.1284
32219W        W47066  14.982   7.486  12.452  0.0450  0.1837  0.0189
32220W        W47067   8.075  16.234  15.497 -0.1231  0.1141 -0.1773
32221W        W47068   0.138  10.596  14.457 -0.0755 -0.0182  0.0244
32222W        W47069  13.737  13.615   2.065  0.1290 -0.1155  0.0662
32223W        W47070  16.818  16.325   3.413 -0.1069  0.2672  0.0557
32224W        W47071  12.118   5.289  12.657 -0.0843  0.0229  0.3397
32225W        W47072   2.900  16.816   2.537  0.0939 -0.0158 -0.1702
32226W        W47073  14.775  11.260  15.413  0.2370  0.1607  0.2224
32227W        W47074   8.878  17.423  14.701 -0.1072  0.1303  0.1325
32228W        W47075  15.960  10.264   4.380  0.1589 -0.1435 -0.3386
32229W        W47076   2.954  14.975   6.315  0.3031  0.0044 -0.1333
32230W        W47077  14.004   5.769  11.234  0.0182  0.0530 -0.0266
32231W        W47078  16.493  13.694  10.458 -0.3000 -0.0776 -0.0437
32232W        W47079   9.549  15.177  15.131  0.0277 -0.3630  0.1893
32233W        W47080  15.123  15.355  11.512  0.0244 -0.1211 -0.1854
32234W        W47081  16.072  16.483  13.605 -0.0873  0.1444  0.0354
32235W        W47082  13.703   5.500   2.601 -0.2162  0.1614  0.0419
32236W        W47083   0.087   1.212  10.310  0.1221  0.4470 -0.1917
32237W        W47084  10.940   9.435   6.825  0.2758 -0.2984 -0.0146
32238W        W47085  12.094  15.672   1.563  0.0470  0.1557 -0.0796
32239W        W47086  17.637  14.505   4.697 -0.0658  0.3127  0.1699
32240W        W47087  11.307  10.104   0.757 -0.2201 -0.1470  0.0531
32241W        W47088   9.713   2.180  13.797 -0.0502 -0.0688  0.0621
32242W        W47089  13.126   0.474   0.591 -0.1563  0.1165 -0.1982
32243W        W47090   7.747  14.647  14.224  0.0640  0.0697  0.1806
32244W        W47091  13.906   2.544  16.069  0.3119  0.4228  0.0457
32245W        W47092  10.718   9.381  12.087  0.0440  0.3246 -0.2414
32246W        W47093  16.844  11.723  16.379  0.1268  0.0660  0.0523
32247W        W47094  11.299   9.109  15.873 -0.4048 -0.0119  0.3425
32248W        W47095  16.997   8.112  13.309 -0.0418 -0.2783  0.2321
32249W        W47096   9.042   7.671  12.750  0.1598 -0.2323 -0.1468
32250W        W47097   9.073   2.709   0.496  0.1431 -0.2102  0.1301
32251W        W47098   0.803   2.967  12.936 -0.0919 -0.1004 -0.0305
32252W        W47099  11.027   1.822  12.136 -0.1176 -0.2608 -0.1919
32253W        W47100   2.564   6.063   6.477  0.0545  0.2434 -0.0855
32254W        W47101  11.296  13.893   1.932  0.0222  0.0871 -0.0203
32255W        W47102   2.132   8.860   0.332 -0.3330  0.2336 -0.2976
32256W        W47103   2.990  17.746  16.353 -0.1567 -0.1778  0.1729
32257W        W47104  16.272  12.902  10.241 -0.0808 -0.2113 -0.1832
32258W        W47105  14.026  15.753  11.858 -0.0751  0.2008  0.2536
32259W        W47106  10.727   4.013   5.242  0.1062  0.1046 -0.0414
32260W        W47107  15.140   6.594   2.387 -0.0310  0.2252 -0.0439
32261W        W47108  16.219   0.140  10.005  0.0737 -0.0706 -0.1358
32262W        W47109   8.801  11.190   2.926 -0.2006  0.2659 -0.0548
32263W        W47110  14.972   7.271   5.160  0.0300  0.3253 -0.0880
32264W        W47111  15.837   5.563   1.138 -0.0375 -0.0273  0.1865
32265W        W47112  15.907  14.024  12.679 -0.1162 -0.1238  0.0910
32266W        W47113  12.336  16.239  16.625 -0.3760  0.1946  0.0897
32267W        W47114   3.212   3.236  15.180 -0.1628 -0.0970 -0.0421
32268W        W47115  11.946   0.675   4.953  0.3791  0.0748  0.0445
32269W        W47116  13.519   5.196  11.860  0.2128  0.2295 -0.3274
32270W        W47117  16.729   8.198   3.943  0.0193  0.0127 -0.0512
32271W        W47118   1.973   7.671   5.309  0.2756 -0.2703 -0.0882
32272W        W47119  12.195   9.913  16.182 -0.1394 -0.0940  0.1261
32273W        W47120  16.676  13.488   0.322  0.0588 -0.1369  0.2214
32274W        W47121  13.736   9.701  16.493  0.2428  0.0360  0.1222
32275W        W47122  15.991   2.895   3.469  0.0886 -0.3305  0.0591
32276W        W47123   5.118  12.647   5.966  0.1378  0.1719 -0.0730
32277W        W47124   0.483   1.899  13.954  0.1032 -0.2088  0.0041
32278W        W47125  17.541  13.378  14.358  0.2792 -0.1469 -0.0347
32279W        W47126   2.440  14.214   2.112  0.0347  0.1072 -0.0792
32280W        W47127  15.556  15.545   4.874  0.1462 -0.0736  0.0394
32281W        W47128  12.927  15.084   0.761  0.1872 -0.0928  0.1601
32282W        W47129   8.374  14.958   1.640 -0.0847 -0.0844  0.3012
32283W        W47130   8.556  11.400   3.826 -0.0297 -0.2056 -0.2115
32284W        W47131  15.944   0.551  11.544 -0.1093 -0.1507 -0.1398
32285W        W47132   3.827   7.515   5.664 -0.0503 -0.1031 -0.1067
32286W        W47133  11.448   3.764   2.113 -0.1088  0.0162  0.1761
32287W        W47134  12.398   7.871  15.265  0.1126  0.0875  0.0519
32288W        W47135  14.473   4.755  11.013  0.2139 -0.0483 -0.0167
32289W        W47136   7.335  16.995  12.291 -0.0613 -0.1835  0.0126
32290W        W47137  10.737  10.843   6.577  0.0990 -0.1652 -0.2698
32291W        W47138  17.187   0.186   1.386 -0.2837 -0.1270  0.0462
32292W        W47139  12.068   6.111  12.811 -0.1848  0.2254 -0.0357
32293W        W47140  15.791   7.940  15.714  0.0684  0.1692  0.0178
32294W        W47141  17.166  14.483   4.445  0.0678  0.0831 -0.3114
32295W        W47142   9.274   6.793  16.363  0.1183 -0.1160  0.1097
32296W        W47143  17.217  16.878  10.233  0.2687 -0.0291 -0.2008
32297W        W47144  10.545   1.784  13.582 -0.1037  0.3504  0.2339
32298W        W47145   9.919  11.201   4.313  0.1981 -0.2566  0.1107
32299W        W47146   0.626  16.563  12.663 -0.0810  0.3135 -0.0348
32300W        W47147   7.536   4.068  15.442 -0.1556  0.2000  0.2116
32301W        W47148   0.162   2.288  13.960 -0.2607  0.1598  0.4459
32302W        W47149   6.106   5.169   3.578  0.0359  0.1749 -0.1546
32303W        W47150  15.238  16.956   0.439 -0.0810 -0.0711  0.2796
32304W        W47151  15.012  16.035   2.668  0.0247 -0.0912 -0.2201
32305W        W47152  10.935  15.556   3.656  0.2571  0.0937 -0.4210
32306W        W47153  15.510   3.720  13.236  0.2206 -0.1609  0.2069
32307W        W47154  16.662  14.234  11.610 -0.0283 -0.0767 -0.0061
32308W        W47155   8.676  15.125   3.571  0.1164 -0.2549  0.0369
32309W        W47156  12.087   0.507   6.363  0.1706  0.0894  0.1288
32310W        W47157   0.910  17.391  11.298 -0.1061  0.0799 -0.1608
32311W        W47158  11.840   0.446  17.039  0.1597 -0.0381 -0.1845
32312W        W47159   4.453  15.930   2.918  0.1459 -0.2238  0.1538
32313W        W47160  15.529   7.469  16.785 -0.1343  0.0258  0.0462
32314W        W47161   2.220  17.221   5.919  0.0323 -0.4702 -0.0176
32315W        W47162   6.647  17.914   1.436 -0.1984 -0.0238 -0.1675
32316W        W47163  15.993   6.143   2.018  0.5726 -0.1412 -0.1856
32317W        W47164   3.513   2.577   3.832  0.4989 -0.0316 -0.1681
32318W        W47165   0.317   7.966  11.913  0.1113  0.0701 -0.0757
32319W        W47166  13.912   8.492   3.423 -0.1862 -0.0628 -0.0549
32320W        W47167  16.239   6.801  11.136  0.3117 -0.0150  0.1920
32321W        W47168   4.531  10.345   1.276  0.2625  0.3084 -0.0576
32322W        W47169   9.744  15.693  15.234 -0.0949  0.5113 -0.0474
32323W        W47170   1.479   3.979  16.540 -0.0019 -0.0657 -0.2053
32324W        W47171  16.854   8.134   4.627  0.2276 -0.0664  0.0084
32325W        W47172   0.460  12.223   0.830 -0.1268 -0.3882 -0.0607
32326W        W47173  11.888  12.755  10.793  0.1790  0.3299  0.0746
32327W        W47174  10.162   1.239   2.518  0.0169  0.0691  0.3341
32328W        W47175  10.795  10.195  12.442 -0.0145 -0.1142 -0.1505
32329W        W47176   9.168   5.096  13.373 -0.1142 -0.3059  0.1020
32330W        W47177   7.758   9.127   1.084 -0.0007  0.3255  0.0433
32331W        W47178  14.791  16.173   1.683 -0.0782 -0.1451 -0.1407
32332W        W47179  12.511   7.006  14.606 -0.2755  0.2251 -0.0450
32333W        W47180  12.341  10.060   2.056  0.0626 -0.1788 -0.1160
32334W        W47181   0.720  13.124   0.859 -0.0804 -0.3478 -0.0036
32335W        W47182  11.711  12.550   0.632 -0.0702 -0.0320 -0.0917
32336W        W47183  11.201   4.326  12.172  0.1364  0.2078 -0.2407
32337W        W47184  15.544   5.752   0.614 -0.0032 -0.0135 -0.1238
32338W        W47185   9.107   7.353   3.612  0.0829  0.2135  0.4630
32339W        W47186   4.826  14.871   4.358 -0.1177  0.1662 -0.0166
32340W        W47187  13.426  13.396  11.441 -0.0797 -0.0363 -0.0016
32341W        W47188  10.443  15.888   1.433 -0.1168  0.2304 -0.0665
32342W        W47189   3.634  13.139  13.256  0.2375 -0.1809 -0.3170
32343W        W47190   4.809  13.225   1.989 -0.4205 -0.0253  0.0388
32344W        W47191  12.746  11.153   5.552 -0.0689  0.0721  0.0779
32345W        W47192   3.272   6.767  16.730  0.0259  0.2755 -0.1713
32346W        W47193   2.103  17.417  13.223  0.0131 -0.1179  0.4535
32347W        W47194  13.854   6.235  13.598  0.0414 -0.0312 -0.1118
32348W        W47195  14.549   8.704  11.417 -0.0422  0.0604 -0.2635
32349W        W47196  14.148  11.191  10.214 -0.2092  0.1105 -0.1558
32350W        W47197   4.057  16.273   2.853  0.2562 -0.1861 -0.0935
32351W        W47198  13.929   0.003  13.790 -0.2873 -0.0651 -0.1490
32352W        W47199  16.236   0.659   1.174 -0.1934  0.0393 -0.1263
32353W        W47200  10.922  15.293   3.177  0.0047  0.0281  0.4619
32354W        W47201  11.234   7.153  13.436  0.1222  0.1366  0.0029
32355W        W47202  14.817   8.383   4.223 -0.2680  0.0924  0.1027
32356W        W47203  15.699   0.647   4.032  0.4565 -0.1792  0.1338
32357W        W47204   0.164  16.793   1.321  0.0091  0.2000  0.1623
32358W        W47205  14.174   5.886  17.043  0.0750  0.0394 -0.1779
32359W        W47206  13.135  13.521  15.752  0.0661  0.0657 -0.0019
32360W        W47207  12.980  13.142   5.608  0.2995 -0.2773  0.1011
32361W        W47208  15.569   0.173   4.200  0.1751  0.1875  0.0469
32362W        W47209   7.067   0.173   4.715  0.1951 -0.2010 -0.5565
32363W        W47210  14.785  15.893  16.179  0.0430  0.3341 -0.2648
32364W        W47211   9.034   4.793   1.113  0.1369 -0.2137 -0.0966
32365W        W47212   9.909  15.816   1.611 -0.1825  0.1387  0.0154
32366W        W47213  10.550   1.226   1.245 -0.2289  0.0851 -0.0442
32367W        W47214  16.356  11.721  12.139 -0.1425 -0.0468  0.0972
32368W        W47215  15.439  13.234  14.813  0.0315  0.4740 -0.0226
32369W        W47216  14.075   0.537  13.177  0.1397 -0.0457  0.1687
32370W        W47217   2.782  14.505   6.472 -0.2491 -0.1777 -0.1548
32371W        W47218  12.809  15.286  13.777 -0.1765 -0.0715  0.2091
32372W        W47219   1.332   3.168  11.996  0.0116 -0.1975  0.1227
32373W        W47220   7.562  17.584   0.347  0.0126 -0.0596  0.2239
32374W        W47221  17.093   4.583   2.164 -0.1096 -0.0116 -0.1898
32375W        W47222  15.048   5.727   1.433 -0.0570  0.2024 -0.2974
32376W        W47223  10.655   4.936  14.994  0.0254  0.2179  0.1882
32377W        W47224  10.106   8.534   0.131 -0.0953 -0.0746 -0.0343
32378W        W47225  17.465  15.333  15.265  0.0448  0.1006  0.1967
32379W        W47226  17.507   8.652  17.036  0.0094 -0.1213 -0.0408
32380W        W47227  15.302   6.226   2.725 -0.1983 -0.1533  0.2164
32381W        W47228   2.111   8.536   4.763 -0.0213 -0.0326 -0.1660
32382W        W47229  12.712  16.627  16.813 -0.0528  0.2484 -0.0739
32383W        W47230  15.681   1.788   1.263  0.0078 -0.0068  0.2126
32384W        W47231   2.110  17.360   2.908  0.0275  0.0033  0.1473
32385W        W47232   5.172   5.142  15.103 -0.1599 -0.0425 -0.1965
32386W        W47233   9.873  14.250   1.914 -0.0307 -0.0876 -0.1873
32387W        W47234  13.480   5.526   1.172 -0.0576 -0.2114  0.3084
32388W        W47235  12.013   6.114  13.822  0.0226  0.0582 -0.2077
32389W        W47236   2.538  15.292   0.352  0.0254 -0.0514 -0.2016
32390W        W47237  15.482  10.813  17.050  0.0692  0.1252  0.1485
32391W        W47238  13.112  10.814   5.774  0.1497  0.0847  0.1589
32392W        W47239   4.694  10.461   5.037 -0.2569  0.0433  0.1295
32393W        W47240  17.430  16.869   3.469  0.2794  0.2413  0.1127
32394W        W47241   6.068  15.200   5.953  0.2445 -0.2129  0.0402
32395W        W47242   3.477   6.908   3.361 -0.1702 -0.0156 -0.0104
32396W        W47243   0.398   6.807   1.335  0.1352  0.1305  0.1884
32397W        W47244  16.588   2.280   0.969  0.0229 -0.3416 -0.1162
32398W        W47245   8.231  11.883   6.429 -0.3685 -0.3065  0.1299
32399W        W47246  10.415   7.190   2.285  0.1722 -0.3283 -0.1357
32400W        W47247   3.736  17.570   5.598  0.2919 -0.3916 -0.1372
32401W        W47248   7.606   3.346  14.260  0.0128  0.3025 -0.2428
32402W        W47249   6.940   8.066   5.827  0.2836  0.3133  0.1793
32403W        W47250   2.969   5.055   5.098  0.0951  0.1978 -0.0988
32404W        W47251  13.765  12.350  12.518  0.0335  0.0689 -0.1607
32405W        W47252   6.757  13.556  13.813 -0.3020  0.2727  0.0294
32406W        W47253   8.638  12.198  15.564  0.1763  0.4547 -0.1797
32407W        W47254  13.338   5.588   1.669  0.1032 -0.0023  0.0598
32408W        W47255  12.089   3.901  13.310 -0.1417  0.4287  0.0689
32409W        W47256   0.511   3.904  13.981  0.0506 -0.0054 -0.0424
32410W        W47257  13.563  10.223   4.558  0.1747  0.1499 -0.2532
32411W        W47258   6.730   5.450  15.649  0.2824  0.0254  0.0991
32412W        W47259   7.852   5.787   5.024 -0.0226  0.0297 -0.0731
32413W        W47260   0.677   6.185   3.900 -0.0401  0.1203  0.0665
32414W        W47261   0.711   1.447  12.512 -0.1873 -0.5226  0.0756
32415W        W47262  13.349   7.583  13.115 -0.0546 -0.2386 -0.1484
32416W        W47263  10.489  12.146  14.873 -0.1235 -0.3170  0.0759
32417W        W47264   8.201   2.131   3.156  0.1858 -0.2418 -0.3346
32418W        W47265  15.547  14.736  14.768  0.0981 -0.1944  0.0918
32419W        W47266  15.057   7.808   5.437  0.2293 -0.0338 -0.0209
32420W        W47267  13.318  14.889  11.190 -0.0287 -0.1289  0.0456
32421W        W47268  14.796  14.073   0.997 -0.1687  0.0979 -0.1656
32422W        W47269  13.626   7.028  13.747  0.0462 -0.0949 -0.0252
32423W        W47270   7.116  16.404   5.158 -0.0551 -0.0014  0.0171
32424W        W47271  14.319  11.320  11.770 -0.1093  0.1277 -0.1364
32425W        W47272  10.586   7.434   1.822  0.2544  0.0094 -0.1164
32426W        W47273  17.912   0.668   1.666  0.0693 -0.1549  0.3833
32427W        W47274   1.634   2.541   3.204 -0.1450  0.0919  0.1049
32428W        W47275  11.263  14.496   1.740 -0.0374 -0.1535 -0.1660
32429W        W47276  14.765  16.249  17.003 -0.1273 -0.0403 -0.2608
32430W        W47277   2.353   8.654   3.117  0.2062  0.0720  0.3124
32431W        W47278   1.271  16.554  12.644  0.2221 -0.2721 -0.1862
32432W        W47279   8.983  16.772  15.528 -0.1334  0.2215 -0.3326
32433W        W47280  14.798  13.775   2.787 -0.0693  0.0527 -0.0727
32434W        W47281   4.661   1.296   1.350 -0.0684 -0.2442 -0.1497
32435W        W47282  14.554   2.072   5.501 -0.0524  0.0649  0.3804
32436W        W47283  15.758   8.429  14.468 -0.1167 -0.1723  0.0146
32437W        W47284   3.891  17.216  16.142 -0.2411 -0.3648 -0.0756
32438W        W47285  16.244   8.558  14.408 -0.2660 -0.1091  0.0689
32439W        W47286   0.843   7.186   5.350 -0.1944 -0.3972  0.1002
32440W        W47287  13.243  15.544  12.362  0.2688 -0.0581 -0.1454
32441W        W47288  17.717   4.693   3.279  0.2363 -0.1586  0.0352
32442W        W47289   6.467   6.038  14.499 -0.3098  0.2666  0.0737
32443W        W47290   2.425   8.509  14.435  0.4505  0.0234  0.2454
32444W        W47291  15.633  12.763  14.733 -0.0147 -0.0237 -0.0443
32445W        W47292  10.529   3.161  12.929 -0.0910 -0.2675  0.1419
32446W        W47293  14.581   6.364  13.131 -0.1190 -0.0037  0.0744
32447W        W47294   8.198   5.160   1.114 -0.1363 -0.1982 -0.0890
32448W        W47295  17.132  10.855   1.548 -0.0341 -0.1298  0.0392
32449W        W47296  10.202   0.425  13.561  0.0167 -0.1768  0.3109
32450W        W47297   6.864   5.993  12.560 -0.0727 -0.2857  0.1696
32451W        W47298  15.736   0.396   0.017  0.0356 -0.0838  0.0306
32452W        W47299   8.363  11.227  15.028 -0.0685  0.2391 -0.3166
32453W        W47300  15.990   5.735   1.677  0.0720 -0.3649  0.1994
32454W        W47301   9.518  10.524   3.220 -0.0757  0.3010 -0.0721
32455W        W47302  15.609  15.285  12.952 -0.2447  0.0324  0.5940
32456W        W47303  10.163   5.265   1.097 -0.0446 -0.1265  0.2251
32457W        W47304   1.739  14.315  11.670  0.2197  0.1465  0.2382
32458W        W47305  16.694  17.181  11.967  0.1947 -0.0715  0.0788
32459W        W47306  14.851  12.381  12.918 -0.0763 -0.0773  0.1823
32460W        W47307  17.814   7.585   6.316  0.1467 -0.0237 -0.1064
32461W        W47308  12.858   5.931   3.172 -0.0327  0.0273 -0.0204
32462W        W47309  15.575  11.488  13.116 -0.1533 -0.0727  0.2896
32463W        W47310   3.552   2.507   3.207  0.0530 -0.0614  0.1255
32464W        W47311  17.171  10.609  16.638 -0.0649  0.0492 -0.1034
32465W        W47312   2.899   9.571   2.558 -0.3439 -0.0447 -0.3133
32466W        W47313  12.601   9.903  12.751  0.0439 -0.1726  0.1925
32467W        W47314   4.146  13.839   3.549 -0.0710 -0.2057  0.0360
32468W        W47315   9.363  15.723   3.898 -0.0530  0.1486  0.2252
32469W        W47316   0.166   4.151  16.629  0.1522  0.1831 -0.2126
32470W        W47317  16.783   7.317  15.876 -0.2052 -0.3322 -0.0505
32471W        W47318  12.239  11.751   3.827 -0.0412  0.2299  0.2070
32472W        W47319  11.671   7.351   4.810  0.2338 -0.1265  0.0650
32473W        W47320  10.971   0.862   2.815  0.2397  0.2683 -0.3473
32474W        W47321  15.248   9.774   0.312  0.0193 -0.0528  0.3725
32475W        W47322  13.369  13.081  15.576  0.1334 -0.1748  0.0702
32476W        W47323  15.060   8.844  13.850  0.1026 -0.1221 -0.0200
32477W        W47324   5.270  13.306   3.755  0.2534  0.0845 -0.2127
32478W        W47325  13.972   3.933  11.933 -0.0794 -0.1384  0.0727
32479W        W47326  13.074  16.088   4.399 -0.3999  0.1158 -0.1282
32480W        W47327   4.056  15.267   2.080 -0.0701 -0.1796 -0.2034
32481W        W47328  14.446   6.119  11.314  0.0419  0.0180 -0.1795
32482W        W47329  17.203  12.312   2.899  0.1470  0.0564 -0.5141
32483W        W47330   1.168  17.352   0.617 -0.0256  0.2413 -0.0714
32484W        W47331  14.089   2.626   2.925  0.1392 -0.0774 -0.2922
32485W        W47332   4.414  16.257   1.540 -0.3045 -0.3968  0.0227
32486W        W47333   5.208   7.801  12.148  0.1313  0.2109 -0.1933
32487W        W47334   9.455   0.910  13.312 -0.2537  0.1015  0.2285
32488W        W47335  12.611   0.698  11.747 -0.1033 -0.0897 -0.1174
32489W        W47336  10.652   3.093  12.457  0.0491 -0.1469  0.2559
32490W        W47337  14.835   4.949  10.765 -0.1432  0.1101  0.4156
32491W        W47338  15.258   0.740  16.168  0.3781 -0.0662  0.0842
32492W        W47339   8.157   6.642   6.163 -0.0405  0.0261  0.1702
32493W        W47340  14.694  11.667   4.247 -0.0427  0.1217  0.0859
32494W        W47341   0.251   4.260   1.935 -0.0145 -0.0025  0.0952
32495W        W47342   0.292  11.235  16.200  0.0310 -0.1249  0.3565
32496W        W47343  16.341  12.860   3.073 -0.0929  0.0700  0.0073
32497W        W47344  13.940   2.837   4.944 -0.0079  0.0163  0.3292
32498W        W47345  12.932   6.000  13.998  0.0860  0.2407  0.1371
32499W        W47346  15.727   5.696   4.972  0.0236 -0.1068  0.2558
32500W        W47347  12.802   6.523   1.734 -0.0957  0.5048 -0.0467
32501W        W47348   4.308   8.144  16.145  0.0733  0.0398  0.0334
32502W        W47349   0.135   9.682   4.792 -0.4211 -0.0454 -0.0738
32503W        W47350  12.766   7.965   4.635  0.0726  0.0566 -0.2080
32504W        W47351   8.927   0.283   4.019 -0.1022  0.0358 -0.1263
32505W        W47352   2.959  11.883   0.383  0.3134 -0.1853 -0.0982
32506W        W47353  12.280  14.320  11.673  0.0478 -0.0896 -0.0268
32507W        W47354   8.666   7.568   4.106  0.2475 -0.1693  0.2457
32508W        W47355   2.154   5.987  16.374 -0.1678 -0.0970 -0.0865
32509W        W47356  12.708   3.108  13.556 -0.0859  0.3869 -0.3271
32510W        W47357  15.576   6.779   5.969 -0.0782 -0.1640 -0.1548
32511W        W47358   5.290   8.637  12.336 -0.0974 -0.1103  0.1976
32512W        W47359  11.289   0.023   5.402  0.2447 -0.0886 -0.0888
32513W        W47360  17.978  10.451  13.532  0.0267 -0.2639 -0.2906
32514W        W47361  13.177  15.745  13.742 -0.0170 -0.0263  0.2809
32515W        W47362   0.606  15.960   2.790 -0.0710  0.0250 -0.1176
32516W        W47363  11.479   1.168   3.023  0.1205  0.1251 -0.3151
32517W        W47364   9.683   3.329   1.809 -0.2266  0.0298 -0.0862
32518W        W47365  13.741  14.894  14.411 -0.1381 -0.1590  0.1070
32519W        W47366  13.125   7.308  11.676 -0.1545  0.1108 -0.0279
32520W        W47367  10.663   8.416  12.176  0.1797 -0.0281 -0.1082
32521W        W47368  11.261   8.418   3.614 -0.0660  0.0161  0.1326
32522W        W47369  13.745  10.719   6.517  0.1818  0.1112 -0.0827
32523W        W47370   3.476   5.168   5.338  0.1177  0.0884  0.0498
32524W        W47371   2.760   1.350  16.879  0.1149 -0.4789  0.0102
32525W        W47372  15.352   2.595  12.099  0.1964 -0.0402 -0.1812
32526W        W47373  12.820  12.165   1.690 -0.1069 -0.0825  0.2491
32527W        W47374  17.464   9.191   2.862 -0.0627  0.0154 -0.3468
32528W        W47375  15.709  14.961   1.695  0.0455  0.0991 -0.0681
32529W        W47376  13.105   8.549  14.341 -0.0217 -0.1333 -0.0088
32530W        W47377   7.878  13.892  12.293  0.1335  0.1078 -0.2255
32531W        W47378  13.358  16.977   2.327  0.4203 -0.2229  0.2316
32532W        W47379  17.215   6.669   0.411 -0.2509 -0.0783 -0.2146
32533W        W47380   2.169   8.647  11.910 -0.2466 -0.0517 -0.0022
32534W        W47381  15.937   4.207  11.449 -0.1416 -0.2571  0.0115
32535W        W47382  15.942   6.105  13.303 -0.0120  0.1793 -0.0004
32536W        W47383   7.483   0.709   2.086  0.0714  0.1095  0.2686
32537W        W47384  12.153   3.275  13.782 -0.1488  0.0351 -0.2924
32538W        W47385  13.005   7.047   3.988  0.3052 -0.0333 -0.0969
32539W        W47386  16.050  11.024   5.016  0.2320 -0.0721 -0.1381
32540W        W47387  14.114   7.682  17.008  0.0513 -0.3251 -0.3440
32541W        W47388  11.758  14.401   5.739 -0.0711 -0.1571  0.0428
32542W        W47389  12.762   4.349  15.744 -0.1096  0.1200 -0.0678
32543W        W47390   8.928  14.192   3.332 -0.2607  0.0444  0.1400
32544W        W47391  14.782   6.638  15.560 -0.2837  0.2195 -0.0797
32545W        W47392   0.188   6.534  10.466  0.0879 -0.2606  0.1803
32546W        W47393   2.424  13.250   1.846  0.4119  0.1158  0.3703
32547W        W47394  14.287  15.426  16.606  0.0240 -0.0419 -0.1530
32548W        W47395   0.858   1.323   0.654  0.1669  0.2511 -0.1335
32549W        W47396   1.531   0.676   0.973 -0.0260  0.1407 -0.3494
32550W        W47397  12.587  12.894   4.494 -0.0336 -0.0162  0.0747
32551W        W47398   9.445   0.692  12.646  0.1025  0.1288 -0.0830
32552W        W47399  13.944   2.301  11.225  0.0360  0.2899  0.2696
32553W        W47400   6.300  10.883  13.298 -0.3008 -0.1682 -0.3013
32554W        W47401  10.652  15.669  16.442 -0.0099  0.2725 -0.2057
32555W        W47402  12.575  13.955   4.290 -0.1111 -0.0796 -0.0282
32556W        W47403  13.856   5.872  13.033  0.1133 -0.0343 -0.1051
32557W        W47404  10.365  11.676   6.232  0.1782 -0.0890 -0.0192
32558W        W47405  12.232  10.456   4.694 -0.0387 -0.2476  0.1517
32559W        W47406  12.863  14.058  11.023 -0.0724  0.0095 -0.0862
32560W        W47407   9.244   9.446  13.679 -0.0229 -0.1251 -0.0757
32561W        W47408   2.510   2.410  16.515 -0.2316  0.3491  0.1318
32562W        W47409  13.322  16.562   5.941  0.0292 -0.1168  0.1459
32563W        W47410   7.641  15.899  11.570  0.0888  0.1066 -0.0234
32564W        W47411   9.845   6.648   3.177 -0.4138 -0.0712 -0.1335
32565W        W47412  16.600   4.468  14.091  0.0430 -0.3017  0.1280
32566W        W47413  12.695  10.536  12.798  0.1212 -0.0078  0.3235
32567W        W47414   0.179   5.882   4.765 -0.0448 -0.0078 -0.1186
32568W        W47415  14.083   7.873  12.373  0.0810 -0.0874  0.0443
32569W        W47416  16.564  14.867  11.086 -0.1447  0.0873  0.0202
32570W        W47417  11.255   4.074   5.767  0.0493  0.1505  0.1731
32571W        W47418   8.669   7.761  13.746 -0.5229  0.2195  0.0962
32572W        W47419  12.926  11.758  12.770 -0.1727  0.0741  0.0074
32573W        W47420  10.069   0.382  11.396 -0.4027  0.1161  0.1722
32574W        W47421  16.098  12.580  13.585  0.1405  0.0542 -0.0294
32575W        W47422   8.949  17.345  16.176  0.1042  0.0400 -0.1776
32576W        W47423  15.684   3.147  15.622 -0.0801  0.2413  0.1826
32577W        W47424   1.497  16.736   0.008  0.1100 -0.0143  0.0636
32578W        W47425  11.068  14.872   0.594 -0.0616 -0.0439  0.1058
32579W        W47426  16.449  12.873  15.145 -0.2676 -0.0287  0.1897
32580W        W47427   1.380   7.984  13.865 -0.2813 -0.2382 -0.0371
32581W        W47428   0.099   8.876  15.713 -0.1049  0.4500 -0.2155
32582W        W47429   6.906   2.463  14.494 -0.0873  0.0444 -0.1184
32583W        W47430  15.125   6.097   6.315 -0.0825  0.1165 -0.0656
32584W        W47431   6.492  11.366   6.662 -0.0856 -0.0354 -0.2615
32585W        W47432   0.733  11.486   3.375  0.2741 -0.3816  0.2394
32586W        W47433  12.658  16.329  15.788  0.2384 -0.0229 -0.0024
32587W        W47434  11.525  17.955  15.431  0.3747  0.3383 -0.0608
32588W        W47435  14.392   8.664   0.679  0.0232  0.0213 -0.1474
32589W        W47436  14.996   1.443   3.128  0.0755  0.2576 -0.1899
32590W        W47437  11.322  15.849  14.603  0.0140  0.1382 -0.1061
32591W        W47438  15.535   6.936  16.889 -0.2749 -0.1377  0.0009
32592W        W47439   7.497   6.049   3.604 -0.1850  0.1097  0.1021
32593W        W47440   4.215   7.574   6.126 -0.1628  0.2727 -0.2039
32594W        W47441  12.688   7.758  16.182  0.2645 -0.1684 -0.0057
32595W        W47442   7.047   5.890   3.163  0.0922 -0.0229  0.2364
32596W        W47443  16.771   5.078   2.026 -0.1811  0.4183 -0.1172
32597W        W47444   3.916   0.087  12.597 -0.0154  0.0867  0.4042
32598W        W47445   9.940  12.365   0.638  0.2824 -0.2395  0.0535
32599W        W47446  16.788   3.281  10.802 -0.2679 -0.1905 -0.4783
32600W        W47447   1.844   7.432  14.913  0.1071  0.0317  0.0331
32601W        W47448  11.251   4.563  10.948  0.1320  0.3612 -0.1765
32602W        W47449   4.401   3.778   2.292 -0.0214 -0.1102  0.2618
32603W        W47450   2.568   8.822   5.129  0.1354 -0.0036 -0.0949
32604W        W47451  10.130   3.006  16.126  0.4652 -0.2310  0.2510
32605W        W47452   5.873   3.523   5.168 -0.1125  0.1951 -0.0218
32606W        W47453  15.432  17.551  12.716 -0.2688  0.2515 -0.0667
32607W        W47454   3.416   1.736  11.725  0.2008 -0.2798 -0.2702
32608W        W47455  15.147  11.215   1.949 -0.1499  0.0858 -0.0552
32609W        W47456  15.867  14.092   5.518 -0.4799  0.0801  0.2422
32610W        W47457  14.436  13.295  11.401 -0.0260 -0.0724  0.1981
32611W        W47458   6.635   9.942  14.414  0.1634 -0.1690 -0.0647
32612W        W47459  16.703   0.827   1.053 -0.1671 -0.1439 -0.0245
32613W        W47460  11.275   0.178   0.864 -0.0637 -0.1956 -0.0846
32614W        W47461  15.998   1.149  16.765  0.0586 -0.0212 -0.0288
32615W        W47462  10.504  16.732  15.523 -0.0541  0.1009  0.2995
32616W        W47463  16.816  10.519  12.477  0.3225 -0.0531 -0.2236
32617W        W47464  13.207  13.651   4.732  0.2551  0.2325  0.1128
32618W        W47465  13.086   1.933  15.713  0.0799 -0.0364  0.0211
32619W        W47466  14.181   9.953  11.179 -0.0519 -0.2776 -0.2212
32620W        W47467  12.813   8.912  13.461  0.0878  0.1776 -0.0824
32621W        W47468  10.974   6.968  14.166 -0.1186  0.0067  0.0894
32622W        W47469  12.303  10.355   5.687  0.2866 -0.1057 -0.1439
32623W        W47470  13.841  13.557   1.083  0.0241  0.0801  0.2247
32624W        W47471  17.136  16.786  12.628 -0.0263 -0.0425  0.1964
32625W        W47472  10.388  14.692  16.427  0.1289  0.1400  0.5470
32626W        W47473  12.850   5.432   6.513  0.1014 -0.0140 -0.1403
32627W        W47474  11.010  11.544  12.837 -0.0079  0.0538  0.0019
32628W        W47475  10.413  15.011  12.559  0.2289  0.1162 -0.1141
32629W        W47476   0.249   5.496  15.233  0.3160  0.3707  0.4170
32630W        W47477  10.266   8.248  16.844  0.2662  0.0963 -0.2016
32631W        W47478  12.685  10.114  14.042 -0.0289  0.4806 -0.0929
32632W        W47479   4.193   5.349  16.612  0.2521 -0.1811  0.1622
32633W        W47480  13.186   1.367  14.873  0.0702  0.2230  0.4673
32634W        W47481  11.489   2.347   4.607  0.2668  0.2291 -0.2745
32635W        W47482   6.545   9.177   1.766  0.4291 -0.3559 -0.0873
32636W        W47483  15.001   7.893   4.941 -0.0879  0.0917  0.0277
32637W        W47484   4.894   7.831  12.734  0.1957 -0.0945 -0.0545
32638W        W47485  14.310   6.151   1.069 -0.1700 -0.0156  0.0869
32639W        W47486  12.920   8.034  16.976  0.0676  0.1104  0.5490
32640W        W47487  16.945  15.401   2.970  0.0480 -0.4492 -0.0459
32641W        W47488  13.575  13.775  12.789  0.3092 -0.2195  0.2780
32642W        W47489  13.404  12.206   1.125 -0.0911 -0.0713  0.0458
32643W        W47490  11.315   7.220  14.537  0.2650  0.2346  0.3913
32644W        W47491  17.399  14.236  15.952 -0.2432  0.0690  0.0565
32645W        W47492  11.461  11.412   6.262 -0.1844 -0.2734 -0.0032
32646W        W47493   4.155   6.157   3.649 -0.1671 -0.0375 -0.1426
32647W        W47494  16.852   0.076   2.252  0.2369  0.0907 -0.1614
32648W        W47495  13.306   3.725  12.569  0.0609 -0.0673 -0.1291
32649W        W47496  17.680   0.686   2.094 -0.1992 -0.0154 -0.0260
32650W        W47497  10.990   9.680  13.828  0.0200 -0.0962  0.0587
32651W        W47498  14.709   6.692  14.541  0.0488 -0.0903 -0.1231
32652W        W47499   6.072   0.122  17.095 -0.1762  0.1479 -0.0844
32653W        W47500  16.327   0.715  11.770 -0.0289  0.3282 -0.0115
32654W        W47501  17.453   5.292   2.773 -0.0839  0.1113 -0.0226
32655W        W47502  10.532   6.825  14.453 -0.2227  0.1130 -0.3128
32656W        W47503  14.775   5.516  14.895 -0.0026 -0.2236  0.1680
32657W        W47504  11.633   6.564   5.252  0.2260 -0.0089  0.2181
32658W        W47505  15.916   5.139  11.553  0.1065 -0.4469  0.0363
32659W        W47506  15.289  14.032   1.350 -0.0202 -0.0991 -0.3057
32660W        W47507   2.697   1.131   0.654  0.2748 -0.2446 -0.2772
32661W        W47508   7.758  13.227  15.488 -0.0471 -0.0706 -0.1672
32662W        W47509  10.384  15.353   1.255  0.0656 -0.1706 -0.2387
32663W        W47510  13.035   4.154   2.689 -0.3516 -0.1285 -0.0522
32664W        W47511  15.632  14.926  11.417  0.0403  0.1703 -0.0346
32665W        W47512  16.670  11.296   3.836 -0.1021 -0.2042 -0.1338
32666W        W47513  15.178   2.022   2.134  0.0668 -0.1330  0.0690
32667W        W47514  10.462   4.208  15.795 -0.0430 -0.1456  0.2932
32668W        W47515  14.521   5.197   2.484  0.2548  0.2534 -0.0614
32669W        W47516   3.571  17.225  12.622 -0.0304  0.1173 -0.0298
32670W        W47517  10.411  17.067  15.009  0.0431 -0.0167  0.2138
32671W        W47518   1.494  15.922   3.399 -0.2975  0.0384 -0.0497
32672W        W47519  10.693  16.941  16.587 -0.1523 -0.0338 -0.1184
32673W        W47520   0.146   8.389   0.433 -0.1731 -0.1649  0.1073
32674W        W47521  10.840   1.143   5.644 -0.0017 -0.1341 -0.0177
32675W        W47522  16.811   0.488   4.967  0.0139 -0.3537  0.0261
32676W        W47523  15.572  15.795   9.854  0.0829 -0.3206 -0.3089
32677W        W47524  17.533   0.573  13.532 -0.1845 -0.0833 -0.4476
32678W        W47525   9.421   9.331   5.810  0.1913 -0.0305 -0.1635
32679W        W47526  13.844   1.904  13.329  0.0247 -0.1085 -0.2063
32680W        W47527  10.249   7.136  12.508  0.1162 -0.0224  0.3021
32681W        W47528   6.149   1.362  15.610 -0.0623 -0.0005 -0.1604
32682W        W47529  12.791   3.786   2.488  0.2942 -0.0782 -0.0697
32683W        W47530   5.399   5.909   2.958 -0.1913 -0.4298  0.0315
32684W        W47531  10.066   0.778  12.559  0.4125 -0.1551  0.0070
32685W        W47532  14.979   4.678  15.023 -0.1175 -0.0859  0.1037
32686W        W47533  10.895  17.269   2.146 -0.2711 -0.0358  0.0055
32687W        W47534  15.792  12.202  16.508 -0.0835 -0.0326  0.2409
32688W        W47535  12.355   8.946   5.270  0.1181 -0.3566  0.0070
32689W        W47536  17.268   1.043  12.817  0.1177 -0.0473 -0.1763
32690W        W47537   1.455  13.996  12.689 -0.1057  0.0768 -0.2971
32691W        W47538   2.246  12.437   2.673 -0.1303  0.1118  0.1623
32692W        W47539  15.947  12.504  11.495 -0.1136  0.2983 -0.2576
32693W        W47540   9.401   7.342  12.748 -0.0325 -0.2697  0.3134
32694W        W47541  17.480   2.364  12.136  0.2464 -0.0817  0.0985
32695W        W47542   6.012   7.254  14.092 -0.0728 -0.2770  0.1176
32696W        W47543  17.464  10.543   3.170 -0.1043  0.3457  0.1328
32697W        W47544  14.163   9.479  10.935 -0.1354 -0.1676 -0.1010
32698W        W47545  16.051   7.283  10.533 -0.0277  0.0881  0.2466
32699W        W47546  14.563  12.221   4.213  0.0704  0.1023 -0.1102
32700W        W47547  16.578  12.468   1.998  0.1576 -0.0720 -0.1502
32701W        W47548  13.505   9.107  11.987 -0.1794  0.2052 -0.0851
32702W        W47549   3.124   7.956   1.513  0.0473 -0.3591 -0.1125
32703W        W47550  16.776   4.749  15.000  0.1138  0.2992 -0.1260
32704W        W47551   1.868  12.152   5.289 -0.0854  0.2229 -0.2972
32705W        W47552  14.339  14.681   3.574  0.0880  0.0362  0.2858
32706W        W47553  14.751   2.536  16.500  0.1581 -0.0917 -0.0284
32707W        W47554  13.495   7.820   2.911 -0.0337 -0.2648 -0.1232
32708W        W47555  10.823   1.336  11.397 -0.3251  0.0088  0.1164
32709W        W47556  11.393   4.992   0.697 -0.0937 -0.0132 -0.0024
32710W        W47557   3.516  16.227  15.479 -0.5134  0.2041 -0.1792
32711W        W47558  15.024   1.570  17.025 -0.0724 -0.4077 -0.1977
32712W        W47559  15.343   0.914  12.987  0.2343  0.0109 -0.2082
32713W        W47560  17.295   5.887  11.463  0.1628  0.0335 -0.0898
32714W        W47561  12.295   9.779  10.516  0.0316 -0.0421  0.1319
32715W        W47562   0.529   2.163  12.476 -0.2932 -0.1395  0.1988
32716W        W47563  15.934   6.787  11.549 -0.1827  0.4415 -0.2451
32717W        W47564  15.670  13.929   4.947 -0.1548  0.3034 -0.1633
32718W        W47565  11.194   4.536   5.893  0.1027  0.2266  0.0534
32719W        W47566  17.063   5.902  14.168 -0.1410  0.0301 -0.1204
32720W        W47567  16.061  11.004  15.423  0.0013  0.1068 -0.1424
32721W        W47568  13.398   3.975   3.912 -0.1760  0.1712  0.0721
32722W        W47569   2.911   6.420   0.044  0.0985  0.1476 -0.0284
32723W        W47570  10.628   3.543   1.495 -0.0844  0.2652  0.4196
32724W        W47571   6.745  14.476  15.967 -0.0231  0.0919  0.1861
32725W        W47572  14.160  12.447   2.503  0.1128  0.0003  0.1181
32726W        W47573  13.837   5.660   4.201 -0.0631 -0.3468 -0.0358
32727W        W47574   0.667  16.520  16.425  0.1610 -0.3944  0.0468
32728W        W47575  14.464   1.661   3.862  0.1177 -0.0674 -0.0981
32729W        W47576   5.765  10.053   5.153 -0.0683 -0.3647  0.0274
32730W        W47577   9.649  16.643   3.172  0.1341 -0.0344  0.0422
32731W        W47578   9.579  11.166  12.317 -0.2075  0.0223  0.3723
32732W        W47579  13.799   3.881  12.463 -0.0584  0.3979  0.1860
32733W        W47580   4.196   6.486   4.919  0.0491 -0.0324 -0.3456
32734W        W47581  15.794   2.706  12.097 -0.0368 -0.3822 -0.1619
32735W        W47582  11.303   5.471   4.597  0.3388  0.0829  0.0526
32736W        W47583  13.508  17.917   1.347 -0.1753  0.0553  0.1380
32737W        W47584  15.840  10.036  16.804  0.0333  0.1986  0.2096
32738W        W47585   1.846   6.838  16.924  0.0542 -0.0954  0.0349
32739W        W47586   0.921   6.584  16.557 -0.0766  0.0301  0.1590
32740W        W47587   2.636   7.254   1.989  0.1358  0.1201 -0.1492
32741W        W47588   9.015  16.017   3.116 -0.1021 -0.1378  0.0116
32742W        W47589  14.267  17.768  14.199 -0.0673  0.2474 -0.1284
32743W        W47590  11.636   4.137  15.429  0.2061 -0.0345  0.0218
32744W        W47591  16.969   4.054  13.987  0.2687  0.1875 -0.1909
32745W        W47592   9.927   8.368   2.731  0.1958 -0.1079 -0.0665
32746W        W47593   9.849   1.908  15.979  0.0223 -0.3591 -0.1266
32747W        W47594  13.363   2.510   4.843 -0.2823  0.0329 -0.3228
32748W        W47595  13.116   2.319  11.401 -0.0431  0.0159 -0.0264
32749W        W47596   1.286   7.965  13.372  0.0913 -0.1423 -0.1846
32750W        W47597   8.595   9.608  16.436 -0.0726  0.0130  0.0016
32751W        W47598   1.056  12.109   6.452  0.2013  0.0246  0.0718
32752W        W47599  14.670  14.599  12.410 -0.0308  0.2539  0.0976
32753W        W47600   2.726  10.144   3.270 -0.1533 -0.3428 -0.1790
32754W        W47601   7.114   0.043  17.025 -0.0508 -0.1024  0.0766
32755W        W47602  16.625  17.569   3.077  0.0841  0.0202 -0.1876
32756W        W47603  13.490   7.831   0.742  0.0508  0.2254 -0.0192
32757W        W47604  14.910   6.857   4.045  0.0797 -0.0800  0.0237
32758W        W47605  13.586   4.603   0.057  0.4300 -0.0532 -0.1326
32759W        W47606  10.103  13.855  11.856 -0.4531 -0.2297  0.0429
32760W        W47607  12.498  14.844   5.392  0.0354 -0.2567  0.2023
32761W        W47608  16.965  17.971   3.178 -0.1644  0.1366  0.0069
32762W        W47609  10.835   5.326   0.194 -0.0234  0.1595 -0.3406
32763W        W47610   9.254   8.985  13.249  0.1859  0.3392  0.1425
32764W        W47611  16.644  10.855   1.422  0.1214  0.2724 -0.0648
32765W        W47612  15.139   1.020  11.555  0.1253 -0.1132  0.3738
32766W        W47613  13.573   2.678  16.479 -0.1504 -0.1912  0.0151
32767W        W47614  11.990  14.687  16.261  0.1073 -0.1977 -0.1686
32768W        W47615  17.636  17.480  14.647  0.1102  0.1158  0.1345
32769W        W47616  12.037   6.677   2.328 -0.1631  0.2183  0.0817
32770W        W47617  11.223   2.608  14.500 -0.2797 -0.1162  0.0245
32771W        W47618  13.076  16.832  11.221 -0.1619 -0.1239 -0.2047
32772W        W47619  14.129   0.792   1.975 -0.1404 -0.0579 -0.0057
32773W        W47620   9.669  10.175   4.577 -0.0268 -0.1396  0.1699
32774W        W47621  12.477   1.210   0.277 -0.1227 -0.2118 -0.0651
32775W        W47622  16.298   4.217   5.907 -0.2747  0.1451 -0.0450
32776W        W47623  10.003  16.428   5.592 -0.0729  0.1688 -0.0223
32777W        W47624  14.470  15.957  15.807 -0.1096 -0.1359  0.3080
32778W        W47625  12.311   4.736   3.893  0.0015 -0.0696  0.0919
32779W        W47626  12.402   8.974   0.937  0.2823  0.0552  0.1851
32780W        W47627  11.970   4.734   3.480 -0.1861 -0.3091  0.4433
32781W        W47628  11.991   3.752  15.630 -0.0253  0.1746  0.1229
32782W        W47629  12.688   1.496   6.715 -0.0415  0.3009  0.1411
32783W        W47630   1.051   2.981   5.262  0.3863  0.2266  0.2101
32784W        W47631  11.954   9.562   4.847 -0.0389 -0.3011 -0.1518
32785W        W47632  10.827  13.830   5.382 -0.0298 -0.1798  0.1241
32786W        W47633   3.782   5.598  13.135 -0.2771 -0.2465  0.0361
32787W        W47634   7.813   0.416   1.225 -0.0239 -0.2528  0.0718
32788W        W47635   4.439   8.490   3.340  0.0620  0.1042  0.2336
32789W        W47636  14.760   9.927   2.813 -0.1136  0.5524 -0.2845
32790W        W47637  13.188   7.404  13.717 -0.5248  0.3804  0.0450
32791W        W47638  17.549  11.109   1.430 -0.0853 -0.2340 -0.2296
32792W        W47639   0.920  14.971   5.235 -0.2342 -0.0918  0.3013
32793W        W47640  15.258   9.676  13.009 -0.0032  0.1208  0.1206
32794W        W47641  14.643  16.137  11.435  0.1889  0.1390 -0.0885
32795W        W47642   0.203  11.245   1.362 -0.0737  0.0595  0.1426
32796W        W47643  15.699   3.500  13.786  0.2261  0.0842 -0.0649
32797W        W47644   1.374  12.172   3.502  0.0654 -0.1364 -0.0162
32798W        W47645  12.457  11.078  13.497  0.0121  0.2810  0.1727
32799W        W47646  15.653  16.649  13.587 -0.0490 -0.1565 -0.1902
32800W        W47647  11.333  16.687   4.054  0.1529  0.2700  0.1072
32801W        W47648   6.431   6.086  13.280 -0.0470  0.1287  0.1384
32802W        W47649  11.920  16.001   1.855 -0.1049  0.1185  0.0877
32803W        W47650  13.537   5.249   3.913  0.0743 -0.2848  0.1249
32804W        W47651  11.290   7.987   2.865  0.0706  0.0117  0.4555
32805W        W47652  11.768   9.931   1.757 -0.1409 -0.0840  0.1186
32806W        W47653  17.463  11.874  11.494 -0.0869 -0.2728  0.0163
32807W        W47654   2.230   7.388   0.613 -0.1135 -0.0205 -0.0303
32808W        W47655   3.501   1.619   0.717 -0.1901  0.1233 -0.0373
32809W        W47656   0.857   8.142  15.637 -0.2190  0.2009 -0.0969
32810W        W47657  16.621  13.308  16.871  0.1539  0.3218  0.0819
32811W        W47658  10.060  11.294   6.131 -0.1247 -0.0863 -0.3538
32812W        W47659  11.143  11.445  16.452 -0.1106 -0.0368 -0.3348
32813W        W47660  13.463   2.573  11.126 -0.0504 -0.0685 -0.2003
32814W        W47661   0.787   9.385  15.355 -0.0093 -0.1780 -0.1804
32815W        W47662   3.965  17.117   2.309  0.0366 -0.0784 -0.2407
32816W        W47663  14.477   8.304  12.086 -0.0044 -0.1966 -0.0031
32817W        W47664  15.503  13.841  10.200  0.1502 -0.3360 -0.1762
32818W        W47665   8.763  17.858   1.813  0.1469  0.2971  0.1542
32819W        W47666  13.315  11.303   2.508 -0.0466  0.0016 -0.1059
32820W        W47667  15.486   2.416  14.463  0.1078  0.2136  0.1352
32821W        W47668   2.121   7.747   3.537  0.2575 -0.2433 -0.0540
32822W        W47669  10.890   7.685  16.258  0.1149 -0.3553 -0.2307
32823W        W47670   3.260   9.931  11.800 -0.0873 -0.1332 -0.0813
32824W        W47671  15.276   0.579   0.250  0.0579 -0.1004 -0.1244
32825W        W47672  13.330   6.842   0.316 -0.0096  0.2787 -0.1777
32826W        W47673   7.731   0.846  16.770 -0.1645 -0.1649 -0.0088
32827W        W47674  15.592  13.923   0.123  0.2723  0.0401  0.1443
32828W        W47675   3.148  11.320  12.268 -0.0370 -0.3267  0.0547
32829W        W47676   7.671   1.305   1.290 -0.2063 -0.0385  0.3126
32830W        W47677   2.828   9.382  15.563 -0.2150 -0.1545  0.1484
32831W        W47678   1.258   5.299  12.861  0.3063  0.2882 -0.2233
32832W        W47679  16.340  15.334  11.188  0.2025  0.3267 -0.0201
32833W        W47680  15.348  13.020  10.808  0.0743 -0.1038  0.2782
32834W        W47681  14.813   6.953  11.524  0.1178 -0.2127 -0.0317
32835W        W47682  15.399  16.042   0.868 -0.0431 -0.1364 -0.0949
32836W        W47683   5.378  11.579  11.976  0.5029  0.5203  0.3534
32837W        W47684   8.020  16.566   1.001  0.2244  0.0283 -0.0348
32838W        W47685   7.977  16.875   3.616  0.2016  0.1846  0.2712
32839W        W47686   3.276   5.952  12.104 -0.0683 -0.0880  0.3605
32840W        W47687  10.502   0.738   1.064  0.2523  0.3615  0.0576
32841W        W47688  13.314   8.302   2.730 -0.1409  0.3765  0.1238
32842W        W47689  11.796  14.724  14.978  0.0591 -0.1169  0.2625
32843W        W47690  13.130  16.393  14.796  0.1075 -0.3039  0.0259
32844W        W47691   3.070   0.125  16.700  0.1691 -0.1907 -0.1047
32845W        W47692  16.454  10.341  14.841 -0.2735 -0.3242 -0.0312
32846W        W47693  12.965  14.364  16.389  0.1642  0.0412 -0.3015
32847W        W47694  14.610   4.002  13.035 -0.0539  0.0456  0.0304
32848W        W47695   1.233  15.868  10.751  0.1058 -0.1151 -0.2079
32849W        W47696  15.647  14.449  15.916 -0.2542  0.0806 -0.2321
32850W        W47697  11.519   7.958  13.103 -0.0393 -0.0292  0.0305
32851W        W47698  14.577   1.158  11.676  0.0787 -0.0106  0.2450
32852W        W47699   2.375  17.631   1.614  0.0873  0.2584  0.0253
32853W        W47700  12.112   5.686  14.638  0.0356 -0.1927  0.1220
32854W        W47701  12.789  13.854  14.440 -0.1551  0.2317 -0.3059
32855W        W47702  11.867   4.619  15.925  0.1391  0.0173  0.1844
32856W        W47703  13.843  16.120  15.271  0.3958  0.0748  0.0703
32857W        W47704  13.916   6.235   1.363 -0.2771 -0.0581  0.1564
32858W        W47705  17.282  15.770   2.632 -0.1329  0.2214  0.0812
32859W        W47706  15.130   6.503   0.981  0.4022  0.2379  0.0844
32860W        W47707  16.668   2.958   2.119 -0.0176  0.1625 -0.1209
32861W        W47708   0.042   6.370  14.015 -0.1042  0.0619 -0.4114
32862W        W47709  12.326  15.245  14.029  0.2799  0.1355 -0.0408
32863W        W47710  17.114  15.299   4.077  0.2049  0.1779 -0.3397
32864W        W47711  12.534   3.078  14.015 -0.1452 -0.0655 -0.1218
32865W        W47712  11.870   8.231  14.683  0.2499  0.0965 -0.0207
32866W        W47713   9.683   3.156  16.327 -0.0861  0.1438 -0.0223
32867W        W47714   1.985  15.988   3.429  0.1159  0.1905 -0.2630
32868W        W47715   4.240  16.184   0.887  0.1339 -0.0164 -0.0576
32869W        W47716   6.617  17.790   5.460 -0.2180  0.0717 -0.1731
32870W        W47717   9.882  12.319   2.726 -0.0441 -0.2718 -0.3257
32871W        W47718   0.356  12.274  12.449 -0.3036  0.1377  0.1661
32872W        W47719   3.983  14.566   2.760  0.1125 -0.2171  0.0242
32873W        W47720   4.082   4.949   1.510  0.1206 -0.1022  0.2036
32874W        W47721  11.292   8.019   6.491  0.1322  0.2102 -0.0881
32875W        W47722  12.561   0.784   1.048  0.0133  0.2171 -0.0068
32876W        W47723  12.339  11.928   1.898  0.0052  0.0417  0.0559
32877W        W47724  17.901  11.438  10.709  0.0480  0.1606 -0.0862
32878W        W47725  11.097   8.005  12.283  0.1857 -0.1496  0.1756
32879W        W47726   3.559   9.922  15.706  0.1892  0.0862  0.3245
32880W        W47727  13.722   2.775   5.432  0.4246  0.1520 -0.1514
32881W        W47728   4.035   6.873   2.207  0.1109 -0.1903 -0.2182
32882W        W47729   4.425   5.990   0.825 -0.0082  0.0603 -0.4206
32883W        W47730   6.532  14.770  13.623 -0.2803 -0.3909  0.0378
32884W        W47731   9.934   6.114  12.066  0.1428  0.3029  0.0213
32885W        W47732  16.363   8.749  12.751  0.3846  0.0015 -0.0213
32886W        W47733   0.467  10.407   5.703  0.0901  0.0962 -0.1672
32887W        W47734  15.123   4.228  14.860  0.0293 -0.0476 -0.1445
32888W        W47735  15.015  11.348   3.289 -0.1974  0.2402  0.0037
32889W        W47736   7.690   6.254   5.203 -0.2268 -0.1206  0.2486
32890W        W47737  14.067   2.317   0.195 -0.1749  0.0590  0.1798
32891W        W47738  16.913   8.520   3.501  0.2640  0.3335 -0.0607
32892W        W47739  15.585   3.749   6.843 -0.0021  0.0382 -0.1182
32893W        W47740   9.572  16.789  12.220 -0.2803 -0.0955  0.2320
32894W        W47741   4.259   7.633   2.565 -0.0193 -0.1548 -0.1419
32895W        W47742   0.467  11.189   3.018 -0.3415 -0.1079 -0.2185
32896W        W47743   8.791  10.918   0.279  0.0238 -0.0475  0.2379
32897W        W47744  16.379   3.966   4.173 -0.0248  0.2208  0.1600
32898W        W47745  10.429  12.993   6.341 -0.2395 -0.3667 -0.1548
32899W        W47746  10.038   3.609  11.748  0.0179  0.3176  0.0572
32900W        W47747   9.047   1.890  14.773  0.1328 -0.2661  0.0265
32901W        W47748   9.110   7.568   1.548 -0.0571  0.3490 -0.2382
32902W        W47749  16.260   4.871  12.220 -0.0734 -0.0462 -0.0059
32903W        W47750  11.811   7.177   6.064  0.1395  0.1044 -0.1652
32904W        W47751  17.765   4.415  10.748 -0.0777 -0.0510  0.3781
32905W        W47752  13.079  15.270  15.904  0.1097  0.3560  0.0747
32906W        W47753  14.679  12.357   2.470  0.2785  0.0783  0.0140
32907W        W47754  16.933  14.107   3.476  0.0612  0.0047  0.1282
32908W        W47755  11.855  13.207  14.194  0.2243  0.1109 -0.0074
32909W        W47756   9.332   2.638   0.006 -0.1289 -0.0284 -0.0124
32910W        W47757  11.720  12.495   2.549  0.0624 -0.1125  0.2746
32911W        W47758  16.822  12.637  11.389 -0.2227  0.0629  0.1108
32912W        W47759  16.828  12.353   3.998 -0.2145 -0.1217  0.0345
32913W        W47760   1.613  11.996   4.031 -0.1098  0.4045 -0.1885
32914W        W47761  15.545  12.182  11.625 -0.0252  0.1617  0.1379
32915W        W47762  13.305  11.432  16.482  0.0766 -0.3739 -0.2245
32916W        W47763   0.973  12.844  11.452 -0.1024  0.0579 -0.0199
32917W        W47764  10.876   5.186   3.740  0.2232  0.0708  0.0962
32918W        W47765   8.990   9.202  16.896 -0.0034  0.0412  0.2566
32919W        W47766  14.056   5.558  14.315  0.0300 -0.0000 -0.2129
32920W        W47767  13.904   8.308   0.612 -0.2489 -0.1515 -0.0304
32921W        W47768  15.521   0.124  14.494 -0.0759 -0.0820  0.1300
32922W        W47769  13.760   5.815   1.622  0.0213 -0.0356  0.5281
32923W        W47770  16.706   8.845  13.271 -0.1315 -0.1170  0.0268
32924W        W47771  16.558  13.321  14.078  0.2154 -0.0346 -0.3123
32925W        W47772  14.395  12.866  10.849  0.3397 -0.2409 -0.0207
32926W        W47773  13.777  15.284   2.928 -0.0918  0.1155  0.3546
32927W        W47774   0.253  11.726  14.257  0.0502  0.1557  0.1861
32928W        W47775   8.349   2.335   0.948 -0.1533  0.2643 -0.0780
32929W        W47776  12.789  16.392   4.141  0.3671  0.0365 -0.2625
32930W        W47777   8.165  12.960   0.283 -0.1335 -0.2321 -0.2705
32931W        W47778   8.245  17.158   5.481  0.0958 -0.1011  0.0477
32932W        W47779  12.092  10.839  15.739  0.2640  0.0164 -0.2189
32933W        W47780  10.938  10.190  17.012 -0.3585 -0.0016  0.1349
32934W        W47781  14.853   4.553  15.888 -0.1577 -0.2143 -0.2910
32935W        W47782  11.087  10.102   6.082 -0.1098 -0.0736 -0.0635
32936W        W47783   2.333  13.861   5.937  0.1130 -0.2468 -0.1896
32937W        W47784  15.333  10.156  13.079 -0.0691 -0.2194 -0.1241
32938W        W47785  16.832  11.426  13.953  0.2853  0.0266  0.0173
32939W        W47786  16.393  11.532  14.704 -0.0364  0.1317  0.0723
32940W        W47787   3.037   8.588   2.637  0.1504  0.2081 -0.0180
32941W        W47788  14.047   2.888  10.974 -0.2151  0.1175 -0.0718
32942W        W47789  11.306   7.301   4.457  0.0629 -0.0009 -0.0481
32943W        W47790  15.313   4.162  12.099 -0.0866  0.3295 -0.3157
32944W        W47791  15.224   6.183   1.564 -0.2745  0.2411  0.0610
32945W        W47792   1.300  16.618   5.041  0.0151 -0.2029  0.3600
32946W        W47793   4.388  15.533  14.493  0.1578  0.0115  0.1554
32947W        W47794  16.998   1.638   3.861  0.0605  0.2556  0.2404
32948W        W47795  13.070  10.833   1.101  0.2241  0.1415  0.2119
32949W        W47796   1.540  12.878   0.429  0.0090 -0.2174 -0.2259
32950W        W47797   6.213   3.926   3.908 -0.3143 -0.0667 -0.1621
32951W        W47798   4.731   1.385  12.434  0.1066  0.4312  0.2707
32952W        W47799  15.970   2.589   5.444  0.1744  0.1529  0.2272
32953W        W47800   2.511   1.337   5.183  0.2759  0.2335 -0.0755
32954W        W47801   8.244   4.556   4.527  0.1311  0.2613 -0.3207
32955W        W47802   1.853   7.978  13.915  0.0844  0.2138 -0.1692
32956W        W47803  17.149  12.492   4.557  0.1315  0.0136 -0.2991
32957W        W47804  16.510   7.674   0.159  0.0478  0.3437 -0.0103
32958W        W47805  16.595  17.557  15.780  0.3228  0.2336  0.3592
32959W        W47806   8.139  11.487   2.748 -0.3497 -0.0043 -0.3187
32960W        W47807  14.656   3.232   6.097  0.0750  0.2239 -0.0481
32961W        W47808  10.063   1.344   4.888  0.2024 -0.0886 -0.3473
32962W        W47809  13.527   9.587   2.499  0.0569 -0.2746  0.0766
32963W        W47810   2.312   8.729  12.399 -0.0866  0.3675  0.1264
32964W        W47811   0.219   6.332  14.802 -0.2129 -0.1477 -0.1090
32965W        W47812  11.091   3.402   2.792  0.0500 -0.2856 -0.0520
32966W        W47813  12.221   1.755   1.403  0.0387 -0.1762  0.2138
32967W        W47814  13.263  13.011   2.357 -0.1265  0.3120  0.1068
32968W        W47815  12.254   0.883  11.395 -0.2275 -0.0007 -0.0775
32969W        W47816  14.173  14.333  15.857 -0.0908  0.1165  0.1102
32970W        W47817  13.990  10.879  16.935  0.1639 -0.4530 -0.0326
32971W        W47818  13.072  15.448  11.240  0.1226 -0.2753  0.0816
32972W        W47819   9.893   5.737   0.460  0.2204  0.1993 -0.0732
32973W        W47820  13.293   2.457   4.013  0.1844 -0.4464 -0.0657
32974W        W47821   5.613  12.808  13.802 -0.1356  0.2329  0.1688
32975W        W47822  14.319   8.551   3.963 -0.0543  0.1308  0.0213
32976W        W47823  15.341   9.057  11.271  0.0848 -0.3475 -0.1913
32977W        W47824  12.379   2.688   0.464 -0.0313  0.2755  0.1585
32978W        W47825  13.321  12.387  12.306  0.0926  0.0386  0.0734
32979W        W47826   1.996   3.869  16.562  0.0016  0.0564  0.0981
32980W        W47827  10.537  17.517  14.535 -0.0210 -0.3464 -0.0170
32981W        W47828   0.430   7.658   0.938  0.0287  0.0125 -0.0618
32982W        W47829  11.707   8.188  16.612  0.1240 -0.0709 -0.1770
32983W        W47830  10.773   9.827  15.571  0.1756  0.0674 -0.0414
32984W        W47831  17.902  14.430   5.974  0.2349  0.3977  0.0736
32985W        W47832   0.592   7.231  16.004 -0.2599  0.1659 -0.0218
32986W        W47833   0.499  14.656  16.869  0.0798 -0.1543  0.0850
32987W        W47834  11.296   9.374   5.037 -0.2012 -0.2926 -0.4470
32988W        W47835  12.962   0.370   2.581  0.1835  0.1102  0.0843
32989W        W47836  14.291   9.707   5.202  0.2402  0.0500  0.0651
32990W        W47837  12.705  14.738   3.260 -0.2664  0.3675 -0.0693
32991W        W47838  14.304   4.777   3.553 -0.4481 -0.0302  0.0396
32992W        W47839  15.623   6.666  14.822  0.0743 -0.0034  0.2433
32993W        W47840   9.805   3.366  15.652  0.2699  0.0399  0.1170
32994W        W47841  13.874  12.356   1.811 -0.0451 -0.0787  0.0763
32995W        W47842   0.362   2.158   4.241  0.2404  0.0327  0.2717
32996W        W47843  11.293   0.674   3.228 -0.1115 -0.0870 -0.0740
32997W        W47844  17.082   6.543  15.534  0.2929  0.0446  0.2433
32998W        W47845  14.137  16.855  16.433  0.1661 -0.1180 -0.2587
32999W        W47846   8.414  15.762   0.402 -0.1614 -0.1296 -0.0664
33000W        W47847  12.639   9.472   3.670  0.1800  0.0199  0.0229
33001W        W47848  12.971   9.052   2.325  0.2327 -0.0981 -0.3315
33002W        W47849   3.817  11.478  16.579  0.0326  0.3534 -0.0132
33003W        W47850  14.054  17.224   5.147  0.1281 -0.5116 -0.1898
33004W        W47851  12.459  10.318  15.180 -0.0187 -0.4378 -0.1822
33005W        W47852  16.989   5.817   2.020 -0.4917  0.1568  0.2570
33006W        W47853   7.018   4.119  16.724 -0.4273 -0.3261  0.1112
33007W        W47854  17.013  16.689  15.551 -0.2376  0.1153 -0.1087
33008W        W47855   5.417  14.767  15.848 -0.0820  0.0841  0.1561
33009W        W47856  13.349  12.768   5.349  0.2561  0.3233  0.0567
33010W        W47857  10.054   3.717   0.886  0.0861 -0.0385 -0.0169
33011W        W47858  13.055  11.392  12.182  0.1813  0.1596 -0.0348
33012W        W47859  17.901   0.130  16.035 -0.2189 -0.0690  0.1204
33013W        W47860   5.864   7.779  14.289 -0.0607  0.2261  0.1029
33014W        W47861   2.452   3.112   4.904  0.1197  0.2465  0.0854
33015W        W47862   0.815  14.286  13.895 -0.1163  0.2368 -0.1052
33016W        W47863  16.815   5.107  11.519 -0.2272 -0.0056 -0.0211
33017W        W47864  10.291  16.642  12.728  0.1696 -0.3545 -0.2808
33018W        W47865   7.499   6.069   3.094  0.2366 -0.0874  0.3372
33019W        W47866  15.217   6.929  12.918  0.1765  0.1507 -0.3993
33020W        W47867   8.145   6.235  12.249  0.2881 -0.1957  0.1191
33021W        W47868  15.508  14.865   2.104  0.1064  0.0752 -0.1663
33022W        W47869  10.447  16.527  14.327  0.3253 -0.1087  0.2176
33023W        W47870  17.954  17.656   5.724  0.1622 -0.1224  0.0427
33024W        W47871  13.969   7.840   0.565  0.2522 -0.1445  0.0218
33025W        W47872  16.158  13.941  13.782  0.0000  0.0701 -0.2383
33026W        W47873  15.960   4.685   3.712 -0.2173 -0.4961  0.1054
33027W        W47874  15.450   3.121   6.028  0.0450  0.0223  0.1631
33028W        W47875  13.151  13.324  17.045  0.2056  0.1579 -0.0396
33029W        W47876  13.235  11.790   5.147 -0.2534  0.4273 -0.1098
33030W        W47877   8.996   9.872   2.114  0.0380 -0.0149  0.0607
33031W        W47878   9.847   8.424   6.415  0.0290  0.3914  0.0393
33032W        W47879   9.017  16.554   6.607 -0.0104 -0.0963 -0.0023
33033W        W47880  11.070   9.065  12.253  0.2976 -0.1147 -0.0024
33034W        W47881  10.657  13.888   3.961 -0.1788 -0.1954 -0.1592
33035W        W47882  17.314   8.234   4.889  0.0587  0.1296 -0.1397
33036W        W47883  13.352   1.210  14.353  0.3723  0.0268 -0.2796
33037W        W47884  13.098  14.017   3.645 -0.0271  0.0330  0.1030
33038W        W47885   8.490  10.262   1.303  0.1034 -0.3398  0.0895
33039W        W47886   0.214  17.665  10.694  0.2130 -0.0945  0.1418
33040W        W47887  17.708   8.541  14.622 -0.0965 -0.1803  0.2775
33041W        W47888  15.127  17.170   3.422  0.0086  0.4094 -0.1360
33042W        W47889  11.251   5.559   5.617 -0.0595 -0.2001 -0.0135
33043W        W47890  14.747  13.718   5.859  0.2152  0.2670  0.0278
33044W        W47891  13.461   2.211  16.625 -0.1838 -0.2340  0.2757
33045W        W47892  10.267   2.104  16.167  0.0887  0.0730 -0.0164
33046W        W47893  17.549   3.099   6.330 -0.0412  0.0600  0.1382
33047W        W47894  16.388   2.329  11.324 -0.0997  0.2774 -0.0137
33048W        W47895  12.451   6.557  16.749 -0.1027 -0.1310  0.3196
33049W        W47896  17.612   6.581   2.217 -0.0696  0.2497 -0.1347
33050W        W47897   8.542   3.021   3.218 -0.0845 -0.0097  0.2509
33051W        W47898  10.739  14.291  13.729  0.0095 -0.1971 -0.0867
33052W        W47899  12.633  13.849  14.883 -0.1314  0.3001  0.2410
33053W        W47900   7.661   6.955  13.422  0.1718  0.0897  0.0486
33054W        W47901  10.206   4.678   3.949  0.0038 -0.0110  0.1625
33055W        W47902   6.957  15.599  13.384 -0.0452 -0.1146 -0.1609
33056W        W47903   8.198   2.744  12.521 -0.0270  0.2259  0.0721
33057W        W47904  14.960   4.193   2.335 -0.0454 -0.2115  0.0445
33058W        W47905  11.769   2.795   1.750  0.0142 -0.4224  0.0935
33059W        W47906  15.528   6.981   2.081 -0.1071 -0.0090 -0.0550
33060W        W47907  11.252  15.617  14.127 -0.1277  0.2042 -0.5809
33061W        W47908  15.013   9.618   3.671 -0.0126 -0.2637  0.0770
33062W        W47909   8.479  12.600   2.462 -0.2264 -0.2560 -0.0174
33063W        W47910   9.550   9.390   7.090 -0.1918 -0.0408  0.3747
33064W        W47911  16.695  13.364   2.286 -0.0160  0.1698  0.0018
33065W        W47912  14.061   8.684  11.217 -0.3826 -0.0029  0.1745
33066W        W47913   9.736  13.659   0.488  0.1543  0.0517 -0.1035
33067W        W47914   0.867  17.723  17.027  0.0404  0.3390 -0.0702
33068W        W47915  12.615   7.499   4.854  0.1846  0.2426  0.2624
33069W        W47916  12.926  17.920   3.689 -0.1459 -0.0500  0.0668
33070W        W47917   9.456  14.431  17.013 -0.1833  0.0080 -0.1642
33071W        W47918  13.465   0.197   4.856  0.1466 -0.0493 -0.0218
33072W        W47919  11.328  13.393   4.121  0.0120 -0.1474 -0.0285
33073W        W47920   2.389   3.177  13.894  0.0169 -0.0925 -0.1323
33074W        W47921  12.272  13.900  13.035  0.1403  0.1263  0.0232
33075W        W47922  10.561   5.698   4.296 -0.2029 -0.3013 -0.1899
33076W        W47923  10.924  13.745   1.130 -0.2329  0.1532 -0.1289
33077W        W47924   2.971   4.171   3.559 -0.2622  0.2543  0.1893
33078W        W47925  11.132   2.765  14.950  0.1726  0.1342 -0.2341
33079W        W47926  15.478   7.755  16.406 -0.0798 -0.1865 -0.1767
33080W        W47927  17.735   2.091  11.710 -0.0782 -0.0295 -0.3448
33081W        W47928  16.649  12.171  15.782  0.2171  0.1337  0.4745
33082W        W47929   0.461   7.224  13.052  0.0920  0.0257 -0.1140
33083W        W47930  14.004  10.602  11.301  0.0323 -0.0848  0.1658
33084W        W47931   8.941   1.092  14.717  0.1663  0.2004  0.0517
33085W        W47932   9.149   2.153   4.170 -0.0908 -0.0390  0.2574
33086W        W47933  14.536  10.827   0.701  0.2304 -0.0842  0.0128
33087W        W47934  11.989  13.642  11.155  0.2519 -0.1429  0.4054
33088W        W47935  12.227   6.706  14.275 -0.0120 -0.0882  0.0776
33089W        W47936   0.661   0.968  12.719  0.2014 -0.1759 -0.0508
33090W        W47937  13.142  15.957   3.288 -0.1209  0.1150  0.0391
33091W        W47938  15.623   3.788  12.210 -0.0550 -0.0199  0.1623
33092W        W47939  12.562   4.420  13.717 -0.0519  0.1525 -0.2193
33093W        W47940  10.535   8.484  12.722  0.3232  0.3137  0.1391
33094W        W47941   0.714  15.098  13.403  0.1521  0.0476 -0.3411
33095W        W47942   2.192  13.621   2.635  0.0311 -0.0260 -0.1326
33096W        W47943  10.658   3.995   4.593 -0.3038  0.0287  0.1812
33097W        W47944  11.379   8.261   5.040  0.4060  0.2658 -0.1337
33098W        W47945   7.460  16.086  10.487  0.0179 -0.0221 -0.0634
33099W        W47946  15.529   3.471   1.325  0.3660 -0.0540  0.0404
33100W        W47947  12.076  10.418   1.882 -0.0183 -0.3956 -0.3525
33101W        W47948  16.307   0.501   3.058  0.0924  0.0174  0.1042
33102W        W47949   8.328  11.873   1.771  0.0137 -0.0261  0.1638
33103W        W47950  15.319  16.171   4.911  0.0759 -0.0603 -0.2490
33104W        W47951   0.245   6.162   4.216  0.0985 -0.0321  0.0363
33105W        W47952   0.541  15.349  10.480 -0.1133 -0.0077 -0.1502
33106W        W47953   7.386   7.474  16.771  0.2633 -0.1138 -0.2202
33107W        W47954  16.731   1.014  11.964  0.1019  0.1873 -0.1781
33108W        W47955   8.530   5.092   0.040  0.2360 -0.1461  0.2204
33109W        W47956   1.201  16.900  15.771 -0.0038  0.0044  0.1736
33110W        W47957   0.320   9.452  14.188 -0.1940  0.1510  0.1455
33111W        W47958   5.738   4.291  12.077  0.0035 -0.0887 -0.2414
33112W        W47959  13.181  13.362   3.720  0.0341  0.1683  0.3709
33113W        W47960  10.622   3.315  16.836  0.5793  0.3504 -0.0606
33114W        W47961  12.229  10.742   1.382  0.1451  0.0871 -0.0469
33115W        W47962  16.018  15.659   2.689 -0.0643  0.0400 -0.0939
33116W        W47963  14.301  12.647   0.301 -0.0703  0.0565  0.0815
33117W        W47964   9.898   4.503   5.666  0.1580 -0.1439  0.1508
33118W        W47965  16.390   0.841  14.854  0.1908  0.0342 -0.0535
33119W        W47966  12.680  13.730  13.944 -0.1484  0.0363  0.1147
33120W        W47967  17.710   2.245  12.642 -0.1275 -0.0798  0.5815
33121W        W47968  12.659  13.556   1.885  0.1263 -0.0508 -0.0313
33122W        W47969  12.589  15.662   2.948 -0.1774  0.0668  0.0202
33123W        W47970  13.804   7.510   1.296 -0.1141 -0.1110  0.1037
33124W        W47971  12.184  13.553  14.052  0.0819 -0.0904  0.1383
33125W        W47972  12.270   2.213  11.898 -0.1584 -0.1796  0.0765
33126W        W47973   3.245  14.898  16.002  0.3603 -0.4675  0.1439
33127W        W47974  15.220   0.184   3.325  0.1405 -0.3314 -0.0747
33128W        W47975  13.592   5.596  14.204  0.1937  0.1950 -0.2659
33129W        W47976  10.788   3.773   5.683 -0.0275 -0.0655  0.1941
33130W        W47977   4.055   1.745  14.325 -0.2981 -0.0520  0.1521
33131W        W47978   8.109   3.031   1.242 -0.0930 -0.0276  0.1045
33132W        W47979  14.021  16.577   1.272 -0.0411  0.0675 -0.0496
33133W        W47980  14.572  11.444   9.968 -0.0299  0.0748  0.0055
33134W        W47981   1.570   6.925   0.698 -0.0048 -0.2442  0.2281
33135W        W47982  12.443   1.140  16.877 -0.0895  0.0049  0.1310
33136W        W47983   1.236   6.849   5.310  0.2965  0.2889 -0.2803
33137W        W47984  14.874   0.703  13.776 -0.2247  0.0811  0.1210
33138W        W47985  10.354   5.795  12.964  0.1661 -0.2914 -0.0902
33139W        W47986  11.727   1.672  13.056  0.1722 -0.0056  0.0722
33140W        W47987  17.441  13.732   1.587 -0.0653  0.1235 -0.1526
33141W        W47988  13.892  17.220  11.544 -0.1230  0.1296 -0.1051
33142W        W47989  15.823  17.197  12.499  0.5164 -0.1259 -0.2099
33143W        W47990   9.063  17.760  16.614 -0.2586 -0.1176  0.2802
33144W        W47991  15.971   1.540   3.008  0.0519  0.1488  0.1308
33145W        W47992  11.671   8.525  15.172  0.0901  0.1051 -0.0605
33146W        W47993  11.281  10.760   1.629  0.3591  0.2839  0.2183
33147W        W47994  16.741  17.938   6.242 -0.1605  0.0534  0.0378
33148W        W47995  16.799   6.996  13.975  0.2792 -0.2681  0.1422
33149W        W47996  11.404   0.024   4.324  0.2036 -0.0314  0.1926
33150W        W47997  13.260   5.085   1.437  0.0896  0.1944 -0.3512
33151W        W47998  11.740   8.899   3.368  0.0839 -0.0330 -0.2915
33152W        W47999   2.874   1.573  11.735  0.2165 -0.1582 -0.1366
33153W        W48000   0.231   0.523  13.917  0.1082  0.0202 -0.0165
33154W        W48001  16.577  16.627  12.697 -0.0897 -0.0673  0.2951
33155W        W48002  13.032   9.318  12.033 -0.0358  0.1104  0.0536
33156W        W48003   8.201  14.609   1.986  0.0662  0.2276  0.1561
33157W        W48004   1.459  11.095   0.611  0.2788  0.0330  0.3007
33158W        W48005  13.048   1.484  16.113 -0.2126  0.0820  0.0241
33159W        W48006  14.164  16.672  12.956  0.0530 -0.2358  0.1038
33160W        W48007   0.529   5.206   4.335  0.1956  0.1777  0.1143
33161W        W48008  16.815   4.467   3.466 -0.0490 -0.3527 -0.1593
33162W        W48009  16.612  16.364   2.938  0.1061  0.0534 -0.0763
33163W        W48010  10.428   6.667  12.291 -0.2100 -0.1264 -0.3464
33164W        W48011   1.813  13.768  16.296  0.1680  0.0594  0.2091
33165W        W48012  14.639  13.039  11.772  0.1812  0.0452  0.0799
33166W        W48013  15.643   8.922  15.675 -0.2154  0.2741  0.0423
33167W        W48014   1.078  12.501  14.976 -0.1540  0.3025  0.1207
33168W        W48015  17.041  17.786  15.814  0.0977  0.0394  0.1202
33169W        W48016  12.954   5.581  13.685  0.1711  0.3036 -0.1346
33170W        W48017   3.465  12.389  12.446 -0.0708  0.0678  0.1249
33171W        W48018  13.450   9.000  14.348 -0.0778  0.1932  0.0681
33172W        W48019   6.492   5.791   5.842 -0.1806 -0.1300 -0.0427
33173W        W48020  13.873   4.197   0.084  0.1289 -0.0932  0.2809
33174W        W48021   0.812  15.034  16.607 -0.1911 -0.2787 -0.1759
33175W        W48022  10.708   7.569   3.386 -0.1522  0.1339  0.2921
33176W        W48023  14.888  16.433  12.329 -0.0759  0.3689 -0.1448
33177W        W48024   1.353   2.035  11.530 -0.1045  0.0371  0.0372
33178W        W48025  15.636  13.802  12.372  0.2933  0.3197  0.0430
33179W        W48026   2.897  12.359  13.772 -0.1694 -0.0347  0.2347
33180W        W48027  13.559   6.914  14.209  0.0800  0.0632  0.1448
33181W        W48028   7.654  13.051   0.151  0.1487 -0.1246 -0.0926
33182W        W48029  14.512   0.084  10.730  0.0225  0.0344  0.0814
33183W        W48030  15.466   5.688  15.489  0.1797  0.1456 -0.0813
33184W        W48031   7.400  13.533  13.910  0.2548 -0.0588 -0.1208
33185W        W48032   0.263   9.621   1.823 -0.1980  0.1242  0.1818
33186W        W48033  13.821   0.937  16.074 -0.0636 -0.0931  0.0951
33187W        W48034  16.622   4.328   1.643 -0.0048  0.0418 -0.0533
33188W        W48035  12.570   3.335  14.412  0.0471  0.2586  0.1776
33189W        W48036  15.250   5.071   2.532  0.0835  0.2433  0.1050
33190W        W48037   5.076  14.428  13.289 -0.0972 -0.1260  0.1258
33191W        W48038  17.536  12.274   3.837  0.1403  0.1304  0.1264
33192W        W48039   8.138   3.015   0.383  0.0565  0.0999  0.2555
33193W        W48040   3.526   2.878  15.272 -0.0255 -0.2556  0.0990
33194W        W48041  12.866  10.805  13.715 -0.3780 -0.2013  0.0117
33195W        W48042   1.731   7.920  14.967 -0.0990 -0.0298 -0.1008
33196W        W48043  12.716  16.252   1.208 -0.0136 -0.2302 -0.0912
33197W        W48044   0.747  17.873   1.822 -0.1340  0.1453 -0.1116
33198W        W48045  17.534   7.826   3.677 -0.0519  0.1387 -0.0179
33199W        W48046  14.885  12.566   2.983  0.0252  0.3392 -0.2100
33200W        W48047   0.665   7.243  13.882  0.0931 -0.2919  0.2192
33201W        W48048   1.747   9.319  15.604 -0.1032  0.1260 -0.1522
33202W        W48049  14.021   4.815  11.903  0.1257 -0.2391  0.0971
33203W        W48050   0.122  10.498  13.061 -0.0008  0.1484  0.0696
33204W        W48051  12.794   1.549  17.091  0.3333  0.0106 -0.1679
33205W        W48052  12.271  13.229   1.666 -0.3388  0.0201 -0.2288
33206W        W48053  12.531   1.964  14.545 -0.1054 -0.3059  0.0969
33207W        W48054   1.163  17.106   4.977 -0.4627  0.0025  0.1514
33208W        W48055  13.283  14.306   3.998 -0.1094  0.0951  0.1639
33209W        W48056  10.325  17.863  12.167 -0.2211  0.2719 -0.0414
33210W        W48057  11.830  13.846  14.191  0.0696 -0.1670  0.1555
33211W        W48058  11.655   4.366  11.595  0.1422 -0.1335 -0.2657
33212W        W48059  17.468  12.828  16.005 -0.0032  0.0234  0.0315
33213W        W48060  16.036  16.877  13.297  0.0297 -0.0340  0.0359
33214W        W48061  15.770  17.860  15.808 -0.0080 -0.1362  0.1957
33215W        W48062  17.695   1.959   1.516  0.1231  0.0753  0.1760
33216W        W48063  14.874  15.763   4.342 -0.1094 -0.0640  0.2047
33217W        W48064  10.991   8.441  16.835 -0.0721  0.2168  0.0720
33218W        W48065  14.737   6.946   2.557  0.1065  0.1759  0.3349
33219W        W48066  16.578   5.777  14.332 -0.1793  0.2315  0.1375
33220W        W48067   7.834   9.747   3.634  0.1515  0.1774  0.0326
33221W        W48068  13.666   3.900  11.592 -0.0049  0.0982 -0.1070
33222W        W48069  15.380  14.886  17.065 -0.1321 -0.1458 -0.0152
33223W        W48070   0.016   4.736   5.865  0.1591 -0.2217  0.1714
33224W        W48071  14.197  16.231  11.707  0.0312  0.3121 -0.1415
33225W        W48072   7.867   4.795   3.744  0.1210  0.0036  0.3187
33226W        W48073  14.340   9.641  14.784 -0.0407  0.0600  0.0827
33227W        W48074  14.011   5.036  16.120  0.2192  0.0667  0.1555
33228W        W48075   1.180  17.815  11.404  0.3170 -0.1358  0.1056
33229W        W48076   8.990   6.153  14.297 -0.0878  0.0433  0.0367
33230W        W48077  11.747   4.704   1.267  0.4963  0.0286  0.0162
33231W        W48078  16.106   9.593  13.470  0.0220 -0.0192 -0.1033
33232W        W48079  10.762   1.728  16.934  0.0795  0.3699 -0.4100
33233W        W48080   9.235   8.999   0.875  0.1373  0.0661  0.1758
33234W        W48081   6.999  17.476   6.234 -0.0858  0.3002  0.0602
33235W        W48082  17.955   4.937   4.861  0.0262  0.0266  0.1132
33236W        W48083   8.443  13.473   6.070  0.4079 -0.0745 -0.0403
33237W        W48084   0.300   5.757  15.671  0.1047  0.2722 -0.0953
33238W        W48085   7.764   0.603   5.043 -0.1192  0.0990 -0.1300
33239W        W48086  10.119   9.827   4.685 -0.0952  0.1301  0.1320
33240W        W48087   9.804   5.688  14.371  0.0751  0.0787 -0.1803
33241W        W48088  13.169  16.970  15.576  0.1746  0.0135 -0.0895
33242W        W48089   7.110  13.539   3.480 -0.2104  0.2379  0.0996
33243W        W48090   1.695  13.156  15.446 -0.1668 -0.2886 -0.1303
33244W        W48091  10.691   1.627   5.704 -0.2349  0.1834 -0.4172
33245W        W48092  17.710  16.978   1.082 -0.1745  0.4132 -0.1953
33246W        W48093   7.899   2.972   2.099 -0.0898  0.1453 -0.1325
33247W        W48094  10.910   5.049   3.200 -0.1997  0.3339 -0.1350
33248W        W48095  17.845   3.224   4.885 -0.3778 -0.0890 -0.0587
33249W        W48096  15.565   3.718  10.362  0.3025 -0.0475  0.0037
33250W        W48097  11.384   0.754  11.959 -0.1711 -0.1057  0.0653
33251W        W48098   1.723  17.006   4.988  0.0969  0.0221 -0.1315
33252W        W48099  16.171  12.551  14.827  0.2603 -0.0462  0.2670
33253W        W48100  16.406  17.112   4.396  0.3603 -0.0441 -0.1060
33254W        W48101  13.561  11.061  14.672  0.0761 -0.1042 -0.0128
33255W        W48102  14.925  16.695   0.791  0.0557  0.0220  0.0876
33256W        W48103  10.225  10.198   1.534 -0.2251 -0.0248  0.1428
33257W        W48104   9.895   2.612   4.577  0.0291 -0.1285  0.0159
33258W        W48105  14.185   0.396   4.799 -0.0108  0.0771 -0.0876
33259W        W48106   9.761   0.155   2.079 -0.1964 -0.0447  0.0498
33260W        W48107  14.905   1.541  13.607  0.1753  0.0004  0.3163
33261W        W48108  13.515   8.698   4.558  0.3944 -0.3741  0.0955
33262W        W48109  15.281  12.487   0.781  0.0409 -0.0072  0.2872
33263W        W48110  16.876   4.981   3.430  0.1606 -0.0569 -0.2594
33264W        W48111  11.459   0.162   2.258  0.0508  0.0648  0.0571
33265W        W48112   8.078   6.707  16.351 -0.1797  0.1934  0.3329
33266W        W48113   3.126   1.965   4.696 -0.2021 -0.1041  0.1937
33267W        W48114   1.863   8.382  14.399  0.2290 -0.0853  0.0860
33268W        W48115  17.074   0.424  15.024 -0.0116 -0.3265  0.1272
33269W        W48116   8.974   1.584  16.627  0.3679  0.1226  0.1034
33270W        W48117  13.829   3.163   6.039  0.1278 -0.3895  0.1410
33271W        W48118  16.720  10.901   3.324  0.1113  0.0102 -0.1636
33272W        W48119  11.071  14.997  12.137  0.0287  0.1087 -0.0422
33273W        W48120   1.080  14.928  11.172 -0.2370 -0.0243 -0.0989
33274W        W48121   6.072  12.881   5.555 -0.2175  0.1337  0.0529
33275W        W48122  10.473  16.226  12.420  0.0107 -0.1056 -0.0051
33276W        W48123  14.287  13.563  13.217 -0.0060 -0.1356 -0.2962
33277W        W48124  11.952  13.076   6.213  0.2391  0.2881  0.0738
33278W        W48125  16.281   0.166   6.120 -0.1916 -0.2340  0.0156
33279W        W48126  10.845   1.921   0.282 -0.2579  0.4343 -0.0687
33280W        W48127   4.234   2.898  11.525 -0.1806  0.2742  0.1503
33281W        W48128  17.969   1.115  11.707 -0.0671  0.0141 -0.3620
33282W        W48129  14.284  15.676  10.548 -0.0642 -0.0724  0.1577
33283W        W48130  13.073   5.025   4.154 -0.0625 -0.2011  0.3656
33284W        W48131  14.591   2.471  11.730  0.1766 -0.2731 -0.0974
33285W        W48132  15.057  14.202   3.618  0.0438 -0.2461 -0.2333
33286W        W48133  11.097   6.207   1.577  0.1842  0.0501  0.1631
33287W        W48134  17.282  12.908  15.525  0.0897  0.2282 -0.2695
33288W        W48135   0.675   4.474   6.642  0.0275  0.4498 -0.0830
33289W        W48136  15.808  15.188   5.816 -0.0010  0.1386 -0.1223
33290W        W48137  14.332  15.872  16.255  0.0986  0.1863 -0.0072
33291W        W48138   7.919   1.951   2.774 -0.3539  0.0745  0.1609
33292W        W48139   9.524  15.715  10.656 -0.2622  0.0637 -0.2141
33293W        W48140  16.156   3.671  14.122  0.2729  0.1524 -0.3688
33294W        W48141  13.927   4.563   0.478 -0.1567 -0.4094  0.1802
33295W        W48142   9.075  17.334   2.519  0.0999  0.1471  0.3172
33296W        W48143  15.667  10.824  15.146 -0.0753  0.0688 -0.3439
33297W        W48144  12.319   5.151  15.396 -0.0136  0.2512 -0.1373
33298W        W48145   0.940   1.475   4.275  0.2223 -0.0666 -0.2699
33299W        W48146   1.384   0.032  14.082  0.2384 -0.1230  0.0124
33300W        W48147  11.755  15.574  11.655 -0.1303 -0.0672  0.1397
33301W        W48148   0.620  13.387   2.257  0.0604 -0.1784 -0.0183
33302W        W48149  17.260   5.933  12.241  0.0297 -0.2146 -0.2074
33303W        W48150   3.038   6.106   0.446 -0.4218  0.0520 -0.1934
33304W        W48151  12.875  16.233   0.338 -0.0013  0.3493  0.1536
33305W        W48152   1.058   2.284   3.917 -0.0328 -0.4907 -0.4625
33306W        W48153  16.876   7.967  16.615 -0.0084 -0.0382  0.0730
33307W        W48154  13.860   7.679   3.858 -0.2551  0.1061  0.3495
33308W        W48155  13.573  10.757  11.713  0.0887  0.0009  0.2709
33309W        W48156  17.578   2.870   0.076 -0.0021 -0.2036  0.6022
33310W        W48157  11.339   1.036   3.919 -0.3176  0.0456  0.4371
33311W        W48158  11.406   1.129  11.644 -0.1422  0.1863  0.2666
33312W        W48159  15.686   6.611  14.289  0.0748 -0.0755 -0.4367
33313W        W48160   1.259   6.478   5.978  0.0670 -0.3373  0.2478
33314W        W48161  13.281   8.761  14.786  0.0509  0.0275 -0.0012
33315W        W48162  13.686   3.568  16.304  0.2430 -0.2763  0.1351
33316W        W48163  15.931   7.862  11.411 -0.0192 -0.0073 -0.0579
33317W        W48164   6.541  16.612   5.479 -0.0674  0.0902  0.0267
33318W        W48165   0.958   5.439   5.233  0.0719 -0.0152  0.0739
33319W        W48166  14.359  13.103  15.978  0.0967  0.0339 -0.0687
33320W        W48167  13.495  17.513  11.782  0.3504  0.1956 -0.1720
33321W        W48168  17.212  15.169   5.291  0.1150 -0.0840 -0.2570
33322W        W48169  10.446  14.137  17.074  0.0628  0.0229 -0.2607
33323W        W48170  10.258   7.774   4.866 -0.2615 -0.4501  0.0778
33324W        W48171  12.680  13.580  16.294 -0.1064  0.1898 -0.0901
33325W        W48172  10.363   4.251  15.163  0.1506  0.0840  0.0795
33326W        W48173  10.181  12.071   4.032 -0.2826  0.1826 -0.0981
33327W        W48174  15.455   4.956   4.395 -0.2435 -0.0033 -0.0570
33328W        W48175   3.900   3.134  14.001 -0.2297 -0.0474  0.0264
33329W        W48176  11.509   6.360   6.363 -0.0210  0.0491 -0.1750
33330W        W48177  13.309  12.380  13.322  0.3317  0.0191 -0.1149
33331W        W48178   5.497   5.347   5.530 -0.0659  0.2289 -0.0040
33332W        W48179  16.720   4.750   3.035 -0.0948  0.0115  0.0105
33333W        W48180   3.360  13.285  15.554 -0.1787  0.0568 -0.0562
33334W        W48181  13.465  15.747  11.001 -0.0276  0.2058 -0.0586
33335W        W48182  10.234  10.221   0.558  0.2000  0.0506 -0.1702
33336W        W48183   9.572  15.278  14.184 -0.0316 -0.2747 -0.0214
33337W        W48184  13.621   8.559   2.991 -0.4604  0.0379  0.1827
33338W        W48185   1.490   7.398  14.513 -0.1059 -0.0805  0.1774
33339W        W48186   0.091   4.410   4.156 -0.2433 -0.1756 -0.4200
33340W        W48187  14.084  15.493   5.226  0.2725 -0.0795 -0.0465
33341W        W48188  10.020   3.040   6.099 -0.1246  0.0963  0.0611
33342W        W48189  14.642  10.288   2.467 -0.0579 -0.0119  0.1302
33343W        W48190  14.786  15.325   5.925  0.0558  0.1383  0.5027
33344W        W48191  15.808  15.728  12.678  0.1702 -0.2953 -0.0786
33345W        W48192  17.772  15.301  17.008 -0.0803  0.0413  0.0730
33346W        W48193   5.982  16.558   2.350  0.0528  0.1348 -0.0166
33347W        W48194   4.392  13.613  11.595 -0.3332 -0.0316  0.2106
33348W        W48195  16.487  11.636   1.609  0.0197  0.1985 -0.0727
33349W        W48196  13.684   4.971  14.959  0.3302  0.1484  0.1242
33350W        W48197   5.784   4.009   4.212  0.3206  0.1046  0.1645
33351W        W48198   9.455   1.614   3.317  0.3799  0.0535  0.2113
33352W        W48199  12.262   7.056  13.745 -0.2315 -0.0885  0.2770
33353W        W48200   9.569   6.487  15.577 -0.1074  0.0056  0.1665
33354W        W48201   2.744  11.258   4.604 -0.1040  0.2569 -0.2526
33355W        W48202  16.671  13.618   1.860 -0.4893 -0.0895  0.1694
33356W        W48203   0.382   8.778   1.706  0.2159 -0.3188 -0.0811
33357W        W48204  17.347   0.548   3.781 -0.1869  0.1668 -0.0164
33358W        W48205   9.596  11.028   2.025  0.1391 -0.2189 -0.3075
33359W        W48206  13.881   7.364  16.697 -0.1583 -0.1569  0.0894
33360W        W48207  10.679   8.456   2.108  0.5329 -0.1634  0.0574
33361W        W48208  12.120  12.875  10.362  0.1436  0.2860  0.0550
33362W        W48209  14.142  11.149   9.686  0.1252 -0.2681 -0.1388
33363W        W48210   7.471  14.943   0.399  0.1544  0.2512  0.1180
33364W        W48211  17.314   1.718   0.409  0.0902  0.2702  0.2622
33365W        W48212  11.969   5.471  10.781  0.3582  0.2366  0.0143
33366W        W48213  10.363   9.330  14.798 -0.1437 -0.2491  0.0821
33367W        W48214  10.615   4.778  16.433  0.0959 -0.1090 -0.3413
33368W        W48215   4.672   8.282   5.205 -0.1769 -0.0911 -0.1797
33369W        W48216   0.690   0.371   1.996 -0.5972  0.0339 -0.1056
33370W        W48217   8.444  14.070  14.713 -0.0783 -0.1578 -0.2759
33371W        W48218  15.788   1.368   5.671 -0.0289  0.0821 -0.0158
33372W        W48219   0.665   9.873  11.560  0.1639 -0.1328  0.3609
33373W        W48220   8.229   4.093   3.295 -0.0173  0.2424 -0.0940
33374W        W48221  12.090  13.518  14.528  0.2455  0.2358 -0.1426
33375W        W48222  17.699  16.926  12.679 -0.1059  0.0214  0.0774
33376W        W48223  12.748   3.225  11.333  0.0927 -0.0741 -0.0496
33377W        W48224  16.509   5.696  13.776  0.0471 -0.0408 -0.0565
33378W        W48225  17.585  10.084  13.328 -0.1653 -0.0036 -0.2378
33379W        W48226  15.493   2.041   0.008 -0.0199  0.0446 -0.1693
33380W        W48227   8.970  10.560   1.302  0.0084 -0.1158 -0.1749
33381W        W48228   0.890  15.569   4.481  0.3584 -0.0338  0.3886
33382W        W48229  14.609   0.794  15.597  0.1838 -0.0102 -0.0838
33383W        W48230   8.915  13.797   1.028  0.0720  0.1389 -0.0379
33384W        W48231  12.813   3.054  15.460  0.2832 -0.2854  0.2795
33385W        W48232  11.999   5.084   6.180  0.0382 -0.2337  0.0582
33386W        W48233   9.643   0.773  16.310  0.0938 -0.0751 -0.0366
33387W        W48234   1.511   0.656  11.529 -0.4863 -0.0818  0.0652
33388W        W48235  15.273  15.503  14.164 -0.1930 -0.1667  0.4338
33389W        W48236   3.829  12.404   5.546  0.0999 -0.0620 -0.2549
33390W        W48237   3.046   5.288   1.347  0.0879 -0.0800  0.0608
33391W        W48238   0.976  15.659   0.278 -0.0785 -0.1672 -0.0860
33392W        W48239  16.602   4.159  12.166 -0.1624 -0.1103  0.3151
33393W        W48240   8.704  14.357   2.147  0.2052 -0.0079  0.1390
33394W        W48241  12.454   7.104  15.124 -0.1170  0.0298 -0.0837
33395W        W48242   3.654   2.531  12.096 -0.1086 -0.0419 -0.1633
33396W        W48243   8.459   3.829   1.445 -0.1136 -0.2123  0.3783
33397W        W48244  12.733  11.351  12.583 -0.0776  0.0070 -0.0300
33398W        W48245  17.592  15.669   0.202  0.1520 -0.1847  0.0762
33399W        W48246  17.433   6.085   1.988 -0.1443  0.1602 -0.1097
33400W        W48247  16.723  16.190  12.101 -0.0571 -0.1429  0.0884
33401W        W48248   6.851  16.827   2.620  0.2070 -0.2641 -0.0771
33402W        W48249  16.600   3.073   1.575 -0.3859 -0.1157 -0.0207
33403W        W48250   2.304   6.257   5.601  0.3318 -0.1415  0.3686
33404W        W48251   8.332  17.014   1.077  0.0637 -0.1069 -0.0577
33405W        W48252  15.968   5.992  12.490  0.1877  0.0064 -0.1332
33406W        W48253   7.889   5.693   3.645 -0.0393 -0.0683 -0.0151
33407W        W48254   6.328  10.458  14.955  0.2986  0.0270 -0.2303
33408W        W48255   2.141   7.369   4.147  0.0433 -0.1332  0.0453
33409W        W48256  16.011   0.131  15.422  0.0807 -0.1688 -0.1678
33410W        W48257   1.668   9.986   4.921 -0.2850 -0.2333 -0.2277
33411W        W48258  17.658   4.450   0.070  0.1317 -0.0708 -0.0879
33412W        W48259   2.246   0.831  12.362  0.0440 -0.4920  0.3022
33413W        W48260  10.243   9.340   1.266  0.1397  0.0082 -0.2376
33414W        W48261   3.881   7.935   2.685  0.2092  0.0701 -0.2879
33415W        W48262  15.254   8.920   1.527  0.2053  0.2939  0.2096
33416W        W48263   1.144   8.219  12.313 -0.3504  0.3344 -0.2760
33417W        W48264  16.365   2.292   2.711  0.1061  0.2922 -0.0545
33418W        W48265   0.977  10.776  15.801  0.1690 -0.2744 -0.0528
33419W        W48266  15.514   3.280  15.086  0.0239 -0.2043 -0.1158
33420W        W48267  14.681   7.494   4.826 -0.2133  0.1623 -0.2687
33421W        W48268   1.835   7.845  15.494 -0.1158 -0.0379 -0.1506
33422W        W48269  10.891   3.328  13.246  0.2882  0.1560 -0.1793
33423W        W48270  11.076   6.651   2.373 -0.1419  0.1769 -0.2191
33424W        W48271   0.425  14.184   4.985 -0.0754 -0.1428 -0.0911
33425W        W48272  15.603  10.757   5.030  0.3511 -0.0846 -0.2981
33426W        W48273   5.033   7.143   2.062 -0.3004 -0.2004 -0.2207
33427W        W48274  10.167  15.556   2.556  0.0761  0.0338 -0.0285
33428W        W48275  17.789  14.743  14.172 -0.2767 -0.1455 -0.0909
33429W        W48276   9.146  12.449  11.711  0.0470  0.1984  0.0555
33430W        W48277  17.324  17.779   5.055  0.1735 -0.0489 -0.1580
33431W        W48278   6.355   8.946   0.054 -0.2427  0.1391 -0.1338
33432W        W48279  12.857  16.376   5.030  0.1945  0.0621 -0.2585
33433W        W48280  14.781   5.847  11.657  0.2170 -0.1427  0.1616
33434W        W48281  11.894   5.132  14.606  0.0753 -0.2324 -0.2205
33435W        W48282   9.947  15.329   1.524 -0.1349  0.1820 -0.1341
33436W        W48283  11.817   0.756  12.698 -0.1783 -0.0319 -0.4245
33437W        W48284  13.052   8.569   0.521 -0.3019 -0.0609  0.2056
33438W        W48285   9.761  13.141  12.569 -0.0166 -0.4306  0.3668
33439W        W48286  12.542  14.739   3.786 -0.1364 -0.0049  0.0673
33440W        W48287   8.926   1.165  11.741  0.1352 -0.1850 -0.6100
33441W        W48288  15.169   6.717  14.403  0.0369 -0.0096 -0.0291
33442W        W48289  13.944   0.212  12.828  0.0040  0.2189 -0.1344
33443W        W48290   9.052   5.401  15.205 -0.3715 -0.0746  0.0394
33444W        W48291   9.014   2.825   2.450  0.1420  0.2328  0.2471
33445W        W48292  12.590   6.196   4.880 -0.0569 -0.1387 -0.2930
33446W        W48293   2.251  14.268   1.111 -0.1996  0.1251  0.1273
33447W        W48294  11.022   0.495  12.202  0.1575  0.2473 -0.0580
33448W        W48295   0.085  12.077  14.660 -0.0898  0.1256 -0.2128
33449W        W48296  13.497  17.540   6.279 -0.1446  0.0358  0.1453
33450W        W48297   1.212   2.683   4.786 -0.1236  0.0950 -0.1092
33451W        W48298  16.123   4.235  16.584  0.0432  0.0508 -0.0273
33452W        W48299  14.520  17.624   6.082 -0.1000  0.0217 -0.1953
33453W        W48300  15.896   4.053   2.532  0.1167 -0.0598 -0.1103
33454W        W48301  17.265  14.941  11.658  0.0527  0.0776 -0.1637
33455W        W48302   2.051  16.134   5.193  0.1571 -0.0359  0.3066
33456W        W48303  16.801   4.079   5.018  0.0856  0.0590 -0.4062
33457W        W48304  15.145   3.730  14.436 -0.0555 -0.1204  0.2892
33458W        W48305  12.198   7.934   0.374  0.1355 -0.1232 -0.3374
33459W        W48306  13.353  12.582  15.494 -0.0834 -0.0536 -0.2008
33460W        W48307   6.009  11.203   5.583  0.1130 -0.1094 -0.2048
33461W        W48308  12.073   3.919  11.077 -0.0084 -0.1538 -0.0846
33462W        W48309  12.527   1.682  14.964 -0.1022 -0.0273  0.6140
33463W        W48310  15.363  12.507  16.492  0.1666  0.1264  0.0924
33464W        W48311  13.850   4.567  13.295 -0.1742 -0.1008 -0.1158
33465W        W48312  15.835   5.006   2.688 -0.2602  0.1302  0.1608
33466W        W48313  12.842   0.521  17.092  0.0423  0.0222  0.1770
33467W        W48314  11.435  10.484  14.475 -0.0681  0.2127  0.2064
33468W        W48315  15.280  11.161   5.085  0.2539  0.2566 -0.2453
33469W        W48316   3.425  10.226   4.732  0.3291 -0.0124  0.0677
33470W        W48317  11.728   1.267  15.628 -0.2222 -0.0959  0.0357
33471W        W48318  13.074   9.393  14.330  0.1516  0.1350  0.0774
33472W        W48319   3.716   1.549   1.526  0.1166 -0.2207 -0.3066
33473W        W48320  12.555   1.375   3.945 -0.1061  0.1322  0.0785
33474W        W48321  10.204   5.430  14.447 -0.1453  0.3476  0.4790
33475W        W48322   7.967   9.749   4.631  0.0795 -0.0266 -0.1685
33476W        W48323  17.707   4.798  12.945 -0.1164  0.0340 -0.2092
33477W        W48324  10.591   1.668   1.703 -0.4321  0.0147  0.2810
33478W        W48325  14.655  15.130   0.971  0.1777  0.1550  0.1600
33479W        W48326  14.882  15.163   3.107 -0.2980  0.0054  0.0513
33480W        W48327   7.851  10.574   4.030  0.1366  0.1270 -0.4405
33481W        W48328  16.606   2.151  15.114  0.3594 -0.0181 -0.1135
33482W        W48329   3.510  10.920   6.513 -0.2330 -0.2243  0.0740
33483W        W48330   2.223  14.936  15.618 -0.0646 -0.2148  0.1326
33484W        W48331   2.305  17.182  13.996  0.1315  0.1975 -0.0638
33485W        W48332  13.590  17.501   2.268 -0.0250 -0.1807 -0.0951
33486W        W48333  11.098  13.397  13.758  0.2503 -0.1368 -0.0104
33487W        W48334  15.115   6.818   4.637  0.3219 -0.0003 -0.1836
33488W        W48335  15.781  11.090   1.703  0.0858 -0.1304  0.1443
33489W        W48336  14.285   0.211  12.123  0.1587  0.2472  0.1519
33490W        W48337  12.795  11.629   1.740  0.0009 -0.1672  0.3303
33491W        W48338  14.915  13.047   1.936 -0.0067 -0.1675  0.2269
33492W        W48339  16.157   6.507   3.207  0.4041 -0.0558 -0.2330
33493W        W48340  14.973   8.795  14.912 -0.1227 -0.1932  0.0825
33494W        W48341  11.870   2.339   4.963 -0.0157 -0.0180 -0.1198
33495W        W48342  16.024  11.948   4.531 -0.0511  0.0343 -0.3614
33496W        W48343  11.783   7.106   5.240 -0.1059  0.0258 -0.0847
33497W        W48344  16.217  15.399   4.536  0.0962 -0.1258  0.0707
33498W        W48345   9.602   6.744   5.142 -0.0529  0.5705  0.0889
33499W        W48346   5.019  16.339   5.453  0.2702 -0.0600  0.2236
33500W        W48347  13.729   8.414   4.936 -0.3201  0.0936  0.2157
33501W        W48348  15.760   7.839   3.132  0.1590 -0.1485 -0.0662
33502W        W48349  11.760  10.584   0.296  0.1327  0.0533  0.1791
33503W        W48350   7.394  17.902   6.086 -0.1752 -0.2100  0.0983
33504W        W48351   5.203   8.493   3.901  0.2273  0.1188 -0.0632
33505W        W48352  13.286   1.876  16.254  0.0020 -0.2031 -0.2928
33506W        W48353  10.740   9.636  14.561  0.0563 -0.2558 -0.2165
33507W        W48354  15.301   5.721  10.970  0.0052  0.1243  0.0677
33508W        W48355  17.270  15.286  14.664  0.0042 -0.0041 -0.0557
33509W        W48356  15.535  11.589   0.417 -0.2104 -0.0048  0.0716
33510W        W48357  15.968   3.379  11.412 -0.4425 -0.3617  0.0130
33511W        W48358   9.435  17.844   5.928  0.1212  0.0220 -0.3378
33512W        W48359  14.903   5.854  15.953  0.2614  0.0511  0.0138
33513W        W48360  17.251   6.538   1.900  0.1249  0.0120  0.1229
33514W        W48361   0.147  14.119  11.028  0.2775 -0.0720  0.0442
33515W        W48362  13.436  10.703   4.431  0.0933 -0.3840 -0.4060
33516W        W48363   9.729   1.785   1.674  0.0703  0.2059  0.0245
33517W        W48364  15.220  11.221  11.811  0.1376  0.4653  0.0220
33518W        W48365  10.657   0.879  16.186  0.1661 -0.3485 -0.0359
33519W        W48366   0.146  11.093  12.362  0.5170  0.1363  0.1759
33520W        W48367  12.058   3.886   6.330 -0.2927 -0.0502 -0.0046
33521W        W48368   1.457   5.175   6.008 -0.1748  0.1364 -0.0309
33522W        W48369   2.187   6.878   4.335  0.3211  0.1138 -0.2650
33523W        W48370   8.495   0.396   4.481  0.0921 -0.3757 -0.3631
33524W        W48371  11.812   0.605  14.233  0.0100  0.2209 -0.0863
33525W        W48372  13.157   1.733  14.011  0.1673 -0.3632  0.0357
33526W        W48373   9.021  12.043   2.670 -0.3225  0.0923  0.2407
33527W        W48374  14.732  12.591  16.501 -0.1390  0.0026  0.1004
33528W        W48375  15.041   8.514  12.773  0.0048 -0.0385 -0.0957
33529W        W48376  12.132  12.631   2.787  0.1133  0.3039 -0.3344
33530W        W48377   9.768   1.752  12.288  0.4220 -0.1663  0.1463
33531W        W48378  11.622   9.846  14.769 -0.2371  0.0312 -0.0309
33532W        W48379   9.028  14.066  14.477 -0.2108  0.1064  0.1192
33533W        W48380   9.562   1.631   2.681  0.2326  0.0773 -0.2219
33534W        W48381   7.420  10.832  15.247 -0.0743 -0.1389 -0.0084
33535W        W48382   2.144   0.871   3.145 -0.1030 -0.1325 -0.1392
33536W        W48383  13.825   7.597  15.650  0.1786  0.1881  0.2142
33537W        W48384   0.003  16.981  16.250 -0.1650 -0.0599  0.1033
33538W        W48385  11.973  13.114  12.647 -0.1138  0.2805 -0.1104
33539W        W48386  11.891   0.756  12.170 -0.0190  0.1661 -0.2498
33540W        W48387  10.396  11.399   1.420  0.3483  0.1127 -0.1853
33541W        W48388  12.925  12.015   5.583  0.0759 -0.1677 -0.1762
33542W        W48389   9.390   0.727   2.243 -0.1702  0.0475 -0.0217
33543W        W48390   7.783   2.451   2.922  0.0799  0.2701 -0.0321
33544W        W48391  16.079  13.032   5.607 -0.4079 -0.2269 -0.1327
33545W        W48392   0.341  12.611  14.614  0.3793  0.0603 -0.3285
33546W        W48393   4.549   3.107   1.175 -0.0967  0.4816 -0.5073
33547W        W48394   3.898   7.581   4.415  0.0212 -0.0139  0.0235
33548W        W48395  14.591  17.105   5.262  0.1767  0.3537 -0.2643
33549W        W48396   9.850  10.598   3.755  0.0468 -0.0073  0.1962
33550W        W48397   6.519   2.124  14.520 -0.1208  0.3171 -0.1388
33551W        W48398   4.493  17.948  11.884 -0.3050 -0.0696 -0.0703
33552W        W48399  10.981   6.187  12.518 -0.1486 -0.4598 -0.0749
33553W        W48400   0.785  13.731  14.053  0.0972 -0.2087 -0.0600
33554W        W48401   9.149   5.136   1.979  0.2821  0.1728 -0.0763
33555W        W48402  12.238   9.452   5.474 -0.1517  0.2789 -0.1785
33556W        W48403   3.885  14.811   4.338 -0.3108  0.0985 -0.3843
33557W        W48404  11.214  10.203  13.741 -0.1684 -0.0002  0.0460
33558W        W48405   1.616   8.678   1.735  0.0051 -0.3784  0.3108
33559W        W48406  14.255   7.202   1.358 -0.1586 -0.0254  0.1982
33560W        W48407  15.253   5.996  12.622 -0.0433 -0.0151 -0.0954
33561W        W48408   0.218  16.628  15.080  0.2957 -0.0595 -0.2037
33562W        W48409  12.994   3.680   3.713  0.1467  0.1931  0.2674
33563W        W48410  16.749   5.637  16.095  0.4362 -0.1839  0.0379
33564W        W48411  15.189   9.940   6.272 -0.1784 -0.2209  0.0165
33565W        W48412  12.241  16.996  11.821 -0.2311  0.0731  0.5355
33566W        W48413  15.088  12.883   0.217  0.1218 -0.0374 -0.4239
33567W        W48414  14.711  17.405   5.683 -0.0912 -0.0084  0.2599
33568W        W48415  13.845   9.747   3.718 -0.0109  0.1724  0.1252
33569W        W48416  14.181   0.051   6.559  0.1269  0.0077 -0.0859
33570W        W48417   7.592   8.304  15.530  0.0216  0.3726 -0.0609
33571W        W48418   0.521  17.028   5.403 -0.0225  0.1650 -0.2509
33572W        W48419   0.213   0.788   5.391 -0.1588  0.1689 -0.0247
33573W        W48420  12.316   2.829  13.676  0.1144 -0.0705  0.1614
33574W        W48421  14.009   8.173   4.335  0.0098  0.2273  0.3690
33575W        W48422   7.256  12.048  12.969 -0.1429  0.0374 -0.4603
33576W        W48423  10.409   1.572  12.897 -0.2626  0.2024  0.0066
33577W        W48424  11.052   5.626  16.344 -0.2557  0.2410 -0.0852
33578W        W48425   0.457   9.270   0.308  0.2101  0.1092 -0.2038
33579W        W48426  11.946   1.875   5.138  0.1588  0.1773 -0.0111
33580W        W48427  10.109   1.279   1.736 -0.0678 -0.2919 -0.2110
33581W        W48428   5.327   1.207  16.915 -0.0714 -0.0502 -0.0099
33582W        W48429  14.882  12.280   4.590 -0.0418 -0.1196  0.2731
33583W        W48430  12.533  14.307   1.234 -0.1817 -0.1303 -0.1077
33584W        W48431  14.249  16.256  16.730  0.2412 -0.0935  0.2635
33585W        W48432   0.731   9.028   2.608 -0.0453 -0.1637 -0.3718
33586W        W48433   6.393  17.945   2.781 -0.0340  0.1747 -0.2744
33587W        W48434  15.659  15.170  13.448 -0.1126  0.0906  0.1607
33588W        W48435  14.852   6.442   4.276  0.0606 -0.2238 -0.1632
33589W        W48436  14.416  14.041   1.971 -0.2729 -0.2609 -0.0814
33590W        W48437  17.857  13.522   1.969  0.2352 -0.2707 -0.0222
33591W        W48438   5.172  10.749   5.915  0.0148 -0.1239  0.1115
33592W        W48439  16.804  17.800   3.679 -0.1448  0.2956  0.1046
33593W        W48440  14.930  13.083   3.579  0.2978  0.1038 -0.3074
33594W        W48441  14.430   6.349  14.182 -0.0080  0.1393  0.1129
33595W        W48442   1.701   3.167  16.770  0.0507  0.1458  0.0693
33596W        W48443   7.398  15.890   1.082  0.0591  0.1963 -0.0539
33597W        W48444  13.226  10.821  17.037 -0.2967 -0.1363  0.0135
33598W        W48445  11.732   9.462   2.617  0.0396  0.3637  0.0522
33599W        W48446   3.023  15.410  11.816  0.0051 -0.0095 -0.0659
33600W        W48447   5.547   3.794   5.828 -0.1502  0.1941 -0.2799
33601W        W48448   5.580   0.410   5.159  0.2390 -0.1133 -0.2356
33602W        W48449  14.286  14.395  16.971  0.0481 -0.2082  0.1641
33603W        W48450   9.355   1.427   3.767 -0.1791  0.2256  0.1285
33604W        W48451   5.038  16.130   3.237  0.2114 -0.1894 -0.0271
33605W        W48452   9.524   8.162  13.603 -0.2950 -0.0996  0.0178
33606W        W48453  13.786   9.951   2.766 -0.0494  0.0433 -0.0805
33607W        W48454  10.178  17.269   4.299  0.0021 -0.1220  0.0858
33608W        W48455   9.889   4.858   0.468  0.0551 -0.2452  0.1356
33609W        W48456   0.680   8.426   1.352 -0.1317 -0.0284 -0.1265
33610W        W48457  10.879   9.757   3.310  0.0136 -0.0405  0.0091
33611W        W48458   4.698  14.581   1.999 -0.3536  0.3327 -0.0517
33612W        W48459   0.197  14.430   5.527  0.1152  0.0399 -0.1031
33613W        W48460  15.593   5.445  13.186  0.0059  0.1580 -0.1663
33614W        W48461  14.527   2.754   3.127 -0.3587  0.0817  0.2489
33615W        W48462  17.733   0.417   1.274  0.0942  0.0397 -0.3215
33616W        W48463  16.585  15.727  13.673 -0.0166  0.1609  0.1556
33617W        W48464  11.868   5.130   0.989 -0.1771  0.4163  0.0135
33618W        W48465   9.088  10.583   2.156 -0.1330  0.1008 -0.0777
33619W        W48466  12.150  13.567  15.434  0.1047  0.0492  0.0041
33620W        W48467   6.739   3.860  16.271 -0.0470  0.3568 -0.2795
33621W        W48468   9.837  10.706  14.290 -0.0432  0.2048  0.1103
33622W        W48469   5.462  16.745  13.033  0.0439 -0.0481  0.0598
33623W        W48470   4.530  15.846   4.829 -0.2257 -0.4024 -0.0127
33624W        W48471  13.081   3.205  14.475  0.1065  0.0488 -0.0775
33625W        W48472  15.711  16.165  16.002 -0.5231  0.3278 -0.2225
33626W        W48473   3.149   2.740  16.040 -0.2304  0.3346 -0.0192
33627W        W48474   1.247  15.077   4.454  0.0609  0.0519 -0.1706
33628W        W48475   8.148  11.409   0.806  0.1187  0.1409  0.0748
33629W        W48476  13.215   7.838   4.512 -0.2956 -0.0759  0.0208
33630W        W48477   0.276   7.355  16.317 -0.3792 -0.3210 -0.4151
33631W        W48478   8.744   0.802   3.637  0.1227 -0.1235  0.2218
33632W        W48479  10.693   5.662   5.644  0.0156 -0.1965  0.1686
33633W        W48480   0.886   5.306  16.554 -0.3608 -0.0245 -0.0282
33634W        W48481   3.185   5.543  14.410 -0.0658 -0.0519  0.1255
33635W        W48482  15.775  17.833   0.742  0.0049 -0.0908  0.2577
33636W        W48483  12.439  16.764   1.079  0.1930 -0.0964 -0.1848
33637W        W48484  16.463  11.639   9.814 -0.1521 -0.2289  0.3286
33638W        W48485  14.673  14.975   4.999 -0.0884 -0.2128  0.1388
33639W        W48486  12.190  13.989   6.584 -0.0055  0.1312  0.1293
33640W        W48487  16.598   4.539   2.580 -0.0028 -0.2633 -0.1032
33641W        W48488   9.052   8.205  12.177 -0.0825 -0.2894 -0.0575
33642W        W48489  10.353   0.499  12.964 -0.1140  0.0180  0.1719
33643W        W48490  13.074   4.662   1.009  0.0483 -0.0082 -0.0805
33644W        W48491  17.582  16.103   0.927  0.0330  0.0502  0.1436
33645W        W48492  17.977  14.127   4.770  0.0072 -0.0737  0.2799
33646W        W48493   2.303  10.653   6.014 -0.2255  0.1040 -0.1420
33647W        W48494  13.975  17.418   1.212 -0.1669 -0.3230 -0.0672
33648W        W48495   8.382  10.869   4.897  0.2477 -0.1802  0.0594
33649W        W48496   0.804  12.597   1.594 -0.0394 -0.0698 -0.1307
33650W        W48497   9.169  10.490  15.373  0.0070 -0.4203  0.2112
33651W        W48498  17.614  17.878   1.431  0.1088 -0.1543  0.1563
33652W        W48499   3.226   9.519  16.909  0.2470  0.0809  0.0885
33653W        W48500  17.086  17.621  12.575  0.1047  0.1149  0.1819
33654W        W48501  13.583   4.331   5.366 -0.1553 -0.0379 -0.1834
33655W        W48502  16.132   1.546   0.594 -0.2900  0.0298 -0.0880
33656W        W48503   8.789   2.208   0.115 -0.0143  0.1550 -0.0334
33657W        W48504   7.748  14.598  15.496 -0.2208 -0.0924  0.3713
33658W        W48505   8.071   6.526  14.268 -0.0064 -0.1346 -0.0730
33659W        W48506   7.258   3.668   0.401  0.2258  0.3466  0.1486
33660W        W48507   7.586   1.503  17.018  0.2498 -0.2921 -0.3333
33661W        W48508  15.285  15.067  16.520  0.1389 -0.0809  0.1643
33662W        W48509  13.700  12.820   1.552 -0.1323  0.3092 -0.1481
33663W        W48510   8.499  12.522   3.026 -0.4227  0.1487 -0.3182
33664W        W48511  15.908   5.547   0.293  0.0049  0.2176  0.0127
33665W        W48512   1.927  16.061  16.478  0.0074 -0.0553  0.0261
33666W        W48513   5.321   4.820   0.926  0.0453  0.1359  0.3581
33667W        W48514  16.938   3.470  11.870  0.2157  0.1121  0.0112
33668W        W48515   0.517   6.265   2.883  0.1980 -0.2257  0.1249
33669W        W48516  12.384   7.936   5.846  0.3281  0.3469 -0.1698
33670W        W48517   9.273  14.742   4.583  0.0374 -0.1750  0.5132
33671W        W48518   2.969   0.536  11.596 -0.0443  0.0094 -0.0685
33672W        W48519   9.218   3.483   2.577 -0.0807  0.1925  0.1442
33673W        W48520   8.353  12.454  16.929 -0.0712 -0.3473  0.0769
33674W        W48521  13.111  13.774  14.911  0.1740  0.1626  0.0440
33675W        W48522  16.053   1.226  16.107  0.1364 -0.0132 -0.3534
33676W        W48523  13.569  14.627   5.580 -0.0194  0.1577 -0.1254
33677W        W48524  11.740   3.313   3.836  0.0692 -0.1107 -0.0168
33678W        W48525   8.370   9.814   0.100 -0.0359 -0.1241 -0.0706
33679W        W48526   2.472   2.976  12.762  0.2252  0.3928 -0.1469
33680W        W48527   0.603  15.003  12.822  0.2609 -0.0308 -0.0397
33681W        W48528  16.672   3.366  15.472 -0.0731 -0.0119  0.0106
33682W        W48529   2.181   4.906   5.987  0.1884  0.1588 -0.2381
33683W        W48530  13.380   2.442   3.353 -0.2034 -0.3390 -0.0998
33684W        W48531  16.368  13.196   0.653  0.0063  0.0987  0.2211
33685W        W48532  12.192   7.601   5.040 -0.1374  0.0840  0.0252
33686W        W48533   9.854  17.358   1.522  0.0589  0.4279 -0.4796
33687W        W48534  13.722   7.426   5.308  0.4034 -0.1585  0.2593
33688W        W48535  12.677   8.071  11.821 -0.2796 -0.3497  0.0412
33689W        W48536   8.336  10.486   2.598 -0.1356 -0.2426 -0.0228
33690W        W48537   2.557  12.831  16.470 -0.0705 -0.0751 -0.0960
33691W        W48538  12.142  12.383   1.816 -0.1923  0.1072 -0.3897
33692W        W48539  11.911   5.972   2.546 -0.1163  0.1149  0.2892
33693W        W48540  11.347   7.803   2.300  0.1535  0.1641  0.2949
33694W        W48541  10.105  12.042  14.166  0.0657  0.0206 -0.0659
33695W        W48542   6.308   0.585  15.251  0.0839 -0.0903  0.0559
33696W        W48543   4.078   1.157   3.133 -0.1010 -0.1093  0.0507
33697W        W48544  16.306  15.033  14.771 -0.0878  0.1553  0.2881
33698W        W48545  15.550   2.302   1.089 -0.1693  0.2476 -0.0299
33699W        W48546  13.653   9.259   0.284 -0.1609  0.0123  0.1607
33700W        W48547  13.764   5.450  16.395  0.1353 -0.1110 -0.0967
33701W        W48548   3.689   1.146  10.735 -0.0219  0.1555  0.0481
33702W        W48549   0.124  12.670  16.329  0.2059 -0.0094  0.1657
33703W        W48550  13.069   9.185  13.163 -0.0504  0.1507  0.1032
33704W        W48551  13.682  10.879  10.863 -0.2758 -0.1848  0.1387
33705W        W48552  12.100   1.378   4.177  0.2564 -0.2636 -0.1468
33706W        W48553  11.993   4.776   6.579 -0.1635 -0.1414  0.0302
33707W        W48554  10.833   6.268  14.635 -0.0430  0.0298  0.0318
33708W        W48555  14.555   2.617   1.941 -0.0612 -0.0183  0.1530
33709W        W48556  15.187  11.838   4.468 -0.2109 -0.1874 -0.1160
33710W        W48557  15.418   0.727   3.545 -0.3227 -0.3479 -0.1137
33711W        W48558  12.726  10.594  12.162  0.0203 -0.1215  0.1038
33712W        W48559  16.018   8.037  14.155  0.1481  0.1691 -0.1856
33713W        W48560  11.447   9.417  12.274  0.1519 -0.2406  0.0516
33714W        W48561   8.726   2.767  12.406 -0.1900  0.3737  0.1974
33715W        W48562   3.921  10.662  11.219  0.2429  0.0192 -0.0909
33716W        W48563   3.526  14.055   3.971 -0.0445  0.1525 -0.1222
33717W        W48564   7.343   0.244  16.084 -0.0702  0.3111 -0.1533
33718W        W48565  12.046  16.925   3.505  0.1134  0.0173 -0.0300
33719W        W48566   9.787  16.907   4.394  0.2156 -0.1006 -0.0457
33720W        W48567  13.574  14.391  10.399  0.2610  0.0757  0.2386
33721W        W48568  12.146   8.275   4.386  0.0256  0.0088  0.0178
33722W        W48569  16.666   1.268   0.823  0.1341  0.0166  0.2139
33723W        W48570  13.522   7.245  17.067  0.1900  0.0145  0.1526
33724W        W48571   3.460   1.884  14.991  0.2254 -0.3651  0.1064
33725W        W48572  12.617   6.945  12.825 -0.0296  0.0914  0.3015
33726W        W48573  16.583   3.559  12.195  0.1539  0.1832  0.0820
33727W        W48574   1.852  16.378  15.598  0.0269  0.0468  0.1426
33728W        W48575  14.408  11.203  16.674 -0.0060  0.2375 -0.1901
33729W        W48576   2.014  12.275   5.843 -0.1423 -0.0869  0.0474
33730W        W48577  15.792   3.905   0.096 -0.0997 -0.2396 -0.2501
33731W        W48578  12.811  11.554   5.212 -0.1955 -0.1585 -0.0560
33732W        W48579  15.668  12.135   0.920  0.1145 -0.0031 -0.1640
33733W        W48580   3.626   5.249   2.686 -0.0266 -0.2137 -0.1598
33734W        W48581  16.300  14.099   6.531  0.0731 -0.3115 -0.2747
33735W        W48582   7.629   4.489  13.623 -0.0450 -0.0786  0.2425
33736W        W48583   5.956   7.612   2.150  0.2749  0.0156 -0.1942
33737W        W48584  16.514  15.447   1.042 -0.0613 -0.4039 -0.1783
33738W        W48585  13.482   1.097   2.598 -0.0316 -0.1611 -0.1043
33739W        W48586   9.316   3.848  15.063  0.1858 -0.0132 -0.0617
33740W        W48587  13.191  12.755  15.912  0.0333 -0.0200 -0.1650
33741W        W48588   7.492  10.723   1.373  0.0260  0.0187  0.0251
33742W        W48589  12.069  10.812   3.199 -0.1133 -0.0324  0.0416
33743W        W48590  15.680  13.824   1.704  0.2256 -0.1284  0.1349
33744W        W48591  16.355  13.244  15.588  0.3319  0.2999 -0.1244
33745W        W48592  16.803  13.209  15.443  0.0892  0.1555  0.0965
33746W        W48593   5.761  14.648  16.874 -0.3308  0.0910 -0.2051
33747W        W48594   2.127  10.904   3.053  0.0402  0.0950 -0.2057
33748W        W48595   0.851   0.123  16.520  0.3920 -0.2074  0.2806
33749W        W48596  14.035  17.770   5.013  0.0417  0.0042 -0.1435
33750W        W48597   6.713   0.667   1.682  0.1188  0.0996 -0.0102
33751W        W48598  16.646   8.901   1.432 -0.0309  0.0099  0.1543
33752W        W48599   7.440   4.500  15.141 -0.0805 -0.0712  0.1802
33753W        W48600  17.451   8.479  11.919  0.0830  0.0030  0.0053
33754W        W48601   9.696  15.574  12.406  0.1436 -0.0956  0.0820
33755W        W48602   6.977  16.340  16.742 -0.2293 -0.2380  0.1156
33756W        W48603   8.297  13.228   0.718  0.2527 -0.2703  0.3321
33757W        W48604  15.327   5.569  15.027  0.0720  0.4634  0.2553
33758W        W48605   8.476  10.506  13.765 -0.0656  0.0927 -0.1385
33759W        W48606   6.695  15.640   1.747 -0.0657  0.0403  0.1920
33760W        W48607   7.730  10.916  12.779 -0.1072  0.0442 -0.0312
33761W        W48608  14.765   7.349  16.318 -0.2032  0.0533  0.1288
33762W        W48609   1.934  17.304   3.430  0.2339  0.0949  0.4061
33763W        W48610   8.745   0.245   1.456  0.1695  0.2791  0.0906
33764W        W48611   3.157   8.225  14.569  0.2014  0.0161 -0.0892
33765W        W48612   0.736  15.681   6.019  0.0695 -0.0261  0.0626
33766W        W48613   8.340  17.617   0.923 -0.0089 -0.0303  0.2465
33767W        W48614   5.224   1.690  12.606 -0.1523 -0.1552  0.4355
33768W        W48615  17.490   7.958   0.712  0.3094 -0.0481  0.1560
33769W        W48616  17.211   2.491   2.891 -0.3993  0.1314  0.3148
33770W        W48617  10.386   9.784   1.776  0.0381  0.2309  0.1953
33771W        W48618   8.339   8.076   4.971  0.1819 -0.3486  0.2741
33772W        W48619  17.830  15.074   2.980 -0.1401  0.0626 -0.1366
33773W        W48620   2.325   9.280   1.877 -0.2245  0.0116 -0.1552
33774W        W48621  11.031   5.514   3.137 -0.0504 -0.0202 -0.0180
33775W        W48622  17.773  10.254  16.787  0.0239 -0.1048 -0.1425
33776W        W48623  14.073   2.731   1.560 -0.4700 -0.1750 -0.0890
33777W        W48624  14.390   5.874   3.484  0.1738  0.0755 -0.0889
33778W        W48625   0.639   9.344  16.567  0.0878  0.0906 -0.0038
33779W        W48626  13.608  11.062   1.599 -0.0642  0.0102 -0.2237
33780W        W48627  16.636   5.155  16.834  0.1673 -0.2645  0.0752
33781W        W48628  10.535   0.997   3.110  0.1278 -0.1399  0.0669
33782W        W48629   4.327   5.655  15.098  0.2325 -0.0593 -0.2096
33783W        W48630   0.481  12.669   3.848 -0.0527 -0.0067 -0.1937
33784W        W48631  12.221  12.389   4.442 -0.0137  0.0040  0.1089
33785W        W48632  11.637  13.954   0.004  0.0192 -0.1328  0.0013
33786W        W48633  15.039  14.297   4.448 -0.4507 -0.6283  0.1820
33787W        W48634  13.801   5.399  12.616 -0.2856  0.0707  0.0196
33788W        W48635   2.635   0.581   3.907 -0.1568 -0.1561  0.0083
33789W        W48636  11.227   3.478   5.737  0.0619 -0.0476  0.0581
33790W        W48637  17.196  14.141  14.653  0.0597  0.0669  0.1265
33791W        W48638  14.815  12.158   1.888 -0.1364  0.0433 -0.0555
33792W        W48639  16.539   8.957  14.839  0.2193  0.1143  0.2585
33793W        W48640  11.057   4.161   2.856 -0.2389  0.4017  0.0651
33794W        W48641  16.460   1.373   0.218 -0.2592 -0.0088 -0.0507
33795W        W48642  13.495   6.788  15.313  0.4479  0.1122 -0.0651
33796W        W48643  11.243  17.558   4.672  0.3331  0.0619  0.2689
33797W        W48644  16.615   4.234   3.001 -0.1269  0.2956  0.3719
33798W        W48645   1.794   6.109  15.482 -0.0669  0.0102 -0.0418
33799W        W48646   0.217  11.643  11.572 -0.0431  0.0722 -0.0171
33800W        W48647   8.811   0.579   6.229  0.1705  0.0194 -0.1709
33801W        W48648  17.055  11.167   0.377  0.1392  0.0355  0.1704
33802W        W48649   1.722  16.582   1.216  0.1723 -0.1507 -0.2175
33803W        W48650  15.184   7.690  10.291 -0.2693 -0.0883 -0.1556
33804W        W48651  13.663  12.653   4.494  0.0638 -0.0165 -0.3122
33805W        W48652  12.894   4.338  10.664 -0.0873  0.0316  0.0848
33806W        W48653  15.628  16.378  15.317  0.1788 -0.1533 -0.0573
33807W        W48654   9.669  14.289  16.525 -0.2195 -0.1908 -0.0720
33808W        W48655  15.340  10.661  13.045 -0.1695  0.0127 -0.1551
33809W        W48656  17.165   3.787   1.424 -0.3330 -0.0879  0.0962
33810W        W48657  16.221   3.178  13.259  0.1216  0.0411  0.2540
33811W        W48658  11.962   9.226  14.615 -0.1096  0.0744  0.1251
33812W        W48659   7.739  13.208  11.818 -0.2852  0.1227  0.1426
33813W        W48660   7.455  16.376  13.469 -0.0913  0.2075  0.0261
33814W        W48661  10.703  14.660  12.202  0.2258 -0.1676  0.0936
33815W        W48662  12.002   1.036   4.604  0.3623 -0.0607  0.2703
33816W        W48663  16.177  13.192  16.745  0.0907  0.2340  0.1555
33817W        W48664  11.755   9.880   3.516  0.3931  0.0329  0.3452
33818W        W48665  14.989  16.584  15.372 -0.1877  0.1772  0.0185
33819W        W48666   1.975   5.161  10.986 -0.1783  0.2308 -0.0991
33820W        W48667   5.855  17.610   4.159  0.0934  0.4094  0.3719
33821W        W48668   0.166   7.026  15.862  0.1992 -0.2831  0.1214
33822W        W48669  15.061  17.253  16.031  0.0359  0.1226  0.1495
33823W        W48670   7.981  10.195  15.379  0.0909  0.2403  0.2278
33824W        W48671  12.512  12.673  12.793  0.2439 -0.0554  0.0926
33825W        W48672  10.311   8.775   5.654  0.2593  0.1788 -0.0071
33826W        W48673  10.182  12.564  12.330  0.0166  0.1437 -0.0050
33827W        W48674  13.467   7.187  14.886  0.0399 -0.0112  0.2367
33828W        W48675  15.043  10.368   1.324  0.2087  0.2588 -0.1169
33829W        W48676  12.361  14.382  16.488  0.1016 -0.2429 -0.0537
33830W        W48677  14.411   1.784   5.979 -0.0866  0.1240  0.0855
33831W        W48678   0.573   4.993  16.780 -0.0052 -0.3098 -0.1716
33832W        W48679  10.909   2.534  11.935 -0.2961 -0.0776  0.0449
33833W        W48680  16.386   5.655   1.164  0.2609 -0.2353 -0.1022
33834W        W48681   1.152  15.782  15.204 -0.1387 -0.0727 -0.1715
33835W        W48682  16.482   6.095   3.233  0.0457  0.2702 -0.2564
33836W        W48683  11.848  11.463  12.561 -0.0727 -0.4437  0.0442
33837W        W48684   7.460  13.349   4.413 -0.3351 -0.0770 -0.3699
33838W        W48685  16.980   6.049  15.478 -0.3210 -0.1594 -0.2758
33839W        W48686  11.078  10.329  10.708  0.2786  0.4353  0.1801
33840W        W48687   3.095   4.942   0.934 -0.2403  0.1684  0.0855
33841W        W48688   1.047  17.579   3.681 -0.3576 -0.1581  0.1040
33842W        W48689  13.673   7.775  12.077 -0.3212 -0.0600  0.0537
33843W        W48690   5.587   6.780   1.443 -0.0520  0.0697  0.1457
33844W        W48691   0.201  11.903   2.167  0.0356  0.2848  0.0664
33845W        W48692   5.209   4.636  15.151 -0.0134 -0.0967  0.0619
33846W        W48693  12.017   4.345   2.594 -0.0957  0.2022 -0.1855
33847W        W48694   1.728   4.409   1.974 -0.0481 -0.3645 -0.0321
33848W        W48695   5.348   1.649  14.089  0.0278 -0.2401  0.2122
33849W        W48696   7.556   0.783   5.619 -0.3047 -0.0548  0.3171
33850W        W48697  17.344   2.734  12.442 -0.0874  0.0776 -0.1013
33851W        W48698   3.668   1.270  11.824  0.0048 -0.2910  0.2263
33852W        W48699  16.653   5.809   3.683 -0.0865  0.1437  0.0108
33853W        W48700  13.528   4.162   0.443 -0.1056  0.3130 -0.0579
33854W        W48701  11.897  12.808   0.215  0.0277 -0.0019 -0.0228
33855W        W48702  17.023   9.679  14.845 -0.2437 -0.2133  0.2128
33856W        W48703  14.544   5.023  14.780 -0.2110 -0.3291 -0.0769
33857W        W48704   2.326  17.211   2.007  0.4999 -0.0380  0.2857
33858W        W48705  13.938   1.757   2.027  0.1876 -0.1813  0.0718
33859W        W48706   9.326  14.313   2.832  0.0658  0.2561 -0.0106
33860W        W48707  11.232  13.692  17.103  0.1092  0.1799 -0.0356
33861W        W48708  13.165  17.039  12.013 -0.2150  0.0342 -0.6097
33862W        W48709  13.579   5.555  12.187 -0.2385 -0.1686  0.0791
33863W        W48710   9.291  15.296  12.526  0.0110 -0.1067 -0.1097
33864W        W48711   9.863   4.331  13.122  0.0063 -0.1089 -0.0796
33865W        W48712   3.406   0.265  11.692  0.1581 -0.0335  0.0096
33866W        W48713   5.143   5.738  12.260  0.1694  0.0172 -0.1350
33867W        W48714  12.417  15.856   5.959 -0.1754 -0.4290 -0.0272
33868W        W48715  13.582  13.293  14.492  0.0298 -0.1992 -0.0499
33869W        W48716  10.543   8.626  14.917  0.1104 -0.0366 -0.0027
33870W        W48717  12.167   1.044   3.767 -0.2811  0.1369  0.2346
33871W        W48718   0.499   2.514  14.233  0.1621 -0.2582  0.2020
33872W        W48719  12.205   3.639   4.666  0.0888 -0.1725  0.0340
33873W        W48720  16.542   8.480   5.954 -0.0062 -0.1520  0.1170
33874W        W48721  14.228   5.030   0.488 -0.2931 -0.0721  0.0261
33875W        W48722  12.037   0.085   2.272 -0.0183  0.4062 -0.1742
33876W        W48723   0.377   1.727  15.443  0.0505 -0.2001 -0.0777
33877W        W48724  11.950   7.147   0.807  0.1548  0.0935  0.0605
33878W        W48725   6.272   8.139   3.121 -0.0460 -0.2642 -0.3257
33879W        W48726  15.126  14.921  12.021 -0.0512 -0.3637  0.0635
33880W        W48727   0.668  10.442  16.372  0.1735  0.2108  0.1814
33881W        W48728  14.800   5.433   3.674  0.2181 -0.2470  0.1686
33882W        W48729  12.862   7.972   1.221 -0.1501 -0.2057  0.1205
33883W        W48730   0.496  12.308   1.332  0.0415 -0.1709 -0.2418
33884W        W48731  12.870  16.889   2.437  0.0509  0.2335 -0.1328
33885W        W48732  12.661   5.111   2.160  0.2625 -0.1372  0.0800
33886W        W48733   0.615   6.704  15.943 -0.0883 -0.2592  0.1007
33887W        W48734   6.150  13.745  15.015 -0.0482 -0.0094 -0.0694
33888W        W48735  14.849  11.801  13.655  0.1328  0.2186 -0.2091
33889W        W48736  17.019  13.343   5.343  0.1358  0.1321 -0.1375
33890W        W48737  13.829   6.432   5.166  0.1181 -0.0770 -0.5708
33891W        W48738  13.948   7.273   1.748  0.2518 -0.0718 -0.1257
33892W        W48739  17.301  14.826   1.443  0.1265 -0.0170  0.4188
33893W        W48740  15.856   3.704  15.317  0.2611  0.2063  0.0495
33894W        W48741  16.758   4.902  14.298 -0.0859 -0.2139  0.1718
33895W        W48742   8.634   8.340  13.153 -0.2059  0.1991 -0.3216
33896W        W48743  16.206   7.907  13.569 -0.0949  0.1145  0.2138
33897W        W48744   9.750   2.101   4.941  0.0232  0.1733 -0.1223
33898W        W48745  13.686   0.413   2.173 -0.3228  0.2099 -0.3431
33899W        W48746  17.024   8.675  14.206 -0.0299  0.1127 -0.0719
33900W        W48747  13.971   6.132   4.413  0.2608 -0.1211  0.2631
33901W        W48748  16.825  16.111  10.614 -0.1287 -0.1095  0.0613
33902W        W48749  14.557  11.619  14.524  0.3581  0.0686  0.4867
33903W        W48750  13.042   2.732  12.506 -0.0801  0.0389  0.3933
33904W        W48751  12.528   7.605  12.872 -0.1262 -0.1048  0.1796
33905W        W48752   0.983  16.851   5.343  0.1242 -0.0962 -0.1231
33906W        W48753   4.431   6.348  13.280  0.0954 -0.4210 -0.2751
33907W        W48754  17.341   8.752   2.677 -0.0040 -0.0080 -0.1903
33908W        W48755  13.222   7.731  10.508 -0.2296  0.0558  0.1174
33909W        W48756  12.951   1.248   2.702 -0.1374  0.1964  0.0122
33910W        W48757   0.070  15.977   0.982  0.5030  0.0696 -0.0265
33911W        W48758   8.716  14.935  13.787  0.0302 -0.1367  0.0713
33912W        W48759   1.241  14.392   5.283  0.0843  0.1495 -0.1973
33913W        W48760  15.436   7.669  13.336  0.2102 -0.0912  0.4892
33914W        W48761  13.863  17.921   2.377 -0.0802  0.0488 -0.0888
33915W        W48762  15.954  13.453  12.444  0.1541  0.0393 -0.2357
33916W        W48763  11.666   7.030   3.925  0.2545 -0.0636 -0.0310
33917W        W48764   1.446  15.582   4.352  0.0144  0.1602 -0.3602
33918W        W48765   1.375  12.190  16.482 -0.1207  0.1061 -0.2301
33919W        W48766  12.243   6.571  12.851  0.4333 -0.0881  0.0988
33920W        W48767  16.595   8.777  15.787  0.0263  0.0253 -0.1145
33921W        W48768  12.108   9.984  15.108  0.3322 -0.0257 -0.0207
33922W        W48769   0.279  14.834   0.982 -0.2113 -0.3989  0.0047
33923W        W48770  17.048  15.750   1.681 -0.2223  0.2855 -0.0702
33924W        W48771   8.342   4.283  11.918 -0.0294  0.0167  0.0664
33925W        W48772  12.427  12.585  13.338  0.1030  0.1407  0.2227
33926W        W48773   9.878   6.609  16.170  0.0076  0.0165 -0.4114
33927W        W48774  15.038  12.891   2.600 -0.2004  0.1846 -0.0506
33928W        W48775  10.262  12.774   0.604  0.0934  0.0856 -0.0197
33929W        W48776   8.332  10.664   5.887 -0.0362  0.2021 -0.2078
33930W        W48777   9.913   8.943  13.824  0.2056 -0.1209 -0.0484
33931W        W48778  12.561  10.952   3.384 -0.0679 -0.3562 -0.4053
33932W        W48779   3.186   7.138  16.383  0.0189 -0.2037  0.1154
33933W        W48780   8.639  12.650  16.517 -0.3914 -0.1951  0.0626
33934W        W48781  12.320  10.764  13.124  0.3302  0.2451  0.2229
33935W        W48782  13.887   2.702  14.653 -0.1531  0.8117 -0.3200
33936W        W48783  17.838   6.683   3.675  0.2607 -0.4255  0.0462
33937W        W48784  10.727   8.020   6.073 -0.1351 -0.1474  0.1815
33938W        W48785  13.286  14.676   1.771  0.1748 -0.2721 -0.0187
33939W        W48786   1.676  13.884   2.916  0.1458 -0.3268  0.0305
33940W        W48787  17.489  16.281   2.407 -0.3000  0.0014  0.4410
33941W        W48788  17.901   1.859  11.234 -0.1768  0.0834 -0.3737
33942W        W48789  12.866   7.539   3.703 -0.0649  0.0807 -0.0395
33943W        W48790  14.445   2.822   5.169  0.0581  0.0693 -0.0479
33944W        W48791  14.088   0.555  15.768  0.1596  0.0032  0.0210
33945W        W48792   2.831   2.283  16.829 -0.1214 -0.1001  0.0964
33946W        W48793  17.554  11.554   3.064 -0.2020  0.1123 -0.3459
33947W        W48794   5.759  11.052   0.517 -0.0161  0.2482  0.2463
33948W        W48795  13.301  15.203  11.614  0.0245  0.2870  0.1872
33949W        W48796  11.584   9.436  15.196  0.0603 -0.0576  0.0959
33950W        W48797  17.570  12.887  12.058 -0.1550 -0.1605  0.1284
33951W        W48798   4.402   1.691  15.065  0.0758  0.1542 -0.1144
33952W        W48799  10.948  16.406   5.556  0.0768 -0.3012 -0.0580
33953W        W48800   3.666   5.102  13.125  0.4506  0.1198 -0.0010
33954W        W48801   2.551  11.909   0.043 -0.2039 -0.1095 -0.0505
33955W        W48802  14.476   8.158   2.500  0.1327 -0.0571  0.4503
33956W        W48803   5.112   7.163  16.166  0.0431 -0.2431  0.2587
33957W        W48804  11.478  10.192   4.661  0.0317  0.0832 -0.0499
33958W        W48805  11.656   8.074  12.138 -0.0122 -0.2851  0.1681
33959W        W48806  17.110   5.077  14.655  0.0887  0.2683 -0.0226
33960W        W48807  11.321   2.169  14.084 -0.0146  0.0409 -0.0820
33961W        W48808  15.269   9.935  14.775 -0.2863 -0.0268  0.0527
33962W        W48809  10.684   9.730  16.960  0.0145  0.1490 -0.2238
33963W        W48810  12.524   7.209  11.508  0.3597 -0.1301 -0.2838
33964W        W48811  16.425   0.651  11.292 -0.0305  0.0656  0.0230
33965W        W48812  14.347   7.749   2.795 -0.1415  0.1046 -0.0223
33966W        W48813   4.636  10.325  16.904 -0.1068 -0.0583 -0.0878
33967W        W48814  12.471   4.025   4.473 -0.0495 -0.0606  0.1378
33968W        W48815   1.824   5.122   3.205 -0.1130  0.1736  0.2578
33969W        W48816  10.427  14.995   4.757 -0.0031  0.1308 -0.0147
33970W        W48817  16.871   5.953   1.188  0.2037 -0.1438 -0.1546
33971W        W48818   1.437  10.864   3.182 -0.2275  0.1112 -0.3540
33972W        W48819   9.487   3.466   3.820 -0.1653  0.1517  0.0409
33973W        W48820  17.711  13.954  15.663 -0.0609  0.2361 -0.1278
33974W        W48821  11.306   6.445  16.929  0.1110 -0.1297 -0.1257
33975W        W48822  14.219  13.253   2.325  0.1591  0.1753 -0.1042
33976W        W48823   0.579   0.892   4.850  0.3031 -0.1926 -0.1129
33977W        W48824   0.878   0.584  12.568  0.0334  0.1648  0.1695
33978W        W48825   0.737   2.372   2.480 -0.0513 -0.2263 -0.1032
33979W        W48826  11.760  13.760  16.397 -0.0038  0.3129 -0.0782
33980W        W48827  14.062  10.029  13.581  0.0583  0.1861  0.0603
33981W        W48828  16.365  11.768  11.108 -0.0586  0.1050  0.0856
33982W        W48829  10.683   5.312  14.673 -0.1283  0.1672 -0.2747
33983W        W48830   7.828   8.892  15.671 -0.0679 -0.2500  0.2139
33984W        W48831   0.325   1.596   5.563 -0.0074 -0.1267  0.1926
33985W        W48832  14.060  12.063  11.546  0.1468 -0.0517 -0.0202
33986W        W48833   0.177  15.386  11.814  0.0296 -0.0576 -0.0836
33987W        W48834   1.125   9.038  15.358 -0.1597 -0.0156  0.0240
33988W        W48835  15.181   1.075   0.090  0.0489  0.1948 -0.0913
33989W        W48836  14.820  10.409  16.854 -0.2248  0.1552 -0.0890
33990W        W48837   0.111   2.974  12.460 -0.0953 -0.0383 -0.2503
33991W        W48838  10.470   5.769  12.422  0.2109  0.1118  0.1340
33992W        W48839  12.583  15.471  11.144 -0.2689 -0.4380 -0.1550
33993W        W48840  16.967  11.055   5.644 -0.2001 -0.1169  0.4363
33994W        W48841   4.877  12.381  14.245  0.2187  0.0702 -0.0933
33995W        W48842   4.027   3.935  12.750  0.0659 -0.1238 -0.2548
33996W        W48843  17.918  14.623   3.901  0.1624 -0.1186  0.1227
33997W        W48844   5.422   2.233  14.249  0.0006 -0.1130 -0.0852
33998W        W48845  12.508  10.611  14.732 -0.2484  0.2383 -0.0926
33999W        W48846   1.269  16.207  13.469 -0.0436  0.1411  0.2244
34000W        W48847  11.053   2.214   6.130  0.0977 -0.1694 -0.2662
34001W        W48848  17.581   9.908   4.076  0.1263 -0.1375  0.4111
34002W        W48849  13.099   4.674  12.819  0.0873 -0.1900 -0.0519
34003W        W48850  16.118   2.904  15.727  0.1327 -0.2645 -0.1571
34004W        W48851  14.877  16.807  17.106 -0.0861 -0.2799  0.2190
34005W        W48852  10.962   5.230   2.651 -0.1642  0.0842 -0.1562
34006W        W48853   1.515  16.123  12.554  0.0301 -0.0667 -0.1730
34007W        W48854  12.845   2.238   4.115  0.1410  0.1538  0.1881
34008W        W48855  15.120   0.395   4.286 -0.3535  0.0543 -0.2938
34009W        W48856  11.812   8.812  16.764 -0.0424 -0.2017 -0.0994
34010W        W48857  11.980  12.880   3.240 -0.1002 -0.2869 -0.0421
34011W        W48858   0.334   6.338  12.590 -0.4359 -0.3540  0.0264
34012W        W48859  16.461   7.521   4.298  0.1960  0.2341  0.1345
34013W        W48860  10.823   3.610   4.855 -0.1948  0.1028 -0.1933
34014W        W48861  16.983  10.836  14.314 -0.2085 -0.1495  0.0167
34015W        W48862  15.104  14.982  12.570 -0.2572 -0.0372  0.0073
34016W        W48863  13.307   6.731  12.961  0.1159  0.1279 -0.1155
34017W        W48864  14.438  10.447  11.964 -0.1528  0.0373 -0.2568
34018W        W48865  17.199   1.944   3.558  0.0829 -0.0750  0.3783
34019W        W48866  16.786   0.980   4.695 -0.0596 -0.1200 -0.0972
34020W        W48867   9.152   7.438   6.978 -0.1528 -0.1296 -0.0077
34021W        W48868  16.973   6.477   2.344 -0.1969 -0.1166 -0.0004
34022W        W48869   2.678   3.262   3.030  0.0016  0.0202 -0.1443
34023W        W48870  16.422  10.237   5.281  0.1507 -0.1230  0.1194
34024W        W48871  17.543   5.651  14.161 -0.1552  0.0827 -0.2033
34025W        W48872  14.577  14.239   3.522 -0.0686 -0.5340  0.2812
34026W        W48873  14.654  16.038   3.452 -0.1266 -0.2233 -0.2121
34027W        W48874   7.797  15.088   1.001  0.3189 -0.4367  0.3132
34028W        W48875   8.865   4.695  16.987  0.3320 -0.2682  0.0076
34029W        W48876  15.705   9.608   3.051 -0.4850 -0.1983  0.1676
34030W        W48877   7.005  12.253   3.579 -0.0839 -0.0486  0.1214
34031W        W48878   1.308  17.719   0.241  0.1130 -0.0607  0.1450
34032W        W48879   1.149   9.357   6.280 -0.1039 -0.1151  0.1838
34033W        W48880  12.892   7.591   6.486  0.1244  0.0404  0.1769
34034W        W48881   8.672   6.701   1.744 -0.0323  0.2063 -0.0972
34035W        W48882  12.929  12.778  12.092  0.2166 -0.0258 -0.0154
34036W        W48883   2.334  17.083  14.763  0.1405  0.2634 -0.2395
34037W        W48884  12.273   7.100   6.272  0.1108  0.1345 -0.0057
34038W        W48885  16.291   6.192  14.265  0.0492 -0.1491 -0.2067
34039W        W48886  15.155   7.203   1.777 -0.0169 -0.1703 -0.0897
34040W        W48887  14.905  10.834   5.160 -0.0735 -0.3199  0.0026
34041W        W48888  10.024  15.087  14.394 -0.0231  0.0867  0.0076
34042W        W48889  14.132   4.613   5.923  0.0073  0.1194 -0.2770
34043W        W48890  11.997  14.143  10.983 -0.6251  0.1319 -0.2025
34044W        W48891  12.326  14.539  13.849  0.0018 -0.1175 -0.0590
34045W        W48892  10.179   4.920  16.225  0.0143  0.1525  0.1690
34046W        W48893  17.736   6.260   2.578  0.2329  0.1680 -0.2558
34047W        W48894  14.546   2.626   5.626  0.0399  0.1267  0.1018
34048W        W48895  14.701   0.914   4.097 -0.0917  0.1098  0.2702
34049W        W48896  17.282  13.047  13.549  0.1052 -0.1963  0.4348
34050W        W48897  11.388   7.001   5.511  0.0824 -0.0421 -0.1098
34051W        W48898  13.695   3.339   2.812  0.1693  0.1638  0.1067
34052W        W48899   7.447  11.700  10.986 -0.1568  0.2979  0.1453
34053W        W48900  15.468   5.700   0.141 -0.0534 -0.0379  0.3476
34054W        W48901   3.629  16.432   3.655 -0.0814  0.0252  0.0801
34055W        W48902   1.291   3.210  17.103  0.1109  0.0704  0.0981
34056W        W48903  16.508  16.997   1.314  0.0630  0.0157  0.1833
34057W        W48904   0.576   6.620  13.367  0.0748  0.0547 -0.5175
34058W        W48905  17.557  12.274  12.702  0.1492  0.2376  0.0442
34059W        W48906   2.362   7.706   1.862  0.0726 -0.2547  0.2273
34060W        W48907  17.803  16.032   1.790  0.3088 -0.0160  0.0926
34061W        W48908   2.039  14.411   3.150 -0.0811  0.1794  0.0651
34062W        W48909   1.618  13.030   5.004  0.1623  0.1079  0.0466
34063W        W48910   2.582  13.424   2.326 -0.1418  0.1762  0.0125
34064W        W48911  12.598  11.883   4.200 -0.0214 -0.1981  0.2938
34065W        W48912   7.052   2.521   1.213  0.0484  0.0068  0.3766
34066W        W48913   6.027   6.364  12.996 -0.0396 -0.0091 -0.1128
34067W        W48914  15.900   3.336  12.935 -0.1566  0.0375 -0.0925
34068W        W48915  12.929   9.408  11.218  0.0585 -0.2770  0.2699
34069W        W48916   2.079  17.923  12.329  0.3010 -0.2702  0.5834
34070W        W48917  15.236   1.830   6.424 -0.2055  0.1752 -0.1432
34071W        W48918   1.613   8.142   3.350 -0.0243  0.3139  0.2295
34072W        W48919  12.675  11.841  16.068 -0.0531 -0.2787 -0.0957
34073W        W48920  11.145   2.552   6.576 -0.0200 -0.1549 -0.0252
34074W        W48921  17.569   6.793  16.169 -0.0905 -0.1329  0.0628
34075W        W48922   6.836   7.123   3.406  0.0159 -0.0635 -0.1465
34076W        W48923  16.526   9.983  12.349  0.0742 -0.1999  0.2062
34077W        W48924   4.618   0.469  12.037  0.0379  0.1296 -0.1175
34078W        W48925  12.890  17.000   1.532 -0.0246  0.0092  0.3088
34079W        W48926  14.558   8.012   5.089 -0.0577  0.3449 -0.2946
34080W        W48927   9.578   4.946   4.531  0.0618  0.1900 -0.1815
34081W        W48928   0.301  11.695  13.641  0.1304 -0.1487 -0.0154
34082W        W48929  15.772  13.106  16.483 -0.0394 -0.4231  0.1388
34083W        W48930  10.480  10.600  15.154 -0.1881 -0.0075  0.0799
34084W        W48931  16.056   2.205   2.353  0.2305 -0.0182 -0.3175
34085W        W48932   5.136   6.999   5.896  0.2733  0.3829  0.1078
34086W        W48933  10.453  13.765  16.374  0.1848 -0.0438  0.2091
34087W        W48934  16.904  12.162   3.272  0.2450 -0.0244 -0.3665
34088W        W48935   2.379  14.405   2.592 -0.2295  0.1705 -0.0065
34089W        W48936  16.630  17.681  12.894  0.0160  0.1076 -0.2600
34090W        W48937  13.704   1.067  16.684 -0.0079  0.1609 -0.0223
34091W        W48938  12.064   0.451   5.420  0.4372  0.0874  0.1960
34092W        W48939   3.928  15.416  16.624  0.1082  0.0879 -0.2359
34093W        W48940   1.717   1.934  15.876  0.2939 -0.1283  0.2526
34094W        W48941  14.946  15.316  14.456 -0.1514 -0.0811  0.0916
34095W        W48942  12.390   8.275   3.660  0.3072  0.1972  0.2580
34096W        W48943   6.119  13.129  13.573  0.2257 -0.1650  0.0202
34097W        W48944   5.506  14.158  12.402  0.0778  0.0427 -0.1020
34098W        W48945  15.031   2.032  16.942 -0.2094 -0.1084  0.5688
34099W        W48946   9.543  14.688  15.049 -0.4524  0.2326 -0.2942
34100W        W48947  11.989   9.087  13.714  0.0628  0.0841  0.4111
34101W        W48948  13.736   4.270   4.817  0.0516  0.2915  0.4066
34102W        W48949  16.653  11.264  11.118 -0.4772 -0.2689  0.0646
34103W        W48950  10.521  10.619   6.234  0.2500 -0.0837  0.1288
34104W        W48951   4.106   9.294   4.378 -0.0865  0.0313  0.2474
34105W        W48952  13.596   1.376  15.175  0.3449 -0.1603  0.0339
34106W        W48953  15.743   4.760   5.398  0.1254 -0.1879  0.2361
34107W        W48954  11.322  12.405   5.967 -0.1026  0.0754  0.0112
34108W        W48955  15.144   1.649  11.508  0.1042  0.0299 -0.0715
34109W        W48956  16.896   9.211  11.851 -0.0908 -0.0779  0.1685
34110W        W48957  14.560   5.953  16.248  0.0373 -0.0619 -0.2626
34111W        W48958   0.819  13.064  15.482  0.2115  0.1704  0.1055
34112W        W48959  14.630  10.561  14.435  0.1632  0.1299  0.0435
34113W        W48960   9.792   4.801  12.925  0.0866  0.1935  0.2211
34114W        W48961   8.497   1.570  16.295  0.2719 -0.1148  0.0351
34115W        W48962  15.952   6.261  14.975 -0.2279 -0.0119 -0.0530
34116W        W48963  12.067   4.638   0.888  0.2615  0.1015  0.0623
34117W        W48964  13.106  16.144   3.872 -0.1325 -0.2121 -0.1371
34118W        W48965  12.122  11.810   3.260  0.0734  0.1767 -0.1353
34119W        W48966   7.809  17.394  15.517 -0.0910  0.0031 -0.2059
34120W        W48967  12.033  15.303  11.963  0.1012 -0.1423 -0.1952
34121W        W48968   0.263  12.906  16.737  0.0341  0.0050 -0.0518
34122W        W48969  11.491   8.435  16.981  0.2102  0.0524  0.1057
34123W        W48970   8.240  16.965   4.997  0.0336  0.1199 -0.0133
34124W        W48971   0.224   5.069   0.594 -0.0872 -0.2421  0.1963
34125W        W48972  16.825   5.787   0.436  0.0733  0.2194 -0.1808
34126W        W48973   9.095   0.558  14.527  0.2090  0.0572  0.0821
34127W        W48974  17.939  16.461  14.461  0.2778 -0.4967 -0.0239
34128W        W48975   2.544   6.608  13.618 -0.0398  0.0091  0.2503
34129W        W48976  12.580   2.881   6.616  0.0636 -0.3286 -0.1800
34130W        W48977  17.190   9.795   4.449  0.2470 -0.3579 -0.3965
34131W        W48978  12.449   7.666  16.708 -0.0444  0.0444  0.0243
34132W        W48979  10.871  17.604   5.531  0.1239 -0.1066 -0.0734
34133W        W48980  15.555   1.131   3.118  0.3357  0.1540  0.0589
34134W        W48981   3.658  16.150   2.565  0.2526  0.1038  0.0004
34135W        W48982  16.077   9.265  14.104  0.1576 -0.1014 -0.1931
34136W        W48983  16.126   8.888   0.085 -0.2609  0.1150 -0.2366
34137W        W48984   9.605   2.329  15.843 -0.2912  0.0694 -0.0926
34138W        W48985  15.925  14.950   0.472 -0.0258 -0.0987  0.0021
34139W        W48986  12.751  12.930  14.461 -0.2535 -0.3686  0.0345
34140W        W48987   0.760   8.058  13.486 -0.0182  0.1888  0.1741
34141W        W48988   7.880  17.662   2.097  0.0601  0.2339  0.1363
34142W        W48989   2.424  14.993   3.343  0.2251 -0.3292 -0.1057
34143W        W48990   1.969  11.998   1.558 -0.0127  0.2325  0.1590
34144W        W48991  14.749   3.819  10.928  0.2151  0.1915 -0.1947
34145W        W48992  17.014  15.151  15.082 -0.0963 -0.0579 -0.1207
34146W        W48993  13.667   6.381   2.431  0.0184  0.0761  0.0862
34147W        W48994  11.473   0.550   4.705 -0.0257  0.1464 -0.0946
34148W        W48995  15.386   1.735  13.632  0.0534  0.2395 -0.1286
34149W        W48996  10.006  14.667   0.087 -0.3401  0.4478 -0.1012
34150W        W48997   3.788   2.153   3.990 -0.2551  0.0903  0.1866
34151W        W48998  15.668   8.531   5.385  0.0802  0.1789  0.1764
34152W        W48999  16.124  11.947  14.865  0.0437 -0.1532 -0.0932
34153W        W49000  10.608   5.240   2.282  0.2421 -0.2346  0.5444
34154W        W49001  17.912  12.642   1.772 -0.0579  0.1080  0.2060
34155W        W49002   1.750  14.765   0.978  0.3008 -0.0170 -0.1877
34156W        W49003  17.346   3.241   4.825  0.2166 -0.2128 -0.2807
34157W        W49004  15.265   3.422   0.461  0.1717 -0.0107 -0.1732
34158W        W49005  13.552  13.293   1.382 -0.2574  0.1632 -0.1812
34159W        W49006  17.318   1.792  12.128  0.0859  0.0033 -0.0326
34160W        W49007  14.384   4.727   2.336  0.1916 -0.1606 -0.2194
34161W        W49008  16.173   7.372   0.917 -0.2633 -0.1760 -0.2507
34162W        W49009   8.866   1.355   0.077 -0.1520  0.1041 -0.0534
34163W        W49010  12.247  15.120   4.566  0.2072  0.2205  0.0252
34164W        W49011  15.144   1.940  12.702 -0.0948 -0.0576 -0.3872
34165W        W49012  13.549   9.388   4.857 -0.1541  0.2066  0.1420
34166W        W49013  14.413   0.694  11.974  0.1049 -0.1532  0.0080
34167W        W49014  13.232  14.163   3.143 -0.0058 -0.1395 -0.1214
34168W        W49015  13.379   4.623   0.598  0.1187 -0.0552  0.0489
34169W        W49016  15.751   8.800   0.681  0.1205 -0.0995  0.1467
34170W        W49017  14.495  13.419  16.868  0.2371  0.2142 -0.0229
34171W        W49018  15.256  13.223   5.151  0.0805  0.2449  0.2440
34172W        W49019  16.793  14.359  16.245 -0.1771  0.0324  0.0490
34173W        W49020   1.937   2.866  16.082  0.3144  0.1639  0.2385
34174W        W49021   1.319   8.330  14.282  0.1995  0.2468 -0.0435
34175W        W49022   0.034   6.967  16.987  0.1743  0.0730  0.1776
34176W        W49023   8.692   8.073  12.712 -0.0808  0.1709  0.1326
34177W        W49024  15.350  15.615  11.988 -0.2223  0.2172  0.0734
34178W        W49025  13.769   4.386   4.349 -0.0611 -0.1713  0.0622
34179W        W49026   9.735  15.162   2.496 -0.0781  0.1570  0.2941
34180W        W49027  10.375   0.920   2.130  0.5127  0.0812 -0.2233
34181W        W49028  12.913   4.737  13.415 -0.1920  0.1602  0.1001
34182W        W49029   6.167   1.806  15.111  0.2341 -0.1376  0.1754
34183W        W49030  15.365   7.541   5.222 -0.1578  0.1114  0.3982
34184W        W49031  11.085   5.047  13.066 -0.1824 -0.2799  0.1037
34185W        W49032   7.087   2.253  14.960  0.1030 -0.0871 -0.0358
34186W        W49033  15.239   8.551  16.830  0.1397 -0.0513 -0.2252
34187W        W49034   7.503   4.327   2.090 -0.0743  0.2809  0.0735
34188W        W49035  17.056  10.514  11.688  0.1231  0.1760  0.0171
34189W        W49036  16.819  11.859   4.339  0.0188 -0.1284 -0.0727
34190W        W49037  11.154   9.218  16.350 -0.1253  0.0319  0.2502
34191W        W49038  15.595   6.258  15.561 -0.0133  0.1283 -0.3041
34192W        W49039  16.777   2.647  12.291  0.2997 -0.2618  0.4928
34193W        W49040   7.793   7.306   5.682 -0.1080 -0.1684 -0.1294
34194W        W49041  17.667   8.426   0.534  0.0598  0.2553  0.2188
34195W        W49042  11.711  14.304   6.533 -0.1235  0.0696  0.0207
34196W        W49043  14.243  13.947  15.052  0.2041 -0.0876  0.0869
34197W        W49044  13.909   5.899  12.483  0.1679 -0.3182 -0.2096
34198W        W49045  11.581  12.594  14.271 -0.0295  0.0741  0.3507
34199W        W49046  12.574  11.032  15.776 -0.1931 -0.0696  0.0931
34200W        W49047   9.799   1.342  12.075  0.2230 -0.0733 -0.0463
34201W        W49048   8.506   8.875   5.198 -0.1600 -0.1220  0.1564
34202W        W49049   6.218   9.911   5.467 -0.2355 -0.0850  0.0128
34203W        W49050   1.118  17.289   4.512  0.2664  0.3717 -0.1066
34204W        W49051  10.066   2.787   2.918  0.1540  0.1546  0.0697
34205W        W49052   2.592   6.820   4.664 -0.1323  0.0514  0.0621
34206W        W49053  12.184   9.784  16.946  0.0211 -0.1370 -0.0328
34207W        W49054  15.935   0.996  13.440 -0.0435  0.6132  0.1707
34208W        W49055  16.469   9.267  11.975  0.0460  0.3866 -0.4040
34209W        W49056  16.253  15.355  10.331 -0.0378 -0.2194  0.1507
34210W        W49057  14.068  13.445  14.490  0.1061 -0.4779 -0.3111
34211W        W49058  14.070  15.085  14.813 -0.1049 -0.0754 -0.0794
34212W        W49059   0.233   9.974   0.940  0.2357 -0.2162  0.2304
34213W        W49060  15.252  16.348  13.644 -0.1676  0.1861 -0.3151
34214W        W49061  11.919  16.862   0.888  0.1899  0.5443 -0.2024
34215W        W49062   4.562  15.514   3.728 -0.3253  0.2217  0.1495
34216W        W49063  16.305   4.965   3.950  0.0647 -0.2186 -0.0327
34217W        W49064   3.625  12.909   4.921  0.0903 -0.3647  0.1631
34218W        W49065   2.010   0.736  15.250 -0.2389 -0.2278 -0.0063
34219W        W49066  12.532   2.310  13.033 -0.0766 -0.1289 -0.1806
34220W        W49067  11.349  12.152  14.339 -0.2142  0.0993 -0.2133
34221W        W49068  13.419   7.845   3.678 -0.0612  0.0035 -0.2072
34222W        W49069  10.752   6.065  14.143 -0.1770 -0.2268 -0.3231
34223W        W49070   2.251   8.000  12.551  0.0736 -0.2123 -0.2822
34224W        W49071   1.823   3.468   2.076  0.1748  0.0529 -0.1931
34225W        W49072   0.400   3.701  16.951 -0.2176  0.0406 -0.0040
34226W        W49073  10.966  15.048  15.429 -0.0500  0.0864 -0.0351
34227W        W49074  14.584   4.407   2.662  0.1645  0.0265 -0.2275
34228W        W49075  12.290  10.666   0.293  0.1324 -0.0983  0.0620
34229W        W49076  13.404   4.424  11.516 -0.0683  0.1890  0.4579
34230W        W49077  16.057   7.177   4.277  0.3293 -0.2104 -0.0470
34231W        W49078   5.485   8.286   0.225  0.4217 -0.1024 -0.2500
34232W        W49079  17.192  11.693   4.670  0.0200 -0.0879  0.0050
34233W        W49080  16.162  14.479   4.377 -0.3342  0.0540 -0.0097
34234W        W49081  12.815  14.235  11.535 -0.2195  0.1053 -0.1689
34235W        W49082  11.100   3.267   1.185  0.2031 -0.1387 -0.0727
34236W        W49083   8.881  11.407   0.135 -0.0528  0.0518 -0.1303
34237W        W49084  14.339  14.514  11.392  0.0700 -0.0657  0.1180
34238W        W49085  17.127   0.446  16.913  0.1024  0.1213 -0.0675
34239W        W49086   8.283   9.821  13.104 -0.1111 -0.0342 -0.2719
34240W        W49087  15.075   5.357   5.511 -0.0696  0.0388  0.0207
34241W        W49088  17.629  15.888  11.534 -0.2820 -0.2681  0.0657
34242W        W49089   0.405  14.446   4.064 -0.2295  0.0913  0.0758
34243W        W49090   8.586  16.050  11.066 -0.1448 -0.0756 -0.0815
34244W        W49091   0.729   9.888   3.329  0.0009  0.1335  0.1991
34245W        W49092  16.838  17.781   4.867 -0.0582 -0.0872  0.0415
34246W        W49093  15.833   5.167  13.677 -0.0897 -0.2083  0.0551
34247W        W49094  10.287   5.362  15.028 -0.1011 -0.0327  0.0907
34248W        W49095  15.476  10.342   4.126 -0.1785 -0.0145 -0.2454
34249W        W49096  12.632   6.071  16.924 -0.0634  0.0927 -0.0364
34250W        W49097  15.104  14.870  11.541 -0.2883 -0.1768  0.0867
34251W        W49098  17.279  10.715   5.243  0.0946  0.2093  0.0655
34252W        W49099  10.275  10.828   4.102 -0.0472 -0.0756  0.2796
34253W        W49100  14.434  17.251  11.830 -0.1872  0.4301 -0.0136
34254W        W49101  15.708  16.265   2.156  0.0794  0.0019  0.0563
34255W        W49102  12.565   2.371   6.816  0.2845  0.1464  0.1460
34256W        W49103  14.575   0.039   2.222  0.1943 -0.1805 -0.2099
34257W        W49104  17.074  16.152  15.344 -0.0257 -0.1374 -0.0457
34258W        W49105  11.227  17.265   1.048 -0.0077  0.2182  0.1780
34259W        W49106  14.165   2.099  11.736  0.1035  0.1544 -0.0948
34260W        W49107  12.396  11.130   0.500  0.1947  0.0078  0.0947
34261W        W49108  11.554   1.390  11.241 -0.0884  0.0280  0.2227
34262W        W49109  11.579   6.804  11.419 -0.2718  0.1237  0.0585
34263W        W49110  10.313   3.659   4.449 -0.2946  0.0620 -0.0027
34264W        W49111  10.828   3.229  11.255  0.0820 -0.2558 -0.0358
34265W        W49112   9.223   1.652   6.500  0.1233  0.2500  0.0243
34266W        W49113  12.336  17.668  13.190 -0.0360  0.1393 -0.1325
34267W        W49114   5.065   1.241  16.407 -0.0234  0.0326 -0.2779
34268W        W49115  16.600  11.772   3.024  0.1290 -0.1411 -0.1282
34269W        W49116   3.271   1.610   1.190  0.3040  0.0238  0.1101
34270W        W49117  15.959   0.521  14.798 -0.1727  0.1215 -0.1565
34271W        W49118   7.279   4.871  13.766  0.2726 -0.0012 -0.0031
34272W        W49119  17.581   8.500  11.396  0.2476  0.0959  0.0331
34273W        W49120  16.717   7.594  15.323 -0.0214  0.1382  0.0487
34274W        W49121  17.067  13.075  11.344 -0.1902 -0.0027  0.0936
34275W        W49122  15.516  11.101   5.556  0.1287  0.0431 -0.0802
34276W        W49123  13.790  11.896  15.983  0.2267 -0.2058  0.0346
34277W        W49124   3.795   2.231  15.729 -0.0708 -0.0574 -0.1078
34278W        W49125  17.392  12.489  13.473  0.1593  0.0816 -0.0855
34279W        W49126  10.178  13.149   2.066 -0.1979 -0.1335 -0.1459
34280W        W49127  11.621  13.476  16.814 -0.1718 -0.0101  0.1275
34281W        W49128   8.953   6.586   0.304 -0.2343  0.0593 -0.1691
34282W        W49129  16.337   9.817   3.932 -0.2343  0.1531  0.0449
34283W        W49130  14.094   8.813   2.226 -0.0768  0.0913 -0.1634
34284W        W49131  13.003   1.102   4.820 -0.0245  0.3857  0.1226
34285W        W49132   3.621  11.026   2.888 -0.2833  0.2351 -0.0269
34286W        W49133  13.586   1.875  12.446 -0.0463  0.0285 -0.0107
34287W        W49134  16.355   7.971   5.997  0.6016 -0.0357 -0.0842
34288W        W49135  11.338  11.285  17.108  0.1612  0.1881  0.1846
34289W        W49136  11.949   4.436  15.126  0.0955  0.2908 -0.2382
34290W        W49137  15.772   1.380   2.072 -0.0657 -0.0292 -0.1775
34291W        W49138   1.347   1.150   0.857 -0.2343  0.1506  0.4666
34292W        W49139  13.739  13.892  10.863 -0.1325  0.1339 -0.0848
34293W        W49140   9.233   2.198  11.679  0.0712 -0.3146 -0.2432
34294W        W49141  15.244   4.354   3.201  0.0443  0.2181 -0.3522
34295W        W49142  11.739  15.576   2.552 -0.1904 -0.1113 -0.0243
34296W        W49143   1.602   1.500   3.598  0.2160 -0.0823  0.2572
34297W        W49144   9.607  17.177  14.795  0.3991  0.3552  0.0890
34298W        W49145   0.781  14.930  16.091  0.2990 -0.1189  0.0316
34299W        W49146   8.696  10.013   5.760  0.0790  0.3688 -0.2305
34300W        W49147   1.268   6.585  14.841  0.2312  0.0335 -0.3746
34301W        W49148  14.640   1.643  14.018  0.2238 -0.1469 -0.0475
34302W        W49149   9.999   0.501   1.327 -0.2138 -0.2821  0.2775
34303W        W49150   2.672   4.361  14.534  0.3808  0.1205 -0.1096
34304W        W49151   8.175   8.926  14.499  0.3178 -0.1224  0.1651
34305W        W49152   6.643  11.785   5.683  0.0607 -0.1048 -0.3115
34306W        W49153   2.399   8.224   1.667 -0.2401 -0.2139  0.2795
34307W        W49154  12.413   9.417   6.336  0.1905 -0.0889  0.4412
34308W        W49155  15.534   8.076   4.842  0.0304  0.1313  0.0220
34309W        W49156   8.944   4.364   2.521 -0.1053  0.1958  0.1218
34310W        W49157  12.985   6.136  12.719  0.3017 -0.3228 -0.0446
34311W        W49158   1.205   7.925  12.761 -0.0452 -0.3742  0.1346
34312W        W49159  12.513  14.029  12.012 -0.0102  0.1656  0.0150
34313W        W49160  14.725  10.685  11.229 -0.3047 -0.0224  0.0739
34314W        W49161  11.501  17.345   1.938 -0.2845  0.1520 -0.2530
34315W        W49162  11.719  13.891   4.732  0.0627  0.3680 -0.1920
34316W        W49163   3.025   3.182  16.113  0.1326  0.0002  0.0568
34317W        W49164  15.768  13.027   3.345  0.1041 -0.0829 -0.3026
34318W        W49165   3.843   1.863  12.917 -0.2743  0.0017  0.0330
34319W        W49166  17.873  11.495  11.258 -0.2171  0.0296 -0.0340
34320W        W49167  17.086   1.039   3.889 -0.0939  0.3075  0.1525
34321W        W49168  12.029   7.915  14.317  0.2456 -0.0616 -0.0079
34322W        W49169   9.746   3.888   2.293  0.2501 -0.1117 -0.3047
34323W        W49170  16.127   9.225  11.603 -0.2838  0.2521  0.2695
34324W        W49171   7.927   9.908  14.463 -0.0653 -0.1483  0.1702
34325W        W49172  12.772   4.021  15.051  0.1682  0.1831 -0.4004
34326W        W49173  12.086   1.509  13.415  0.1206  0.4026 -0.0163
34327W        W49174  10.714   3.505  16.408 -0.1459 -0.4819 -0.0516
34328W        W49175  11.072   6.138   2.537 -0.0524  0.0961  0.3697
34329W        W49176  13.306   5.649   5.898  0.1868 -0.2255 -0.0105
34330W        W49177  10.694   4.603   3.187  0.0556 -0.1448 -0.0652
34331W        W49178  10.629   2.446   4.931 -0.2378  0.0630  0.3862
34332W        W49179  12.553   5.564  17.087  0.3761 -0.5353 -0.1170
34333W        W49180  16.364  15.630  16.137 -0.4475  0.0143  0.3946
34334W        W49181  14.672   0.399   4.972  0.0977 -0.0333  0.1582
34335W        W49182  13.851   1.516  16.173 -0.2634 -0.3150 -0.4765
34336W        W49183   9.073  10.962   1.794  0.0207  0.1371 -0.2391
34337W        W49184   1.205   3.568   4.695  0.0524  0.0792  0.0485
34338W        W49185   1.194   3.192  13.675 -0.0071  0.2772  0.0901
34339W        W49186  15.713   9.829   5.311  0.1036 -0.0550  0.1007
34340W        W49187  14.135   4.726  11.406  0.0894 -0.1956  0.2535
34341W        W49188  15.906  11.500  12.100  0.0248 -0.0482  0.1783
34342W        W49189  13.610  17.851   1.922 -0.0895 -0.0022  0.0854
34343W        W49190  15.989   7.719   4.242 -0.1044 -0.2295  0.1487
34344W        W49191  11.226  14.082  12.166  0.3076  0.3608  0.2020
34345W        W49192   9.033   8.900   4.004 -0.0536 -0.0317  0.1506
34346W        W49193   0.521   8.839   2.150 -0.0559 -0.0251 -0.0582
34347W        W49194  11.449  17.394  14.049  0.0088  0.0348  0.1392
34348W        W49195  13.665   2.506  14.157  0.2062 -0.0786  0.2670
34349W        W49196   4.153  14.597   2.248 -0.1392 -0.0692  0.1395
34350W        W49197  15.346   3.329  14.595  0.0564  0.2318 -0.0010
34351W        W49198   3.488  13.404   2.363 -0.0627 -0.1296 -0.1155
34352W        W49199   4.608   5.100   2.524  0.1583  0.0284 -0.3223
34353W        W49200  14.476   9.714   2.352 -0.4192  0.1407 -0.0063
34354W        W49201  11.446  11.720  16.830 -0.0740 -0.3543  0.0568
34355W        W49202  13.507  12.049   3.217 -0.1170  0.2562 -0.1415
34356W        W49203   9.929   3.341   5.157  0.4628 -0.0145 -0.2131
34357W        W49204  17.210   5.376   5.984  0.0989  0.1945 -0.0336
34358W        W49205   8.808  14.073  12.199  0.1701 -0.0591  0.0253
34359W        W49206  14.328   9.574  12.145  0.2353 -0.0407  0.0271
34360W        W49207   8.733  13.744   5.740 -0.0584 -0.1144 -0.1796
34361W        W49208  11.987   4.101   5.908 -0.0093  0.2493 -0.1117
34362W        W49209  15.058  15.891  11.595  0.2087  0.2911  0.0393
34363W        W49210  13.630  17.604  16.610 -0.1699  0.0590 -0.2040
34364W        W49211   7.424   8.759   1.946 -0.1997 -0.4436  0.1810
34365W        W49212   1.312  17.084   1.985 -0.0194  0.0439 -0.0886
34366W        W49213   6.311  16.529  11.702 -0.0990  0.2757 -0.5157
34367W        W49214   6.143   9.259   0.898  0.1458  0.0056  0.3472
34368W        W49215  11.586  17.757  12.653  0.4632  0.0333 -0.2440
34369W        W49216  12.904   4.026  12.657 -0.0977  0.1519 -0.0497
34370W        W49217  17.351   2.226   1.219  0.2846  0.2082 -0.2292
34371W        W49218  16.609   1.534  11.823  0.1124 -0.0458  0.0713
34372W        W49219  17.735  15.177   3.962 -0.3214  0.0071 -0.3634
34373W        W49220   8.100  14.726  13.430  0.2374 -0.2658  0.1448
34374W        W49221  17.610  11.560   4.881  0.0540 -0.2079 -0.0876
34375W        W49222  10.049   3.882  14.889 -0.2680 -0.0041  0.2021
34376W        W49223  10.412   0.110   4.464 -0.4742 -0.2671  0.0644
34377W        W49224   8.435  16.616  13.992 -0.0128 -0.1333  0.0054
34378W        W49225   6.192   6.127  16.888 -0.1120  0.0927  0.0683
34379W        W49226  12.511   6.869   3.204 -0.0920 -0.2640 -0.0005
34380W        W49227  14.261   5.089   6.407 -0.1214  0.0277 -0.1376
34381W        W49228  10.612   2.466  15.752 -0.2245 -0.3189 -0.1796
34382W        W49229   9.988  14.514   0.937  0.1833 -0.2311 -0.1352
34383W        W49230  17.205   5.146   0.037 -0.0436  0.0721  0.2093
34384W        W49231  14.946   3.890  15.241  0.2229  0.0973 -0.4741
34385W        W49232  14.158   7.113  17.112 -0.0376 -0.5061 -0.1523
34386W        W49233   6.747  13.344   4.585  0.0381 -0.1023 -0.0028
34387W        W49234  15.221   5.926  11.403 -0.0252  0.1034 -0.1239
34388W        W49235  15.164   1.085  15.814 -0.2840  0.0046  0.2031
34389W        W49236  12.193   2.599  17.094  0.3830 -0.1359  0.1299
34390W        W49237  16.251   0.510  16.683  0.0971 -0.0196  0.1338
34391W        W49238   3.075  16.189   5.261 -0.2415  0.3510  0.0470
34392W        W49239   7.801   3.134   4.778  0.1100  0.1495 -0.2507
34393W        W49240  15.679   4.954  15.611 -0.1703  0.1241 -0.0877
34394W        W49241  16.252   7.219  17.104  0.0521  0.4360  0.1396
34395W        W49242  14.697  15.781   2.282  0.3552  0.1606  0.0414
34396W        W49243  11.225   0.130  12.529  0.0127  0.2001  0.0489
34397W        W49244  17.976  17.575   1.220  0.1593 -0.2155  0.1548
34398W        W49245  14.897  13.815   2.287 -0.1561  0.0995  0.0103
34399W        W49246   9.864   0.870  14.505 -0.2813  0.0704 -0.1647
34400W        W49247  17.817   8.302  17.104 -0.2956  0.0559 -0.3275
34401W        W49248   9.986   7.182  13.949 -0.0052  0.2837 -0.0850
34402W        W49249  15.779   6.324   4.536  0.1669 -0.0106  0.2055
34403W        W49250   1.794   9.052   5.491 -0.3813 -0.0895  0.0402
34404W        W49251   6.356   3.375   5.779 -0.1422  0.2518  0.1806
34405W        W49252  12.056  12.192   2.297 -0.0184 -0.1045  0.1200
34406W        W49253   7.475  17.670   3.027 -0.0618 -0.0537  0.1901
34407W        W49254  11.021   8.788   0.638 -0.1052 -0.2082 -0.0483
34408W        W49255  10.687   6.739  14.984  0.2955 -0.0898 -0.0467
34409W        W49256   4.751  14.052   0.915 -0.1172  0.0073 -0.0845
34410W        W49257  14.697  13.100   5.080  0.4426  0.0874  0.2409
34411W        W49258  13.540  16.949  12.828  0.1705  0.2476  0.1649
34412W        W49259  13.087  14.568   0.870  0.1027  0.2395  0.2618
34413W        W49260  16.778  13.025  13.690 -0.1402 -0.0260  0.1473
34414W        W49261  15.492  10.670  13.970 -0.4197 -0.2347  0.1589
34415W        W49262   6.812   1.953   5.322  0.0312  0.0487 -0.1135
34416W        W49263  10.627   6.436   4.716 -0.0034 -0.1159 -0.0268
34417W        W49264  17.408  10.298   4.393  0.1218  0.0233 -0.1889
34418W        W49265   9.859  17.902  15.983  0.2040 -0.0817 -0.0653
34419W        W49266   6.456   1.598  16.118  0.2328 -0.2633  0.2951
34420W        W49267   1.580   5.460   2.370  0.0315 -0.1799  0.0685
34421W        W49268  15.097   7.780   4.447 -0.1626  0.2374  0.3271
34422W        W49269  13.455   9.424  14.701  0.0693 -0.0239  0.1170
34423W        W49270  10.576   7.237  14.207  0.0735 -0.2165  0.2086
34424W        W49271  17.163  14.960  13.388 -0.2514 -0.0998 -0.0948
34425W        W49272   8.211  16.381  12.469 -0.2271  0.0582 -0.1232
34426W        W49273  14.287   7.208   4.562 -0.1269 -0.0309 -0.1266
34427W        W49274   7.635  16.425  15.567 -0.1052  0.1514  0.0861
34428W        W49275   2.847  12.255   4.590  0.3841  0.1666 -0.1328
34429W        W49276  11.606  17.954  12.197  0.3584  0.0494  0.2727
34430W        W49277   9.119  14.320  12.489 -0.1853 -0.0002  0.1248
34431W        W49278  17.600  17.778   3.087 -0.3784  0.0885  0.1023
34432W        W49279   1.000   0.951   4.086 -0.0168  0.2484  0.1550
34433W        W49280   4.120   9.261  15.967 -0.3189  0.1336  0.0581
34434W        W49281  14.192   3.114  11.405  0.1922 -0.2131 -0.5051
34435W        W49282  16.115  14.632  11.725  0.3087 -0.1785  0.2140
34436W        W49283  12.156   4.926   4.355 -0.3033 -0.0798 -0.1187
34437W        W49284  17.027   8.396   3.013 -0.0457 -0.0470  0.2498
34438W        W49285  10.788   6.370  13.616  0.0452  0.2016 -0.0997
34439W        W49286   8.707   6.194   4.117 -0.2052  0.1488  0.2038
34440W        W49287  15.550   9.155  14.003  0.0660  0.2405  0.1338
34441W        W49288  15.070   9.448  16.945 -0.0064 -0.1022 -0.0205
34442W        W49289   0.838  15.104  10.187 -0.2243 -0.0362  0.0890
34443W        W49290  13.649   2.814   2.905  0.1767  0.1160  0.0403
34444W        W49291  12.564  10.931   3.945  0.1152 -0.3179 -0.2829
34445W        W49292  14.904   2.565  14.585 -0.0009 -0.3110 -0.1283
34446W        W49293  17.944  10.775   1.677 -0.3679  0.3926 -0.1852
34447W        W49294  12.614   6.752   4.161  0.5766 -0.1283  0.3985
34448W        W49295   9.863   5.619  13.344 -0.0011 -0.4589 -0.1961
34449W        W49296  15.708  16.325  11.427 -0.2476  0.1750 -0.3572
34450W        W49297  17.501  17.810   0.436 -0.0895  0.1593  0.1145
34451W        W49298  12.436   5.323  13.792 -0.0986 -0.1130  0.0792
34452W        W49299  15.263   8.238  11.870  0.1839  0.2198 -0.2540
34453W        W49300  12.212  11.609  16.751  0.1589 -0.0150  0.0609
34454W        W49301  16.610   5.566  15.489  0.1359 -0.0161  0.1225
34455W        W49302  15.873   9.168   4.747 -0.2132 -0.2753  0.1673
34456W        W49303  12.936   3.755   5.145  0.0054 -0.2749  0.1299
34457W        W49304   1.371   6.599  16.747 -0.0583 -0.0935  0.0586
34458W        W49305   1.265   6.789  12.773  0.1797  0.0751 -0.0285
34459W        W49306  11.472   5.047  15.726  0.0242  0.1980  0.2575
34460W        W49307   2.298  11.225   3.745 -0.2182  0.2188 -0.0280
34461W        W49308  13.765   0.835   1.096  0.0659 -0.0373 -0.2376
34462W        W49309  15.649  15.946  12.252 -0.0484  0.0346 -0.1170
34463W        W49310   6.702   0.156   3.571  0.3476 -0.2730 -0.0205
34464W        W49311   0.935  13.694  11.460 -0.2268 -0.1539  0.1276
34465W        W49312   6.809  10.621  15.188 -0.0935 -0.0813 -0.1726
34466W        W49313  13.333   4.403  14.696 -0.0778 -0.1059 -0.2492
34467W        W49314   0.684   5.040  14.001  0.1278 -0.0352  0.3652
34468W        W49315  16.845   8.160  11.102 -0.0440 -0.0640 -0.0433
34469W        W49316  15.311  14.070  14.808  0.0569 -0.1606 -0.1856
34470W        W49317  11.744  13.507   4.445 -0.0923 -0.0065  0.5493
34471W        W49318  14.488   6.910  16.583 -0.2140 -0.0386  0.0493
34472W        W49319  13.651   7.471   5.912  0.0966 -0.2407  0.0255
34473W        W49320   9.995   3.658  13.514  0.0282  0.0818  0.0066
34474W        W49321   9.300  13.667  16.296 -0.0166  0.1298  0.2027
34475W        W49322   9.906   2.165  15.126 -0.0412  0.1599  0.0138
34476W        W49323  14.446   1.131   2.178  0.2297 -0.0923 -0.0659
34477W        W49324  10.466   8.210   4.711 -0.1176 -0.0063  0.0169
34478W        W49325  13.222  15.001   5.036  0.0055  0.1034  0.1923
34479W        W49326  13.584   2.477   1.086 -0.1032 -0.0440  0.2006
34480W        W49327  11.293   3.552  11.702  0.0177 -0.0486 -0.3528
34481W        W49328  16.423  13.871   2.460  0.0646  0.3109 -0.0281
34482W        W49329   0.936   7.628  13.147 -0.1561  0.1504  0.0885
34483W        W49330  12.723   6.328   3.410 -0.0427 -0.1722  0.1451
34484W        W49331  16.104  17.473  16.979 -0.1292 -0.1812 -0.0288
34485W        W49332   2.488   9.383   5.073 -0.0920  0.0817 -0.3141
34486W        W49333  14.567  12.209  11.540  0.0247  0.0472  0.0411
34487W        W49334  15.651   5.753   2.088  0.2497  0.1300 -0.0800
34488W        W49335  13.183   2.111   2.504  0.2126  0.0228 -0.3068
34489W        W49336   4.079   4.220  12.140 -0.2242 -0.1493  0.1755
34490W        W49337   2.489   4.605  16.631  0.0771 -0.2644  0.0918
34491W        W49338  14.907   7.700   3.523  0.0099 -0.1422 -0.6237
34492W        W49339  13.837   3.388  10.950 -0.1163 -0.1162  0.0784
34493W        W49340   1.776   1.470   2.482  0.0502 -0.1135  0.1952
34494W        W49341  11.789  17.627   4.492 -0.0205  0.0434  0.1229
34495W        W49342  12.458   7.979   5.363  0.1377 -0.0400 -0.2579
34496W        W49343  13.953  17.567   1.834 -0.0950 -0.2569 -0.0835
34497W        W49344   7.617   7.100  14.901 -0.0925 -0.2376  0.0208
34498W        W49345  10.277  14.573   3.223  0.1790  0.1921  0.1385
34499W        W49346  13.272   3.047   2.650  0.3436  0.0388  0.1320
34500W        W49347   9.301   0.743   1.347 -0.2220 -0.0248  0.1851
34501W        W49348  11.386  13.995  14.540  0.1721  0.1235 -0.2241
34502W        W49349  16.655   6.735  14.655  0.0330 -0.1533 -0.0585
34503W        W49350   6.213   6.499  11.886 -0.0444 -0.1509 -0.2056
34504W        W49351  10.994  14.402  14.150 -0.0518 -0.2316  0.0018
34505W        W49352   0.731   9.396  11.344 -0.0980  0.1125 -0.1535
34506W        W49353  13.939  15.363  14.208  0.2420  0.2213  0.0398
34507W        W49354  12.725   6.535  12.633 -0.4725 -0.0304 -0.1633
34508W        W49355  10.767  13.586   1.674  0.0172  0.2631  0.0127
34509W        W49356   3.576  13.382  17.008  0.0218 -0.3630  0.1894
34510W        W49357  12.850  10.234  14.700  0.2385  0.2161 -0.0566
34511W        W49358   9.099  14.647   2.016 -0.1255 -0.1607 -0.2502
34512W        W49359  13.323   0.953   4.415 -0.0478  0.1462 -0.1861
34513W        W49360   9.969  15.772   0.139 -0.1441  0.0374 -0.3011
34514W        W49361   9.384   2.583  16.249 -0.0406 -0.0213  0.0990
34515W        W49362   9.379   0.852  12.039 -0.1584 -0.1139  0.1271
34516W        W49363  17.755   7.997   1.503 -0.1027  0.1251  0.1250
34517W        W49364  14.921   1.536   4.517 -0.3153 -0.1390 -0.1011
34518W        W49365   8.131   5.340  15.834 -0.0496  0.1789  0.0381
34519W        W49366  13.512   8.023  11.227  0.0759  0.0659  0.3577
34520W        W49367  15.287   8.634   2.886 -0.0527 -0.1657 -0.3340
34521W        W49368  12.434  13.304   4.795 -0.2604 -0.2874 -0.3790
34522W        W49369  17.212   8.041   5.348 -0.1269  0.0708  0.0682
34523W        W49370   4.181   9.139   3.877 -0.2313 -0.0376 -0.1005
34524W        W49371  11.381   7.363  15.946  0.4322  0.0190 -0.1817
34525W        W49372   7.357  17.494  10.720  0.1913  0.1101  0.1058
34526W        W49373  14.665  12.365  10.999  0.0501 -0.2445  0.2178
34527W        W49374  13.461   4.288   3.028 -0.2319  0.1003  0.1658
34528W        W49375  17.460   8.739   0.965 -0.0707 -0.0021 -0.1557
34529W        W49376  10.803   5.069  15.526 -0.0869  0.2148 -0.1844
34530W        W49377   8.856  14.945  12.842 -0.0648 -0.1124  0.2176
34531W        W49378   1.957   0.211  16.857  0.0587 -0.2471 -0.0078
34532W        W49379  15.903   4.150  13.188 -0.3534 -0.2570  0.0215
34533W        W49380  17.047  13.854  13.467 -0.2677  0.0810 -0.2407
34534W        W49381   2.955   0.905   5.854  0.3554 -0.2676  0.0219
34535W        W49382  14.907   1.056  12.876  0.0774 -0.2293 -0.0433
34536W        W49383  10.369   2.538  12.511 -0.1294  0.0986 -0.2977
34537W        W49384  11.393   2.998   5.676 -0.0550  0.2699 -0.0830
34538W        W49385  17.417  15.142   2.681  0.0387 -0.1137 -0.2712
34539W        W49386   8.412   7.981   2.160 -0.0318  0.1625  0.0989
34540W        W49387  16.729  12.931   5.392 -0.0294 -0.0809 -0.1471
34541W        W49388   6.016   4.785  14.514 -0.0413  0.2135 -0.0332
34542W        W49389  13.242  12.336  16.466  0.2236 -0.1594 -0.1143
34543W        W49390  14.120   5.740   1.315  0.0193  0.0320  0.0938
34544W        W49391   9.981   4.215  13.595 -0.1297 -0.0552 -0.2488
34545W        W49392  12.308   4.240  12.876  0.0039  0.2285  0.0442
34546W        W49393  14.110  17.157  12.926  0.0177 -0.2208 -0.0530
34547W        W49394   2.041   0.629   6.061 -0.0348 -0.1186 -0.2975
34548W        W49395  17.849  15.146  14.533 -0.4940  0.1330 -0.0065
34549W        W49396   4.568   5.778   5.998 -0.1073  0.2373  0.1170
34550W        W49397   4.092  16.120   5.068 -0.0075 -0.2229  0.0298
34551W        W49398  17.955  12.327  16.638 -0.2175 -0.0747  0.3419
34552W        W49399  13.022  14.228  10.554 -0.1462 -0.0045  0.0358
34553W        W49400  10.620   6.867  12.840 -0.0495  0.1994 -0.1337
34554W        W49401   0.492   6.609  11.241  0.0233  0.0668  0.1634
34555W        W49402   7.423   1.076   4.616 -0.0185  0.0641  0.1327
34556W        W49403  17.005  15.030   3.602 -0.1399 -0.3415  0.0058
34557W        W49404   0.200   6.372   1.647 -0.1178 -0.1932 -0.0388
34558W        W49405  13.266  13.160   0.905  0.1661 -0.3004 -0.3442
34559W        W49406   1.673  14.022  15.868 -0.1307 -0.1301 -0.1442
34560W        W49407   4.009   7.501   3.105  0.1737  0.0165 -0.1600
34561W        W49408  10.501   7.466  16.539 -0.3121  0.0620  0.1705
34562W        W49409  17.564   0.866   0.724  0.3092 -0.0350  0.0437
34563W        W49410  11.672  11.552  16.322 -0.0538  0.0791  0.0862
34564W        W49411  14.477   0.130  12.865  0.1793  0.1551 -0.0275
34565W        W49412  12.415   0.817  15.883 -0.0991 -0.2991 -0.0767
34566W        W49413   0.176  14.693  12.744  0.1998 -0.0568  0.0365
34567W        W49414  12.262  13.171   0.243 -0.2344 -0.0951  0.0509
34568W        W49415  10.550   2.412  11.615  0.0975  0.1251  0.1348
34569W        W49416   5.459  17.164   1.134  0.2318  0.1474  0.0912
34570W        W49417  14.121  13.396  15.706  0.1635 -0.2104 -0.0955
34571W        W49418  16.514  15.968   3.252 -0.0251  0.0417 -0.1397
34572W        W49419  10.925  14.891  14.009 -0.1743 -0.1780  0.0213
34573W        W49420  12.591   8.532  13.790  0.0330  0.2862 -0.1245
34574W        W49421   1.961  14.485   2.156 -0.1341  0.1806  0.0849
34575W        W49422  12.543   8.916   3.769  0.2104 -0.2934 -0.3140
34576W        W49423  10.662  14.331   3.026  0.1677 -0.0713  0.2831
34577W        W49424  10.903  11.337   0.323 -0.0527 -0.1284 -0.0416
34578W        W49425  15.335  14.548  11.149  0.3662 -0.1079 -0.1011
34579W        W49426  15.290  10.261  12.381 -0.4125  0.0708  0.0058
34580W        W49427  15.592  12.279   1.466  0.0288  0.2201  0.0345
34581W        W49428  14.931   5.994   0.929 -0.0428 -0.0753  0.0155
34582W        W49429  16.866  15.441  16.930 -0.1984  0.0168 -0.3563
34583W        W49430  12.456   3.616  13.945  0.0903  0.2349  0.0704
34584W        W49431  10.364   4.160   0.079 -0.0750 -0.0182 -0.0022
34585W        W49432  15.659   6.842   4.467 -0.0345  0.0893 -0.0206
34586W        W49433   3.693   4.800   5.022  0.2925  0.0549  0.0924
34587W        W49434   1.177   1.689   5.735  0.0137 -0.0490  0.0311
34588W        W49435  12.606  11.366  15.363 -0.2013 -0.1254 -0.3147
34589W        W49436  10.168  16.795   5.326  0.0687 -0.1242  0.1206
34590W        W49437  10.895   6.149   1.058 -0.0586  0.1488 -0.0456
34591W        W49438  13.951  16.080   0.472  0.1300 -0.1294 -0.1204
34592W        W49439  12.568   7.858   1.901 -0.1000  0.0069 -0.5112
34593W        W49440  15.580  10.583   2.894  0.0906 -0.0250  0.0850
34594W        W49441  10.743   7.115   4.360  0.2174  0.0777 -0.0885
34595W        W49442  12.966  17.266  11.258  0.1182 -0.0252 -0.0441
34596W        W49443  13.627  10.126  12.193 -0.0320 -0.1065  0.2186
34597W        W49444  13.293   8.210  13.034  0.1697  0.0617 -0.1690
34598W        W49445   6.423   6.717   0.456 -0.3549 -0.0329 -0.0099
34599W        W49446  17.936   3.142  15.039  0.0964 -0.0653 -0.1979
34600W        W49447   5.082   4.208  14.730 -0.0974  0.0308 -0.0127
34601W        W49448  17.209   3.122  12.921  0.2594 -0.3502  0.1220
34602W        W49449   1.506   5.663  14.201 -0.1382  0.1392 -0.3435
34603W        W49450   4.697  13.580   3.007 -0.0229  0.1039 -0.1782
34604W        W49451  17.588   6.854   4.076 -0.2636  0.3777 -0.0010
34605W        W49452  16.824   3.902   1.814 -0.1988 -0.2174 -0.0726
34606W        W49453  12.406   0.627   4.032 -0.0337  0.2508  0.0288
34607W        W49454   0.988   3.008   1.089  0.1741 -0.0166 -0.0533
34608W        W49455  11.988   9.120   3.791 -0.2088  0.0590  0.0040
34609W        W49456   0.029  11.463   2.994 -0.1527 -0.2000  0.1109
34610W        W49457  15.070  15.253  15.572 -0.0946  0.2113  0.2121
34611W        W49458  11.402   0.597   2.699 -0.1318  0.0959  0.1373
34612W        W49459  10.437   8.102   5.245  0.0823 -0.3144 -0.1161
34613W        W49460  12.259   8.791   1.389  0.0855 -0.1220  0.2941
34614W        W49461  17.870  12.409   5.144  0.2203  0.0456  0.2611
34615W        W49462   3.133   5.350  15.046 -0.0067  0.1189 -0.0900
34616W        W49463   1.353  12.984   0.946 -0.2105  0.0321  0.1477
34617W        W49464  15.984  14.917  12.125 -0.2391  0.0320  0.0777
34618W        W49465  14.484  10.831  10.411 -0.2451 -0.0874  0.1368
34619W        W49466  12.759  14.231   3.966 -0.4239 -0.1251 -0.1012
34620W        W49467  10.622  14.540  10.783 -0.2427  0.0628 -0.0327
34621W        W49468  15.307   0.025  13.208  0.3190  0.1993 -0.1502
34622W        W49469   9.910   7.135  13.470 -0.0275  0.0255 -0.1123
34623W        W49470   2.077  15.802  11.142 -0.0521 -0.0045  0.2572
34624W        W49471   0.124  11.324  11.933 -0.2966  0.2224  0.3128
34625W        W49472   8.712   3.925  14.463  0.0632  0.2462 -0.2835
34626W        W49473  12.137   7.804  10.914  0.1173 -0.2489  0.1250
34627W        W49474  13.337   2.861   0.638 -0.1351 -0.3469  0.0214
34628W        W49475  14.484  11.783   1.793 -0.1128  0.0567  0.1225
34629W        W49476  14.961  17.794  12.815  0.1712 -0.0667  0.0398
34630W        W49477   6.746  13.684   2.277  0.0690 -0.0386 -0.0031
34631W        W49478   9.402  12.734  15.214 -0.2288 -0.0258 -0.2303
34632W        W49479  17.337  17.854  15.288 -0.1770  0.0037 -0.1463
34633W        W49480   2.034  10.257  16.468  0.1861 -0.1498  0.0668
34634W        W49481   9.434   8.943   3.660  0.1791 -0.0829 -0.2004
34635W        W49482   2.829   6.944   5.082 -0.0103  0.1307 -0.1046
34636W        W49483  13.257  13.707  10.985 -0.1008  0.0959 -0.0794
34637W        W49484  15.198  14.341   9.888  0.1556  0.1200  0.0038
34638W        W49485   8.929  11.425  13.937  0.0260 -0.0293 -0.0117
34639W        W49486   4.027   4.906   3.291 -0.1961 -0.2075  0.0346
34640W        W49487  16.559  17.029  15.520  0.4230  0.2516 -0.4180
34641W        W49488   6.452   3.154  16.935 -0.4167  0.1429 -0.0308
34642W        W49489  11.853  11.406   1.838  0.0214 -0.1151  0.0703
34643W        W49490   2.670  16.180  14.019  0.0299  0.3408  0.0712
34644W        W49491   1.361  10.879   1.794 -0.0740  0.1189 -0.0402
34645W        W49492  17.366  13.721  15.980 -0.2344  0.2009  0.2461
34646W        W49493   9.148  13.462   5.682  0.4981  0.1601 -0.0129
34647W        W49494  14.212   8.257   4.858  0.2513 -0.0517 -0.2118
34648W        W49495   6.346   2.100   5.296 -0.1540  0.0359 -0.0341
34649W        W49496  12.360   3.405  14.882  0.0296 -0.2896  0.2522
34650W        W49497   2.363   2.459  14.513  0.0817 -0.1842  0.0607
34651W        W49498  12.470   7.618  11.894 -0.0281  0.2957 -0.1804
34652W        W49499   0.873   3.424   2.098  0.0554  0.0702  0.1866
34653W        W49500  12.845  10.014  16.605  0.2626  0.0765 -0.2156
34654W        W49501  14.874   7.573   2.642  0.1841  0.1699 -0.2150
34655W        W49502  13.584   8.315  12.235  0.2276 -0.0652  0.2281
34656W        W49503  10.773  10.306   2.588  0.1791 -0.1696  0.0697
34657W        W49504  17.211   9.525   4.021 -0.2798 -0.2904  0.1171
34658W        W49505   3.691   8.430  16.308  0.0006 -0.0522 -0.2238
34659W        W49506   6.675  11.563  12.492  0.0809  0.1115  0.1477
34660W        W49507  15.415  11.444   3.617  0.0519  0.1215  0.2409
34661W        W49508  16.547   0.089   2.975  0.1608  0.1828 -0.0010
34662W        W49509  17.806  15.001  11.936 -0.1706  0.2829  0.2455
34663W        W49510  11.217  17.249  12.804 -0.3297 -0.1829  0.3438
34664W        W49511  15.414   2.612   5.165 -0.2035  0.0264  0.1468
34665W        W49512  10.669  10.918  12.993 -0.1778 -0.0048 -0.0054
34666W        W49513   8.823   9.258  13.416  0.0646 -0.1941 -0.1353
34667W        W49514   1.164   1.972  15.343  0.1272  0.0378  0.0326
34668W        W49515  15.692   2.222  11.865  0.0834  0.0804 -0.3953
34669W        W49516  12.758   2.819  14.522  0.2434 -0.2402  0.0392
34670W        W49517  11.893   8.056   5.382 -0.2660 -0.1237  0.0030
34671W        W49518  16.284  10.982   3.567 -0.1856 -0.1545 -0.2706
34672W        W49519  16.731  10.628   4.628 -0.1558 -0.0535 -0.0147
34673W        W49520  12.195   7.199  11.958 -0.2091  0.0726 -0.2330
34674W        W49521  14.425   5.540   6.637  0.1971  0.0991 -0.1073
34675W        W49522  17.777   8.887  13.322 -0.1311 -0.1407  0.1061
34676W        W49523  17.759  12.021   4.482  0.2646  0.0646  0.1966
34677W        W49524   9.875  17.017  11.842 -0.2542 -0.2588 -0.2928
34678W        W49525   9.360   2.179   2.507  0.1173  0.0171  0.1278
34679W        W49526  11.899   8.461  12.093  0.2846  0.0981  0.1289
34680W        W49527   4.808  13.192   5.805  0.1118 -0.1951 -0.1416
34681W        W49528   2.674  13.079  12.379 -0.3796 -0.0668  0.1302
34682W        W49529   7.490   5.045   4.692 -0.0246  0.2875 -0.0242
34683W        W49530  12.184   6.142  14.888  0.2467 -0.0575 -0.1096
34684W        W49531  13.038   5.670  11.151  0.1040 -0.0088  0.0904
34685W        W49532  14.781   4.930   5.543  0.0093  0.1550 -0.0442
34686W        W49533   1.649   4.958  15.935 -0.3448  0.2012 -0.1785
34687W        W49534   8.632   3.454  14.379  0.0647 -0.1689 -0.2125
34688W        W49535  10.820  16.327   0.655 -0.1470  0.1186 -0.3927
34689W        W49536   1.604   6.229   4.683  0.3494  0.0681  0.1821
34690W        W49537  13.049   3.245   5.315  0.1970 -0.1260  0.0237
34691W        W49538  10.066  17.633   1.119 -0.0104  0.2067  0.0485
34692W        W49539  16.865  10.678   2.433 -0.1325 -0.3170 -0.0762
34693W        W49540   8.471   3.309   1.539  0.2618 -0.0982  0.0975
34694W        W49541  11.916  16.283  12.253 -0.1133  0.0646 -0.2362
34695W        W49542   4.100  16.834   4.424 -0.1394 -0.1054 -0.2407
34696W        W49543  12.644   1.555   1.247 -0.0761  0.1088 -0.0724
34697W        W49544  14.050   8.360  12.506  0.3177  0.0154 -0.2560
34698W        W49545  13.855   7.344   4.734 -0.0618  0.4048 -0.1012
34699W        W49546  13.836  10.854   2.389  0.0959  0.2583 -0.1343
34700W        W49547  10.359  10.705   0.660  0.1454 -0.0210 -0.2661
34701W        W49548  15.303  10.400  11.347 -0.3387 -0.0667 -0.0656
34702W        W49549  13.718  15.415  12.542  0.3734 -0.2967  0.1696
34703W        W49550   9.916  10.535  13.161  0.1291  0.0725  0.0988
34704W        W49551  15.502   1.382  11.759  0.1632 -0.0432  0.2130
34705W        W49552  15.235  14.707   0.429 -0.2951 -0.2039 -0.1937
34706W        W49553  14.710   4.295  15.205 -0.0909 -0.2294  0.3519
34707W        W49554  16.903   8.545   1.731  0.0872 -0.1187  0.1189
34708W        W49555  15.939   0.006  14.281  0.2448 -0.2925  0.1302
34709W        W49556   1.209  14.333   2.205  0.1214 -0.1591 -0.1763
34710W        W49557  15.927   5.091  12.941 -0.1977  0.1282  0.1322
34711W        W49558  14.934  12.888  13.054 -0.0685  0.2264 -0.0101
34712W        W49559   8.718  11.363   2.434  0.2285 -0.0643  0.0747
34713W        W49560  13.843   9.217  10.213 -0.2141  0.5491  0.3174
34714W        W49561   9.849   2.466  12.548 -0.0037  0.2896 -0.0357
34715W        W49562   1.144   3.090   4.545 -0.1588  0.1670  0.0933
34716W        W49563   3.657  14.288  13.562 -0.1861  0.3484  0.0251
34717W        W49564  12.574  14.741   1.533 -0.2767 -0.1752 -0.3536
34718W        W49565   9.129  11.427  16.312 -0.0079 -0.0365 -0.1351
34719W        W49566  15.859   6.202  14.509  0.2670 -0.2042  0.0004
34720W        W49567  13.794   8.983  15.644  0.1277 -0.2096  0.0690
34721W        W49568   8.960   3.711   5.542  0.0411  0.1078 -0.0473
34722W        W49569  13.781   1.342   0.925 -0.2499 -0.0592 -0.3350
34723W        W49570  16.857   2.201   2.591  0.1602  0.0834  0.1297
34724W        W49571   4.730   0.822  14.240  0.1084  0.0572  0.1269
34725W        W49572  16.353   3.801   0.987 -0.2848  0.0003 -0.0064
34726W        W49573   7.478   0.509  17.043  0.0631  0.1907 -0.0837
34727W        W49574  14.317  16.723  13.772  0.0941 -0.0519 -0.0337
34728W        W49575   8.987  10.485  12.202  0.3352  0.0995 -0.0613
34729W        W49576   0.376  15.098   2.902  0.2036  0.2500 -0.0819
34730W        W49577  11.265  14.115   4.683 -0.0280  0.0561  0.2356
34731W        W49578  17.168  13.639   0.028  0.0691 -0.2663  0.0463
34732W        W49579  11.398   6.766  14.311  0.1447 -0.4252  0.2390
34733W        W49580   1.962  14.376  14.825  0.0252 -0.2109 -0.1568
34734W        W49581   3.554   1.802  15.652 -0.1200  0.2339  0.1052
34735W        W49582  10.526   9.798   5.554  0.0683 -0.3614  0.3115
34736W        W49583   2.663   1.013   4.830 -0.0134  0.1006 -0.1211
34737W        W49584  15.514   8.711   2.383  0.0710  0.0163 -0.0096
34738W        W49585  15.193   2.551  14.100  0.1497 -0.0925 -0.0642
34739W        W49586  12.084   4.157   4.817  0.2920  0.1988  0.4138
34740W        W49587   5.970   5.807   0.216 -0.0147 -0.0448 -0.1663
34741W        W49588  10.830   5.503   1.855  0.0895 -0.2999  0.1133
34742W        W49589  15.810   4.909  14.115 -0.0492 -0.2028 -0.0951
34743W        W49590  15.480   1.028  15.355  0.3666  0.0631  0.1256
34744W        W49591  14.456   0.331   1.694  0.1621 -0.1218  0.0608
34745W        W49592  14.979   1.405  14.212 -0.0037 -0.3041  0.2054
34746ION     NA49593  12.676   6.712   5.014  0.2635  0.1994  0.3986
34747ION     NA49594   9.452   0.260   1.342  0.2418  0.3598  0.0768
34748ION     NA49595  15.788   8.793  10.322 -0.2226 -0.1342 -0.1521
34749ION     NA49596   9.583   0.385   5.899 -0.1319 -0.0927  0.0429
34750ION     NA49597  12.259   1.609  16.956 -0.0237 -0.0573 -0.1116
34751ION     NA49598   6.174   6.547  16.537 -0.0285  0.0201  0.1339
34752ION     NA49599  10.628  17.612  12.619 -0.2055  0.0035 -0.0878
34753ION     NA49600   0.333   3.383  10.628 -0.2402 -0.0878 -0.0048
34754ION     NA49601  16.043  17.419   1.496  0.0123  0.0559 -0.4747
34755ION     NA49602  13.787   3.790  10.362 -0.1333  0.1227 -0.2120
34756ION     NA49603  13.271  12.195   6.069  0.0477  0.0734  0.3667
34757ION     NA49604  17.491  15.286  15.753  0.2111  0.1094 -0.1123
34758ION     NA49605  12.951   8.228  10.535  0.2490 -0.2902 -0.2141
34759ION     NA49606  17.730  12.476  10.542  0.1246  0.1293  0.0118
34760ION     NA49607  13.383   6.123   1.394  0.0134 -0.0700  0.0737
34761ION     NA49608  15.341   3.956  14.034 -0.2350 -0.1506  0.0830
34762ION     NA49609  15.494  10.325  10.139  0.0555 -0.2547  0.0536
34763ION     NA49610  12.685  12.007   6.047 -0.0667 -0.2921  0.1691
34764ION     NA49611  15.184   9.691   2.954 -0.1789  0.1058  0.3265
34765ION     NA49612  12.346  15.046  10.569 -0.1848 -0.0356 -0.1743
34766ION     NA49613   8.392   5.535   2.015 -0.1787 -0.0051 -0.0044
34767ION     NA49614  16.725   8.610  10.363 -0.0154  0.1247 -0.0365
34768ION     NA49615  13.496   4.173  11.981  0.0447 -0.3172 -0.0780
34769ION     NA49616  15.269  17.086  10.228  0.3556 -0.0529 -0.0979
34770ION     NA49617   0.146  12.384  15.535 -0.0727  0.0428  0.2422
34771ION     NA49618  14.513  10.344   5.859 -0.1991  0.1526 -0.3017
34772ION     NA49619  12.746  17.588   2.162  0.0900  0.2208 -0.2842
34773ION     NA49620  10.350   3.847   4.936  0.0501 -0.3012  0.0603
34774ION     NA49621  15.808   6.586  13.183  0.2222  0.1241  0.2509
34775ION     NA49622  13.901  14.443   6.407 -0.1866  0.0487  0.0349
34776ION     NA49623  16.486   8.380   1.200 -0.1135 -0.0485  0.0026
34777ION     NA49624  13.112   5.495   3.229  0.0570 -0.4199 -0.1297
34778ION     NA49625   3.153  16.572   1.807 -0.0219  0.2384 -0.1895
34779ION     NA49626  16.887   6.510   2.881  0.0538 -0.1325  0.1453
34780ION     NA49627  15.141   4.286   6.514  0.0212 -0.0278 -0.1211
34781ION     NA49628  16.832  10.140   0.919 -0.2941  0.1518  0.0529
34782ION     NA49629  12.115  13.785   4.236 -0.2309  0.0225  0.0986
34783ION     NA49630  12.636  13.389  16.895  0.0462  0.3772 -0.1782
34784ION     NA49631  16.471   2.137  14.111  0.1097 -0.1279  0.2043
34785ION     NA49632   8.676  16.745   5.786  0.1280  0.2587 -0.2605
34786ION     NA49633  15.618   4.444  10.553 -0.2455 -0.1788 -0.5453
34787ION     NA49634  17.312  11.395   5.377 -0.3621  0.1590  0.1115
34788ION     NA49635  13.504   3.516   3.745 -0.3776 -0.0934 -0.0032
34789ION     NA49636  10.395  13.594  10.772 -0.0341 -0.0223  0.2573
34790ION     NA49637  14.512  15.600   6.334 -0.0791 -0.1114  0.2064
34791ION     NA49638   0.113   2.523  12.707  0.0587  0.0369 -0.0896
34792ION     NA49639  15.240  17.444  15.126 -0.4434  0.0762 -0.0932
34793ION     NA49640  13.200  11.429  10.364  0.0739  0.1146  0.2711
34794ION     NA49641  15.091  17.117   1.454  0.0638 -0.3005  0.1485
34795ION     NA49642   9.565  17.696   1.331  0.0700  0.0407  0.0175
34796ION     NA49643  15.909  11.280  13.434 -0.0350 -0.1456 -0.0634
34797ION     NA49644  13.445  16.032  10.493 -0.0774  0.2077 -0.0252
34798ION     NA49645  15.465   3.409   6.479  0.1151 -0.0339 -0.1734
34799ION     NA49646  14.858   9.551  10.148 -0.2259  0.3187  0.0073
34800ION     NA49647   0.421   4.572   2.253  0.2733  0.2822 -0.0814
34801ION     NA49648  15.056  14.011  10.370  0.0332 -0.0202  0.2906
34802ION     NA49649  10.539   2.769   2.557  0.2360 -0.2602 -0.0256
34803ION     NA49650  12.593   8.689  10.785  0.2988  0.0815 -0.0347
34804ION     NA49651  17.792   2.628  10.455 -0.2475  0.2284 -0.2280
34805ION     NA49652  14.510   6.697   5.943  0.2391 -0.2514  0.0757
34806ION     NA49653  12.346  16.843   0.572  0.0017 -0.4547  0.2036
34807ION     NA49654  16.706  10.690  16.663  0.4622 -0.4385  0.2870
34808ION     NA49655   9.511   6.438  12.252  0.1875 -0.1786  0.2064
34809ION     NA49656   9.231   3.088  16.296  0.0267 -0.1804  0.1313
34810ION     NA49657   4.515  14.084   6.526 -0.1029  0.2458  0.2333
34811ION     NA49658   0.911   7.109   6.602 -0.0394  0.0813  0.0240
34812ION     NA49659  14.475  13.124  10.364  0.1052  0.0653 -0.1923
34813ION     NA49660  10.150   3.768  10.961  0.1308 -0.2442 -0.0309
34814ION     NA49661  13.447   1.999  14.371  0.0279 -0.0968  0.1619
34815ION     NA49662  16.602   9.577  10.425  0.0248 -0.2254  0.1241
34816ION     NA49663  15.576   3.383   4.143  0.2741  0.3988  0.1161
34817ION     NA49664  14.738  10.069   4.041 -0.2535 -0.2954  0.0814
34818ION     NA49665  10.676   1.905  10.593  0.0816 -0.1824 -0.0636
34819ION     NA49666  12.790   4.792   4.927 -0.3977  0.1617  0.0474
34820ION     NA49667  11.200  16.087  15.653 -0.0416 -0.0028 -0.0211
34821ION     NA49668  17.845   8.651   6.461  0.0232  0.1901  0.0337
34822ION     NA49669  11.147  12.405  11.331 -0.0999  0.0154  0.0159
34823ION     NA49670  11.188   2.906  10.621  0.0701 -0.0082 -0.0261
34824ION     NA49671   7.679   2.028  10.789  0.1397  0.2519 -0.3140
34825ION     NA49672  17.362   9.806   3.628  0.2309 -0.0372 -0.0589
34826ION     NA49673  16.828  17.462  10.366  0.1021  0.2375 -0.2884
34827ION     NA49674  17.175   6.105  10.514 -0.3257  0.2192  0.2429
34828ION     NA49675  13.360  10.823  15.171  0.0839 -0.0906 -0.0858
34829ION     NA49676   3.138   5.127   4.364  0.0090  0.0186 -0.0990
34830ION     NA49677  13.830   0.970   6.402  0.0984 -0.0697  0.1648
34831ION     NA49678  12.443   9.497   3.027 -0.1396 -0.1234  0.2041
34832ION     NA49679  15.522   4.210   0.964  0.4507 -0.0241 -0.0393
34833ION     NA49680  16.148  15.042   2.704  0.1777  0.1149 -0.0029
34834ION     NA49681   0.799   4.220   6.042 -0.2553 -0.2516 -0.3881
34835ION     NA49682   3.060  11.630   1.858  0.0163 -0.0139  0.0144
34836ION     NA49683  14.254  13.834  11.355 -0.1805  0.2149 -0.0541
34837ION     NA49684  14.682  16.289   2.314 -0.3526  0.1843  0.1242
34838ION     NA49685  14.415  14.634  10.380  0.4002  0.1770 -0.1066
34839ION     NA49686  11.853  16.667  16.718 -0.1062  0.1098  0.2218
34840ION     NA49687  17.897  13.591   1.449 -0.2302 -0.2727  0.4231
34841ION     NA49688  13.731   3.018  15.463  0.1297 -0.0653  0.2888
34842ION     NA49689  16.130   0.758  10.352 -0.3224  0.1234  0.1214
34843ION     NA49690   7.702  15.954   2.688  0.1063  0.3255 -0.1563
34844ION     NA49691  14.695   4.322   1.632  0.1825 -0.1270 -0.2186
34845ION     NA49692   2.878  14.742   4.858 -0.0113 -0.1019 -0.2721
34846ION     NA49693  11.088   3.417  10.862  0.0918  0.2152  0.3018
34847ION     NA49694  13.161   9.365   2.642 -0.0816 -0.0165 -0.2408
34848ION     NA49695  16.142   6.171  16.265 -0.0189 -0.3026  0.0475
34849ION     NA49696   9.517   3.472  13.527 -0.0512  0.0226 -0.1156
34850ION     NA49697  16.740  14.414   5.721  0.3222 -0.0865 -0.0530
34851ION     NA49698  15.389  17.424  16.491  0.1216 -0.0864 -0.3009
34852ION     NA49699   0.497  10.367   6.266  0.1451 -0.3194 -0.1046
34853ION     NA49700  17.125  16.312   4.683 -0.0348 -0.1146 -0.1891
34854ION     NA49701  15.903   4.745   6.628 -0.1464 -0.1009  0.1472
34855ION     NA49702  15.791  14.271   1.393 -0.0009 -0.0323  0.0864
34856ION     NA49703  14.170  13.344   5.029  0.4098  0.1696 -0.0850
34857ION     NA49704  17.921   2.702  14.151 -0.0469  0.2347 -0.0025
34858ION     NA49705  10.142   6.555   1.385  0.0319  0.3727 -0.0828
34859ION     NA49706  14.884   2.369   3.257  0.3162  0.0110 -0.0877
34860ION     NA49707   9.284   5.301  11.190 -0.2662  0.0169 -0.2638
34861ION     NA49708  10.283   8.154   0.453 -0.0095  0.0134 -0.2568
34862ION     NA49709  12.200   3.291  10.649  0.0424 -0.1694 -0.0302
34863ION     NA49710   0.049   4.779   3.814  0.0357  0.1350  0.1653
34864ION     NA49711  16.734   9.422   6.025 -0.0306 -0.2454  0.0917
34865ION     NA49712  11.393   0.821  14.360 -0.1520  0.3927 -0.1498
34866ION     NA49713  15.060   8.618   6.016 -0.4779 -0.3705  0.1407
34867ION     NA49714  15.440  15.622   6.367 -0.1147  0.2055  0.2044
34868ION     NA49715  16.289   5.721   6.701 -0.2886 -0.0249  0.0525
34869ION     NA49716  15.112   5.140   6.577 -0.2852 -0.0163 -0.0867
34870ION     NA49717  15.764  17.830  10.211 -0.0685 -0.1391  0.0145
34871ION     NA49718  14.581   7.646   0.654 -0.1418  0.4246 -0.2025
34872ION     NA49719  14.360   6.861  10.577 -0.0019  0.3518 -0.0218
34873ION     NA49720  10.018   7.352   0.615 -0.2512  0.1866  0.0640
34874ION     NA49721  15.813  11.874   0.069  0.1308 -0.1281  0.1090
34875ION     NA49722  11.718   7.417   4.268 -0.1157  0.0383 -0.1588
34876ION     NA49723  17.743   5.558   3.858 -0.1175 -0.1349  0.1385
34877ION     NA49724  13.996   5.268  11.500 -0.3129  0.2576  0.1255
34878ION     NA49725  16.822  16.518  10.268 -0.1450 -0.0036  0.0495
34879ION     NA49726  16.434  14.860  10.300 -0.0523 -0.1450  0.0977
34880ION     NA49727   6.564   4.701   2.137  0.0924  0.0583  0.1113
34881ION     NA49728   4.634   5.695  13.965  0.1787 -0.1447  0.0915
34882ION     NA49729  12.532  17.607  10.386 -0.0383 -0.2469  0.0211
34883ION     NA49730  11.609   7.980   6.947 -0.0772 -0.1978 -0.0397
34884ION     NA49731  17.502  13.889  13.863  0.0018 -0.5821  0.0869
34885ION     NA49732  11.225   0.611  12.692 -0.2597  0.0395  0.1682
34886ION     NA49733  17.846   6.527   1.202 -0.1576  0.0779  0.2000
34887ION     NA49734  11.150  15.863  10.912 -0.1579  0.1320 -0.0597
34888ION     NA49735  10.641   9.429   0.259 -0.0143  0.1028  0.0087
34889ION     NA49736   9.686  10.633   4.834  0.0030 -0.0399  0.0678
34890ION     NA49737  16.714  14.294   3.907 -0.1574 -0.1646 -0.2986
34891ION     NA49738  12.729  10.548  10.613 -0.2045 -0.0079 -0.1032
34892ION     NA49739   7.773   4.865   6.431  0.5172  0.0943 -0.1450
34893ION     NA49740  13.679  14.285   1.465  0.1264  0.1504  0.0560
34894ION     NA49741  12.488  16.745  15.998  0.0809  0.1034 -0.1081
34895ION     NA49742  16.235  16.350   5.949  0.0968 -0.0016 -0.1013
34896ION     NA49743  17.410  15.970  10.695  0.0074  0.1319 -0.1333
34897ION     NA49744   3.749   7.704   4.870  0.1471  0.1587  0.0978
34898ION     NA49745   9.859   7.052  11.398  0.1094 -0.0045 -0.0562
34899ION     NA49746  11.024   9.781  11.040  0.0004  0.0713  0.1884
34900ION     NA49747   9.368   8.788  11.248  0.3482  0.1804 -0.1526
34901ION     NA49748   1.128   7.300   2.337  0.0896  0.0843 -0.0600
34902ION     NA49749  14.621   0.274   2.699  0.2745  0.0152  0.0728
34903ION     NA49750   5.420  17.719  13.829 -0.0220  0.2662  0.2012
34904ION     NA49751   9.229   6.020  11.447 -0.1029  0.1047 -0.1100
34905ION     NA49752  13.215  12.503  10.402  0.0156 -0.1037  0.4034
34906ION     NA49753  13.476   9.012  10.513  0.0741 -0.2211  0.0195
34907ION     NA49754  10.219   1.587  13.911 -0.0456  0.1195  0.1619
34908ION     NA49755  15.706  17.348   4.479 -0.0685  0.2335 -0.2346
34909ION     NA49756  17.119   0.103   5.813  0.2066  0.3155 -0.0387
34910ION     NA49757   8.577  17.371   2.565 -0.1108  0.0637  0.2242
34911ION     NA49758  14.701  14.829   0.502  0.2391  0.0206  0.3037
34912ION     NA49759   0.001   5.910  16.133 -0.1198 -0.0125 -0.1873
34913ION     NA49760  17.849   1.601   2.867 -0.0056 -0.0089  0.0851
34914ION     NA49761  16.600  12.535   9.893 -0.1282  0.0025  0.1121
34915ION     NA49762  15.474   0.500  12.478  0.1343 -0.1385  0.3917
34916ION     NA49763  16.186   6.712   0.437 -0.3120  0.2530 -0.4085
34917ION     NA49764  13.593   6.758  10.722 -0.0809 -0.1022  0.4367
34918ION     NA49765   0.972  15.227  12.573 -0.1643 -0.0055 -0.0708
34919ION     NA49766  17.243   8.552  15.430 -0.0480  0.1016 -0.1410
34920ION     NA49767  12.288  11.138  14.412 -0.2858  0.1909  0.2069
34921ION     NA49768  16.038   6.844  12.071  0.1202 -0.0010  0.0150
34922ION     NA49769   9.821   3.620   1.442  0.0338  0.1123  0.2588
34923ION     NA49770  17.340   8.803   6.445  0.0285 -0.0807  0.1685
34924ION     NA49771  16.019  13.340   5.172 -0.0178  0.1719 -0.1053
34925ION     NA49772   0.820   8.028   1.127  0.0115  0.0197  0.1104
34926ION     NA49773  16.541  14.940   6.284  0.0939 -0.0586 -0.0582
34927ION     NA49774  12.762   2.352   5.973  0.3319  0.0071 -0.0176
34928ION     NA49775   7.145   9.473  12.097  0.0778  0.1074  0.0388
34929ION     NA49776  13.574  15.218  13.821 -0.6815 -0.0720 -0.1294
34930ION     NA49777  12.334  11.477  16.255  0.2460  0.0744  0.0245
34931ION     NA49778   1.594  12.171   6.213 -0.3959 -0.1610  0.0211
34932ION     NA49779   8.381  14.218  17.115 -0.1024 -0.0299  0.2209
34933ION     NA49780   7.986   5.038   4.595  0.0530  0.2016  0.0455
34934ION     NA49781   5.379   3.199   3.117  0.1264  0.2493  0.0299
34935ION     NA49782  11.543  12.426   1.098  0.0808 -0.1043  0.0979
34936ION     NA49783  14.828   6.790  16.149  0.1553 -0.1306 -0.0733
34937ION     NA49784   5.449   2.518   2.498 -0.0647  0.0328  0.1974
34938ION     NA49785  11.434  11.225  10.963 -0.4813  0.0168  0.0899
34939ION     NA49786   3.462   6.555   2.778 -0.1494 -0.3026 -0.3252
34940ION     NA49787  12.452  17.148   2.498 -0.2346  0.2489  0.0070
34941ION     NA49788  17.196   7.021   2.162 -0.0262  0.3163  0.3510
34942ION     NA49789  12.728  11.557   4.555  0.2811 -0.1992 -0.0887
34943ION     NA49790  15.823  12.904   9.987  0.1380 -0.2909  0.1428
34944ION     NA49791  12.849   3.992   6.107  0.1262 -0.1413 -0.2331
34945ION     NA49792  17.433   4.107  12.578  0.0092  0.1501 -0.3247
34946ION     NA49793  11.134   5.509  11.130 -0.0274 -0.1872  0.1619
34947ION     NA49794   9.739   7.902  11.421  0.0039  0.0748 -0.0473
34948ION     NA49795   7.503  15.575   4.135  0.1269 -0.0324 -0.1100
34949ION     NA49796   2.106  16.515  16.441 -0.1560 -0.1530 -0.1371
34950ION     NA49797   4.655   2.458   1.888 -0.0134  0.0801  0.1759
34951ION     NA49798  10.092  14.599  14.371  0.1012 -0.1252 -0.0078
34952ION     NA49799  15.673  15.235  13.946 -0.0061 -0.2720  0.0939
34953ION     NA49800  16.344   7.708  14.901 -0.0283 -0.0575  0.2442
34954ION     NA49801  14.276  17.072   6.173  0.0751  0.2064  0.2287
34955ION     NA49802  13.250   6.355   6.591 -0.1379 -0.2055  0.0101
34956ION     NA49803  12.058  14.758  11.808  0.0695  0.1559  0.2350
34957ION     NA49804  13.691   0.877  13.591 -0.2475  0.0900 -0.1298
34958ION     NA49805  13.792   7.605  12.856 -0.0598 -0.0453  0.2518
34959ION     NA49806  10.126  14.552   6.670  0.4531  0.2615 -0.1808
34960ION     NA49807  17.492   7.951  10.453 -0.1859 -0.1426 -0.1119
34961ION     NA49808  10.844   4.420  11.274 -0.0286  0.0041  0.3304
34962ION     NA49809  14.136   0.605  10.180  0.0490 -0.0479 -0.0294
34963ION     NA49810  12.638   6.789  16.211 -0.1424 -0.4037 -0.0657
34964ION     NA49811  12.859  14.286  13.748 -0.1740 -0.0890 -0.0542
34965ION     NA49812   5.060   3.846  14.387 -0.1048  0.4300  0.1570
34966ION     NA49813  10.097  17.950  10.399 -0.3783  0.1063  0.1274
34967ION     NA49814  10.870   3.282  15.993  0.3605  0.1849 -0.3452
34968ION     NA49815  17.068   8.383   6.731  0.2193 -0.0263 -0.0147
34969ION     NA49816   9.245  10.332  11.410  0.1016 -0.0666  0.1525
34970ION     NA49817  15.400   0.619  10.436  0.1188 -0.1856  0.0354
34971ION     NA49818   1.920   1.786  10.700 -0.0886  0.1304 -0.0003
34972ION     NA49819  11.901  12.144  10.877  0.0324 -0.0723  0.0846
34973ION     NA49820  16.819  10.411   6.188 -0.4996 -0.0678  0.0147
34974ION     NA49821  15.899  10.555  13.155 -0.1263  0.3128 -0.0659
34975ION     NA49822  13.694   2.250   2.187 -0.1582  0.1244  0.0496
34976ION     NA49823   8.640  16.638   0.360 -0.0471 -0.1365  0.0089
34977ION     NA49824   9.848   7.575   5.838  0.0966  0.0317 -0.0547
34978ION     NA49825  13.829   2.724   0.578 -0.1583 -0.0461 -0.2605
34979ION     NA49826  14.388   1.223   5.040  0.1436 -0.0106 -0.0776
34980ION     NA49827  14.772   7.123  14.171  0.0510 -0.2193  0.0549
34981ION     NA49828  17.647  12.682   6.374  0.4055 -0.0272  0.1472
34982ION     NA49829  12.291   4.773  11.233 -0.1598  0.2316  0.1542
34983ION     NA49830   6.084  17.162  14.300  0.2755 -0.2904 -0.0826
34984ION     NA49831   2.391   1.464   1.574  0.2691 -0.3215  0.4383
34985ION     NA49832  15.384   7.695   2.585  0.0439 -0.3609 -0.1383
34986ION     NA49833  12.473   0.122   3.407  0.1336  0.2381  0.3286
34987ION     NA49834  17.158  10.696  10.439 -0.0368 -0.1110  0.0558
34988ION     NA49835   0.284   1.993   5.928 -0.0782  0.0354 -0.0332
34989ION     NA49836  17.598  16.282   0.099  0.0671  0.1604  0.1122
34990ION     NA49837  10.922  17.795  10.497  0.0142 -0.2846  0.2654
34991ION     NA49838   1.230  14.500  10.984 -0.1030  0.1721  0.1318
34992ION     NA49839  17.860  14.227  10.532  0.0410  0.0945  0.0114
34993ION     NA49840  12.049   7.605  13.079  0.1524 -0.1278  0.2344
34994ION     NA49841  14.142  12.479   4.419  0.1526 -0.1721  0.0952
34995ION     NA49842  13.756  11.991  13.381  0.0845 -0.1214  0.1069
34996ION     NA49843  12.779   4.176  13.109 -0.0269 -0.0431 -0.0848
34997ION     NA49844  15.783   0.764   0.814  0.3338  0.2148  0.3126
34998ION     CL49845  11.433  15.071   1.757  0.1064  0.1894  0.0391
34999ION     CL49846   0.361   2.408   4.874  0.2690 -0.1822 -0.2128
35000ION     CL49847   0.889   0.944  16.870  0.0293 -0.0865  0.1434
35001ION     CL49848  17.618  16.831   0.128  0.1801 -0.1577 -0.0559
35002ION     CL49849   1.977  17.430   1.361 -0.1789 -0.0443 -0.0456
35003ION     CL49850  11.959  14.911  14.044  0.0941 -0.1217 -0.1572
35004ION     CL49851  10.280   6.966   0.822  0.0030 -0.0993 -0.0559
35005ION     CL49852  13.178   2.791   1.764 -0.1020  0.1460 -0.2252
35006ION     CL49853   0.207   8.318  14.572  0.0403  0.0157 -0.0277
35007ION     CL49854   1.040  15.420  13.078  0.0388  0.2650 -0.0251
35008ION     CL49855  13.789   1.581  14.266 -0.1887  0.2487  0.3755
35009ION     CL49856  10.507   9.198  16.967 -0.0704 -0.1402  0.1067
35010ION     CL49857  15.595   4.065  16.695  0.2690 -0.0900 -0.0021
35011ION     CL49858  15.403  12.554   2.388 -0.0452  0.1079  0.1008
35012ION     CL49859   6.461   5.044   1.725 -0.0576  0.1569 -0.1738
35013ION     CL49860  17.239  13.672  12.956  0.0024 -0.0160  0.3310
35014ION     CL49861  14.523   6.361   5.580 -0.2504  0.0121 -0.0441
35015ION     CL49862   8.457   5.635  16.520  0.0788 -0.2914 -0.7231
35016ION     CL49863  15.440   9.329  16.555  0.1127 -0.1213 -0.0947
35017ION     CL49864  15.281  17.499  13.191  0.2372 -0.0256 -0.2381
35018ION     CL49865  17.579   8.079  11.645 -0.2542  0.4055  0.1059
35019ION     CL49866   9.944   6.665  12.227  0.1190  0.3273  0.4385
35020ION     CL49867  11.580  15.745  15.572  0.0524  0.2335  0.1818
35021ION     CL49868  14.375   9.128   1.855 -0.3450  0.2318  0.0087
35022ION     CL49869  11.680   1.560   2.613  0.0977 -0.0701 -0.0263
35023ION     CL49870  16.405   7.597   5.225 -0.0978 -0.0576  0.1754
35024ION     CL49871   9.731   3.141  15.254  0.2134  0.2004  0.2471
35025ION     CL49872  14.108  15.617   0.479  0.0540 -0.0149  0.1110
35026ION     CL49873   0.358  13.842   1.493  0.3423  0.2901  0.1789
35027ION     CL49874  10.446  16.217  14.778  0.0136 -0.2985 -0.1640
35028ION     CL49875  10.486  15.363  15.568 -0.2679  0.0049 -0.4240
35029ION     CL49876   8.664   9.245   2.111 -0.1651  0.0982  0.0223
35030ION     CL49877  12.171   9.460   3.500  0.1584 -0.0042  0.0709
35031ION     CL49878   9.619   8.091   1.035  0.0328  0.1415 -0.3362
35032ION     CL49879  10.217   7.654   0.255  0.1905 -0.1497  0.1066
35033ION     CL49880   9.768  15.073   1.031 -0.2182 -0.0804  0.1063
35034ION     CL49881   8.201  13.842   3.453 -0.0158 -0.1348 -0.1714
35035ION     CL49882  14.562   5.671   0.178  0.1228 -0.1581 -0.1635
35036ION     CL49883  12.975  13.460  13.581  0.2498 -0.3284  0.0938
35037ION     CL49884  11.943  11.269  16.013 -0.1558 -0.0779  0.1340
35038ION     CL49885  16.615   1.492   4.878  0.1591  0.0301 -0.0433
35039ION     CL49886  15.862  11.796   2.781 -0.0678  0.1950 -0.1665
35040ION     CL49887   0.590  15.709   3.384 -0.1055 -0.0901  0.0200
35041ION     CL49888  11.545  16.004   2.526 -0.2428 -0.0460 -0.1048
35042ION     CL49889  14.642   6.368  15.962 -0.0953  0.0027 -0.0372
35043ION     CL49890  16.852   8.098   5.881 -0.1405  0.1092  0.0494
35044ION     CL49891  15.614   6.243  16.267  0.1778  0.2277 -0.0665
35045ION     CL49892   7.701   1.711   4.061  0.2135  0.1758  0.0060
35046ION     CL49893  17.324   4.857   3.613  0.3482 -0.3025  0.1375
35047ION     CL49894  12.516  14.835  16.302 -0.1058  0.5242  0.1960
35048ION     CL49895   3.110  11.489  13.680  0.1848 -0.0987  0.1176
35049ION     CL49896   0.447   6.335   0.657  0.1630 -0.1382 -0.0231
35050ION     CL49897  12.144   6.976   0.250 -0.1103 -0.2034 -0.0512
35051ION     CL49898   6.661   4.016  12.617 -0.0804 -0.2589  0.1276
35052ION     CL49899  17.753   7.031   2.380 -0.1999 -0.4217  0.3076
35053ION     CL49900  12.990  17.886   2.686 -0.1937  0.1430 -0.1228
35054ION     CL49901  15.698   6.899  12.803 -0.1103  0.1336 -0.0287
35055ION     CL49902  16.687  15.054   3.181 -0.1301 -0.1473  0.1858
35056ION     CL49903  17.296   0.780   4.798  0.3652  0.1075 -0.2728
  17.98067  17.98067  17.11687
