INSANE! Membrane UpperLeaflet>loPI=1.0 LowerLeaflet>PSPI:POPI:POPS:YOPS:POPE:YOPE:POPC:YOPC:ERGO=6.0:14.0:21.0:9.0:9.0:21.0:12.0:48.0:60.0
49903
    1loPI    C1    1   6.035   4.916   9.750
    1loPI    C2    2   6.120   4.929  10.050
    1loPI    C3    3   6.036   5.092  10.050
    1loPI   PO4    4   6.053   5.062   9.450
    1loPI   GL1    5   6.095   5.015   9.150
    1loPI   GL2    6   6.025   4.917   9.150
    1loPI   C1A    7   6.006   5.000   8.850
    1loPI   C2A    8   6.028   5.030   8.550
    1loPI   C3A    9   6.076   5.046   8.250
    1loPI   C4A   10   6.031   5.099   7.950
    1loPI   C5A   11   6.047   5.009   7.650
    1loPI   C6A   12   6.048   5.006   7.350
    1loPI   C1B   13   6.130   4.801   8.850
    1loPI   C2B   14   6.134   4.795   8.550
    1loPI   C3B   15   6.052   4.777   8.250
    1loPI   C4B   16   6.090   4.828   7.950
    2loPI    C1   17  11.597  15.671   9.750
    2loPI    C2   18  11.582  15.723  10.050
    2loPI    C3   19  11.649  15.836  10.050
    2loPI   PO4   20  11.627  15.864   9.450
    2loPI   GL1   21  11.621  15.805   9.150
    2loPI   GL2   22  11.635  15.683   9.150
    2loPI   C1A   23  11.641  15.773   8.850
    2loPI   C2A   24  11.608  15.864   8.550
    2loPI   C3A   25  11.614  15.769   8.250
    2loPI   C4A   26  11.644  15.798   7.950
    2loPI   C5A   27  11.604  15.786   7.650
    2loPI   C6A   28  11.622  15.795   7.350
    2loPI   C1B   29  11.571  15.545   8.850
    2loPI   C2B   30  11.582  15.572   8.550
    2loPI   C3B   31  11.582  15.563   8.250
    2loPI   C4B   32  11.607  15.575   7.950
    3loPI    C1   33   9.965  13.436   9.750
    3loPI    C2   34   9.983  13.405  10.050
    3loPI    C3   35  10.099  13.485  10.050
    3loPI   PO4   36  10.053  13.526   9.450
    3loPI   GL1   37  10.081  13.462   9.150
    3loPI   GL2   38   9.935  13.372   9.150
    3loPI   C1A   39  10.076  13.557   8.850
    3loPI   C2A   40  10.024  13.531   8.550
    3loPI   C3A   41  10.040  13.479   8.250
    3loPI   C4A   42  10.079  13.476   7.950
    3loPI   C5A   43  10.083  13.551   7.650
    3loPI   C6A   44  10.042  13.522   7.350
    3loPI   C1B   45   9.910  13.337   8.850
    3loPI   C2B   46   9.957  13.317   8.550
    3loPI   C3B   47   9.929  13.273   8.250
    3loPI   C4B   48   9.965  13.253   7.950
    4loPI    C1   49   8.447   1.316   9.750
    4loPI    C2   50   8.483   1.340  10.050
    4loPI    C3   51   8.446   1.197  10.050
    4loPI   PO4   52   8.446   1.208   9.450
    4loPI   GL1   53   8.473   1.209   9.150
    4loPI   GL2   54   8.496   1.320   9.150
    4loPI   C1A   55   8.491   1.192   8.850
    4loPI   C2A   56   8.495   1.231   8.550
    4loPI   C3A   57   8.443   1.238   8.250
    4loPI   C4A   58   8.432   1.158   7.950
    4loPI   C5A   59   8.450   1.228   7.650
    4loPI   C6A   60   8.465   1.198   7.350
    4loPI   C1B   61   8.458   1.419   8.850
    4loPI   C2B   62   8.454   1.472   8.550
    4loPI   C3B   63   8.510   1.468   8.250
    4loPI   C4B   64   8.523   1.430   7.950
    5loPI    C1   65   8.373  15.912   9.750
    5loPI    C2   66   8.426  15.968  10.050
    5loPI    C3   67   8.444  15.818  10.050
    5loPI   PO4   68   8.425  15.836   9.450
    5loPI   GL1   69   8.438  15.861   9.150
    5loPI   GL2   70   8.413  15.980   9.150
    5loPI   C1A   71   8.490  15.825   8.850
    5loPI   C2A   72   8.438  15.788   8.550
    5loPI   C3A   73   8.404  15.807   8.250
    5loPI   C4A   74   8.497  15.771   7.950
    5loPI   C5A   75   8.403  15.777   7.650
    5loPI   C6A   76   8.475  15.823   7.350
    5loPI   C1B   77   8.310  16.077   8.850
    5loPI   C2B   78   8.369  16.047   8.550
    5loPI   C3B   79   8.325  16.061   8.250
    5loPI   C4B   80   8.337  16.009   7.950
    6loPI    C1   81   2.957  11.163   9.750
    6loPI    C2   82   2.943  11.163  10.050
    6loPI    C3   83   2.841  11.230  10.050
    6loPI   PO4   84   2.813  11.200   9.450
    6loPI   GL1   85   2.852  11.177   9.150
    6loPI   GL2   86   3.023  11.184   9.150
    6loPI   C1A   87   2.817  11.169   8.850
    6loPI   C2A   88   2.873  11.203   8.550
    6loPI   C3A   89   2.821  11.193   8.250
    6loPI   C4A   90   2.883  11.244   7.950
    6loPI   C5A   91   2.850  11.191   7.650
    6loPI   C6A   92   2.843  11.250   7.350
    6loPI   C1B   93   3.132  11.196   8.850
    6loPI   C2B   94   3.053  11.187   8.550
    6loPI   C3B   95   3.100  11.156   8.250
    6loPI   C4B   96   3.080  11.135   7.950
    7loPI    C1   97   8.362   6.558   9.750
    7loPI    C2   98   8.309   6.583  10.050
    7loPI    C3   99   8.425   6.561  10.050
    7loPI   PO4  100   8.413   6.593   9.450
    7loPI   GL1  101   8.422   6.552   9.150
    7loPI   GL2  102   8.342   6.525   9.150
    7loPI   C1A  103   8.497   6.620   8.850
    7loPI   C2A  104   8.481   6.635   8.550
    7loPI   C3A  105   8.440   6.627   8.250
    7loPI   C4A  106   8.444   6.634   7.950
    7loPI   C5A  107   8.405   6.612   7.650
    7loPI   C6A  108   8.426   6.598   7.350
    7loPI   C1B  109   8.203   6.561   8.850
    7loPI   C2B  110   8.228   6.507   8.550
    7loPI   C3B  111   8.166   6.516   8.250
    7loPI   C4B  112   8.172   6.520   7.950
    8loPI    C1  113   1.329   2.104   9.750
    8loPI    C2  114   1.270   2.094  10.050
    8loPI    C3  115   1.291   2.013  10.050
    8loPI   PO4  116   1.233   1.994   9.450
    8loPI   GL1  117   1.218   2.003   9.150
    8loPI   GL2  118   1.264   2.109   9.150
    8loPI   C1A  119   1.275   1.961   8.850
    8loPI   C2A  120   1.212   2.009   8.550
    8loPI   C3A  121   1.273   1.951   8.250
    8loPI   C4A  122   1.275   1.942   7.950
    8loPI   C5A  123   1.251   1.963   7.650
    8loPI   C6A  124   1.238   1.972   7.350
    8loPI   C1B  125   1.274   2.198   8.850
    8loPI   C2B  126   1.284   2.198   8.550
    8loPI   C3B  127   1.353   2.197   8.250
    8loPI   C4B  128   1.304   2.205   7.950
    9loPI    C1  129   2.886  19.025   9.750
    9loPI    C2  130   2.865  18.990  10.050
    9loPI    C3  131   2.804  18.861  10.050
    9loPI   PO4  132   2.890  18.927   9.450
    9loPI   GL1  133   2.840  18.879   9.150
    9loPI   GL2  134   2.880  18.984   9.150
    9loPI   C1A  135   2.845  18.892   8.850
    9loPI   C2A  136   2.803  18.941   8.550
    9loPI   C3A  137   2.900  18.863   8.250
    9loPI   C4A  138   2.874  18.896   7.950
    9loPI   C5A  139   2.844  18.944   7.650
    9loPI   C6A  140   2.816  18.914   7.350
    9loPI   C1B  141   2.919  19.168   8.850
    9loPI   C2B  142   2.884  19.168   8.550
    9loPI   C3B  143   2.912  19.150   8.250
    9loPI   C4B  144   2.927  19.139   7.950
   10loPI    C1  145   3.559   4.974   9.750
   10loPI    C2  146   3.512   5.006  10.050
   10loPI    C3  147   3.689   5.093  10.050
   10loPI   PO4  148   3.603   5.056   9.450
   10loPI   GL1  149   3.665   5.041   9.150
   10loPI   GL2  150   3.575   5.055   9.150
   10loPI   C1A  151   3.639   5.098   8.850
   10loPI   C2A  152   3.640   5.084   8.550
   10loPI   C3A  153   3.664   5.077   8.250
   10loPI   C4A  154   3.645   5.087   7.950
   10loPI   C5A  155   3.660   5.055   7.650
   10loPI   C6A  156   3.684   5.081   7.350
   10loPI   C1B  157   3.384   4.994   8.850
   10loPI   C2B  158   3.438   4.946   8.550
   10loPI   C3B  159   3.386   4.930   8.250
   10loPI   C4B  160   3.398   5.019   7.950
   11loPI    C1  161   3.660  17.996   9.750
   11loPI    C2  162   3.597  18.048  10.050
   11loPI    C3  163   3.638  18.094  10.050
   11loPI   PO4  164   3.669  18.135   9.450
   11loPI   GL1  165   3.684  18.165   9.150
   11loPI   GL2  166   3.608  18.051   9.150
   11loPI   C1A  167   3.655  18.119   8.850
   11loPI   C2A  168   3.621  18.119   8.550
   11loPI   C3A  169   3.632  18.142   8.250
   11loPI   C4A  170   3.669  18.123   7.950
   11loPI   C5A  171   3.611  18.174   7.650
   11loPI   C6A  172   3.607  18.150   7.350
   11loPI   C1B  173   3.540  17.839   8.850
   11loPI   C2B  174   3.557  17.860   8.550
   11loPI   C3B  175   3.630  17.845   8.250
   11loPI   C4B  176   3.619  17.885   7.950
   12loPI    C1  177  11.617   7.454   9.750
   12loPI    C2  178  11.607   7.456  10.050
   12loPI    C3  179  11.690   7.342  10.050
   12loPI   PO4  180  11.627   7.394   9.450
   12loPI   GL1  181  11.635   7.388   9.150
   12loPI   GL2  182  11.605   7.425   9.150
   12loPI   C1A  183  11.610   7.372   8.850
   12loPI   C2A  184  11.601   7.316   8.550
   12loPI   C3A  185  11.619   7.390   8.250
   12loPI   C4A  186  11.616   7.358   7.950
   12loPI   C5A  187  11.693   7.350   7.650
   12loPI   C6A  188  11.604   7.357   7.350
   12loPI   C1B  189  11.479   7.568   8.850
   12loPI   C2B  190  11.556   7.572   8.550
   12loPI   C3B  191  11.479   7.621   8.250
   12loPI   C4B  192  11.556   7.602   7.950
   13loPI    C1  193  11.493   1.987   9.750
   13loPI    C2  194  11.544   1.983  10.050
   13loPI    C3  195  11.619   1.999  10.050
   13loPI   PO4  196  11.627   1.998   9.450
   13loPI   GL1  197  11.631   2.003   9.150
   13loPI   GL2  198  11.526   2.012   9.150
   13loPI   C1A  199  11.695   2.010   8.850
   13loPI   C2A  200  11.643   1.958   8.550
   13loPI   C3A  201  11.689   1.966   8.250
   13loPI   C4A  202  11.644   1.987   7.950
   13loPI   C5A  203  11.607   1.999   7.650
   13loPI   C6A  204  11.606   2.023   7.350
   13loPI   C1B  205  11.374   2.075   8.850
   13loPI   C2B  206  11.433   2.030   8.550
   13loPI   C3B  207  11.419   2.034   8.250
   13loPI   C4B  208  11.359   2.014   7.950
   14loPI    C1  209   6.905  11.121   9.750
   14loPI    C2  210   6.969  11.119  10.050
   14loPI    C3  211   6.870  11.174  10.050
   14loPI   PO4  212   6.822  11.242   9.450
   14loPI   GL1  213   6.834  11.196   9.150
   14loPI   GL2  214   6.988  11.147   9.150
   14loPI   C1A  215   6.823  11.206   8.850
   14loPI   C2A  216   6.833  11.191   8.550
   14loPI   C3A  217   6.854  11.197   8.250
   14loPI   C4A  218   6.816  11.209   7.950
   14loPI   C5A  219   6.854  11.247   7.650
   14loPI   C6A  220   6.823  11.181   7.350
   14loPI   C1B  221   7.024  11.087   8.850
   14loPI   C2B  222   7.026  11.073   8.550
   14loPI   C3B  223   7.069  11.038   8.250
   14loPI   C4B  224   7.006  11.039   7.950
   15loPI    C1  225   4.334  10.354   9.750
   15loPI    C2  226   4.331  10.387  10.050
   15loPI    C3  227   4.451  10.439  10.050
   15loPI   PO4  228   4.466  10.470   9.450
   15loPI   GL1  229   4.429  10.412   9.150
   15loPI   GL2  230   4.376  10.442   9.150
   15loPI   C1A  231   4.404  10.444   8.850
   15loPI   C2A  232   4.436  10.408   8.550
   15loPI   C3A  233   4.442  10.407   8.250
   15loPI   C4A  234   4.472  10.459   7.950
   15loPI   C5A  235   4.444  10.467   7.650
   15loPI   C6A  236   4.479  10.426   7.350
   15loPI   C1B  237   4.246  10.390   8.850
   15loPI   C2B  238   4.232  10.397   8.550
   15loPI   C3B  239   4.184  10.376   8.250
   15loPI   C4B  240   4.257  10.378   7.950
   16loPI    C1  241   6.708  10.384   9.750
   16loPI    C2  242   6.700  10.430  10.050
   16loPI    C3  243   6.875  10.451  10.050
   16loPI   PO4  244   6.807  10.457   9.450
   16loPI   GL1  245   6.882  10.465   9.150
   16loPI   GL2  246   6.728  10.370   9.150
   16loPI   C1A  247   6.849  10.411   8.850
   16loPI   C2A  248   6.824  10.398   8.550
   16loPI   C3A  249   6.819  10.418   8.250
   16loPI   C4A  250   6.896  10.408   7.950
   16loPI   C5A  251   6.819  10.483   7.650
   16loPI   C6A  252   6.885  10.470   7.350
   16loPI   C1B  253   6.582  10.357   8.850
   16loPI   C2B  254   6.656  10.379   8.550
   16loPI   C3B  255   6.577  10.401   8.250
   16loPI   C4B  256   6.646  10.355   7.950
   17loPI    C1  257   1.100  17.342   9.750
   17loPI    C2  258   1.123  17.379  10.050
   17loPI    C3  259   1.284  17.351  10.050
   17loPI   PO4  260   1.232  17.344   9.450
   17loPI   GL1  261   1.276  17.398   9.150
   17loPI   GL2  262   1.119  17.338   9.150
   17loPI   C1A  263   1.205  17.401   8.850
   17loPI   C2A  264   1.266  17.357   8.550
   17loPI   C3A  265   1.260  17.402   8.250
   17loPI   C4A  266   1.224  17.319   7.950
   17loPI   C5A  267   1.244  17.395   7.650
   17loPI   C6A  268   1.227  17.357   7.350
   17loPI   C1B  269   0.957  17.373   8.850
   17loPI   C2B  270   1.041  17.377   8.550
   17loPI   C3B  271   0.955  17.382   8.250
   17loPI   C4B  272   0.954  17.399   7.950
   18loPI    C1  273   9.333   2.687   9.750
   18loPI    C2  274   9.340   2.639  10.050
   18loPI    C3  275   9.219   2.786  10.050
   18loPI   PO4  276   9.273   2.697   9.450
   18loPI   GL1  277   9.296   2.782   9.150
   18loPI   GL2  278   9.279   2.600   9.150
   18loPI   C1A  279   9.248   2.724   8.850
   18loPI   C2A  280   9.245   2.792   8.550
   18loPI   C3A  281   9.257   2.711   8.250
   18loPI   C4A  282   9.216   2.786   7.950
   18loPI   C5A  283   9.246   2.701   7.650
   18loPI   C6A  284   9.282   2.760   7.350
   18loPI   C1B  285   9.378   2.575   8.850
   18loPI   C2B  286   9.373   2.493   8.550
   18loPI   C3B  287   9.436   2.488   8.250
   18loPI   C4B  288   9.381   2.578   7.950
   19loPI    C1  289   0.448  11.282   9.750
   19loPI    C2  290   0.385  11.283  10.050
   19loPI    C3  291   0.405  11.170  10.050
   19loPI   PO4  292   0.445  11.209   9.450
   19loPI   GL1  293   0.404  11.246   9.150
   19loPI   GL2  294   0.438  11.302   9.150
   19loPI   C1A  295   0.486  11.249   8.850
   19loPI   C2A  296   0.493  11.173   8.550
   19loPI   C3A  297   0.472  11.247   8.250
   19loPI   C4A  298   0.488  11.160   7.950
   19loPI   C5A  299   0.403  11.216   7.650
   19loPI   C6A  300   0.499  11.246   7.350
   19loPI   C1B  301   0.420  11.454   8.850
   19loPI   C2B  302   0.452  11.473   8.550
   19loPI   C3B  303   0.437  11.451   8.250
   19loPI   C4B  304   0.410  11.419   7.950
   20loPI    C1  305   7.769  17.489   9.750
   20loPI    C2  306   7.676  17.445  10.050
   20loPI    C3  307   7.690  17.383  10.050
   20loPI   PO4  308   7.663  17.395   9.450
   20loPI   GL1  309   7.663  17.402   9.150
   20loPI   GL2  310   7.693  17.480   9.150
   20loPI   C1A  311   7.645  17.324   8.850
   20loPI   C2A  312   7.638  17.327   8.550
   20loPI   C3A  313   7.616  17.358   8.250
   20loPI   C4A  314   7.654  17.360   7.950
   20loPI   C5A  315   7.618  17.363   7.650
   20loPI   C6A  316   7.618  17.362   7.350
   20loPI   C1B  317   7.805  17.601   8.850
   20loPI   C2B  318   7.816  17.510   8.550
   20loPI   C3B  319   7.817  17.543   8.250
   20loPI   C4B  320   7.798  17.536   7.950
   21loPI    C1  321   6.009   3.364   9.750
   21loPI    C2  322   5.944   3.435  10.050
   21loPI    C3  323   6.080   3.482  10.050
   21loPI   PO4  324   6.001   3.538   9.450
   21loPI   GL1  325   6.080   3.538   9.150
   21loPI   GL2  326   6.033   3.396   9.150
   21loPI   C1A  327   6.020   3.494   8.850
   21loPI   C2A  328   6.085   3.493   8.550
   21loPI   C3A  329   6.084   3.467   8.250
   21loPI   C4A  330   6.073   3.525   7.950
   21loPI   C5A  331   6.018   3.537   7.650
   21loPI   C6A  332   6.075   3.484   7.350
   21loPI   C1B  333   5.917   3.295   8.850
   21loPI   C2B  334   5.915   3.315   8.550
   21loPI   C3B  335   5.925   3.257   8.250
   21loPI   C4B  336   5.909   3.322   7.950
   22loPI    C1  337   6.071   1.843   9.750
   22loPI    C2  338   6.051   1.807  10.050
   22loPI    C3  339   6.046   1.933  10.050
   22loPI   PO4  340   6.056   1.986   9.450
   22loPI   GL1  341   6.018   2.001   9.150
   22loPI   GL2  342   6.045   1.806   9.150
   22loPI   C1A  343   6.048   1.976   8.850
   22loPI   C2A  344   6.074   1.974   8.550
   22loPI   C3A  345   6.083   1.925   8.250
   22loPI   C4A  346   6.063   2.018   7.950
   22loPI   C5A  347   6.001   2.020   7.650
   22loPI   C6A  348   6.025   1.940   7.350
   22loPI   C1B  349   6.047   1.766   8.850
   22loPI   C2B  350   6.095   1.764   8.550
   22loPI   C3B  351   6.009   1.732   8.250
   22loPI   C4B  352   6.099   1.753   7.950
   23loPI    C1  353   4.412  11.367   9.750
   23loPI    C2  354   4.406  11.278  10.050
   23loPI    C3  355   4.493  11.223  10.050
   23loPI   PO4  356   4.446  11.220   9.450
   23loPI   GL1  357   4.445  11.190   9.150
   23loPI   GL2  358   4.389  11.352   9.150
   23loPI   C1A  359   4.453  11.217   8.850
   23loPI   C2A  360   4.496  11.246   8.550
   23loPI   C3A  361   4.458  11.201   8.250
   23loPI   C4A  362   4.430  11.160   7.950
   23loPI   C5A  363   4.418  11.185   7.650
   23loPI   C6A  364   4.489  11.155   7.350
   23loPI   C1B  365   4.371  11.406   8.850
   23loPI   C2B  366   4.385  11.395   8.550
   23loPI   C3B  367   4.352  11.416   8.250
   23loPI   C4B  368   4.345  11.434   7.950
   24loPI    C1  369   9.331   1.813   9.750
   24loPI    C2  370   9.248   1.818  10.050
   24loPI    C3  371   9.296   2.000  10.050
   24loPI   PO4  372   9.263   1.935   9.450
   24loPI   GL1  373   9.218   1.981   9.150
   24loPI   GL2  374   9.332   1.856   9.150
   24loPI   C1A  375   9.227   1.953   8.850
   24loPI   C2A  376   9.296   1.967   8.550
   24loPI   C3A  377   9.264   2.000   8.250
   24loPI   C4A  378   9.209   1.927   7.950
   24loPI   C5A  379   9.279   2.021   7.650
   24loPI   C6A  380   9.211   1.994   7.350
   24loPI   C1B  381   9.354   1.716   8.850
   24loPI   C2B  382   9.325   1.767   8.550
   24loPI   C3B  383   9.317   1.697   8.250
   24loPI   C4B  384   9.374   1.773   7.950
   25loPI    C1  385   9.959  17.327   9.750
   25loPI    C2  386   9.889  17.337  10.050
   25loPI    C3  387  10.080  17.393  10.050
   25loPI   PO4  388  10.015  17.320   9.450
   25loPI   GL1  389  10.020  17.337   9.150
   25loPI   GL2  390   9.902  17.311   9.150
   25loPI   C1A  391  10.087  17.335   8.850
   25loPI   C2A  392  10.008  17.374   8.550
   25loPI   C3A  393  10.067  17.347   8.250
   25loPI   C4A  394  10.098  17.374   7.950
   25loPI   C5A  395  10.081  17.314   7.650
   25loPI   C6A  396  10.066  17.322   7.350
   25loPI   C1B  397   9.841  17.313   8.850
   25loPI   C2B  398   9.776  17.298   8.550
   25loPI   C3B  399   9.836  17.261   8.250
   25loPI   C4B  400   9.845  17.279   7.950
   26loPI    C1  401   6.773  19.010   9.750
   26loPI    C2  402   6.768  18.981  10.050
   26loPI    C3  403   6.876  18.912  10.050
   26loPI   PO4  404   6.883  18.904   9.450
   26loPI   GL1  405   6.839  18.914   9.150
   26loPI   GL2  406   6.759  19.002   9.150
   26loPI   C1A  407   6.836  18.896   8.850
   26loPI   C2A  408   6.836  18.880   8.550
   26loPI   C3A  409   6.878  18.854   8.250
   26loPI   C4A  410   6.871  18.916   7.950
   26loPI   C5A  411   6.873  18.849   7.650
   26loPI   C6A  412   6.802  18.909   7.350
   26loPI   C1B  413   6.768  19.080   8.850
   26loPI   C2B  414   6.734  19.156   8.550
   26loPI   C3B  415   6.725  19.078   8.250
   26loPI   C4B  416   6.786  19.111   7.950
   27loPI    C1  417   9.330   0.581   9.750
   27loPI    C2  418   9.313   0.578  10.050
   27loPI    C3  419   9.275   0.462  10.050
   27loPI   PO4  420   9.299   0.414   9.450
   27loPI   GL1  421   9.212   0.450   9.150
   27loPI   GL2  422   9.302   0.573   9.150
   27loPI   C1A  423   9.258   0.434   8.850
   27loPI   C2A  424   9.214   0.429   8.550
   27loPI   C3A  425   9.239   0.412   8.250
   27loPI   C4A  426   9.221   0.442   7.950
   27loPI   C5A  427   9.283   0.473   7.650
   27loPI   C6A  428   9.266   0.446   7.350
   27loPI   C1B  429   9.361   0.632   8.850
   27loPI   C2B  430   9.360   0.712   8.550
   27loPI   C3B  431   9.321   0.655   8.250
   27loPI   C4B  432   9.307   0.661   7.950
   28loPI    C1  433   9.957   2.103   9.750
   28loPI    C2  434   9.968   2.075  10.050
   28loPI    C3  435  10.071   1.992  10.050
   28loPI   PO4  436  10.026   1.979   9.450
   28loPI   GL1  437  10.033   1.923   9.150
   28loPI   GL2  438   9.985   2.065   9.150
   28loPI   C1A  439  10.049   1.932   8.850
   28loPI   C2A  440  10.090   1.993   8.550
   28loPI   C3A  441  10.082   1.942   8.250
   28loPI   C4A  442  10.045   1.964   7.950
   28loPI   C5A  443  10.076   1.968   7.650
   28loPI   C6A  444  10.084   1.961   7.350
   28loPI   C1B  445   9.895   2.209   8.850
   28loPI   C2B  446   9.937   2.197   8.550
   28loPI   C3B  447   9.887   2.171   8.250
   28loPI   C4B  448   9.930   2.178   7.950
   29loPI    C1  449   0.365   8.222   9.750
   29loPI    C2  450   0.342   8.239  10.050
   29loPI    C3  451   0.498   8.127  10.050
   29loPI   PO4  452   0.435   8.122   9.450
   29loPI   GL1  453   0.496   8.115   9.150
   29loPI   GL2  454   0.342   8.221   9.150
   29loPI   C1A  455   0.446   8.159   8.850
   29loPI   C2A  456   0.460   8.131   8.550
   29loPI   C3A  457   0.451   8.109   8.250
   29loPI   C4A  458   0.412   8.094   7.950
   29loPI   C5A  459   0.477   8.142   7.650
   29loPI   C6A  460   0.457   8.155   7.350
   29loPI   C1B  461   0.252   8.304   8.850
   29loPI   C2B  462   0.302   8.270   8.550
   29loPI   C3B  463   0.250   8.339   8.250
   29loPI   C4B  464   0.245   8.326   7.950
   30loPI    C1  465  10.009  10.299   9.750
   30loPI    C2  466   9.938  10.377  10.050
   30loPI    C3  467  10.090  10.438  10.050
   30loPI   PO4  468  10.081  10.478   9.450
   30loPI   GL1  469  10.071  10.386   9.150
   30loPI   GL2  470   9.957  10.303   9.150
   30loPI   C1A  471  10.055  10.433   8.850
   30loPI   C2A  472  10.005  10.478   8.550
   30loPI   C3A  473  10.050  10.390   8.250
   30loPI   C4A  474  10.076  10.477   7.950
   30loPI   C5A  475  10.020  10.435   7.650
   30loPI   C6A  476  10.064  10.474   7.350
   30loPI   C1B  477   9.864  10.286   8.850
   30loPI   C2B  478   9.845  10.230   8.550
   30loPI   C3B  479   9.869  10.242   8.250
   30loPI   C4B  480   9.851  10.236   7.950
   31loPI    C1  481  10.940  11.072   9.750
   31loPI    C2  482  10.908  11.128  10.050
   31loPI    C3  483  10.816  11.249  10.050
   31loPI   PO4  484  10.815  11.225   9.450
   31loPI   GL1  485  10.893  11.171   9.150
   31loPI   GL2  486  10.936  11.064   9.150
   31loPI   C1A  487  10.896  11.253   8.850
   31loPI   C2A  488  10.851  11.213   8.550
   31loPI   C3A  489  10.867  11.224   8.250
   31loPI   C4A  490  10.867  11.230   7.950
   31loPI   C5A  491  10.874  11.214   7.650
   31loPI   C6A  492  10.843  11.170   7.350
   31loPI   C1B  493  10.995  10.971   8.850
   31loPI   C2B  494  10.949  10.997   8.550
   31loPI   C3B  495  10.960  11.015   8.250
   31loPI   C4B  496  10.959  10.960   7.950
   32loPI    C1  497   6.128   5.673   9.750
   32loPI    C2  498   6.107   5.707  10.050
   32loPI    C3  499   6.073   5.857  10.050
   32loPI   PO4  500   6.086   5.853   9.450
   32loPI   GL1  501   6.082   5.781   9.150
   32loPI   GL2  502   6.115   5.740   9.150
   32loPI   C1A  503   6.092   5.860   8.850
   32loPI   C2A  504   6.037   5.849   8.550
   32loPI   C3A  505   6.072   5.790   8.250
   32loPI   C4A  506   6.074   5.821   7.950
   32loPI   C5A  507   6.037   5.793   7.650
   32loPI   C6A  508   6.050   5.820   7.350
   32loPI   C1B  509   6.186   5.626   8.850
   32loPI   C2B  510   6.174   5.589   8.550
   32loPI   C3B  511   6.195   5.597   8.250
   32loPI   C4B  512   6.238   5.609   7.950
   33loPI    C1  513   8.312  14.345   9.750
   33loPI    C2  514   8.388  14.392  10.050
   33loPI    C3  515   8.490  14.286  10.050
   33loPI   PO4  516   8.406  14.255   9.450
   33loPI   GL1  517   8.433  14.304   9.150
   33loPI   GL2  518   8.355  14.334   9.150
   33loPI   C1A  519   8.468  14.312   8.850
   33loPI   C2A  520   8.490  14.326   8.550
   33loPI   C3A  521   8.436  14.297   8.250
   33loPI   C4A  522   8.487  14.323   7.950
   33loPI   C5A  523   8.462  14.298   7.650
   33loPI   C6A  524   8.479  14.234   7.350
   33loPI   C1B  525   8.306  14.397   8.850
   33loPI   C2B  526   8.232  14.462   8.550
   33loPI   C3B  527   8.241  14.469   8.250
   33loPI   C4B  528   8.270  14.449   7.950
   34loPI    C1  529   2.132  11.074   9.750
   34loPI    C2  530   2.157  11.128  10.050
   34loPI    C3  531   2.090  11.185  10.050
   34loPI   PO4  532   2.015  11.251   9.450
   34loPI   GL1  533   2.092  11.223   9.150
   34loPI   GL2  534   2.085  11.147   9.150
   34loPI   C1A  535   2.095  11.206   8.850
   34loPI   C2A  536   2.090  11.171   8.550
   34loPI   C3A  537   2.037  11.184   8.250
   34loPI   C4A  538   2.099  11.205   7.950
   34loPI   C5A  539   2.005  11.195   7.650
   34loPI   C6A  540   2.066  11.210   7.350
   34loPI   C1B  541   2.169  10.968   8.850
   34loPI   C2B  542   2.195  11.049   8.550
   34loPI   C3B  543   2.252  11.036   8.250
   34loPI   C4B  544   2.207  10.978   7.950
   35loPI    C1  545   1.107  18.132   9.750
   35loPI    C2  546   1.102  18.139  10.050
   35loPI    C3  547   1.212  18.159  10.050
   35loPI   PO4  548   1.297  18.122   9.450
   35loPI   GL1  549   1.229  18.143   9.150
   35loPI   GL2  550   1.156  18.079   9.150
   35loPI   C1A  551   1.211  18.148   8.850
   35loPI   C2A  552   1.221  18.143   8.550
   35loPI   C3A  553   1.251  18.169   8.250
   35loPI   C4A  554   1.219  18.141   7.950
   35loPI   C5A  555   1.203  18.133   7.650
   35loPI   C6A  556   1.236  18.138   7.350
   35loPI   C1B  557   1.047  18.154   8.850
   35loPI   C2B  558   0.994  18.095   8.550
   35loPI   C3B  559   1.000  18.170   8.250
   35loPI   C4B  560   0.998  18.133   7.950
   36loPI    C1  561   7.517  18.022   9.750
   36loPI    C2  562   7.493  18.051  10.050
   36loPI    C3  563   7.614  18.116  10.050
   36loPI   PO4  564   7.619  18.173   9.450
   36loPI   GL1  565   7.644  18.080   9.150
   36loPI   GL2  566   7.494  18.077   9.150
   36loPI   C1A  567   7.642  18.113   8.850
   36loPI   C2A  568   7.685  18.131   8.550
   36loPI   C3A  569   7.687  18.163   8.250
   36loPI   C4A  570   7.666  18.124   7.950
   36loPI   C5A  571   7.638  18.154   7.650
   36loPI   C6A  572   7.610  18.146   7.350
   36loPI   C1B  573   7.413  18.057   8.850
   36loPI   C2B  574   7.413  17.998   8.550
   36loPI   C3B  575   7.468  18.026   8.250
   36loPI   C4B  576   7.468  18.001   7.950
   37loPI    C1  577  11.704   4.929   9.750
   37loPI    C2  578  11.707   4.928  10.050
   37loPI    C3  579  11.616   5.085  10.050
   37loPI   PO4  580  11.656   5.018   9.450
   37loPI   GL1  581  11.643   5.028   9.150
   37loPI   GL2  582  11.692   4.976   9.150
   37loPI   C1A  583  11.686   5.053   8.850
   37loPI   C2A  584  11.685   5.002   8.550
   37loPI   C3A  585  11.662   5.073   8.250
   37loPI   C4A  586  11.641   5.019   7.950
   37loPI   C5A  587  11.686   5.008   7.650
   37loPI   C6A  588  11.637   5.087   7.350
   37loPI   C1B  589  11.718   4.783   8.850
   37loPI   C2B  590  11.705   4.774   8.550
   37loPI   C3B  591  11.722   4.864   8.250
   37loPI   C4B  592  11.747   4.770   7.950
   38loPI    C1  593   4.321  19.022   9.750
   38loPI    C2  594   4.370  19.009  10.050
   38loPI    C3  595   4.437  18.928  10.050
   38loPI   PO4  596   4.437  18.922   9.450
   38loPI   GL1  597   4.469  18.881   9.150
   38loPI   GL2  598   4.372  18.981   9.150
   38loPI   C1A  599   4.409  18.914   8.850
   38loPI   C2A  600   4.401  18.913   8.550
   38loPI   C3A  601   4.472  18.894   8.250
   38loPI   C4A  602   4.466  18.905   7.950
   38loPI   C5A  603   4.442  18.900   7.650
   38loPI   C6A  604   4.473  18.945   7.350
   38loPI   C1B  605   4.254  19.108   8.850
   38loPI   C2B  606   4.244  19.032   8.550
   38loPI   C3B  607   4.294  19.115   8.250
   38loPI   C4B  608   4.246  19.042   7.950
   39loPI    C1  609  10.169   0.409   9.750
   39loPI    C2  610  10.200   0.348  10.050
   39loPI    C3  611  10.094   0.406  10.050
   39loPI   PO4  612  10.010   0.432   9.450
   39loPI   GL1  613  10.028   0.472   9.150
   39loPI   GL2  614  10.174   0.416   9.150
   39loPI   C1A  615  10.007   0.456   8.850
   39loPI   C2A  616  10.058   0.457   8.550
   39loPI   C3A  617  10.095   0.397   8.250
   39loPI   C4A  618  10.069   0.397   7.950
   39loPI   C5A  619  10.067   0.474   7.650
   39loPI   C6A  620  10.078   0.402   7.350
   39loPI   C1B  621  10.329   0.403   8.850
   39loPI   C2B  622  10.336   0.380   8.550
   39loPI   C3B  623  10.270   0.386   8.250
   39loPI   C4B  624  10.310   0.362   7.950
   40loPI    C1  625   6.773   6.650   9.750
   40loPI    C2  626   6.803   6.645  10.050
   40loPI    C3  627   6.872   6.638  10.050
   40loPI   PO4  628   6.854   6.592   9.450
   40loPI   GL1  629   6.860   6.558   9.150
   40loPI   GL2  630   6.735   6.632   9.150
   40loPI   C1A  631   6.807   6.563   8.850
   40loPI   C2A  632   6.885   6.543   8.550
   40loPI   C3A  633   6.898   6.581   8.250
   40loPI   C4A  634   6.812   6.615   7.950
   40loPI   C5A  635   6.839   6.623   7.650
   40loPI   C6A  636   6.849   6.572   7.350
   40loPI   C1B  637   6.692   6.714   8.850
   40loPI   C2B  638   6.623   6.731   8.550
   40loPI   C3B  639   6.626   6.713   8.250
   40loPI   C4B  640   6.648   6.797   7.950
   41loPI    C1  641  10.711  12.004   9.750
   41loPI    C2  642  10.715  12.022  10.050
   41loPI    C3  643  10.867  12.000  10.050
   41loPI   PO4  644  10.872  11.969   9.450
   41loPI   GL1  645  10.899  11.977   9.150
   41loPI   GL2  646  10.728  11.990   9.150
   41loPI   C1A  647  10.824  11.959   8.850
   41loPI   C2A  648  10.805  11.988   8.550
   41loPI   C3A  649  10.869  12.005   8.250
   41loPI   C4A  650  10.874  11.955   7.950
   41loPI   C5A  651  10.848  11.969   7.650
   41loPI   C6A  652  10.833  11.968   7.350
   41loPI   C1B  653  10.606  12.081   8.850
   41loPI   C2B  654  10.663  12.087   8.550
   41loPI   C3B  655  10.593  12.120   8.250
   41loPI   C4B  656  10.591  12.101   7.950
   42loPI    C1  657  10.999   4.978   9.750
   42loPI    C2  658  10.943   5.055  10.050
   42loPI    C3  659  10.887   5.078  10.050
   42loPI   PO4  660  10.895   5.030   9.450
   42loPI   GL1  661  10.834   5.051   9.150
   42loPI   GL2  662  10.963   4.976   9.150
   42loPI   C1A  663  10.862   5.032   8.850
   42loPI   C2A  664  10.842   5.075   8.550
   42loPI   C3A  665  10.822   5.052   8.250
   42loPI   C4A  666  10.813   5.019   7.950
   42loPI   C5A  667  10.858   5.099   7.650
   42loPI   C6A  668  10.811   5.045   7.350
   42loPI   C1B  669  11.083   4.977   8.850
   42loPI   C2B  670  11.061   5.009   8.550
   42loPI   C3B  671  11.127   5.016   8.250
   42loPI   C4B  672  11.113   4.969   7.950
   43loPI    C1  673   5.283  11.043   9.750
   43loPI    C2  674   5.320  11.059  10.050
   43loPI    C3  675   5.223  11.177  10.050
   43loPI   PO4  676   5.213  11.181   9.450
   43loPI   GL1  677   5.217  11.174   9.150
   43loPI   GL2  678   5.307  11.115   9.150
   43loPI   C1A  679   5.219  11.240   8.850
   43loPI   C2A  680   5.260  11.207   8.550
   43loPI   C3A  681   5.283  11.199   8.250
   43loPI   C4A  682   5.296  11.250   7.950
   43loPI   C5A  683   5.244  11.157   7.650
   43loPI   C6A  684   5.252  11.249   7.350
   43loPI   C1B  685   5.280  10.965   8.850
   43loPI   C2B  686   5.249  10.978   8.550
   43loPI   C3B  687   5.321  11.006   8.250
   43loPI   C4B  688   5.260  10.922   7.950
   44loPI    C1  689   5.266  12.833   9.750
   44loPI    C2  690   5.247  12.819  10.050
   44loPI    C3  691   5.282  12.745  10.050
   44loPI   PO4  692   5.256  12.757   9.450
   44loPI   GL1  693   5.241  12.696   9.150
   44loPI   GL2  694   5.292  12.888   9.150
   44loPI   C1A  695   5.231  12.737   8.850
   44loPI   C2A  696   5.235  12.756   8.550
   44loPI   C3A  697   5.273  12.776   8.250
   44loPI   C4A  698   5.279  12.750   7.950
   44loPI   C5A  699   5.235  12.761   7.650
   44loPI   C6A  700   5.288  12.720   7.350
   44loPI   C1B  701   5.291  12.951   8.850
   44loPI   C2B  702   5.321  12.988   8.550
   44loPI   C3B  703   5.338  13.014   8.250
   44loPI   C4B  704   5.324  12.975   7.950
   45loPI    C1  705   8.309  10.455   9.750
   45loPI    C2  706   8.334  10.447  10.050
   45loPI    C3  707   8.486  10.411  10.050
   45loPI   PO4  708   8.472  10.430   9.450
   45loPI   GL1  709   8.468  10.448   9.150
   45loPI   GL2  710   8.323  10.494   9.150
   45loPI   C1A  711   8.438  10.475   8.850
   45loPI   C2A  712   8.438  10.386   8.550
   45loPI   C3A  713   8.483  10.439   8.250
   45loPI   C4A  714   8.419  10.407   7.950
   45loPI   C5A  715   8.498  10.481   7.650
   45loPI   C6A  716   8.480  10.463   7.350
   45loPI   C1B  717   8.239  10.499   8.850
   45loPI   C2B  718   8.154  10.412   8.550
   45loPI   C3B  719   8.207  10.420   8.250
   45loPI   C4B  720   8.197  10.453   7.950
   46loPI    C1  721   0.367   2.813   9.750
   46loPI    C2  722   0.293   2.777  10.050
   46loPI    C3  723   0.444   2.718  10.050
   46loPI   PO4  724   0.417   2.770   9.450
   46loPI   GL1  725   0.483   2.743   9.150
   46loPI   GL2  726   0.378   2.839   9.150
   46loPI   C1A  727   0.482   2.699   8.850
   46loPI   C2A  728   0.411   2.782   8.550
   46loPI   C3A  729   0.454   2.718   8.250
   46loPI   C4A  730   0.483   2.721   7.950
   46loPI   C5A  731   0.426   2.752   7.650
   46loPI   C6A  732   0.494   2.714   7.350
   46loPI   C1B  733   0.199   2.853   8.850
   46loPI   C2B  734   0.181   2.831   8.550
   46loPI   C3B  735   0.244   2.802   8.250
   46loPI   C4B  736   0.249   2.841   7.950
   47loPI    C1  737   3.786   9.014   9.750
   47loPI    C2  738   3.705   9.006  10.050
   47loPI    C3  739   3.677   8.902  10.050
   47loPI   PO4  740   3.647   8.923   9.450
   47loPI   GL1  741   3.668   8.932   9.150
   47loPI   GL2  742   3.789   8.960   9.150
   47loPI   C1A  743   3.662   8.863   8.850
   47loPI   C2A  744   3.649   8.885   8.550
   47loPI   C3A  745   3.669   8.919   8.250
   47loPI   C4A  746   3.674   8.943   7.950
   47loPI   C5A  747   3.659   8.900   7.650
   47loPI   C6A  748   3.656   8.847   7.350
   47loPI   C1B  749   3.834   9.048   8.850
   47loPI   C2B  750   3.818   9.028   8.550
   47loPI   C3B  751   3.803   9.108   8.250
   47loPI   C4B  752   3.884   9.114   7.950
   48loPI    C1  753   7.558   3.400   9.750
   48loPI    C2  754   7.504   3.455  10.050
   48loPI    C3  755   7.609   3.481  10.050
   48loPI   PO4  756   7.684   3.500   9.450
   48loPI   GL1  757   7.694   3.534   9.150
   48loPI   GL2  758   7.499   3.477   9.150
   48loPI   C1A  759   7.678   3.462   8.850
   48loPI   C2A  760   7.621   3.544   8.550
   48loPI   C3A  761   7.697   3.481   8.250
   48loPI   C4A  762   7.687   3.471   7.950
   48loPI   C5A  763   7.681   3.505   7.650
   48loPI   C6A  764   7.612   3.553   7.350
   48loPI   C1B  765   7.417   3.390   8.850
   48loPI   C2B  766   7.487   3.373   8.550
   48loPI   C3B  767   7.470   3.377   8.250
   48loPI   C4B  768   7.404   3.393   7.950
   49loPI    C1  769   2.781  12.819   9.750
   49loPI    C2  770   2.745  12.865  10.050
   49loPI    C3  771   2.889  12.716  10.050
   49loPI   PO4  772   2.883  12.770   9.450
   49loPI   GL1  773   2.811  12.784   9.150
   49loPI   GL2  774   2.823  12.826   9.150
   49loPI   C1A  775   2.836  12.699   8.850
   49loPI   C2A  776   2.851  12.770   8.550
   49loPI   C3A  777   2.871  12.727   8.250
   49loPI   C4A  778   2.895  12.743   7.950
   49loPI   C5A  779   2.816  12.724   7.650
   49loPI   C6A  780   2.850  12.710   7.350
   49loPI   C1B  781   2.680  12.995   8.850
   49loPI   C2B  782   2.670  12.918   8.550
   49loPI   C3B  783   2.722  12.979   8.250
   49loPI   C4B  784   2.692  12.991   7.950
   50loPI    C1  785   5.924   6.678   9.750
   50loPI    C2  786   5.928   6.688  10.050
   50loPI    C3  787   6.024   6.616  10.050
   50loPI   PO4  788   6.081   6.569   9.450
   50loPI   GL1  789   6.047   6.545   9.150
   50loPI   GL2  790   5.894   6.648   9.150
   50loPI   C1A  791   6.066   6.616   8.850
   50loPI   C2A  792   6.093   6.601   8.550
   50loPI   C3A  793   6.094   6.624   8.250
   50loPI   C4A  794   6.016   6.578   7.950
   50loPI   C5A  795   6.002   6.561   7.650
   50loPI   C6A  796   6.048   6.570   7.350
   50loPI   C1B  797   5.863   6.730   8.850
   50loPI   C2B  798   5.817   6.711   8.550
   50loPI   C3B  799   5.795   6.649   8.250
   50loPI   C4B  800   5.872   6.649   7.950
   51loPI    C1  801   5.338  17.493   9.750
   51loPI    C2  802   5.279  17.506  10.050
   51loPI    C3  803   5.289  17.315  10.050
   51loPI   PO4  804   5.231  17.387   9.450
   51loPI   GL1  805   5.284  17.380   9.150
   51loPI   GL2  806   5.349  17.448   9.150
   51loPI   C1A  807   5.286  17.310   8.850
   51loPI   C2A  808   5.287  17.383   8.550
   51loPI   C3A  809   5.202  17.357   8.250
   51loPI   C4A  810   5.231  17.400   7.950
   51loPI   C5A  811   5.209  17.364   7.650
   51loPI   C6A  812   5.292  17.318   7.350
   51loPI   C1B  813   5.391  17.601   8.850
   51loPI   C2B  814   5.399  17.569   8.550
   51loPI   C3B  815   5.397  17.580   8.250
   51loPI   C4B  816   5.413  17.534   7.950
   52loPI    C1  817   0.416  15.127   9.750
   52loPI    C2  818   0.465  15.177  10.050
   52loPI    C3  819   0.428  15.079  10.050
   52loPI   PO4  820   0.449  15.011   9.450
   52loPI   GL1  821   0.483  15.040   9.150
   52loPI   GL2  822   0.424  15.201   9.150
   52loPI   C1A  823   0.481  15.092   8.850
   52loPI   C2A  824   0.433  15.006   8.550
   52loPI   C3A  825   0.496  15.073   8.250
   52loPI   C4A  826   0.468  15.064   7.950
   52loPI   C5A  827   0.419  15.070   7.650
   52loPI   C6A  828   0.452  15.071   7.350
   52loPI   C1B  829   0.496  15.259   8.850
   52loPI   C2B  830   0.504  15.331   8.550
   52loPI   C3B  831   0.417  15.281   8.250
   52loPI   C4B  832   0.466  15.263   7.950
   53loPI    C1  833   0.533  10.506   9.750
   53loPI    C2  834   0.436  10.516  10.050
   53loPI    C3  835   0.422  10.463  10.050
   53loPI   PO4  836   0.499  10.451   9.450
   53loPI   GL1  837   0.404  10.458   9.150
   53loPI   GL2  838   0.525  10.546   9.150
   53loPI   C1A  839   0.406  10.411   8.850
   53loPI   C2A  840   0.432  10.406   8.550
   53loPI   C3A  841   0.426  10.389   8.250
   53loPI   C4A  842   0.424  10.458   7.950
   53loPI   C5A  843   0.419  10.418   7.650
   53loPI   C6A  844   0.480  10.422   7.350
   53loPI   C1B  845   0.520  10.679   8.850
   53loPI   C2B  846   0.496  10.632   8.550
   53loPI   C3B  847   0.512  10.644   8.250
   53loPI   C4B  848   0.543  10.678   7.950
   54loPI    C1  849   5.113  11.979   9.750
   54loPI    C2  850   5.088  11.940  10.050
   54loPI    C3  851   5.281  11.937  10.050
   54loPI   PO4  852   5.253  12.006   9.450
   54loPI   GL1  853   5.219  12.008   9.150
   54loPI   GL2  854   5.128  11.982   9.150
   54loPI   C1A  855   5.264  11.931   8.850
   54loPI   C2A  856   5.209  11.987   8.550
   54loPI   C3A  857   5.226  12.019   8.250
   54loPI   C4A  858   5.279  11.924   7.950
   54loPI   C5A  859   5.207  12.019   7.650
   54loPI   C6A  860   5.282  11.987   7.350
   54loPI   C1B  861   4.953  11.970   8.850
   54loPI   C2B  862   5.019  11.985   8.550
   54loPI   C3B  863   5.037  11.942   8.250
   54loPI   C4B  864   4.969  12.010   7.950
   55loPI    C1  865   5.347   8.823   9.750
   55loPI    C2  866   5.308   8.851  10.050
   55loPI    C3  867   5.259   8.911  10.050
   55loPI   PO4  868   5.277   8.897   9.450
   55loPI   GL1  869   5.269   8.904   9.150
   55loPI   GL2  870   5.326   8.830   9.150
   55loPI   C1A  871   5.274   8.882   8.850
   55loPI   C2A  872   5.269   8.931   8.550
   55loPI   C3A  873   5.251   8.855   8.250
   55loPI   C4A  874   5.203   8.918   7.950
   55loPI   C5A  875   5.295   8.876   7.650
   55loPI   C6A  876   5.276   8.856   7.350
   55loPI   C1B  877   5.426   8.708   8.850
   55loPI   C2B  878   5.424   8.754   8.550
   55loPI   C3B  879   5.424   8.748   8.250
   55loPI   C4B  880   5.430   8.735   7.950
   56loPI    C1  881   2.830   2.081   9.750
   56loPI    C2  882   2.861   2.123  10.050
   56loPI    C3  883   2.865   1.966  10.050
   56loPI   PO4  884   2.895   2.006   9.450
   56loPI   GL1  885   2.860   1.967   9.150
   56loPI   GL2  886   2.811   2.109   9.150
   56loPI   C1A  887   2.832   1.971   8.850
   56loPI   C2A  888   2.810   2.011   8.550
   56loPI   C3A  889   2.877   1.983   8.250
   56loPI   C4A  890   2.806   1.993   7.950
   56loPI   C5A  891   2.897   1.986   7.650
   56loPI   C6A  892   2.808   2.007   7.350
   56loPI   C1B  893   2.896   2.175   8.850
   56loPI   C2B  894   2.905   2.263   8.550
   56loPI   C3B  895   2.819   2.225   8.250
   56loPI   C4B  896   2.893   2.174   7.950
   57loPI    C1  897   0.464  19.049   9.750
   57loPI    C2  898   0.464  18.978  10.050
   57loPI    C3  899   0.426  18.865  10.050
   57loPI   PO4  900   0.417  18.899   9.450
   57loPI   GL1  901   0.499  18.917   9.150
   57loPI   GL2  902   0.486  18.984   9.150
   57loPI   C1A  903   0.478  18.937   8.850
   57loPI   C2A  904   0.494  18.914   8.550
   57loPI   C3A  905   0.493  18.940   8.250
   57loPI   C4A  906   0.412  18.937   7.950
   57loPI   C5A  907   0.403  18.883   7.650
   57loPI   C6A  908   0.492  18.911   7.350
   57loPI   C1B  909   0.486  19.148   8.850
   57loPI   C2B  910   0.477  19.163   8.550
   57loPI   C3B  911   0.481  19.113   8.250
   57loPI   C4B  912   0.498  19.116   7.950
   58loPI    C1  913  11.510  16.676   9.750
   58loPI    C2  914  11.514  16.656  10.050
   58loPI    C3  915  11.648  16.570  10.050
   58loPI   PO4  916  11.689  16.559   9.450
   58loPI   GL1  917  11.624  16.548   9.150
   58loPI   GL2  918  11.487  16.682   9.150
   58loPI   C1A  919  11.661  16.543   8.850
   58loPI   C2A  920  11.627  16.636   8.550
   58loPI   C3A  921  11.660  16.574   8.250
   58loPI   C4A  922  11.649  16.598   7.950
   58loPI   C5A  923  11.683  16.630   7.650
   58loPI   C6A  924  11.641  16.543   7.350
   58loPI   C1B  925  11.396  16.646   8.850
   58loPI   C2B  926  11.428  16.707   8.550
   58loPI   C3B  927  11.419  16.708   8.250
   58loPI   C4B  928  11.465  16.708   7.950
   59loPI    C1  929   2.129   1.921   9.750
   59loPI    C2  930   2.146   1.949  10.050
   59loPI    C3  931   2.064   2.007  10.050
   59loPI   PO4  932   2.037   1.935   9.450
   59loPI   GL1  933   2.068   1.990   9.150
   59loPI   GL2  934   2.148   1.891   9.150
   59loPI   C1A  935   2.019   2.011   8.850
   59loPI   C2A  936   2.083   1.985   8.550
   59loPI   C3A  937   2.020   1.989   8.250
   59loPI   C4A  938   2.037   1.989   7.950
   59loPI   C5A  939   2.014   1.936   7.650
   59loPI   C6A  940   2.038   1.944   7.350
   59loPI   C1B  941   2.235   1.920   8.850
   59loPI   C2B  942   2.274   1.858   8.550
   59loPI   C3B  943   2.249   1.849   8.250
   59loPI   C4B  944   2.304   1.903   7.950
   60loPI    C1  945   6.852  14.887   9.750
   60loPI    C2  946   6.880  14.963  10.050
   60loPI    C3  947   6.811  15.059  10.050
   60loPI   PO4  948   6.835  15.061   9.450
   60loPI   GL1  949   6.849  15.090   9.150
   60loPI   GL2  950   6.842  14.919   9.150
   60loPI   C1A  951   6.873  15.046   8.850
   60loPI   C2A  952   6.837  15.024   8.550
   60loPI   C3A  953   6.883  15.022   8.250
   60loPI   C4A  954   6.883  15.095   7.950
   60loPI   C5A  955   6.826  15.033   7.650
   60loPI   C6A  956   6.854  15.033   7.350
   60loPI   C1B  957   6.852  14.842   8.850
   60loPI   C2B  958   6.826  14.840   8.550
   60loPI   C3B  959   6.877  14.773   8.250
   60loPI   C4B  960   6.828  14.761   7.950
   61loPI    C1  961   9.342  15.079   9.750
   61loPI    C2  962   9.378  15.023  10.050
   61loPI    C3  963   9.246  15.050  10.050
   61loPI   PO4  964   9.219  15.087   9.450
   61loPI   GL1  965   9.213  15.090   9.150
   61loPI   GL2  966   9.423  15.093   9.150
   61loPI   C1A  967   9.224  15.012   8.850
   61loPI   C2A  968   9.233  15.066   8.550
   61loPI   C3A  969   9.213  15.001   8.250
   61loPI   C4A  970   9.205  15.022   7.950
   61loPI   C5A  971   9.202  15.031   7.650
   61loPI   C6A  972   9.229  15.002   7.350
   61loPI   C1B  973   9.490  15.106   8.850
   61loPI   C2B  974   9.514  15.075   8.550
   61loPI   C3B  975   9.505  15.023   8.250
   61loPI   C4B  976   9.464  15.112   7.950
   62loPI    C1  977   5.345  16.585   9.750
   62loPI    C2  978   5.394  16.587  10.050
   62loPI    C3  979   5.231  16.549  10.050
   62loPI   PO4  980   5.225  16.623   9.450
   62loPI   GL1  981   5.278  16.579   9.150
   62loPI   GL2  982   5.397  16.567   9.150
   62loPI   C1A  983   5.249  16.633   8.850
   62loPI   C2A  984   5.213  16.602   8.550
   62loPI   C3A  985   5.255  16.628   8.250
   62loPI   C4A  986   5.287  16.572   7.950
   62loPI   C5A  987   5.244  16.567   7.650
   62loPI   C6A  988   5.246  16.579   7.350
   62loPI   C1B  989   5.461  16.544   8.850
   62loPI   C2B  990   5.462  16.564   8.550
   62loPI   C3B  991   5.500  16.540   8.250
   62loPI   C4B  992   5.454  16.557   7.950
   63loPI    C1  993  10.994   0.509   9.750
   63loPI    C2  994  10.931   0.459  10.050
   63loPI    C3  995  10.807   0.472  10.050
   63loPI   PO4  996  10.873   0.425   9.450
   63loPI   GL1  997  10.890   0.450   9.150
   63loPI   GL2  998  10.953   0.482   9.150
   63loPI   C1A  999  10.879   0.461   8.850
   63loPI   C2A 1000  10.886   0.463   8.550
   63loPI   C3A 1001  10.892   0.397   8.250
   63loPI   C4A 1002  10.838   0.417   7.950
   63loPI   C5A 1003  10.845   0.413   7.650
   63loPI   C6A 1004  10.819   0.404   7.350
   63loPI   C1B 1005  11.075   0.510   8.850
   63loPI   C2B 1006  11.105   0.499   8.550
   63loPI   C3B 1007  11.079   0.565   8.250
   63loPI   C4B 1008  11.035   0.508   7.950
   64loPI    C1 1009   8.345  18.785   9.750
   64loPI    C2 1010   8.413  18.787  10.050
   64loPI    C3 1011   8.478  18.915  10.050
   64loPI   PO4 1012   8.479  18.906   9.450
   64loPI   GL1 1013   8.442  18.912   9.150
   64loPI   GL2 1014   8.381  18.758   9.150
   64loPI   C1A 1015   8.455  18.907   8.850
   64loPI   C2A 1016   8.498  18.932   8.550
   64loPI   C3A 1017   8.433  18.880   8.250
   64loPI   C4A 1018   8.478  18.904   7.950
   64loPI   C5A 1019   8.403  18.904   7.650
   64loPI   C6A 1020   8.410  18.861   7.350
   64loPI   C1B 1021   8.306  18.673   8.850
   64loPI   C2B 1022   8.346  18.633   8.550
   64loPI   C3B 1023   8.297  18.690   8.250
   64loPI   C4B 1024   8.365  18.643   7.950
   65loPI    C1 1025   6.804  14.339   9.750
   65loPI    C2 1026   6.789  14.368  10.050
   65loPI    C3 1027   6.804  14.300  10.050
   65loPI   PO4 1028   6.865  14.317   9.450
   65loPI   GL1 1029   6.863  14.268   9.150
   65loPI   GL2 1030   6.740  14.405   9.150
   65loPI   C1A 1031   6.829  14.232   8.850
   65loPI   C2A 1032   6.855  14.247   8.550
   65loPI   C3A 1033   6.871  14.293   8.250
   65loPI   C4A 1034   6.831  14.250   7.950
   65loPI   C5A 1035   6.845  14.329   7.650
   65loPI   C6A 1036   6.870  14.246   7.350
   65loPI   C1B 1037   6.761  14.484   8.850
   65loPI   C2B 1038   6.738  14.539   8.550
   65loPI   C3B 1039   6.741  14.524   8.250
   65loPI   C4B 1040   6.764  14.514   7.950
   66loPI    C1 1041   8.460   0.586   9.750
   66loPI    C2 1042   8.418   0.578  10.050
   66loPI    C3 1043   8.483   0.399  10.050
   66loPI   PO4 1044   8.414   0.447   9.450
   66loPI   GL1 1045   8.432   0.447   9.150
   66loPI   GL2 1046   8.472   0.605   9.150
   66loPI   C1A 1047   8.470   0.396   8.850
   66loPI   C2A 1048   8.414   0.469   8.550
   66loPI   C3A 1049   8.483   0.460   8.250
   66loPI   C4A 1050   8.443   0.420   7.950
   66loPI   C5A 1051   8.487   0.456   7.650
   66loPI   C6A 1052   8.471   0.461   7.350
   66loPI   C1B 1053   8.427   0.702   8.850
   66loPI   C2B 1054   8.442   0.665   8.550
   66loPI   C3B 1055   8.414   0.686   8.250
   66loPI   C4B 1056   8.375   0.663   7.950
   67loPI    C1 1057   6.065  13.618   9.750
   67loPI    C2 1058   6.005  13.585  10.050
   67loPI    C3 1059   6.042  13.542  10.050
   67loPI   PO4 1060   6.044  13.540   9.450
   67loPI   GL1 1061   6.085  13.536   9.150
   67loPI   GL2 1062   6.011  13.593   9.150
   67loPI   C1A 1063   6.062  13.561   8.850
   67loPI   C2A 1064   6.086  13.560   8.550
   67loPI   C3A 1065   6.091  13.540   8.250
   67loPI   C4A 1066   6.013  13.527   7.950
   67loPI   C5A 1067   6.059  13.538   7.650
   67loPI   C6A 1068   6.038  13.556   7.350
   67loPI   C1B 1069   5.969  13.789   8.850
   67loPI   C2B 1070   6.040  13.759   8.550
   67loPI   C3B 1071   5.954  13.776   8.250
   67loPI   C4B 1072   6.006  13.770   7.950
   68loPI    C1 1073   1.346  14.293   9.750
   68loPI    C2 1074   1.311  14.365  10.050
   68loPI    C3 1075   1.238  14.303  10.050
   68loPI   PO4 1076   1.264  14.234   9.450
   68loPI   GL1 1077   1.246  14.287   9.150
   68loPI   GL2 1078   1.326  14.340   9.150
   68loPI   C1A 1079   1.213  14.286   8.850
   68loPI   C2A 1080   1.250  14.315   8.550
   68loPI   C3A 1081   1.261  14.288   8.250
   68loPI   C4A 1082   1.214  14.281   7.950
   68loPI   C5A 1083   1.296  14.236   7.650
   68loPI   C6A 1084   1.221  14.240   7.350
   68loPI   C1B 1085   1.444  14.431   8.850
   68loPI   C2B 1086   1.476  14.374   8.550
   68loPI   C3B 1087   1.462  14.393   8.250
   68loPI   C4B 1088   1.437  14.356   7.950
   69loPI    C1 1089   6.058   8.791   9.750
   69loPI    C2 1090   6.086   8.810  10.050
   69loPI    C3 1091   6.060   8.940  10.050
   69loPI   PO4 1092   6.097   8.888   9.450
   69loPI   GL1 1093   6.072   8.898   9.150
   69loPI   GL2 1094   6.023   8.813   9.150
   69loPI   C1A 1095   6.007   8.851   8.850
   69loPI   C2A 1096   6.029   8.852   8.550
   69loPI   C3A 1097   6.090   8.932   8.250
   69loPI   C4A 1098   6.070   8.850   7.950
   69loPI   C5A 1099   6.084   8.874   7.650
   69loPI   C6A 1100   6.065   8.928   7.350
   69loPI   C1B 1101   6.065   8.610   8.850
   69loPI   C2B 1102   6.024   8.629   8.550
   69loPI   C3B 1103   6.021   8.682   8.250
   69loPI   C4B 1104   6.079   8.616   7.950
   70loPI    C1 1105   1.112   8.770   9.750
   70loPI    C2 1106   1.134   8.768  10.050
   70loPI    C3 1107   1.214   8.884  10.050
   70loPI   PO4 1108   1.263   8.848   9.450
   70loPI   GL1 1109   1.271   8.939   9.150
   70loPI   GL2 1110   1.209   8.760   9.150
   70loPI   C1A 1111   1.256   8.893   8.850
   70loPI   C2A 1112   1.219   8.924   8.550
   70loPI   C3A 1113   1.233   8.878   8.250
   70loPI   C4A 1114   1.299   8.911   7.950
   70loPI   C5A 1115   1.233   8.875   7.650
   70loPI   C6A 1116   1.204   8.860   7.350
   70loPI   C1B 1117   1.087   8.698   8.850
   70loPI   C2B 1118   1.054   8.695   8.550
   70loPI   C3B 1119   1.100   8.711   8.250
   70loPI   C4B 1120   1.048   8.749   7.950
   71loPI    C1 1121   2.145  11.890   9.750
   71loPI    C2 1122   2.145  11.876  10.050
   71loPI    C3 1123   2.012  11.964  10.050
   71loPI   PO4 1124   2.050  11.999   9.450
   71loPI   GL1 1125   2.088  11.937   9.150
   71loPI   GL2 1126   2.117  11.839   9.150
   71loPI   C1A 1127   2.037  12.008   8.850
   71loPI   C2A 1128   2.032  11.973   8.550
   71loPI   C3A 1129   2.068  11.966   8.250
   71loPI   C4A 1130   2.038  11.997   7.950
   71loPI   C5A 1131   2.003  11.952   7.650
   71loPI   C6A 1132   2.014  11.950   7.350
   71loPI   C1B 1133   2.177  11.777   8.850
   71loPI   C2B 1134   2.205  11.735   8.550
   71loPI   C3B 1135   2.134  11.782   8.250
   71loPI   C4B 1136   2.204  11.740   7.950
   72loPI    C1 1137   1.197   5.900   9.750
   72loPI    C2 1138   1.255   5.903  10.050
   72loPI    C3 1139   1.266   5.804  10.050
   72loPI   PO4 1140   1.293   5.852   9.450
   72loPI   GL1 1141   1.240   5.774   9.150
   72loPI   GL2 1142   1.256   5.982   9.150
   72loPI   C1A 1143   1.238   5.799   8.850
   72loPI   C2A 1144   1.201   5.770   8.550
   72loPI   C3A 1145   1.202   5.831   8.250
   72loPI   C4A 1146   1.245   5.785   7.950
   72loPI   C5A 1147   1.279   5.866   7.650
   72loPI   C6A 1148   1.253   5.858   7.350
   72loPI   C1B 1149   1.259   6.046   8.850
   72loPI   C2B 1150   1.184   6.062   8.550
   72loPI   C3B 1151   1.185   6.044   8.250
   72loPI   C4B 1152   1.201   6.061   7.950
   73loPI    C1 1153   6.835   7.240   9.750
   73loPI    C2 1154   6.816   7.237  10.050
   73loPI    C3 1155   6.875   7.311  10.050
   73loPI   PO4 1156   6.830   7.385   9.450
   73loPI   GL1 1157   6.833   7.372   9.150
   73loPI   GL2 1158   6.782   7.221   9.150
   73loPI   C1A 1159   6.851   7.323   8.850
   73loPI   C2A 1160   6.835   7.326   8.550
   73loPI   C3A 1161   6.823   7.394   8.250
   73loPI   C4A 1162   6.856   7.389   7.950
   73loPI   C5A 1163   6.820   7.316   7.650
   73loPI   C6A 1164   6.840   7.342   7.350
   73loPI   C1B 1165   6.803   7.101   8.850
   73loPI   C2B 1166   6.826   7.104   8.550
   73loPI   C3B 1167   6.784   7.107   8.250
   73loPI   C4B 1168   6.832   7.086   7.950
   74loPI    C1 1169  10.951   9.022   9.750
   74loPI    C2 1170  10.922   9.029  10.050
   74loPI    C3 1171  10.886   8.922  10.050
   74loPI   PO4 1172  10.897   8.868   9.450
   74loPI   GL1 1173  10.835   8.864   9.150
   74loPI   GL2 1174  10.963   8.980   9.150
   74loPI   C1A 1175  10.881   8.933   8.850
   74loPI   C2A 1176  10.879   8.941   8.550
   74loPI   C3A 1177  10.829   8.869   8.250
   74loPI   C4A 1178  10.833   8.912   7.950
   74loPI   C5A 1179  10.891   8.941   7.650
   74loPI   C6A 1180  10.809   8.888   7.350
   74loPI   C1B 1181  11.015   9.090   8.850
   74loPI   C2B 1182  11.011   9.064   8.550
   74loPI   C3B 1183  11.007   9.055   8.250
   74loPI   C4B 1184  11.041   9.122   7.950
   75loPI    C1 1185   0.447  18.250   9.750
   75loPI    C2 1186   0.407  18.244  10.050
   75loPI    C3 1187   0.497  18.123  10.050
   75loPI   PO4 1188   0.465  18.166   9.450
   75loPI   GL1 1189   0.446  18.111   9.150
   75loPI   GL2 1190   0.436  18.287   9.150
   75loPI   C1A 1191   0.478  18.133   8.850
   75loPI   C2A 1192   0.494  18.093   8.550
   75loPI   C3A 1193   0.498  18.077   8.250
   75loPI   C4A 1194   0.494  18.107   7.950
   75loPI   C5A 1195   0.438  18.134   7.650
   75loPI   C6A 1196   0.446  18.153   7.350
   75loPI   C1B 1197   0.361  18.377   8.850
   75loPI   C2B 1198   0.356  18.316   8.550
   75loPI   C3B 1199   0.381  18.377   8.250
   75loPI   C4B 1200   0.401  18.358   7.950
   76loPI    C1 1201   3.752   4.349   9.750
   76loPI    C2 1202   3.764   4.359  10.050
   76loPI    C3 1203   3.662   4.304  10.050
   76loPI   PO4 1204   3.670   4.296   9.450
   76loPI   GL1 1205   3.671   4.266   9.150
   76loPI   GL2 1206   3.738   4.277   9.150
   76loPI   C1A 1207   3.645   4.296   8.850
   76loPI   C2A 1208   3.686   4.313   8.550
   76loPI   C3A 1209   3.631   4.283   8.250
   76loPI   C4A 1210   3.616   4.317   7.950
   76loPI   C5A 1211   3.630   4.282   7.650
   76loPI   C6A 1212   3.650   4.267   7.350
   76loPI   C1B 1213   3.858   4.323   8.850
   76loPI   C2B 1214   3.936   4.317   8.550
   76loPI   C3B 1215   3.907   4.390   8.250
   76loPI   C4B 1216   3.901   4.395   7.950
   77loPI    C1 1217  10.138  16.556   9.750
   77loPI    C2 1218  10.151  16.542  10.050
   77loPI    C3 1219  10.056  16.549  10.050
   77loPI   PO4 1220  10.022  16.607   9.450
   77loPI   GL1 1221  10.043  16.621   9.150
   77loPI   GL2 1222  10.184  16.580   9.150
   77loPI   C1A 1223  10.082  16.571   8.850
   77loPI   C2A 1224  10.078  16.610   8.550
   77loPI   C3A 1225  10.022  16.620   8.250
   77loPI   C4A 1226  10.043  16.573   7.950
   77loPI   C5A 1227  10.010  16.618   7.650
   77loPI   C6A 1228  10.085  16.551   7.350
   77loPI   C1B 1229  10.243  16.436   8.850
   77loPI   C2B 1230  10.278  16.445   8.550
   77loPI   C3B 1231  10.313  16.482   8.250
   77loPI   C4B 1232  10.271  16.458   7.950
   78loPI    C1 1233  11.809   8.862   9.750
   78loPI    C2 1234  11.779   8.878  10.050
   78loPI    C3 1235  11.619   8.884  10.050
   78loPI   PO4 1236  11.653   8.881   9.450
   78loPI   GL1 1237  11.686   8.881   9.150
   78loPI   GL2 1238  11.774   8.865   9.150
   78loPI   C1A 1239  11.682   8.928   8.850
   78loPI   C2A 1240  11.609   8.930   8.550
   78loPI   C3A 1241  11.637   8.916   8.250
   78loPI   C4A 1242  11.636   8.924   7.950
   78loPI   C5A 1243  11.638   8.900   7.650
   78loPI   C6A 1244  11.650   8.909   7.350
   78loPI   C1B 1245  11.873   8.917   8.850
   78loPI   C2B 1246  11.931   8.900   8.550
   78loPI   C3B 1247  11.855   8.928   8.250
   78loPI   C4B 1248  11.901   8.954   7.950
   79loPI    C1 1249   9.938  15.772   9.750
   79loPI    C2 1250   9.898  15.759  10.050
   79loPI    C3 1251  10.024  15.847  10.050
   79loPI   PO4 1252  10.002  15.792   9.450
   79loPI   GL1 1253  10.005  15.850   9.150
   79loPI   GL2 1254   9.934  15.779   9.150
   79loPI   C1A 1255  10.030  15.794   8.850
   79loPI   C2A 1256  10.030  15.808   8.550
   79loPI   C3A 1257  10.040  15.866   8.250
   79loPI   C4A 1258  10.086  15.782   7.950
   79loPI   C5A 1259  10.008  15.784   7.650
   79loPI   C6A 1260  10.045  15.821   7.350
   79loPI   C1B 1261   9.797  15.753   8.850
   79loPI   C2B 1262   9.829  15.715   8.550
   79loPI   C3B 1263   9.807  15.719   8.250
   79loPI   C4B 1264   9.794  15.754   7.950
   80loPI    C1 1265   9.290  14.393   9.750
   80loPI    C2 1266   9.264  14.431  10.050
   80loPI    C3 1267   9.242  14.255  10.050
   80loPI   PO4 1268   9.287  14.278   9.450
   80loPI   GL1 1269   9.215  14.239   9.150
   80loPI   GL2 1270   9.315  14.367   9.150
   80loPI   C1A 1271   9.277  14.251   8.850
   80loPI   C2A 1272   9.256  14.233   8.550
   80loPI   C3A 1273   9.213  14.326   8.250
   80loPI   C4A 1274   9.233  14.313   7.950
   80loPI   C5A 1275   9.213  14.295   7.650
   80loPI   C6A 1276   9.238  14.285   7.350
   80loPI   C1B 1277   9.358  14.484   8.850
   80loPI   C2B 1278   9.366  14.560   8.550
   80loPI   C3B 1279   9.379  14.533   8.250
   80loPI   C4B 1280   9.380  14.491   7.950
   81loPI    C1 1281   8.510   1.892   9.750
   81loPI    C2 1282   8.534   1.843  10.050
   81loPI    C3 1283   8.475   1.968  10.050
   81loPI   PO4 1284   8.458   2.017   9.450
   81loPI   GL1 1285   8.434   2.018   9.150
   81loPI   GL2 1286   8.576   1.932   9.150
   81loPI   C1A 1287   8.419   1.967   8.850
   81loPI   C2A 1288   8.436   1.961   8.550
   81loPI   C3A 1289   8.486   2.009   8.250
   81loPI   C4A 1290   8.428   2.012   7.950
   81loPI   C5A 1291   8.481   1.961   7.650
   81loPI   C6A 1292   8.487   2.002   7.350
   81loPI   C1B 1293   8.645   1.797   8.850
   81loPI   C2B 1294   8.627   1.784   8.550
   81loPI   C3B 1295   8.601   1.831   8.250
   81loPI   C4B 1296   8.573   1.752   7.950
   82loPI    C1 1297   1.313  13.664   9.750
   82loPI    C2 1298   1.237  13.681  10.050
   82loPI    C3 1299   1.279  13.474  10.050
   82loPI   PO4 1300   1.263  13.497   9.450
   82loPI   GL1 1301   1.282  13.523   9.150
   82loPI   GL2 1302   1.285  13.667   9.150
   82loPI   C1A 1303   1.237  13.554   8.850
   82loPI   C2A 1304   1.210  13.510   8.550
   82loPI   C3A 1305   1.228  13.551   8.250
   82loPI   C4A 1306   1.284  13.526   7.950
   82loPI   C5A 1307   1.288  13.502   7.650
   82loPI   C6A 1308   1.256  13.479   7.350
   82loPI   C1B 1309   1.260  13.709   8.850
   82loPI   C2B 1310   1.338  13.715   8.550
   82loPI   C3B 1311   1.334  13.739   8.250
   82loPI   C4B 1312   1.257  13.783   7.950
   83loPI    C1 1313   9.141   8.872   9.750
   83loPI    C2 1314   9.089   8.871  10.050
   83loPI    C3 1315   9.292   8.923  10.050
   83loPI   PO4 1316   9.251   8.852   9.450
   83loPI   GL1 1317   9.218   8.910   9.150
   83loPI   GL2 1318   9.114   8.856   9.150
   83loPI   C1A 1319   9.239   8.852   8.850
   83loPI   C2A 1320   9.211   8.900   8.550
   83loPI   C3A 1321   9.230   8.940   8.250
   83loPI   C4A 1322   9.297   8.859   7.950
   83loPI   C5A 1323   9.286   8.876   7.650
   83loPI   C6A 1324   9.208   8.931   7.350
   83loPI   C1B 1325   8.970   8.859   8.850
   83loPI   C2B 1326   8.980   8.808   8.550
   83loPI   C3B 1327   9.000   8.792   8.250
   83loPI   C4B 1328   9.050   8.828   7.950
   84loPI    C1 1329   6.969  18.115   9.750
   84loPI    C2 1330   6.964  18.162  10.050
   84loPI    C3 1331   6.853  18.140  10.050
   84loPI   PO4 1332   6.874  18.129   9.450
   84loPI   GL1 1333   6.899  18.101   9.150
   84loPI   GL2 1334   7.017  18.124   9.150
   84loPI   C1A 1335   6.823  18.175   8.850
   84loPI   C2A 1336   6.885  18.111   8.550
   84loPI   C3A 1337   6.867  18.086   8.250
   84loPI   C4A 1338   6.809  18.136   7.950
   84loPI   C5A 1339   6.888  18.094   7.650
   84loPI   C6A 1340   6.888  18.169   7.350
   84loPI   C1B 1341   7.056  18.240   8.850
   84loPI   C2B 1342   7.053  18.215   8.550
   84loPI   C3B 1343   7.064  18.173   8.250
   84loPI   C4B 1344   7.055  18.207   7.950
   85loPI    C1 1345   0.350  16.694   9.750
   85loPI    C2 1346   0.401  16.657  10.050
   85loPI    C3 1347   0.484  16.601  10.050
   85loPI   PO4 1348   0.462  16.549   9.450
   85loPI   GL1 1349   0.407  16.560   9.150
   85loPI   GL2 1350   0.378  16.676   9.150
   85loPI   C1A 1351   0.499  16.557   8.850
   85loPI   C2A 1352   0.425  16.577   8.550
   85loPI   C3A 1353   0.486  16.570   8.250
   85loPI   C4A 1354   0.442  16.582   7.950
   85loPI   C5A 1355   0.459  16.596   7.650
   85loPI   C6A 1356   0.463  16.597   7.350
   85loPI   C1B 1357   0.266  16.765   8.850
   85loPI   C2B 1358   0.312  16.755   8.550
   85loPI   C3B 1359   0.229  16.782   8.250
   85loPI   C4B 1360   0.279  16.791   7.950
   86loPI    C1 1361   4.434   9.541   9.750
   86loPI    C2 1362   4.398   9.518  10.050
   86loPI    C3 1363   4.469   9.675  10.050
   86loPI   PO4 1364   4.468   9.616   9.450
   86loPI   GL1 1365   4.421   9.686   9.150
   86loPI   GL2 1366   4.488   9.536   9.150
   86loPI   C1A 1367   4.481   9.662   8.850
   86loPI   C2A 1368   4.497   9.688   8.550
   86loPI   C3A 1369   4.461   9.707   8.250
   86loPI   C4A 1370   4.495   9.680   7.950
   86loPI   C5A 1371   4.476   9.637   7.650
   86loPI   C6A 1372   4.478   9.707   7.350
   86loPI   C1B 1373   4.427   9.369   8.850
   86loPI   C2B 1374   4.394   9.367   8.550
   86loPI   C3B 1375   4.446   9.415   8.250
   86loPI   C4B 1376   4.439   9.370   7.950
   87loPI    C1 1377   0.527   5.719   9.750
   87loPI    C2 1378   0.537   5.706  10.050
   87loPI    C3 1379   0.437   5.817  10.050
   87loPI   PO4 1380   0.407   5.850   9.450
   87loPI   GL1 1381   0.487   5.821   9.150
   87loPI   GL2 1382   0.468   5.693   9.150
   87loPI   C1A 1383   0.491   5.845   8.850
   87loPI   C2A 1384   0.500   5.860   8.550
   87loPI   C3A 1385   0.484   5.773   8.250
   87loPI   C4A 1386   0.462   5.822   7.950
   87loPI   C5A 1387   0.428   5.788   7.650
   87loPI   C6A 1388   0.495   5.787   7.350
   87loPI   C1B 1389   0.578   5.597   8.850
   87loPI   C2B 1390   0.604   5.584   8.550
   87loPI   C3B 1391   0.561   5.631   8.250
   87loPI   C4B 1392   0.607   5.629   7.950
   88loPI    C1 1393   9.283  18.205   9.750
   88loPI    C2 1394   9.220  18.244  10.050
   88loPI    C3 1395   9.237  18.104  10.050
   88loPI   PO4 1396   9.207  18.157   9.450
   88loPI   GL1 1397   9.285  18.085   9.150
   88loPI   GL2 1398   9.193  18.230   9.150
   88loPI   C1A 1399   9.290  18.117   8.850
   88loPI   C2A 1400   9.245  18.169   8.550
   88loPI   C3A 1401   9.289  18.127   8.250
   88loPI   C4A 1402   9.213  18.146   7.950
   88loPI   C5A 1403   9.259  18.147   7.650
   88loPI   C6A 1404   9.292  18.095   7.350
   88loPI   C1B 1405   9.231  18.330   8.850
   88loPI   C2B 1406   9.209  18.345   8.550
   88loPI   C3B 1407   9.190  18.333   8.250
   88loPI   C4B 1408   9.179  18.376   7.950
   89loPI    C1 1409   6.718   2.730   9.750
   89loPI    C2 1410   6.764   2.735  10.050
   89loPI    C3 1411   6.815   2.712  10.050
   89loPI   PO4 1412   6.847   2.748   9.450
   89loPI   GL1 1413   6.864   2.745   9.150
   89loPI   GL2 1414   6.679   2.740   9.150
   89loPI   C1A 1415   6.821   2.702   8.850
   89loPI   C2A 1416   6.828   2.749   8.550
   89loPI   C3A 1417   6.900   2.741   8.250
   89loPI   C4A 1418   6.830   2.746   7.950
   89loPI   C5A 1419   6.822   2.719   7.650
   89loPI   C6A 1420   6.811   2.791   7.350
   89loPI   C1B 1421   6.581   2.706   8.850
   89loPI   C2B 1422   6.562   2.709   8.550
   89loPI   C3B 1423   6.614   2.664   8.250
   89loPI   C4B 1424   6.639   2.638   7.950
   90loPI    C1 1425   8.333  11.316   9.750
   90loPI    C2 1426   8.321  11.296  10.050
   90loPI    C3 1427   8.488  11.197  10.050
   90loPI   PO4 1428   8.460  11.166   9.450
   90loPI   GL1 1429   8.477  11.160   9.150
   90loPI   GL2 1430   8.324  11.317   9.150
   90loPI   C1A 1431   8.410  11.156   8.850
   90loPI   C2A 1432   8.485  11.215   8.550
   90loPI   C3A 1433   8.461  11.228   8.250
   90loPI   C4A 1434   8.498  11.164   7.950
   90loPI   C5A 1435   8.424  11.249   7.650
   90loPI   C6A 1436   8.449  11.197   7.350
   90loPI   C1B 1437   8.281  11.351   8.850
   90loPI   C2B 1438   8.243  11.371   8.550
   90loPI   C3B 1439   8.312  11.338   8.250
   90loPI   C4B 1440   8.257  11.399   7.950
   91loPI    C1 1441   5.349  14.308   9.750
   91loPI    C2 1442   5.415  14.286  10.050
   91loPI    C3 1443   5.260  14.243  10.050
   91loPI   PO4 1444   5.228  14.296   9.450
   91loPI   GL1 1445   5.266  14.297   9.150
   91loPI   GL2 1446   5.346  14.280   9.150
   91loPI   C1A 1447   5.227  14.272   8.850
   91loPI   C2A 1448   5.292  14.306   8.550
   91loPI   C3A 1449   5.290  14.280   8.250
   91loPI   C4A 1450   5.212  14.239   7.950
   91loPI   C5A 1451   5.290  14.257   7.650
   91loPI   C6A 1452   5.259  14.297   7.350
   91loPI   C1B 1453   5.530  14.254   8.850
   91loPI   C2B 1454   5.549  14.295   8.550
   91loPI   C3B 1455   5.492  14.325   8.250
   91loPI   C4B 1456   5.526  14.320   7.950
   92loPI    C1 1457  11.615   6.469   9.750
   92loPI    C2 1458  11.678   6.444  10.050
   92loPI    C3 1459  11.620   6.572  10.050
   92loPI   PO4 1460  11.600   6.634   9.450
   92loPI   GL1 1461  11.607   6.607   9.150
   92loPI   GL2 1462  11.679   6.493   9.150
   92loPI   C1A 1463  11.699   6.545   8.850
   92loPI   C2A 1464  11.627   6.606   8.550
   92loPI   C3A 1465  11.634   6.574   8.250
   92loPI   C4A 1466  11.654   6.603   7.950
   92loPI   C5A 1467  11.689   6.588   7.650
   92loPI   C6A 1468  11.648   6.598   7.350
   92loPI   C1B 1469  11.664   6.366   8.850
   92loPI   C2B 1470  11.667   6.351   8.550
   92loPI   C3B 1471  11.708   6.357   8.250
   92loPI   C4B 1472  11.660   6.330   7.950
   93loPI    C1 1473   4.349   1.129   9.750
   93loPI    C2 1474   4.397   1.082  10.050
   93loPI    C3 1475   4.406   1.229  10.050
   93loPI   PO4 1476   4.435   1.234   9.450
   93loPI   GL1 1477   4.412   1.213   9.150
   93loPI   GL2 1478   4.318   1.089   9.150
   93loPI   C1A 1479   4.449   1.228   8.850
   93loPI   C2A 1480   4.401   1.183   8.550
   93loPI   C3A 1481   4.434   1.173   8.250
   93loPI   C4A 1482   4.422   1.165   7.950
   93loPI   C5A 1483   4.432   1.193   7.650
   93loPI   C6A 1484   4.475   1.253   7.350
   93loPI   C1B 1485   4.226   1.018   8.850
   93loPI   C2B 1486   4.280   1.059   8.550
   93loPI   C3B 1487   4.288   0.989   8.250
   93loPI   C4B 1488   4.306   1.019   7.950
   94loPI    C1 1489   3.768  16.525   9.750
   94loPI    C2 1490   3.804  16.486  10.050
   94loPI    C3 1491   3.683  16.619  10.050
   94loPI   PO4 1492   3.670  16.627   9.450
   94loPI   GL1 1493   3.682  16.573   9.150
   94loPI   GL2 1494   3.764  16.532   9.150
   94loPI   C1A 1495   3.670  16.573   8.850
   94loPI   C2A 1496   3.673  16.628   8.550
   94loPI   C3A 1497   3.638  16.567   8.250
   94loPI   C4A 1498   3.663  16.579   7.950
   94loPI   C5A 1499   3.630  16.596   7.650
   94loPI   C6A 1500   3.683  16.552   7.350
   94loPI   C1B 1501   3.911  16.486   8.850
   94loPI   C2B 1502   3.885  16.484   8.550
   94loPI   C3B 1503   3.852  16.466   8.250
   94loPI   C4B 1504   3.848  16.426   7.950
   95loPI    C1 1505  10.981   1.925   9.750
   95loPI    C2 1506  10.897   1.909  10.050
   95loPI    C3 1507  10.822   2.017  10.050
   95loPI   PO4 1508  10.826   2.014   9.450
   95loPI   GL1 1509  10.841   1.961   9.150
   95loPI   GL2 1510  10.953   1.935   9.150
   95loPI   C1A 1511  10.859   1.983   8.850
   95loPI   C2A 1512  10.880   1.973   8.550
   95loPI   C3A 1513  10.853   2.015   8.250
   95loPI   C4A 1514  10.825   2.001   7.950
   95loPI   C5A 1515  10.800   1.980   7.650
   95loPI   C6A 1516  10.833   1.926   7.350
   95loPI   C1B 1517  10.997   1.817   8.850
   95loPI   C2B 1518  11.067   1.819   8.550
   95loPI   C3B 1519  11.070   1.848   8.250
   95loPI   C4B 1520  11.054   1.764   7.950
   96loPI    C1 1521  10.046   5.662   9.750
   96loPI    C2 1522  10.034   5.675  10.050
   96loPI    C3 1523  10.095   5.847  10.050
   96loPI   PO4 1524  10.035   5.798   9.450
   96loPI   GL1 1525  10.074   5.834   9.150
   96loPI   GL2 1526  10.070   5.747   9.150
   96loPI   C1A 1527  10.089   5.815   8.850
   96loPI   C2A 1528  10.070   5.866   8.550
   96loPI   C3A 1529  10.059   5.841   8.250
   96loPI   C4A 1530  10.008   5.771   7.950
   96loPI   C5A 1531  10.042   5.772   7.650
   96loPI   C6A 1532  10.087   5.840   7.350
   96loPI   C1B 1533  10.046   5.589   8.850
   96loPI   C2B 1534  10.031   5.596   8.550
   96loPI   C3B 1535  10.023   5.605   8.250
   96loPI   C4B 1536  10.033   5.596   7.950
   97loPI    C1 1537   3.659   5.710   9.750
   97loPI    C2 1538   3.670   5.694  10.050
   97loPI    C3 1539   3.658   5.833  10.050
   97loPI   PO4 1540   3.640   5.787   9.450
   97loPI   GL1 1541   3.602   5.849   9.150
   97loPI   GL2 1542   3.702   5.722   9.150
   97loPI   C1A 1543   3.665   5.844   8.850
   97loPI   C2A 1544   3.664   5.799   8.550
   97loPI   C3A 1545   3.619   5.863   8.250
   97loPI   C4A 1546   3.670   5.864   7.950
   97loPI   C5A 1547   3.692   5.846   7.650
   97loPI   C6A 1548   3.615   5.816   7.350
   97loPI   C1B 1549   3.653   5.617   8.850
   97loPI   C2B 1550   3.704   5.573   8.550
   97loPI   C3B 1551   3.700   5.534   8.250
   97loPI   C4B 1552   3.676   5.554   7.950
   98loPI    C1 1553   4.523   5.057   9.750
   98loPI    C2 1554   4.589   5.116  10.050
   98loPI    C3 1555   4.476   5.060  10.050
   98loPI   PO4 1556   4.494   5.067   9.450
   98loPI   GL1 1557   4.451   5.012   9.150
   98loPI   GL2 1558   4.530   5.122   9.150
   98loPI   C1A 1559   4.417   5.096   8.850
   98loPI   C2A 1560   4.427   5.028   8.550
   98loPI   C3A 1561   4.401   5.008   8.250
   98loPI   C4A 1562   4.431   5.098   7.950
   98loPI   C5A 1563   4.476   5.049   7.650
   98loPI   C6A 1564   4.433   5.008   7.350
   98loPI   C1B 1565   4.679   5.156   8.850
   98loPI   C2B 1566   4.732   5.132   8.550
   98loPI   C3B 1567   4.685   5.101   8.250
   98loPI   C4B 1568   4.663   5.158   7.950
   99loPI    C1 1569   1.106   1.275   9.750
   99loPI    C2 1570   1.154   1.268  10.050
   99loPI    C3 1571   1.267   1.243  10.050
   99loPI   PO4 1572   1.204   1.243   9.450
   99loPI   GL1 1573   1.264   1.180   9.150
   99loPI   GL2 1574   1.147   1.273   9.150
   99loPI   C1A 1575   1.220   1.222   8.850
   99loPI   C2A 1576   1.234   1.240   8.550
   99loPI   C3A 1577   1.204   1.157   8.250
   99loPI   C4A 1578   1.206   1.216   7.950
   99loPI   C5A 1579   1.297   1.249   7.650
   99loPI   C6A 1580   1.276   1.214   7.350
   99loPI   C1B 1581   1.073   1.272   8.850
   99loPI   C2B 1582   1.023   1.304   8.550
   99loPI   C3B 1583   0.984   1.295   8.250
   99loPI   C4B 1584   1.066   1.313   7.950
  100loPI    C1 1585   3.625  14.387   9.750
  100loPI    C2 1586   3.593  14.412  10.050
  100loPI    C3 1587   3.658  14.329  10.050
  100loPI   PO4 1588   3.687  14.294   9.450
  100loPI   GL1 1589   3.641  14.237   9.150
  100loPI   GL2 1590   3.605  14.360   9.150
  100loPI   C1A 1591   3.698  14.255   8.850
  100loPI   C2A 1592   3.645  14.312   8.550
  100loPI   C3A 1593   3.661  14.265   8.250
  100loPI   C4A 1594   3.666  14.288   7.950
  100loPI   C5A 1595   3.622  14.300   7.650
  100loPI   C6A 1596   3.614  14.266   7.350
  100loPI   C1B 1597   3.571  14.498   8.850
  100loPI   C2B 1598   3.604  14.507   8.550
  100loPI   C3B 1599   3.591  14.531   8.250
  100loPI   C4B 1600   3.561  14.574   7.950
  101loPI    C1 1601   3.569  10.378   9.750
  101loPI    C2 1602   3.571  10.455  10.050
  101loPI    C3 1603   3.615  10.412  10.050
  101loPI   PO4 1604   3.689  10.423   9.450
  101loPI   GL1 1605   3.659  10.469   9.150
  101loPI   GL2 1606   3.535  10.450   9.150
  101loPI   C1A 1607   3.638  10.442   8.850
  101loPI   C2A 1608   3.613  10.439   8.550
  101loPI   C3A 1609   3.661  10.412   8.250
  101loPI   C4A 1610   3.648  10.393   7.950
  101loPI   C5A 1611   3.643  10.399   7.650
  101loPI   C6A 1612   3.610  10.442   7.350
  101loPI   C1B 1613   3.373  10.362   8.850
  101loPI   C2B 1614   3.353  10.363   8.550
  101loPI   C3B 1615   3.387  10.440   8.250
  101loPI   C4B 1616   3.387  10.417   7.950
  102loPI    C1 1617   7.643   8.972   9.750
  102loPI    C2 1618   7.634   8.981  10.050
  102loPI    C3 1619   7.629   8.939  10.050
  102loPI   PO4 1620   7.699   8.928   9.450
  102loPI   GL1 1621   7.658   8.893   9.150
  102loPI   GL2 1622   7.639   9.041   9.150
  102loPI   C1A 1623   7.610   8.887   8.850
  102loPI   C2A 1624   7.608   8.924   8.550
  102loPI   C3A 1625   7.654   8.870   8.250
  102loPI   C4A 1626   7.678   8.856   7.950
  102loPI   C5A 1627   7.650   8.875   7.650
  102loPI   C6A 1628   7.694   8.926   7.350
  102loPI   C1B 1629   7.603   9.094   8.850
  102loPI   C2B 1630   7.588   9.103   8.550
  102loPI   C3B 1631   7.604   9.157   8.250
  102loPI   C4B 1632   7.618   9.116   7.950
  103loPI    C1 1633   1.177  12.116   9.750
  103loPI    C2 1634   1.233  12.083  10.050
  103loPI    C3 1635   1.250  12.005  10.050
  103loPI   PO4 1636   1.241  11.955   9.450
  103loPI   GL1 1637   1.214  12.005   9.150
  103loPI   GL2 1638   1.223  12.048   9.150
  103loPI   C1A 1639   1.234  11.956   8.850
  103loPI   C2A 1640   1.263  11.962   8.550
  103loPI   C3A 1641   1.226  11.934   8.250
  103loPI   C4A 1642   1.284  11.972   7.950
  103loPI   C5A 1643   1.229  12.010   7.650
  103loPI   C6A 1644   1.224  12.015   7.350
  103loPI   C1B 1645   1.153  12.170   8.850
  103loPI   C2B 1646   1.223  12.241   8.550
  103loPI   C3B 1647   1.188  12.215   8.250
  103loPI   C4B 1648   1.129  12.227   7.950
  104loPI    C1 1649   5.345   4.175   9.750
  104loPI    C2 1650   5.330   4.202  10.050
  104loPI    C3 1651   5.278   4.241  10.050
  104loPI   PO4 1652   5.212   4.249   9.450
  104loPI   GL1 1653   5.300   4.327   9.150
  104loPI   GL2 1654   5.347   4.236   9.150
  104loPI   C1A 1655   5.236   4.308   8.850
  104loPI   C2A 1656   5.221   4.282   8.550
  104loPI   C3A 1657   5.215   4.236   8.250
  104loPI   C4A 1658   5.247   4.316   7.950
  104loPI   C5A 1659   5.233   4.265   7.650
  104loPI   C6A 1660   5.212   4.249   7.350
  104loPI   C1B 1661   5.423   4.094   8.850
  104loPI   C2B 1662   5.442   4.078   8.550
  104loPI   C3B 1663   5.396   4.112   8.250
  104loPI   C4B 1664   5.377   4.064   7.950
  105loPI    C1 1665   2.980  18.118   9.750
  105loPI    C2 1666   2.962  18.110  10.050
  105loPI    C3 1667   2.845  18.157  10.050
  105loPI   PO4 1668   2.883  18.120   9.450
  105loPI   GL1 1669   2.818  18.147   9.150
  105loPI   GL2 1670   2.980  18.154   9.150
  105loPI   C1A 1671   2.896  18.146   8.850
  105loPI   C2A 1672   2.872  18.146   8.550
  105loPI   C3A 1673   2.877  18.091   8.250
  105loPI   C4A 1674   2.874  18.137   7.950
  105loPI   C5A 1675   2.805  18.112   7.650
  105loPI   C6A 1676   2.866  18.156   7.350
  105loPI   C1B 1677   3.115  18.084   8.850
  105loPI   C2B 1678   3.071  18.102   8.550
  105loPI   C3B 1679   3.052  18.143   8.250
  105loPI   C4B 1680   3.094  18.123   7.950
  106loPI    C1 1681   5.388  13.549   9.750
  106loPI    C2 1682   5.330  13.514  10.050
  106loPI    C3 1683   5.202  13.534  10.050
  106loPI   PO4 1684   5.299  13.485   9.450
  106loPI   GL1 1685   5.233  13.492   9.150
  106loPI   GL2 1686   5.385  13.575   9.150
  106loPI   C1A 1687   5.204  13.530   8.850
  106loPI   C2A 1688   5.274  13.544   8.550
  106loPI   C3A 1689   5.224  13.496   8.250
  106loPI   C4A 1690   5.217  13.551   7.950
  106loPI   C5A 1691   5.263  13.497   7.650
  106loPI   C6A 1692   5.270  13.508   7.350
  106loPI   C1B 1693   5.517  13.569   8.850
  106loPI   C2B 1694   5.489  13.495   8.550
  106loPI   C3B 1695   5.519  13.506   8.250
  106loPI   C4B 1696   5.516  13.578   7.950
  107loPI    C1 1697  11.511  17.445   9.750
  107loPI    C2 1698  11.496  17.432  10.050
  107loPI    C3 1699  11.610  17.316  10.050
  107loPI   PO4 1700  11.687  17.333   9.450
  107loPI   GL1 1701  11.686  17.363   9.150
  107loPI   GL2 1702  11.561  17.462   9.150
  107loPI   C1A 1703  11.695  17.378   8.850
  107loPI   C2A 1704  11.645  17.345   8.550
  107loPI   C3A 1705  11.654  17.382   8.250
  107loPI   C4A 1706  11.644  17.369   7.950
  107loPI   C5A 1707  11.632  17.386   7.650
  107loPI   C6A 1708  11.650  17.358   7.350
  107loPI   C1B 1709  11.462  17.467   8.850
  107loPI   C2B 1710  11.389  17.457   8.550
  107loPI   C3B 1711  11.477  17.514   8.250
  107loPI   C4B 1712  11.441  17.495   7.950
  108loPI    C1 1713   3.632  17.256   9.750
  108loPI    C2 1714   3.638  17.207  10.050
  108loPI    C3 1715   3.636  17.405  10.050
  108loPI   PO4 1716   3.699  17.326   9.450
  108loPI   GL1 1717   3.671  17.326   9.150
  108loPI   GL2 1718   3.649  17.210   9.150
  108loPI   C1A 1719   3.612  17.383   8.850
  108loPI   C2A 1720   3.648  17.364   8.550
  108loPI   C3A 1721   3.607  17.359   8.250
  108loPI   C4A 1722   3.642  17.349   7.950
  108loPI   C5A 1723   3.656  17.403   7.650
  108loPI   C6A 1724   3.640  17.315   7.350
  108loPI   C1B 1725   3.586  17.119   8.850
  108loPI   C2B 1726   3.567  17.088   8.550
  108loPI   C3B 1727   3.564  17.097   8.250
  108loPI   C4B 1728   3.580  17.094   7.950
  109loPI    C1 1729  11.492  11.231   9.750
  109loPI    C2 1730  11.553  11.152  10.050
  109loPI    C3 1731  11.641  11.174  10.050
  109loPI   PO4 1732  11.643  11.157   9.450
  109loPI   GL1 1733  11.684  11.169   9.150
  109loPI   GL2 1734  11.549  11.154   9.150
  109loPI   C1A 1735  11.612  11.221   8.850
  109loPI   C2A 1736  11.640  11.176   8.550
  109loPI   C3A 1737  11.605  11.159   8.250
  109loPI   C4A 1738  11.631  11.219   7.950
  109loPI   C5A 1739  11.665  11.243   7.650
  109loPI   C6A 1740  11.660  11.159   7.350
  109loPI   C1B 1741  11.381  11.142   8.850
  109loPI   C2B 1742  11.444  11.142   8.550
  109loPI   C3B 1743  11.381  11.145   8.250
  109loPI   C4B 1744  11.414  11.124   7.950
  110loPI    C1 1745   2.870   8.736   9.750
  110loPI    C2 1746   2.801   8.769  10.050
  110loPI    C3 1747   2.845   8.866  10.050
  110loPI   PO4 1748   2.842   8.896   9.450
  110loPI   GL1 1749   2.886   8.875   9.150
  110loPI   GL2 1750   2.818   8.759   9.150
  110loPI   C1A 1751   2.849   8.868   8.850
  110loPI   C2A 1752   2.831   8.944   8.550
  110loPI   C3A 1753   2.825   8.886   8.250
  110loPI   C4A 1754   2.875   8.868   7.950
  110loPI   C5A 1755   2.895   8.870   7.650
  110loPI   C6A 1756   2.825   8.860   7.350
  110loPI   C1B 1757   2.878   8.607   8.850
  110loPI   C2B 1758   2.830   8.672   8.550
  110loPI   C3B 1759   2.868   8.635   8.250
  110loPI   C4B 1760   2.799   8.656   7.950
  111loPI    C1 1761   6.693  13.532   9.750
  111loPI    C2 1762   6.710  13.544  10.050
  111loPI    C3 1763   6.831  13.532  10.050
  111loPI   PO4 1764   6.885  13.500   9.450
  111loPI   GL1 1765   6.855  13.480   9.150
  111loPI   GL2 1766   6.678  13.524   9.150
  111loPI   C1A 1767   6.876  13.517   8.850
  111loPI   C2A 1768   6.869  13.508   8.550
  111loPI   C3A 1769   6.840  13.540   8.250
  111loPI   C4A 1770   6.821  13.487   7.950
  111loPI   C5A 1771   6.821  13.558   7.650
  111loPI   C6A 1772   6.810  13.529   7.350
  111loPI   C1B 1773   6.590  13.485   8.850
  111loPI   C2B 1774   6.639  13.548   8.550
  111loPI   C3B 1775   6.580  13.476   8.250
  111loPI   C4B 1776   6.567  13.453   7.950
  112loPI    C1 1777   2.868  10.587   9.750
  112loPI    C2 1778   2.812  10.562  10.050
  112loPI    C3 1779   2.876  10.421  10.050
  112loPI   PO4 1780   2.893  10.471   9.450
  112loPI   GL1 1781   2.876  10.456   9.150
  112loPI   GL2 1782   2.877  10.543   9.150
  112loPI   C1A 1783   2.812  10.405   8.850
  112loPI   C2A 1784   2.842  10.412   8.550
  112loPI   C3A 1785   2.849  10.421   8.250
  112loPI   C4A 1786   2.833  10.428   7.950
  112loPI   C5A 1787   2.864  10.427   7.650
  112loPI   C6A 1788   2.863  10.474   7.350
  112loPI   C1B 1789   2.883  10.665   8.850
  112loPI   C2B 1790   2.828  10.643   8.550
  112loPI   C3B 1791   2.880  10.711   8.250
  112loPI   C4B 1792   2.867  10.731   7.950
  113loPI    C1 1793   9.169  18.909   9.750
  113loPI    C2 1794   9.141  18.856  10.050
  113loPI    C3 1795   9.286  18.917  10.050
  113loPI   PO4 1796   9.276  18.922   9.450
  113loPI   GL1 1797   9.296  18.898   9.150
  113loPI   GL2 1798   9.172  18.851   9.150
  113loPI   C1A 1799   9.288  18.921   8.850
  113loPI   C2A 1800   9.222  18.848   8.550
  113loPI   C3A 1801   9.254  18.933   8.250
  113loPI   C4A 1802   9.287  18.902   7.950
  113loPI   C5A 1803   9.272  18.928   7.650
  113loPI   C6A 1804   9.278  18.921   7.350
  113loPI   C1B 1805   8.999  18.861   8.850
  113loPI   C2B 1806   8.961  18.815   8.550
  113loPI   C3B 1807   9.039  18.852   8.250
  113loPI   C4B 1808   9.043  18.837   7.950
  114loPI    C1 1809   2.186  14.226   9.750
  114loPI    C2 1810   2.188  14.183  10.050
  114loPI    C3 1811   2.022  14.325  10.050
  114loPI   PO4 1812   2.024  14.234   9.450
  114loPI   GL1 1813   2.034  14.271   9.150
  114loPI   GL2 1814   2.165  14.257   9.150
  114loPI   C1A 1815   2.038  14.273   8.850
  114loPI   C2A 1816   2.001  14.255   8.550
  114loPI   C3A 1817   2.072  14.277   8.250
  114loPI   C4A 1818   2.085  14.317   7.950
  114loPI   C5A 1819   2.018  14.252   7.650
  114loPI   C6A 1820   2.019  14.286   7.350
  114loPI   C1B 1821   2.299  14.111   8.850
  114loPI   C2B 1822   2.303  14.119   8.550
  114loPI   C3B 1823   2.259  14.185   8.250
  114loPI   C4B 1824   2.233  14.100   7.950
  115loPI    C1 1825   7.539   6.584   9.750
  115loPI    C2 1826   7.567   6.539  10.050
  115loPI    C3 1827   7.625   6.540  10.050
  115loPI   PO4 1828   7.660   6.574   9.450
  115loPI   GL1 1829   7.660   6.582   9.150
  115loPI   GL2 1830   7.567   6.583   9.150
  115loPI   C1A 1831   7.677   6.581   8.850
  115loPI   C2A 1832   7.686   6.620   8.550
  115loPI   C3A 1833   7.641   6.567   8.250
  115loPI   C4A 1834   7.608   6.556   7.950
  115loPI   C5A 1835   7.675   6.566   7.650
  115loPI   C6A 1836   7.625   6.552   7.350
  115loPI   C1B 1837   7.384   6.477   8.850
  115loPI   C2B 1838   7.390   6.503   8.550
  115loPI   C3B 1839   7.457   6.517   8.250
  115loPI   C4B 1840   7.459   6.520   7.950
  116loPI    C1 1841   7.655   1.334   9.750
  116loPI    C2 1842   7.664   1.279  10.050
  116loPI    C3 1843   7.640   1.167  10.050
  116loPI   PO4 1844   7.652   1.228   9.450
  116loPI   GL1 1845   7.693   1.215   9.150
  116loPI   GL2 1846   7.592   1.375   9.150
  116loPI   C1A 1847   7.646   1.224   8.850
  116loPI   C2A 1848   7.616   1.167   8.550
  116loPI   C3A 1849   7.691   1.182   8.250
  116loPI   C4A 1850   7.655   1.196   7.950
  116loPI   C5A 1851   7.620   1.182   7.650
  116loPI   C6A 1852   7.677   1.156   7.350
  116loPI   C1B 1853   7.539   1.439   8.850
  116loPI   C2B 1854   7.605   1.461   8.550
  116loPI   C3B 1855   7.620   1.466   8.250
  116loPI   C4B 1856   7.590   1.460   7.950
  117loPI    C1 1857  11.567   5.696   9.750
  117loPI    C2 1858  11.567   5.738  10.050
  117loPI    C3 1859  11.635   5.864  10.050
  117loPI   PO4 1860  11.698   5.789   9.450
  117loPI   GL1 1861  11.613   5.867   9.150
  117loPI   GL2 1862  11.573   5.722   9.150
  117loPI   C1A 1863  11.656   5.855   8.850
  117loPI   C2A 1864  11.613   5.869   8.550
  117loPI   C3A 1865  11.700   5.813   8.250
  117loPI   C4A 1866  11.637   5.861   7.950
  117loPI   C5A 1867  11.637   5.788   7.650
  117loPI   C6A 1868  11.623   5.808   7.350
  117loPI   C1B 1869  11.529   5.628   8.850
  117loPI   C2B 1870  11.468   5.634   8.550
  117loPI   C3B 1871  11.491   5.652   8.250
  117loPI   C4B 1872  11.499   5.607   7.950
  118loPI    C1 1873   4.538  15.857   9.750
  118loPI    C2 1874   4.577  15.887  10.050
  118loPI    C3 1875   4.495  15.794  10.050
  118loPI   PO4 1876   4.418  15.828   9.450
  118loPI   GL1 1877   4.469  15.808   9.150
  118loPI   GL2 1878   4.596  15.813   9.150
  118loPI   C1A 1879   4.401  15.794   8.850
  118loPI   C2A 1880   4.440  15.808   8.550
  118loPI   C3A 1881   4.441  15.784   8.250
  118loPI   C4A 1882   4.446  15.809   7.950
  118loPI   C5A 1883   4.472  15.814   7.650
  118loPI   C6A 1884   4.430  15.815   7.350
  118loPI   C1B 1885   4.674  15.852   8.850
  118loPI   C2B 1886   4.706  15.876   8.550
  118loPI   C3B 1887   4.674  15.823   8.250
  118loPI   C4B 1888   4.739  15.864   7.950
  119loPI    C1 1889  10.912   3.656   9.750
  119loPI    C2 1890  10.922   3.640  10.050
  119loPI    C3 1891  10.808   3.559  10.050
  119loPI   PO4 1892  10.842   3.520   9.450
  119loPI   GL1 1893  10.867   3.462   9.150
  119loPI   GL2 1894  10.868   3.610   9.150
  119loPI   C1A 1895  10.859   3.523   8.850
  119loPI   C2A 1896  10.875   3.525   8.550
  119loPI   C3A 1897  10.870   3.485   8.250
  119loPI   C4A 1898  10.878   3.551   7.950
  119loPI   C5A 1899  10.892   3.511   7.650
  119loPI   C6A 1900  10.803   3.471   7.350
  119loPI   C1B 1901  10.911   3.741   8.850
  119loPI   C2B 1902  10.915   3.717   8.550
  119loPI   C3B 1903  10.902   3.783   8.250
  119loPI   C4B 1904  10.948   3.710   7.950
  120loPI    C1 1905   6.761   8.864   9.750
  120loPI    C2 1906   6.715   8.865  10.050
  120loPI    C3 1907   6.850   8.880  10.050
  120loPI   PO4 1908   6.828   8.877   9.450
  120loPI   GL1 1909   6.841   8.894   9.150
  120loPI   GL2 1910   6.753   8.839   9.150
  120loPI   C1A 1911   6.873   8.864   8.850
  120loPI   C2A 1912   6.811   8.888   8.550
  120loPI   C3A 1913   6.888   8.916   8.250
  120loPI   C4A 1914   6.889   8.900   7.950
  120loPI   C5A 1915   6.849   8.859   7.650
  120loPI   C6A 1916   6.876   8.854   7.350
  120loPI   C1B 1917   6.589   8.833   8.850
  120loPI   C2B 1918   6.568   8.884   8.550
  120loPI   C3B 1919   6.558   8.821   8.250
  120loPI   C4B 1920   6.615   8.893   7.950
  121loPI    C1 1921  10.710  14.962   9.750
  121loPI    C2 1922  10.799  14.945  10.050
  121loPI    C3 1923  10.863  15.097  10.050
  121loPI   PO4 1924  10.819  15.003   9.450
  121loPI   GL1 1925  10.870  15.001   9.150
  121loPI   GL2 1926  10.742  14.964   9.150
  121loPI   C1A 1927  10.812  15.068   8.850
  121loPI   C2A 1928  10.823  15.096   8.550
  121loPI   C3A 1929  10.886  15.010   8.250
  121loPI   C4A 1930  10.848  15.036   7.950
  121loPI   C5A 1931  10.860  15.030   7.650
  121loPI   C6A 1932  10.863  15.005   7.350
  121loPI   C1B 1933  10.701  14.870   8.850
  121loPI   C2B 1934  10.629  14.922   8.550
  121loPI   C3B 1935  10.702  14.852   8.250
  121loPI   C4B 1936  10.612  14.875   7.950
  122loPI    C1 1937   1.153  15.207   9.750
  122loPI    C2 1938   1.160  15.116  10.050
  122loPI    C3 1939   1.297  15.074  10.050
  122loPI   PO4 1940   1.276  15.016   9.450
  122loPI   GL1 1941   1.291  15.043   9.150
  122loPI   GL2 1942   1.227  15.207   9.150
  122loPI   C1A 1943   1.234  15.080   8.850
  122loPI   C2A 1944   1.239  15.082   8.550
  122loPI   C3A 1945   1.254  15.082   8.250
  122loPI   C4A 1946   1.260  15.013   7.950
  122loPI   C5A 1947   1.206  15.062   7.650
  122loPI   C6A 1948   1.233  15.041   7.350
  122loPI   C1B 1949   1.163  15.263   8.850
  122loPI   C2B 1950   1.159  15.280   8.550
  122loPI   C3B 1951   1.102  15.245   8.250
  122loPI   C4B 1952   1.164  15.245   7.950
  123loPI    C1 1953   1.184  10.485   9.750
  123loPI    C2 1954   1.188  10.545  10.050
  123loPI    C3 1955   1.208  10.471  10.050
  123loPI   PO4 1956   1.281  10.406   9.450
  123loPI   GL1 1957   1.296  10.468   9.150
  123loPI   GL2 1958   1.182  10.483   9.150
  123loPI   C1A 1959   1.239  10.398   8.850
  123loPI   C2A 1960   1.242  10.481   8.550
  123loPI   C3A 1961   1.281  10.428   8.250
  123loPI   C4A 1962   1.214  10.466   7.950
  123loPI   C5A 1963   1.205  10.462   7.650
  123loPI   C6A 1964   1.271  10.394   7.350
  123loPI   C1B 1965   1.025  10.652   8.850
  123loPI   C2B 1966   1.090  10.633   8.550
  123loPI   C3B 1967   1.031  10.601   8.250
  123loPI   C4B 1968   1.057  10.639   7.950
  124loPI    C1 1969   8.542  12.729   9.750
  124loPI    C2 1970   8.534  12.729  10.050
  124loPI    C3 1971   8.468  12.772  10.050
  124loPI   PO4 1972   8.400  12.752   9.450
  124loPI   GL1 1973   8.425  12.781   9.150
  124loPI   GL2 1974   8.533  12.729   9.150
  124loPI   C1A 1975   8.484  12.755   8.850
  124loPI   C2A 1976   8.463  12.698   8.550
  124loPI   C3A 1977   8.493  12.760   8.250
  124loPI   C4A 1978   8.462  12.707   7.950
  124loPI   C5A 1979   8.466  12.761   7.650
  124loPI   C6A 1980   8.412  12.718   7.350
  124loPI   C1B 1981   8.707  12.646   8.850
  124loPI   C2B 1982   8.736  12.632   8.550
  124loPI   C3B 1983   8.695  12.611   8.250
  124loPI   C4B 1984   8.677  12.698   7.950
  125loPI    C1 1985  10.113  19.027   9.750
  125loPI    C2 1986  10.087  18.985  10.050
  125loPI    C3 1987  10.022  18.883  10.050
  125loPI   PO4 1988  10.061  18.849   9.450
  125loPI   GL1 1989  10.041  18.921   9.150
  125loPI   GL2 1990  10.082  19.049   9.150
  125loPI   C1A 1991  10.093  18.927   8.850
  125loPI   C2A 1992  10.084  18.942   8.550
  125loPI   C3A 1993  10.056  18.943   8.250
  125loPI   C4A 1994  10.027  18.915   7.950
  125loPI   C5A 1995  10.063  18.901   7.650
  125loPI   C6A 1996  10.046  18.908   7.350
  125loPI   C1B 1997  10.139  19.147   8.850
  125loPI   C2B 1998  10.068  19.095   8.550
  125loPI   C3B 1999  10.114  19.105   8.250
  125loPI   C4B 2000  10.059  19.153   7.950
  126loPI    C1 2001   7.493   5.864   9.750
  126loPI    C2 2002   7.521   5.885  10.050
  126loPI    C3 2003   7.612   5.797  10.050
  126loPI   PO4 2004   7.650   5.821   9.450
  126loPI   GL1 2005   7.690   5.863   9.150
  126loPI   GL2 2006   7.525   5.895   9.150
  126loPI   C1A 2007   7.668   5.834   8.850
  126loPI   C2A 2008   7.654   5.820   8.550
  126loPI   C3A 2009   7.666   5.844   8.250
  126loPI   C4A 2010   7.696   5.801   7.950
  126loPI   C5A 2011   7.679   5.784   7.650
  126loPI   C6A 2012   7.614   5.832   7.350
  126loPI   C1B 2013   7.369   5.916   8.850
  126loPI   C2B 2014   7.434   5.937   8.550
  126loPI   C3B 2015   7.417   5.932   8.250
  126loPI   C4B 2016   7.383   5.949   7.950
  127loPI    C1 2017   6.736   2.106   9.750
  127loPI    C2 2018   6.807   2.055  10.050
  127loPI    C3 2019   6.843   1.996  10.050
  127loPI   PO4 2020   6.835   1.992   9.450
  127loPI   GL1 2021   6.876   1.956   9.150
  127loPI   GL2 2022   6.751   2.041   9.150
  127loPI   C1A 2023   6.864   2.005   8.850
  127loPI   C2A 2024   6.800   2.018   8.550
  127loPI   C3A 2025   6.893   1.924   8.250
  127loPI   C4A 2026   6.827   1.938   7.950
  127loPI   C5A 2027   6.862   1.933   7.650
  127loPI   C6A 2028   6.807   1.965   7.350
  127loPI   C1B 2029   6.741   2.204   8.850
  127loPI   C2B 2030   6.757   2.165   8.550
  127loPI   C3B 2031   6.712   2.178   8.250
  127loPI   C4B 2032   6.707   2.190   7.950
  128loPI    C1 2033   4.536  19.568   9.750
  128loPI    C2 2034   4.501  19.534  10.050
  128loPI    C3 2035   4.454  19.641  10.050
  128loPI   PO4 2036   4.441  19.647   9.450
  128loPI   GL1 2037   4.427  19.628   9.150
  128loPI   GL2 2038   4.464  19.500   9.150
  128loPI   C1A 2039   4.485  19.660   8.850
  128loPI   C2A 2040   4.418  19.691   8.550
  128loPI   C3A 2041   4.415  19.690   8.250
  128loPI   C4A 2042   4.449  19.646   7.950
  128loPI   C5A 2043   4.480  19.659   7.650
  128loPI   C6A 2044   4.416  19.668   7.350
  128loPI   C1B 2045   4.530  19.386   8.850
  128loPI   C2B 2046   4.496  19.421   8.550
  128loPI   C3B 2047   4.501  19.388   8.250
  128loPI   C4B 2048   4.490  19.386   7.950
  129loPI    C1 2049   0.528   7.326   9.750
  129loPI    C2 2050   0.549   7.249  10.050
  129loPI    C3 2051   0.489   7.337  10.050
  129loPI   PO4 2052   0.400   7.332   9.450
  129loPI   GL1 2053   0.452   7.390   9.150
  129loPI   GL2 2054   0.540   7.287   9.150
  129loPI   C1A 2055   0.468   7.407   8.850
  129loPI   C2A 2056   0.427   7.345   8.550
  129loPI   C3A 2057   0.450   7.319   8.250
  129loPI   C4A 2058   0.462   7.366   7.950
  129loPI   C5A 2059   0.440   7.317   7.650
  129loPI   C6A 2060   0.499   7.396   7.350
  129loPI   C1B 2061   0.643   7.286   8.850
  129loPI   C2B 2062   0.683   7.255   8.550
  129loPI   C3B 2063   0.689   7.251   8.250
  129loPI   C4B 2064   0.668   7.209   7.950
  130loPI    C1 2065   5.401   6.564   9.750
  130loPI    C2 2066   5.352   6.570  10.050
  130loPI    C3 2067   5.274   6.590  10.050
  130loPI   PO4 2068   5.290   6.609   9.450
  130loPI   GL1 2069   5.264   6.568   9.150
  130loPI   GL2 2070   5.407   6.619   9.150
  130loPI   C1A 2071   5.215   6.602   8.850
  130loPI   C2A 2072   5.270   6.541   8.550
  130loPI   C3A 2073   5.256   6.601   8.250
  130loPI   C4A 2074   5.298   6.572   7.950
  130loPI   C5A 2075   5.287   6.563   7.650
  130loPI   C6A 2076   5.269   6.560   7.350
  130loPI   C1B 2077   5.499   6.551   8.850
  130loPI   C2B 2078   5.546   6.521   8.550
  130loPI   C3B 2079   5.480   6.547   8.250
  130loPI   C4B 2080   5.461   6.563   7.950
  131loPI    C1 2081   7.786  14.971   9.750
  131loPI    C2 2082   7.769  15.019  10.050
  131loPI    C3 2083   7.652  15.027  10.050
  131loPI   PO4 2084   7.664  15.029   9.450
  131loPI   GL1 2085   7.602  15.020   9.150
  131loPI   GL2 2086   7.745  14.994   9.150
  131loPI   C1A 2087   7.644  15.032   8.850
  131loPI   C2A 2088   7.684  15.073   8.550
  131loPI   C3A 2089   7.700  15.032   8.250
  131loPI   C4A 2090   7.662  15.058   7.950
  131loPI   C5A 2091   7.613  15.054   7.650
  131loPI   C6A 2092   7.624  15.032   7.350
  131loPI   C1B 2093   7.857  14.906   8.850
  131loPI   C2B 2094   7.896  14.964   8.550
  131loPI   C3B 2095   7.861  14.917   8.250
  131loPI   C4B 2096   7.912  14.914   7.950
  132loPI    C1 2097   6.944   4.247   9.750
  132loPI    C2 2098   6.940   4.246  10.050
  132loPI    C3 2099   6.830   4.281  10.050
  132loPI   PO4 2100   6.863   4.298   9.450
  132loPI   GL1 2101   6.874   4.287   9.150
  132loPI   GL2 2102   7.019   4.333   9.150
  132loPI   C1A 2103   6.895   4.240   8.850
  132loPI   C2A 2104   6.825   4.267   8.550
  132loPI   C3A 2105   6.896   4.316   8.250
  132loPI   C4A 2106   6.873   4.329   7.950
  132loPI   C5A 2107   6.894   4.232   7.650
  132loPI   C6A 2108   6.874   4.271   7.350
  132loPI   C1B 2109   7.122   4.288   8.850
  132loPI   C2B 2110   7.105   4.267   8.550
  132loPI   C3B 2111   7.147   4.257   8.250
  132loPI   C4B 2112   7.114   4.281   7.950
  133loPI    C1 2113   2.948   5.057   9.750
  133loPI    C2 2114   3.010   5.072  10.050
  133loPI    C3 2115   2.803   5.059  10.050
  133loPI   PO4 2116   2.847   5.083   9.450
  133loPI   GL1 2117   2.856   5.099   9.150
  133loPI   GL2 2118   2.938   5.077   9.150
  133loPI   C1A 2119   2.874   5.089   8.850
  133loPI   C2A 2120   2.862   5.025   8.550
  133loPI   C3A 2121   2.895   5.012   8.250
  133loPI   C4A 2122   2.841   5.043   7.950
  133loPI   C5A 2123   2.810   5.034   7.650
  133loPI   C6A 2124   2.841   5.049   7.350
  133loPI   C1B 2125   3.068   5.059   8.850
  133loPI   C2B 2126   3.128   5.119   8.550
  133loPI   C3B 2127   3.126   5.073   8.250
  133loPI   C4B 2128   3.119   5.145   7.950
  134loPI    C1 2129   6.153  15.176   9.750
  134loPI    C2 2130   6.103  15.187  10.050
  134loPI    C3 2131   6.032  15.043  10.050
  134loPI   PO4 2132   6.066  15.062   9.450
  134loPI   GL1 2133   6.066  15.017   9.150
  134loPI   GL2 2134   6.079  15.202   9.150
  134loPI   C1A 2135   6.099  15.022   8.850
  134loPI   C2A 2136   6.002  15.074   8.550
  134loPI   C3A 2137   6.064  15.006   8.250
  134loPI   C4A 2138   6.003  15.049   7.950
  134loPI   C5A 2139   6.029  15.073   7.650
  134loPI   C6A 2140   6.033  15.058   7.350
  134loPI   C1B 2141   6.179  15.278   8.850
  134loPI   C2B 2142   6.122  15.239   8.550
  134loPI   C3B 2143   6.198  15.245   8.250
  134loPI   C4B 2144   6.206  15.238   7.950
  135loPI    C1 2145   1.407   8.183   9.750
  135loPI    C2 2146   1.339   8.202  10.050
  135loPI    C3 2147   1.208   8.090  10.050
  135loPI   PO4 2148   1.290   8.152   9.450
  135loPI   GL1 2149   1.249   8.152   9.150
  135loPI   GL2 2150   1.336   8.183   9.150
  135loPI   C1A 2151   1.224   8.157   8.850
  135loPI   C2A 2152   1.288   8.145   8.550
  135loPI   C3A 2153   1.269   8.078   8.250
  135loPI   C4A 2154   1.263   8.161   7.950
  135loPI   C5A 2155   1.254   8.171   7.650
  135loPI   C6A 2156   1.243   8.129   7.350
  135loPI   C1B 2157   1.496   8.183   8.850
  135loPI   C2B 2158   1.504   8.177   8.550
  135loPI   C3B 2159   1.471   8.222   8.250
  135loPI   C4B 2160   1.458   8.236   7.950
  136loPI    C1 2161   5.271   7.993   9.750
  136loPI    C2 2162   5.219   8.053  10.050
  136loPI    C3 2163   5.252   8.145  10.050
  136loPI   PO4 2164   5.280   8.176   9.450
  136loPI   GL1 2165   5.256   8.113   9.150
  136loPI   GL2 2166   5.274   8.053   9.150
  136loPI   C1A 2167   5.244   8.081   8.850
  136loPI   C2A 2168   5.235   8.077   8.550
  136loPI   C3A 2169   5.275   8.138   8.250
  136loPI   C4A 2170   5.292   8.111   7.950
  136loPI   C5A 2171   5.300   8.125   7.650
  136loPI   C6A 2172   5.203   8.119   7.350
  136loPI   C1B 2173   5.196   7.910   8.850
  136loPI   C2B 2174   5.252   7.852   8.550
  136loPI   C3B 2175   5.212   7.925   8.250
  136loPI   C4B 2176   5.251   7.834   7.950
  137loPI    C1 2177   0.385  19.795   9.750
  137loPI    C2 2178   0.400  19.735  10.050
  137loPI    C3 2179   0.411  19.682  10.050
  137loPI   PO4 2180   0.408  19.640   9.450
  137loPI   GL1 2181   0.468  19.654   9.150
  137loPI   GL2 2182   0.447  19.760   9.150
  137loPI   C1A 2183   0.487  19.678   8.850
  137loPI   C2A 2184   0.410  19.684   8.550
  137loPI   C3A 2185   0.427  19.704   8.250
  137loPI   C4A 2186   0.427  19.646   7.950
  137loPI   C5A 2187   0.424  19.690   7.650
  137loPI   C6A 2188   0.486  19.625   7.350
  137loPI   C1B 2189   0.345  19.856   8.850
  137loPI   C2B 2190   0.352  19.887   8.550
  137loPI   C3B 2191   0.322  19.931   8.250
  137loPI   C4B 2192   0.402  19.933   7.950
  138loPI    C1 2193   2.971   8.053   9.750
  138loPI    C2 2194   2.979   8.082  10.050
  138loPI    C3 2195   2.854   8.141  10.050
  138loPI   PO4 2196   2.803   8.148   9.450
  138loPI   GL1 2197   2.838   8.143   9.150
  138loPI   GL2 2198   3.000   8.084   9.150
  138loPI   C1A 2199   2.824   8.098   8.850
  138loPI   C2A 2200   2.859   8.142   8.550
  138loPI   C3A 2201   2.870   8.098   8.250
  138loPI   C4A 2202   2.814   8.083   7.950
  138loPI   C5A 2203   2.894   8.109   7.650
  138loPI   C6A 2204   2.820   8.099   7.350
  138loPI   C1B 2205   3.028   7.977   8.850
  138loPI   C2B 2206   3.085   7.995   8.550
  138loPI   C3B 2207   3.052   8.005   8.250
  138loPI   C4B 2208   3.108   8.075   7.950
  139loPI    C1 2209   6.205  18.863   9.750
  139loPI    C2 2210   6.194  18.862  10.050
  139loPI    C3 2211   6.100  18.932  10.050
  139loPI   PO4 2212   6.089  18.867   9.450
  139loPI   GL1 2213   6.061  18.922   9.150
  139loPI   GL2 2214   6.152  18.783   9.150
  139loPI   C1A 2215   6.036  18.868   8.850
  139loPI   C2A 2216   6.028  18.929   8.550
  139loPI   C3A 2217   6.094  18.901   8.250
  139loPI   C4A 2218   6.044  18.918   7.950
  139loPI   C5A 2219   6.091  18.855   7.650
  139loPI   C6A 2220   6.057  18.886   7.350
  139loPI   C1B 2221   6.283  18.813   8.850
  139loPI   C2B 2222   6.239  18.718   8.550
  139loPI   C3B 2223   6.221  18.731   8.250
  139loPI   C4B 2224   6.217  18.767   7.950
  140loPI    C1 2225   6.747   0.453   9.750
  140loPI    C2 2226   6.763   0.485  10.050
  140loPI    C3 2227   6.807   0.438  10.050
  140loPI   PO4 2228   6.811   0.482   9.450
  140loPI   GL1 2229   6.812   0.478   9.150
  140loPI   GL2 2230   6.748   0.439   9.150
  140loPI   C1A 2231   6.845   0.439   8.850
  140loPI   C2A 2232   6.815   0.428   8.550
  140loPI   C3A 2233   6.897   0.390   8.250
  140loPI   C4A 2234   6.899   0.466   7.950
  140loPI   C5A 2235   6.847   0.440   7.650
  140loPI   C6A 2236   6.858   0.399   7.350
  140loPI   C1B 2237   6.556   0.439   8.850
  140loPI   C2B 2238   6.552   0.505   8.550
  140loPI   C3B 2239   6.602   0.476   8.250
  140loPI   C4B 2240   6.582   0.455   7.950
  141loPI    C1 2241   2.822   2.653   9.750
  141loPI    C2 2242   2.831   2.580  10.050
  141loPI    C3 2243   2.889   2.745  10.050
  141loPI   PO4 2244   2.894   2.786   9.450
  141loPI   GL1 2245   2.812   2.758   9.150
  141loPI   GL2 2246   2.811   2.667   9.150
  141loPI   C1A 2247   2.841   2.723   8.850
  141loPI   C2A 2248   2.851   2.762   8.550
  141loPI   C3A 2249   2.831   2.734   8.250
  141loPI   C4A 2250   2.884   2.788   7.950
  141loPI   C5A 2251   2.880   2.714   7.650
  141loPI   C6A 2252   2.861   2.764   7.350
  141loPI   C1B 2253   2.829   2.468   8.850
  141loPI   C2B 2254   2.825   2.483   8.550
  141loPI   C3B 2255   2.872   2.488   8.250
  141loPI   C4B 2256   2.801   2.464   7.950
  142loPI    C1 2257   2.919  14.141   9.750
  142loPI    C2 2258   2.913  14.217  10.050
  142loPI    C3 2259   2.846  14.302  10.050
  142loPI   PO4 2260   2.889  14.242   9.450
  142loPI   GL1 2261   2.871  14.295   9.150
  142loPI   GL2 2262   2.896  14.149   9.150
  142loPI   C1A 2263   2.888  14.290   8.850
  142loPI   C2A 2264   2.864  14.311   8.550
  142loPI   C3A 2265   2.830  14.286   8.250
  142loPI   C4A 2266   2.867  14.250   7.950
  142loPI   C5A 2267   2.850  14.264   7.650
  142loPI   C6A 2268   2.854  14.268   7.350
  142loPI   C1B 2269   2.953  14.104   8.850
  142loPI   C2B 2270   2.959  14.051   8.550
  142loPI   C3B 2271   3.024  14.105   8.250
  142loPI   C4B 2272   2.965  14.081   7.950
  143loPI    C1 2273  10.186  15.044   9.750
  143loPI    C2 2274  10.149  15.059  10.050
  143loPI    C3 2275  10.023  15.085  10.050
  143loPI   PO4 2276  10.075  15.097   9.450
  143loPI   GL1 2277  10.093  15.013   9.150
  143loPI   GL2 2278  10.161  15.036   9.150
  143loPI   C1A 2279  10.021  15.047   8.850
  143loPI   C2A 2280  10.096  15.028   8.550
  143loPI   C3A 2281  10.088  15.044   8.250
  143loPI   C4A 2282  10.012  15.056   7.950
  143loPI   C5A 2283  10.015  15.053   7.650
  143loPI   C6A 2284  10.070  15.036   7.350
  143loPI   C1B 2285  10.298  15.014   8.850
  143loPI   C2B 2286  10.254  15.011   8.550
  143loPI   C3B 2287  10.289  15.007   8.250
  143loPI   C4B 2288  10.275  15.078   7.950
  144loPI    C1 2289   1.179   9.645   9.750
  144loPI    C2 2290   1.117   9.658  10.050
  144loPI    C3 2291   1.236   9.706  10.050
  144loPI   PO4 2292   1.292   9.656   9.450
  144loPI   GL1 2293   1.202   9.616   9.150
  144loPI   GL2 2294   1.137   9.581   9.150
  144loPI   C1A 2295   1.213   9.660   8.850
  144loPI   C2A 2296   1.245   9.690   8.550
  144loPI   C3A 2297   1.261   9.691   8.250
  144loPI   C4A 2298   1.274   9.642   7.950
  144loPI   C5A 2299   1.294   9.693   7.650
  144loPI   C6A 2300   1.271   9.699   7.350
  144loPI   C1B 2301   1.042   9.619   8.850
  144loPI   C2B 2302   0.985   9.574   8.550
  144loPI   C3B 2303   1.007   9.552   8.250
  144loPI   C4B 2304   1.060   9.565   7.950
  145loPI    C1 2305   2.969  15.023   9.750
  145loPI    C2 2306   2.928  15.014  10.050
  145loPI    C3 2307   2.814  15.011  10.050
  145loPI   PO4 2308   2.812  15.040   9.450
  145loPI   GL1 2309   2.832  15.025   9.150
  145loPI   GL2 2310   2.961  15.049   9.150
  145loPI   C1A 2311   2.854  15.017   8.850
  145loPI   C2A 2312   2.828  15.062   8.550
  145loPI   C3A 2313   2.847  15.053   8.250
  145loPI   C4A 2314   2.844  15.025   7.950
  145loPI   C5A 2315   2.815  15.033   7.650
  145loPI   C6A 2316   2.830  15.092   7.350
  145loPI   C1B 2317   3.064  15.051   8.850
  145loPI   C2B 2318   3.139  15.034   8.550
  145loPI   C3B 2319   3.073  15.028   8.250
  145loPI   C4B 2320   3.138  15.083   7.950
  146loPI    C1 2321   6.812   1.066   9.750
  146loPI    C2 2322   6.804   1.121  10.050
  146loPI    C3 2323   6.844   1.204  10.050
  146loPI   PO4 2324   6.803   1.178   9.450
  146loPI   GL1 2325   6.825   1.222   9.150
  146loPI   GL2 2326   6.844   1.094   9.150
  146loPI   C1A 2327   6.816   1.200   8.850
  146loPI   C2A 2328   6.866   1.207   8.550
  146loPI   C3A 2329   6.891   1.204   8.250
  146loPI   C4A 2330   6.803   1.156   7.950
  146loPI   C5A 2331   6.842   1.248   7.650
  146loPI   C6A 2332   6.876   1.188   7.350
  146loPI   C1B 2333   6.812   0.951   8.850
  146loPI   C2B 2334   6.782   0.940   8.550
  146loPI   C3B 2335   6.862   0.916   8.250
  146loPI   C4B 2336   6.876   0.926   7.950
  147loPI    C1 2337  11.699  14.407   9.750
  147loPI    C2 2338  11.734  14.389  10.050
  147loPI    C3 2339  11.696  14.285  10.050
  147loPI   PO4 2340  11.666  14.298   9.450
  147loPI   GL1 2341  11.637  14.261   9.150
  147loPI   GL2 2342  11.696  14.379   9.150
  147loPI   C1A 2343  11.681  14.274   8.850
  147loPI   C2A 2344  11.605  14.303   8.550
  147loPI   C3A 2345  11.650  14.286   8.250
  147loPI   C4A 2346  11.641  14.306   7.950
  147loPI   C5A 2347  11.676  14.267   7.650
  147loPI   C6A 2348  11.602  14.285   7.350
  147loPI   C1B 2349  11.827  14.489   8.850
  147loPI   C2B 2350  11.823  14.476   8.550
  147loPI   C3B 2351  11.812  14.461   8.250
  147loPI   C4B 2352  11.782  14.485   7.950
  148loPI    C1 2353   5.984  19.512   9.750
  148loPI    C2 2354   5.971  19.508  10.050
  148loPI    C3 2355   6.082  19.644  10.050
  148loPI   PO4 2356   6.047  19.714   9.450
  148loPI   GL1 2357   6.015  19.645   9.150
  148loPI   GL2 2358   6.003  19.572   9.150
  148loPI   C1A 2359   6.079  19.691   8.850
  148loPI   C2A 2360   6.075  19.651   8.550
  148loPI   C3A 2361   6.093  19.672   8.250
  148loPI   C4A 2362   6.006  19.656   7.950
  148loPI   C5A 2363   6.015  19.703   7.650
  148loPI   C6A 2364   6.059  19.653   7.350
  148loPI   C1B 2365   5.934  19.428   8.850
  148loPI   C2B 2366   5.964  19.444   8.550
  148loPI   C3B 2367   5.998  19.402   8.250
  148loPI   C4B 2368   5.994  19.439   7.950
  149loPI    C1 2369   7.656   9.501   9.750
  149loPI    C2 2370   7.631   9.539  10.050
  149loPI    C3 2371   7.677   9.653  10.050
  149loPI   PO4 2372   7.609   9.675   9.450
  149loPI   GL1 2373   7.655   9.669   9.150
  149loPI   GL2 2374   7.674   9.593   9.150
  149loPI   C1A 2375   7.645   9.639   8.850
  149loPI   C2A 2376   7.603   9.653   8.550
  149loPI   C3A 2377   7.691   9.675   8.250
  149loPI   C4A 2378   7.612   9.646   7.950
  149loPI   C5A 2379   7.683   9.641   7.650
  149loPI   C6A 2380   7.644   9.640   7.350
  149loPI   C1B 2381   7.754   9.426   8.850
  149loPI   C2B 2382   7.702   9.416   8.550
  149loPI   C3B 2383   7.685   9.390   8.250
  149loPI   C4B 2384   7.678   9.455   7.950
  150loPI    C1 2385   5.917  16.515   9.750
  150loPI    C2 2386   5.910  16.507  10.050
  150loPI    C3 2387   6.098  16.572  10.050
  150loPI   PO4 2388   6.035  16.625   9.450
  150loPI   GL1 2389   6.076  16.587   9.150
  150loPI   GL2 2390   5.935  16.561   9.150
  150loPI   C1A 2391   6.017  16.589   8.850
  150loPI   C2A 2392   6.049  16.578   8.550
  150loPI   C3A 2393   6.023  16.623   8.250
  150loPI   C4A 2394   6.073  16.610   7.950
  150loPI   C5A 2395   6.035  16.627   7.650
  150loPI   C6A 2396   6.030  16.610   7.350
  150loPI   C1B 2397   5.813  16.470   8.850
  150loPI   C2B 2398   5.818  16.471   8.550
  150loPI   C3B 2399   5.804  16.475   8.250
  150loPI   C4B 2400   5.768  16.517   7.950
  151loPI    C1 2401  10.982   5.737   9.750
  151loPI    C2 2402  10.908   5.714  10.050
  151loPI    C3 2403  10.808   5.778  10.050
  151loPI   PO4 2404  10.896   5.822   9.450
  151loPI   GL1 2405  10.852   5.845   9.150
  151loPI   GL2 2406  10.925   5.757   9.150
  151loPI   C1A 2407  10.871   5.779   8.850
  151loPI   C2A 2408  10.840   5.787   8.550
  151loPI   C3A 2409  10.818   5.838   8.250
  151loPI   C4A 2410  10.876   5.845   7.950
  151loPI   C5A 2411  10.856   5.867   7.650
  151loPI   C6A 2412  10.806   5.868   7.350
  151loPI   C1B 2413  11.062   5.686   8.850
  151loPI   C2B 2414  11.036   5.639   8.550
  151loPI   C3B 2415  11.069   5.664   8.250
  151loPI   C4B 2416  11.017   5.664   7.950
  152loPI    C1 2417   9.295  12.078   9.750
  152loPI    C2 2418   9.325  12.106  10.050
  152loPI    C3 2419   9.216  11.933  10.050
  152loPI   PO4 2420   9.226  12.021   9.450
  152loPI   GL1 2421   9.279  12.019   9.150
  152loPI   GL2 2422   9.319  12.112   9.150
  152loPI   C1A 2423   9.281  12.019   8.850
  152loPI   C2A 2424   9.212  11.940   8.550
  152loPI   C3A 2425   9.254  11.997   8.250
  152loPI   C4A 2426   9.239  11.930   7.950
  152loPI   C5A 2427   9.266  11.944   7.650
  152loPI   C6A 2428   9.215  11.990   7.350
  152loPI   C1B 2429   9.331  12.190   8.850
  152loPI   C2B 2430   9.332  12.210   8.550
  152loPI   C3B 2431   9.393  12.160   8.250
  152loPI   C4B 2432   9.403  12.216   7.950
  153loPI    C1 2433   3.819   3.591   9.750
  153loPI    C2 2434   3.812   3.555  10.050
  153loPI    C3 2435   3.659   3.556  10.050
  153loPI   PO4 2436   3.642   3.463   9.450
  153loPI   GL1 2437   3.638   3.504   9.150
  153loPI   GL2 2438   3.814   3.571   9.150
  153loPI   C1A 2439   3.686   3.462   8.850
  153loPI   C2A 2440   3.664   3.556   8.550
  153loPI   C3A 2441   3.643   3.508   8.250
  153loPI   C4A 2442   3.697   3.505   7.950
  153loPI   C5A 2443   3.692   3.497   7.650
  153loPI   C6A 2444   3.610   3.504   7.350
  153loPI   C1B 2445   3.887   3.546   8.850
  153loPI   C2B 2446   3.863   3.587   8.550
  153loPI   C3B 2447   3.846   3.579   8.250
  153loPI   C4B 2448   3.903   3.591   7.950
  154loPI    C1 2449  11.789   4.406   9.750
  154loPI    C2 2450  11.751   4.383  10.050
  154loPI    C3 2451  11.694   4.275  10.050
  154loPI   PO4 2452  11.696   4.319   9.450
  154loPI   GL1 2453  11.645   4.264   9.150
  154loPI   GL2 2454  11.704   4.365   9.150
  154loPI   C1A 2455  11.612   4.301   8.850
  154loPI   C2A 2456  11.654   4.243   8.550
  154loPI   C3A 2457  11.637   4.281   8.250
  154loPI   C4A 2458  11.622   4.245   7.950
  154loPI   C5A 2459  11.625   4.236   7.650
  154loPI   C6A 2460  11.664   4.274   7.350
  154loPI   C1B 2461  11.860   4.492   8.850
  154loPI   C2B 2462  11.877   4.474   8.550
  154loPI   C3B 2463  11.853   4.411   8.250
  154loPI   C4B 2464  11.853   4.422   7.950
  155loPI    C1 2465   7.480  16.601   9.750
  155loPI    C2 2466   7.574  16.578  10.050
  155loPI    C3 2467   7.676  16.611  10.050
  155loPI   PO4 2468   7.674  16.629   9.450
  155loPI   GL1 2469   7.613  16.614   9.150
  155loPI   GL2 2470   7.504  16.560   9.150
  155loPI   C1A 2471   7.602  16.561   8.850
  155loPI   C2A 2472   7.640  16.615   8.550
  155loPI   C3A 2473   7.642  16.572   8.250
  155loPI   C4A 2474   7.682  16.555   7.950
  155loPI   C5A 2475   7.603  16.564   7.650
  155loPI   C6A 2476   7.644  16.610   7.350
  155loPI   C1B 2477   7.430  16.511   8.850
  155loPI   C2B 2478   7.449  16.598   8.550
  155loPI   C3B 2479   7.375  16.552   8.250
  155loPI   C4B 2480   7.443  16.566   7.950
  156loPI    C1 2481   3.011   3.501   9.750
  156loPI    C2 2482   2.985   3.456  10.050
  156loPI    C3 2483   2.898   3.521  10.050
  156loPI   PO4 2484   2.838   3.466   9.450
  156loPI   GL1 2485   2.874   3.559   9.150
  156loPI   GL2 2486   2.948   3.452   9.150
  156loPI   C1A 2487   2.840   3.476   8.850
  156loPI   C2A 2488   2.826   3.476   8.550
  156loPI   C3A 2489   2.819   3.495   8.250
  156loPI   C4A 2490   2.854   3.468   7.950
  156loPI   C5A 2491   2.863   3.527   7.650
  156loPI   C6A 2492   2.870   3.502   7.350
  156loPI   C1B 2493   3.137   3.450   8.850
  156loPI   C2B 2494   3.146   3.500   8.550
  156loPI   C3B 2495   3.138   3.489   8.250
  156loPI   C4B 2496   3.138   3.478   7.950
  157loPI    C1 2497  10.780   2.844   9.750
  157loPI    C2 2498  10.848   2.898  10.050
  157loPI    C3 2499  10.809   2.762  10.050
  157loPI   PO4 2500  10.855   2.724   9.450
  157loPI   GL1 2501  10.878   2.715   9.150
  157loPI   GL2 2502  10.854   2.834   9.150
  157loPI   C1A 2503  10.864   2.778   8.850
  157loPI   C2A 2504  10.824   2.764   8.550
  157loPI   C3A 2505  10.872   2.699   8.250
  157loPI   C4A 2506  10.825   2.780   7.950
  157loPI   C5A 2507  10.847   2.708   7.650
  157loPI   C6A 2508  10.833   2.699   7.350
  157loPI   C1B 2509  10.811   3.004   8.850
  157loPI   C2B 2510  10.728   3.003   8.550
  157loPI   C3B 2511  10.784   3.022   8.250
  157loPI   C4B 2512  10.769   3.018   7.950
  158loPI    C1 2513   2.858  13.595   9.750
  158loPI    C2 2514   2.825  13.649  10.050
  158loPI    C3 2515   2.834  13.499  10.050
  158loPI   PO4 2516   2.839  13.528   9.450
  158loPI   GL1 2517   2.851  13.487   9.150
  158loPI   GL2 2518   2.855  13.590   9.150
  158loPI   C1A 2519   2.892  13.530   8.850
  158loPI   C2A 2520   2.887  13.516   8.550
  158loPI   C3A 2521   2.893  13.480   8.250
  158loPI   C4A 2522   2.879  13.548   7.950
  158loPI   C5A 2523   2.898  13.512   7.650
  158loPI   C6A 2524   2.825  13.549   7.350
  158loPI   C1B 2525   2.822  13.769   8.850
  158loPI   C2B 2526   2.883  13.737   8.550
  158loPI   C3B 2527   2.852  13.798   8.250
  158loPI   C4B 2528   2.899  13.757   7.950
  159loPI    C1 2529   9.225  19.547   9.750
  159loPI    C2 2530   9.214  19.536  10.050
  159loPI    C3 2531   9.227  19.685  10.050
  159loPI   PO4 2532   9.268  19.688   9.450
  159loPI   GL1 2533   9.281  19.641   9.150
  159loPI   GL2 2534   9.208  19.499   9.150
  159loPI   C1A 2535   9.233  19.690   8.850
  159loPI   C2A 2536   9.202  19.672   8.550
  159loPI   C3A 2537   9.210  19.622   8.250
  159loPI   C4A 2538   9.288  19.711   7.950
  159loPI   C5A 2539   9.247  19.697   7.650
  159loPI   C6A 2540   9.296  19.684   7.350
  159loPI   C1B 2541   9.204  19.420   8.850
  159loPI   C2B 2542   9.203  19.408   8.550
  159loPI   C3B 2543   9.145  19.446   8.250
  159loPI   C4B 2544   9.130  19.452   7.950
  160loPI    C1 2545  10.976  19.589   9.750
  160loPI    C2 2546  11.004  19.611  10.050
  160loPI    C3 2547  10.819  19.666  10.050
  160loPI   PO4 2548  10.851  19.646   9.450
  160loPI   GL1 2549  10.891  19.661   9.150
  160loPI   GL2 2550  10.956  19.590   9.150
  160loPI   C1A 2551  10.831  19.698   8.850
  160loPI   C2A 2552  10.818  19.628   8.550
  160loPI   C3A 2553  10.845  19.623   8.250
  160loPI   C4A 2554  10.831  19.678   7.950
  160loPI   C5A 2555  10.858  19.647   7.650
  160loPI   C6A 2556  10.835  19.688   7.350
  160loPI   C1B 2557  11.048  19.579   8.850
  160loPI   C2B 2558  11.072  19.569   8.550
  160loPI   C3B 2559  11.074  19.603   8.250
  160loPI   C4B 2560  11.047  19.522   7.950
  161loPI    C1 2561   4.565  11.973   9.750
  161loPI    C2 2562   4.599  11.893  10.050
  161loPI    C3 2563   4.480  11.996  10.050
  161loPI   PO4 2564   4.492  11.929   9.450
  161loPI   GL1 2565   4.414  11.938   9.150
  161loPI   GL2 2566   4.589  11.916   9.150
  161loPI   C1A 2567   4.451  11.968   8.850
  161loPI   C2A 2568   4.484  11.923   8.550
  161loPI   C3A 2569   4.427  11.977   8.250
  161loPI   C4A 2570   4.432  12.000   7.950
  161loPI   C5A 2571   4.427  11.946   7.650
  161loPI   C6A 2572   4.457  11.937   7.350
  161loPI   C1B 2573   4.678  11.901   8.850
  161loPI   C2B 2574   4.647  11.847   8.550
  161loPI   C3B 2575   4.640  11.926   8.250
  161loPI   C4B 2576   4.687  11.831   7.950
  162loPI    C1 2577   2.796  15.696   9.750
  162loPI    C2 2578   2.728  15.739  10.050
  162loPI    C3 2579   2.853  15.863  10.050
  162loPI   PO4 2580   2.883  15.797   9.450
  162loPI   GL1 2581   2.816  15.849   9.150
  162loPI   GL2 2582   2.812  15.716   9.150
  162loPI   C1A 2583   2.873  15.786   8.850
  162loPI   C2A 2584   2.842  15.798   8.550
  162loPI   C3A 2585   2.813  15.850   8.250
  162loPI   C4A 2586   2.872  15.788   7.950
  162loPI   C5A 2587   2.897  15.805   7.650
  162loPI   C6A 2588   2.814  15.860   7.350
  162loPI   C1B 2589   2.679  15.621   8.850
  162loPI   C2B 2590   2.747  15.612   8.550
  162loPI   C3B 2591   2.650  15.662   8.250
  162loPI   C4B 2592   2.694  15.603   7.950
  163loPI    C1 2593   9.332   4.193   9.750
  163loPI    C2 2594   9.293   4.133  10.050
  163loPI    C3 2595   9.298   4.240  10.050
  163loPI   PO4 2596   9.240   4.235   9.450
  163loPI   GL1 2597   9.270   4.312   9.150
  163loPI   GL2 2598   9.340   4.169   9.150
  163loPI   C1A 2599   9.201   4.300   8.850
  163loPI   C2A 2600   9.237   4.288   8.550
  163loPI   C3A 2601   9.242   4.281   8.250
  163loPI   C4A 2602   9.267   4.263   7.950
  163loPI   C5A 2603   9.282   4.329   7.650
  163loPI   C6A 2604   9.216   4.262   7.350
  163loPI   C1B 2605   9.314   4.007   8.850
  163loPI   C2B 2606   9.312   4.017   8.550
  163loPI   C3B 2607   9.355   4.043   8.250
  163loPI   C4B 2608   9.348   4.065   7.950
  164loPI    C1 2609   5.993   0.521   9.750
  164loPI    C2 2610   5.914   0.522  10.050
  164loPI    C3 2611   6.098   0.478  10.050
  164loPI   PO4 2612   6.070   0.420   9.450
  164loPI   GL1 2613   6.057   0.477   9.150
  164loPI   GL2 2614   5.917   0.494   9.150
  164loPI   C1A 2615   6.029   0.460   8.850
  164loPI   C2A 2616   6.025   0.403   8.550
  164loPI   C3A 2617   6.037   0.452   8.250
  164loPI   C4A 2618   6.038   0.476   7.950
  164loPI   C5A 2619   6.087   0.484   7.650
  164loPI   C6A 2620   6.079   0.429   7.350
  164loPI   C1B 2621   5.801   0.540   8.850
  164loPI   C2B 2622   5.826   0.590   8.550
  164loPI   C3B 2623   5.879   0.540   8.250
  164loPI   C4B 2624   5.816   0.582   7.950
  165loPI    C1 2625   5.139   5.020   9.750
  165loPI    C2 2626   5.132   4.971  10.050
  165loPI    C3 2627   5.276   5.004  10.050
  165loPI   PO4 2628   5.292   5.048   9.450
  165loPI   GL1 2629   5.238   5.019   9.150
  165loPI   GL2 2630   5.132   4.976   9.150
  165loPI   C1A 2631   5.208   5.041   8.850
  165loPI   C2A 2632   5.235   5.075   8.550
  165loPI   C3A 2633   5.237   5.034   8.250
  165loPI   C4A 2634   5.260   5.098   7.950
  165loPI   C5A 2635   5.283   5.001   7.650
  165loPI   C6A 2636   5.252   5.060   7.350
  165loPI   C1B 2637   5.036   4.957   8.850
  165loPI   C2B 2638   5.015   4.976   8.550
  165loPI   C3B 2639   5.018   4.996   8.250
  165loPI   C4B 2640   4.966   4.979   7.950
  166loPI    C1 2641   7.489   5.038   9.750
  166loPI    C2 2642   7.552   5.016  10.050
  166loPI    C3 2643   7.622   5.079  10.050
  166loPI   PO4 2644   7.641   5.011   9.450
  166loPI   GL1 2645   7.670   5.094   9.150
  166loPI   GL2 2646   7.558   5.074   9.150
  166loPI   C1A 2647   7.638   5.011   8.850
  166loPI   C2A 2648   7.671   5.079   8.550
  166loPI   C3A 2649   7.639   5.084   8.250
  166loPI   C4A 2650   7.609   5.004   7.950
  166loPI   C5A 2651   7.615   5.044   7.650
  166loPI   C6A 2652   7.648   5.095   7.350
  166loPI   C1B 2653   7.362   4.989   8.850
  166loPI   C2B 2654   7.454   4.968   8.550
  166loPI   C3B 2655   7.386   5.020   8.250
  166loPI   C4B 2656   7.423   4.953   7.950
  167loPI    C1 2657   1.400  15.801   9.750
  167loPI    C2 2658   1.376  15.872  10.050
  167loPI    C3 2659   1.244  15.773  10.050
  167loPI   PO4 2660   1.203  15.843   9.450
  167loPI   GL1 2661   1.205  15.788   9.150
  167loPI   GL2 2662   1.391  15.806   9.150
  167loPI   C1A 2663   1.255  15.777   8.850
  167loPI   C2A 2664   1.298  15.822   8.550
  167loPI   C3A 2665   1.247  15.827   8.250
  167loPI   C4A 2666   1.206  15.863   7.950
  167loPI   C5A 2667   1.223  15.862   7.650
  167loPI   C6A 2668   1.226  15.868   7.350
  167loPI   C1B 2669   1.519  15.901   8.850
  167loPI   C2B 2670   1.483  15.839   8.550
  167loPI   C3B 2671   1.450  15.851   8.250
  167loPI   C4B 2672   1.466  15.836   7.950
  168loPI    C1 2673  11.634  11.863   9.750
  168loPI    C2 2674  11.589  11.840  10.050
  168loPI    C3 2675  11.600  12.014  10.050
  168loPI   PO4 2676  11.658  11.951   9.450
  168loPI   GL1 2677  11.675  11.992   9.150
  168loPI   GL2 2678  11.676  11.819   9.150
  168loPI   C1A 2679  11.692  11.958   8.850
  168loPI   C2A 2680  11.669  11.963   8.550
  168loPI   C3A 2681  11.634  11.993   8.250
  168loPI   C4A 2682  11.623  11.966   7.950
  168loPI   C5A 2683  11.684  11.962   7.650
  168loPI   C6A 2684  11.653  11.970   7.350
  168loPI   C1B 2685  11.609  11.686   8.850
  168loPI   C2B 2686  11.587  11.703   8.550
  168loPI   C3B 2687  11.575  11.700   8.250
  168loPI   C4B 2688  11.655  11.753   7.950
  169loPI    C1 2689   3.497   7.316   9.750
  169loPI    C2 2690   3.547   7.378  10.050
  169loPI    C3 2691   3.678   7.308  10.050
  169loPI   PO4 2692   3.632   7.310   9.450
  169loPI   GL1 2693   3.639   7.315   9.150
  169loPI   GL2 2694   3.512   7.370   9.150
  169loPI   C1A 2695   3.638   7.380   8.850
  169loPI   C2A 2696   3.629   7.380   8.550
  169loPI   C3A 2697   3.603   7.321   8.250
  169loPI   C4A 2698   3.621   7.405   7.950
  169loPI   C5A 2699   3.693   7.387   7.650
  169loPI   C6A 2700   3.626   7.403   7.350
  169loPI   C1B 2701   3.390   7.354   8.850
  169loPI   C2B 2702   3.353   7.396   8.550
  169loPI   C3B 2703   3.373   7.401   8.250
  169loPI   C4B 2704   3.386   7.420   7.950
  170loPI    C1 2705   7.639  12.094   9.750
  170loPI    C2 2706   7.650  12.060  10.050
  170loPI    C3 2707   7.632  12.004  10.050
  170loPI   PO4 2708   7.670  11.955   9.450
  170loPI   GL1 2709   7.658  11.968   9.150
  170loPI   GL2 2710   7.555  12.115   9.150
  170loPI   C1A 2711   7.684  12.019   8.850
  170loPI   C2A 2712   7.682  11.962   8.550
  170loPI   C3A 2713   7.692  11.998   8.250
  170loPI   C4A 2714   7.683  11.969   7.950
  170loPI   C5A 2715   7.699  11.970   7.650
  170loPI   C6A 2716   7.674  12.004   7.350
  170loPI   C1B 2717   7.562  12.187   8.850
  170loPI   C2B 2718   7.521  12.197   8.550
  170loPI   C3B 2719   7.552  12.159   8.250
  170loPI   C4B 2720   7.529  12.164   7.950
  171loPI    C1 2721   9.180   7.463   9.750
  171loPI    C2 2722   9.255   7.446  10.050
  171loPI    C3 2723   9.226   7.356  10.050
  171loPI   PO4 2724   9.237   7.339   9.450
  171loPI   GL1 2725   9.224   7.343   9.150
  171loPI   GL2 2726   9.188   7.504   9.150
  171loPI   C1A 2727   9.299   7.355   8.850
  171loPI   C2A 2728   9.214   7.351   8.550
  171loPI   C3A 2729   9.247   7.320   8.250
  171loPI   C4A 2730   9.271   7.402   7.950
  171loPI   C5A 2731   9.287   7.334   7.650
  171loPI   C6A 2732   9.205   7.322   7.350
  171loPI   C1B 2733   9.195   7.584   8.850
  171loPI   C2B 2734   9.118   7.589   8.550
  171loPI   C3B 2735   9.125   7.639   8.250
  171loPI   C4B 2736   9.181   7.580   7.950
  172loPI    C1 2737   5.957  12.097   9.750
  172loPI    C2 2738   6.037  12.043  10.050
  172loPI    C3 2739   6.084  12.022  10.050
  172loPI   PO4 2740   6.083  11.995   9.450
  172loPI   GL1 2741   6.028  11.960   9.150
  172loPI   GL2 2742   6.019  12.059   9.150
  172loPI   C1A 2743   6.099  11.968   8.850
  172loPI   C2A 2744   6.092  11.938   8.550
  172loPI   C3A 2745   6.047  11.950   8.250
  172loPI   C4A 2746   6.072  11.932   7.950
  172loPI   C5A 2747   6.083  12.002   7.650
  172loPI   C6A 2748   6.064  11.951   7.350
  172loPI   C1B 2749   5.946  12.154   8.850
  172loPI   C2B 2750   5.899  12.150   8.550
  172loPI   C3B 2751   5.885  12.199   8.250
  172loPI   C4B 2752   5.968  12.231   7.950
  173loPI    C1 2753   1.361   3.506   9.750
  173loPI    C2 2754   1.377   3.566  10.050
  173loPI    C3 2755   1.270   3.485  10.050
  173loPI   PO4 2756   1.289   3.471   9.450
  173loPI   GL1 2757   1.222   3.508   9.150
  173loPI   GL2 2758   1.396   3.528   9.150
  173loPI   C1A 2759   1.241   3.488   8.850
  173loPI   C2A 2760   1.273   3.540   8.550
  173loPI   C3A 2761   1.273   3.485   8.250
  173loPI   C4A 2762   1.222   3.466   7.950
  173loPI   C5A 2763   1.251   3.520   7.650
  173loPI   C6A 2764   1.257   3.542   7.350
  173loPI   C1B 2765   1.538   3.506   8.850
  173loPI   C2B 2766   1.475   3.525   8.550
  173loPI   C3B 2767   1.489   3.482   8.250
  173loPI   C4B 2768   1.498   3.554   7.950
  174loPI    C1 2769  10.810  18.074   9.750
  174loPI    C2 2770  10.721  18.016  10.050
  174loPI    C3 2771  10.823  18.158  10.050
  174loPI   PO4 2772  10.814  18.140   9.450
  174loPI   GL1 2773  10.814  18.144   9.150
  174loPI   GL2 2774  10.755  18.026   9.150
  174loPI   C1A 2775  10.833  18.129   8.850
  174loPI   C2A 2776  10.849  18.101   8.550
  174loPI   C3A 2777  10.889  18.115   8.250
  174loPI   C4A 2778  10.865  18.165   7.950
  174loPI   C5A 2779  10.825  18.103   7.650
  174loPI   C6A 2780  10.843  18.078   7.350
  174loPI   C1B 2781  10.685  17.896   8.850
  174loPI   C2B 2782  10.670  17.963   8.550
  174loPI   C3B 2783  10.665  17.906   8.250
  174loPI   C4B 2784  10.661  17.897   7.950
  175loPI    C1 2785   5.369   0.473   9.750
  175loPI    C2 2786   5.363   0.429  10.050
  175loPI    C3 2787   5.274   0.442  10.050
  175loPI   PO4 2788   5.286   0.466   9.450
  175loPI   GL1 2789   5.280   0.401   9.150
  175loPI   GL2 2790   5.394   0.456   9.150
  175loPI   C1A 2791   5.278   0.416   8.850
  175loPI   C2A 2792   5.286   0.385   8.550
  175loPI   C3A 2793   5.296   0.446   8.250
  175loPI   C4A 2794   5.297   0.419   7.950
  175loPI   C5A 2795   5.216   0.397   7.650
  175loPI   C6A 2796   5.247   0.390   7.350
  175loPI   C1B 2797   5.489   0.454   8.850
  175loPI   C2B 2798   5.485   0.474   8.550
  175loPI   C3B 2799   5.513   0.509   8.250
  175loPI   C4B 2800   5.497   0.494   7.950
  176loPI    C1 2801   6.934   9.545   9.750
  176loPI    C2 2802   6.886   9.581  10.050
  176loPI    C3 2803   6.812   9.649  10.050
  176loPI   PO4 2804   6.846   9.653   9.450
  176loPI   GL1 2805   6.882   9.624   9.150
  176loPI   GL2 2806   6.961   9.576   9.150
  176loPI   C1A 2807   6.898   9.681   8.850
  176loPI   C2A 2808   6.874   9.691   8.550
  176loPI   C3A 2809   6.822   9.616   8.250
  176loPI   C4A 2810   6.859   9.695   7.950
  176loPI   C5A 2811   6.846   9.626   7.650
  176loPI   C6A 2812   6.805   9.666   7.350
  176loPI   C1B 2813   7.015   9.484   8.850
  176loPI   C2B 2814   6.975   9.507   8.550
  176loPI   C3B 2815   7.017   9.429   8.250
  176loPI   C4B 2816   7.031   9.493   7.950
  177loPI    C1 2817   8.465   5.934   9.750
  177loPI    C2 2818   8.477   5.933  10.050
  177loPI    C3 2819   8.481   5.795  10.050
  177loPI   PO4 2820   8.430   5.771   9.450
  177loPI   GL1 2821   8.432   5.823   9.150
  177loPI   GL2 2822   8.463   5.931   9.150
  177loPI   C1A 2823   8.405   5.853   8.850
  177loPI   C2A 2824   8.400   5.853   8.550
  177loPI   C3A 2825   8.475   5.855   8.250
  177loPI   C4A 2826   8.423   5.801   7.950
  177loPI   C5A 2827   8.421   5.784   7.650
  177loPI   C6A 2828   8.469   5.809   7.350
  177loPI   C1B 2829   8.596   6.028   8.850
  177loPI   C2B 2830   8.610   6.024   8.550
  177loPI   C3B 2831   8.566   6.061   8.250
  177loPI   C4B 2832   8.558   6.024   7.950
  178loPI    C1 2833   5.896  18.110   9.750
  178loPI    C2 2834   5.936  18.106  10.050
  178loPI    C3 2835   6.081  18.082  10.050
  178loPI   PO4 2836   6.090  18.130   9.450
  178loPI   GL1 2837   6.094  18.113   9.150
  178loPI   GL2 2838   5.943  18.047   9.150
  178loPI   C1A 2839   6.035  18.175   8.850
  178loPI   C2A 2840   6.007  18.079   8.550
  178loPI   C3A 2841   6.026  18.122   8.250
  178loPI   C4A 2842   6.073  18.174   7.950
  178loPI   C5A 2843   6.076  18.154   7.650
  178loPI   C6A 2844   6.007  18.131   7.350
  178loPI   C1B 2845   5.798  18.053   8.850
  178loPI   C2B 2846   5.795  18.023   8.550
  178loPI   C3B 2847   5.770  18.024   8.250
  178loPI   C4B 2848   5.793  18.034   7.950
  179loPI    C1 2849   9.266  15.742   9.750
  179loPI    C2 2850   9.271  15.656  10.050
  179loPI    C3 2851   9.294  15.817  10.050
  179loPI   PO4 2852   9.232  15.836   9.450
  179loPI   GL1 2853   9.284  15.819   9.150
  179loPI   GL2 2854   9.245  15.669   9.150
  179loPI   C1A 2855   9.296  15.837   8.850
  179loPI   C2A 2856   9.255  15.845   8.550
  179loPI   C3A 2857   9.228  15.845   8.250
  179loPI   C4A 2858   9.249  15.779   7.950
  179loPI   C5A 2859   9.276  15.811   7.650
  179loPI   C6A 2860   9.251  15.846   7.350
  179loPI   C1B 2861   9.266  15.620   8.850
  179loPI   C2B 2862   9.226  15.589   8.550
  179loPI   C3B 2863   9.264  15.588   8.250
  179loPI   C4B 2864   9.219  15.619   7.950
  180loPI    C1 2865   5.325  19.649   9.750
  180loPI    C2 2866   5.388  19.605  10.050
  180loPI    C3 2867   5.296  19.668  10.050
  180loPI   PO4 2868   5.271  19.691   9.450
  180loPI   GL1 2869   5.210  19.629   9.150
  180loPI   GL2 2870   5.404  19.651   9.150
  180loPI   C1A 2871   5.256  19.652   8.850
  180loPI   C2A 2872   5.216  19.664   8.550
  180loPI   C3A 2873   5.235  19.628   8.250
  180loPI   C4A 2874   5.241  19.707   7.950
  180loPI   C5A 2875   5.294  19.679   7.650
  180loPI   C6A 2876   5.221  19.682   7.350
  180loPI   C1B 2877   5.478  19.627   8.850
  180loPI   C2B 2878   5.539  19.647   8.550
  180loPI   C3B 2879   5.502  19.561   8.250
  180loPI   C4B 2880   5.508  19.564   7.950
  181loPI    C1 2881   6.140   8.032   9.750
  181loPI    C2 2882   6.182   8.056  10.050
  181loPI    C3 2883   6.077   8.166  10.050
  181loPI   PO4 2884   6.086   8.165   9.450
  181loPI   GL1 2885   6.014   8.162   9.150
  181loPI   GL2 2886   6.145   8.098   9.150
  181loPI   C1A 2887   6.008   8.145   8.850
  181loPI   C2A 2888   6.098   8.147   8.550
  181loPI   C3A 2889   6.066   8.159   8.250
  181loPI   C4A 2890   6.098   8.160   7.950
  181loPI   C5A 2891   6.042   8.172   7.650
  181loPI   C6A 2892   6.022   8.102   7.350
  181loPI   C1B 2893   6.279   7.989   8.850
  181loPI   C2B 2894   6.303   7.980   8.550
  181loPI   C3B 2895   6.302   8.011   8.250
  181loPI   C4B 2896   6.246   7.972   7.950
  182loPI    C1 2897   9.952   1.174   9.750
  182loPI    C2 2898   9.890   1.204  10.050
  182loPI    C3 2899  10.034   1.190  10.050
  182loPI   PO4 2900  10.004   1.160   9.450
  182loPI   GL1 2901  10.092   1.157   9.150
  182loPI   GL2 2902   9.934   1.243   9.150
  182loPI   C1A 2903  10.050   1.171   8.850
  182loPI   C2A 2904  10.074   1.185   8.550
  182loPI   C3A 2905  10.031   1.233   8.250
  182loPI   C4A 2906  10.021   1.217   7.950
  182loPI   C5A 2907  10.089   1.158   7.650
  182loPI   C6A 2908  10.087   1.218   7.350
  182loPI   C1B 2909   9.788   1.194   8.850
  182loPI   C2B 2910   9.753   1.181   8.550
  182loPI   C3B 2911   9.789   1.185   8.250
  182loPI   C4B 2912   9.751   1.249   7.950
  183loPI    C1 2913   2.170   2.826   9.750
  183loPI    C2 2914   2.198   2.780  10.050
  183loPI    C3 2915   2.041   2.708  10.050
  183loPI   PO4 2916   2.017   2.725   9.450
  183loPI   GL1 2917   2.083   2.770   9.150
  183loPI   GL2 2918   2.175   2.860   9.150
  183loPI   C1A 2919   2.005   2.742   8.850
  183loPI   C2A 2920   2.087   2.740   8.550
  183loPI   C3A 2921   2.097   2.693   8.250
  183loPI   C4A 2922   2.054   2.760   7.950
  183loPI   C5A 2923   2.085   2.756   7.650
  183loPI   C6A 2924   2.025   2.726   7.350
  183loPI   C1B 2925   2.215   2.891   8.850
  183loPI   C2B 2926   2.210   2.886   8.550
  183loPI   C3B 2927   2.259   2.849   8.250
  183loPI   C4B 2928   2.214   2.923   7.950
  184loPI    C1 2929   3.734   2.072   9.750
  184loPI    C2 2930   3.715   2.115  10.050
  184loPI    C3 2931   3.626   1.934  10.050
  184loPI   PO4 2932   3.653   2.002   9.450
  184loPI   GL1 2933   3.662   1.944   9.150
  184loPI   GL2 2934   3.704   2.119   9.150
  184loPI   C1A 2935   3.620   1.997   8.850
  184loPI   C2A 2936   3.693   1.960   8.550
  184loPI   C3A 2937   3.631   1.970   8.250
  184loPI   C4A 2938   3.615   1.978   7.950
  184loPI   C5A 2939   3.653   1.940   7.650
  184loPI   C6A 2940   3.651   1.965   7.350
  184loPI   C1B 2941   3.852   2.161   8.850
  184loPI   C2B 2942   3.822   2.201   8.550
  184loPI   C3B 2943   3.813   2.159   8.250
  184loPI   C4B 2944   3.763   2.138   7.950
  185loPI    C1 2945   9.899   7.307   9.750
  185loPI    C2 2946   9.934   7.333  10.050
  185loPI    C3 2947  10.014   7.350  10.050
  185loPI   PO4 2948  10.055   7.369   9.450
  185loPI   GL1 2949  10.064   7.365   9.150
  185loPI   GL2 2950   9.914   7.339   9.150
  185loPI   C1A 2951  10.028   7.389   8.850
  185loPI   C2A 2952  10.086   7.406   8.550
  185loPI   C3A 2953  10.077   7.399   8.250
  185loPI   C4A 2954  10.094   7.326   7.950
  185loPI   C5A 2955  10.044   7.315   7.650
  185loPI   C6A 2956  10.008   7.360   7.350
  185loPI   C1B 2957   9.828   7.258   8.850
  185loPI   C2B 2958   9.765   7.265   8.550
  185loPI   C3B 2959   9.765   7.284   8.250
  185loPI   C4B 2960   9.857   7.301   7.950
  186loPI    C1 2961   5.964  10.399   9.750
  186loPI    C2 2962   5.946  10.433  10.050
  186loPI    C3 2963   6.023  10.439  10.050
  186loPI   PO4 2964   6.001  10.440   9.450
  186loPI   GL1 2965   6.039  10.418   9.150
  186loPI   GL2 2966   5.904  10.364   9.150
  186loPI   C1A 2967   6.057  10.387   8.850
  186loPI   C2A 2968   6.043  10.461   8.550
  186loPI   C3A 2969   6.076  10.483   8.250
  186loPI   C4A 2970   6.084  10.444   7.950
  186loPI   C5A 2971   6.024  10.411   7.650
  186loPI   C6A 2972   6.084  10.412   7.350
  186loPI   C1B 2973   5.828  10.347   8.850
  186loPI   C2B 2974   5.849  10.400   8.550
  186loPI   C3B 2975   5.849  10.321   8.250
  186loPI   C4B 2976   5.842  10.324   7.950
  187loPI    C1 2977   8.419  18.282   9.750
  187loPI    C2 2978   8.395  18.204  10.050
  187loPI    C3 2979   8.417  18.094  10.050
  187loPI   PO4 2980   8.431  18.172   9.450
  187loPI   GL1 2981   8.406  18.104   9.150
  187loPI   GL2 2982   8.390  18.242   9.150
  187loPI   C1A 2983   8.489  18.103   8.850
  187loPI   C2A 2984   8.442  18.165   8.550
  187loPI   C3A 2985   8.400  18.108   8.250
  187loPI   C4A 2986   8.423  18.098   7.950
  187loPI   C5A 2987   8.444  18.106   7.650
  187loPI   C6A 2988   8.458  18.148   7.350
  187loPI   C1B 2989   8.421  18.318   8.850
  187loPI   C2B 2990   8.430  18.394   8.550
  187loPI   C3B 2991   8.392  18.374   8.250
  187loPI   C4B 2992   8.391  18.327   7.950
  188loPI    C1 2993   2.809  11.892   9.750
  188loPI    C2 2994   2.822  11.859  10.050
  188loPI    C3 2995   2.890  12.016  10.050
  188loPI   PO4 2996   2.813  11.947   9.450
  188loPI   GL1 2997   2.830  11.987   9.150
  188loPI   GL2 2998   2.827  11.839   9.150
  188loPI   C1A 2999   2.892  11.996   8.850
  188loPI   C2A 3000   2.841  11.967   8.550
  188loPI   C3A 3001   2.833  11.987   8.250
  188loPI   C4A 3002   2.852  11.979   7.950
  188loPI   C5A 3003   2.848  11.986   7.650
  188loPI   C6A 3004   2.815  11.949   7.350
  188loPI   C1B 3005   2.739  11.734   8.850
  188loPI   C2B 3006   2.711  11.728   8.550
  188loPI   C3B 3007   2.661  11.798   8.250
  188loPI   C4B 3008   2.755  11.746   7.950
  189loPI    C1 3009  11.563  19.528   9.750
  189loPI    C2 3010  11.601  19.579  10.050
  189loPI    C3 3011  11.654  19.655  10.050
  189loPI   PO4 3012  11.603  19.704   9.450
  189loPI   GL1 3013  11.609  19.681   9.150
  189loPI   GL2 3014  11.598  19.533   9.150
  189loPI   C1A 3015  11.661  19.692   8.850
  189loPI   C2A 3016  11.664  19.700   8.550
  189loPI   C3A 3017  11.603  19.667   8.250
  189loPI   C4A 3018  11.679  19.664   7.950
  189loPI   C5A 3019  11.652  19.660   7.650
  189loPI   C6A 3020  11.620  19.660   7.350
  189loPI   C1B 3021  11.596  19.397   8.850
  189loPI   C2B 3022  11.590  19.418   8.550
  189loPI   C3B 3023  11.566  19.480   8.250
  189loPI   C4B 3024  11.550  19.446   7.950
  190loPI    C1 3025   5.141  15.033   9.750
  190loPI    C2 3026   5.128  15.002  10.050
  190loPI    C3 3027   5.296  15.054  10.050
  190loPI   PO4 3028   5.262  15.054   9.450
  190loPI   GL1 3029   5.207  15.057   9.150
  190loPI   GL2 3030   5.166  15.022   9.150
  190loPI   C1A 3031   5.226  15.035   8.850
  190loPI   C2A 3032   5.269  15.016   8.550
  190loPI   C3A 3033   5.287  15.032   8.250
  190loPI   C4A 3034   5.265  15.070   7.950
  190loPI   C5A 3035   5.288  15.062   7.650
  190loPI   C6A 3036   5.201  15.097   7.350
  190loPI   C1B 3037   5.007  14.933   8.850
  190loPI   C2B 3038   5.061  14.963   8.550
  190loPI   C3B 3039   4.982  14.920   8.250
  190loPI   C4B 3040   5.001  14.913   7.950
  191loPI    C1 3041   4.388   8.761   9.750
  191loPI    C2 3042   4.406   8.795  10.050
  191loPI    C3 3043   4.429   8.851  10.050
  191loPI   PO4 3044   4.443   8.892   9.450
  191loPI   GL1 3045   4.450   8.858   9.150
  191loPI   GL2 3046   4.341   8.821   9.150
  191loPI   C1A 3047   4.498   8.936   8.850
  191loPI   C2A 3048   4.447   8.881   8.550
  191loPI   C3A 3049   4.469   8.905   8.250
  191loPI   C4A 3050   4.476   8.865   7.950
  191loPI   C5A 3051   4.403   8.857   7.650
  191loPI   C6A 3052   4.489   8.913   7.350
  191loPI   C1B 3053   4.309   8.692   8.850
  191loPI   C2B 3054   4.310   8.737   8.550
  191loPI   C3B 3055   4.343   8.699   8.250
  191loPI   C4B 3056   4.327   8.666   7.950
  192loPI    C1 3057   2.005  19.579   9.750
  192loPI    C2 3058   1.949  19.601  10.050
  192loPI    C3 3059   2.070  19.631  10.050
  192loPI   PO4 3060   2.025  19.650   9.450
  192loPI   GL1 3061   2.028  19.648   9.150
  192loPI   GL2 3062   1.980  19.581   9.150
  192loPI   C1A 3063   2.033  19.672   8.850
  192loPI   C2A 3064   2.002  19.681   8.550
  192loPI   C3A 3065   2.011  19.699   8.250
  192loPI   C4A 3066   2.055  19.678   7.950
  192loPI   C5A 3067   2.075  19.688   7.650
  192loPI   C6A 3068   2.045  19.668   7.350
  192loPI   C1B 3069   1.850  19.452   8.850
  192loPI   C2B 3070   1.847  19.519   8.550
  192loPI   C3B 3071   1.849  19.510   8.250
  192loPI   C4B 3072   1.848  19.475   7.950
  193loPI    C1 3073  11.508  18.980   9.750
  193loPI    C2 3074  11.531  18.985  10.050
  193loPI    C3 3075  11.621  18.890  10.050
  193loPI   PO4 3076  11.678  18.884   9.450
  193loPI   GL1 3077  11.682  18.910   9.150
  193loPI   GL2 3078  11.570  18.894   9.150
  193loPI   C1A 3079  11.634  18.890   8.850
  193loPI   C2A 3080  11.621  18.915   8.550
  193loPI   C3A 3081  11.680  18.932   8.250
  193loPI   C4A 3082  11.663  18.941   7.950
  193loPI   C5A 3083  11.667  18.874   7.650
  193loPI   C6A 3084  11.662  18.857   7.350
  193loPI   C1B 3085  11.461  19.005   8.850
  193loPI   C2B 3086  11.461  18.974   8.550
  193loPI   C3B 3087  11.372  19.015   8.250
  193loPI   C4B 3088  11.430  18.968   7.950
  194loPI    C1 3089   4.483  14.385   9.750
  194loPI    C2 3090   4.535  14.385  10.050
  194loPI    C3 3091   4.459  14.290  10.050
  194loPI   PO4 3092   4.423  14.252   9.450
  194loPI   GL1 3093   4.451  14.233   9.150
  194loPI   GL2 3094   4.540  14.394   9.150
  194loPI   C1A 3095   4.451  14.250   8.850
  194loPI   C2A 3096   4.449  14.262   8.550
  194loPI   C3A 3097   4.450  14.302   8.250
  194loPI   C4A 3098   4.473  14.272   7.950
  194loPI   C5A 3099   4.438  14.324   7.650
  194loPI   C6A 3100   4.440  14.243   7.350
  194loPI   C1B 3101   4.555  14.510   8.850
  194loPI   C2B 3102   4.539  14.557   8.550
  194loPI   C3B 3103   4.543  14.529   8.250
  194loPI   C4B 3104   4.545  14.510   7.950
  195loPI    C1 3105   2.035  13.669   9.750
  195loPI    C2 3106   2.088  13.640  10.050
  195loPI    C3 3107   2.089  13.501  10.050
  195loPI   PO4 3108   2.042  13.522   9.450
  195loPI   GL1 3109   2.096  13.522   9.150
  195loPI   GL2 3110   2.098  13.600   9.150
  195loPI   C1A 3111   2.060  13.486   8.850
  195loPI   C2A 3112   2.086  13.551   8.550
  195loPI   C3A 3113   2.008  13.472   8.250
  195loPI   C4A 3114   2.048  13.507   7.950
  195loPI   C5A 3115   2.031  13.542   7.650
  195loPI   C6A 3116   2.057  13.482   7.350
  195loPI   C1B 3117   2.079  13.716   8.850
  195loPI   C2B 3118   2.124  13.794   8.550
  195loPI   C3B 3119   2.069  13.712   8.250
  195loPI   C4B 3120   2.106  13.801   7.950
  196loPI    C1 3121   6.880  12.599   9.750
  196loPI    C2 3122   6.845  12.617  10.050
  196loPI    C3 3123   6.861  12.788  10.050
  196loPI   PO4 3124   6.853  12.699   9.450
  196loPI   GL1 3125   6.818  12.707   9.150
  196loPI   GL2 3126   6.856  12.617   9.150
  196loPI   C1A 3127   6.830  12.753   8.850
  196loPI   C2A 3128   6.801  12.703   8.550
  196loPI   C3A 3129   6.871  12.738   8.250
  196loPI   C4A 3130   6.895  12.722   7.950
  196loPI   C5A 3131   6.886  12.729   7.650
  196loPI   C6A 3132   6.856  12.697   7.350
  196loPI   C1B 3133   6.972  12.511   8.850
  196loPI   C2B 3134   6.952  12.531   8.550
  196loPI   C3B 3135   6.946  12.483   8.250
  196loPI   C4B 3136   6.943  12.517   7.950
  197loPI    C1 3137   2.067   9.539   9.750
  197loPI    C2 3138   2.063   9.531  10.050
  197loPI    C3 3139   2.075   9.662  10.050
  197loPI   PO4 3140   2.067   9.699   9.450
  197loPI   GL1 3141   2.097   9.665   9.150
  197loPI   GL2 3142   2.083   9.556   9.150
  197loPI   C1A 3143   2.005   9.637   8.850
  197loPI   C2A 3144   2.098   9.628   8.550
  197loPI   C3A 3145   2.064   9.690   8.250
  197loPI   C4A 3146   2.013   9.711   7.950
  197loPI   C5A 3147   2.067   9.631   7.650
  197loPI   C6A 3148   2.059   9.668   7.350
  197loPI   C1B 3149   2.039   9.378   8.850
  197loPI   C2B 3150   2.106   9.393   8.550
  197loPI   C3B 3151   2.065   9.419   8.250
  197loPI   C4B 3152   2.075   9.381   7.950
  198loPI    C1 3153   2.979   5.812   9.750
  198loPI    C2 3154   2.997   5.746  10.050
  198loPI    C3 3155   2.893   5.781  10.050
  198loPI   PO4 3156   2.869   5.783   9.450
  198loPI   GL1 3157   2.814   5.859   9.150
  198loPI   GL2 3158   3.020   5.806   9.150
  198loPI   C1A 3159   2.847   5.789   8.850
  198loPI   C2A 3160   2.895   5.791   8.550
  198loPI   C3A 3161   2.876   5.862   8.250
  198loPI   C4A 3162   2.845   5.845   7.950
  198loPI   C5A 3163   2.836   5.823   7.650
  198loPI   C6A 3164   2.808   5.841   7.350
  198loPI   C1B 3165   3.130   5.757   8.850
  198loPI   C2B 3166   3.116   5.772   8.550
  198loPI   C3B 3167   3.136   5.744   8.250
  198loPI   C4B 3168   3.076   5.789   7.950
  199loPI    C1 3169   7.576  15.897   9.750
  199loPI    C2 3170   7.601  15.876  10.050
  199loPI    C3 3171   7.658  15.823  10.050
  199loPI   PO4 3172   7.664  15.774   9.450
  199loPI   GL1 3173   7.624  15.850   9.150
  199loPI   GL2 3174   7.534  15.883   9.150
  199loPI   C1A 3175   7.680  15.836   8.850
  199loPI   C2A 3176   7.653  15.850   8.550
  199loPI   C3A 3177   7.612  15.847   8.250
  199loPI   C4A 3178   7.610  15.780   7.950
  199loPI   C5A 3179   7.602  15.861   7.650
  199loPI   C6A 3180   7.608  15.860   7.350
  199loPI   C1B 3181   7.535  16.013   8.850
  199loPI   C2B 3182   7.486  15.982   8.550
  199loPI   C3B 3183   7.530  16.000   8.250
  199loPI   C4B 3184   7.539  15.986   7.950
  200loPI    C1 3185   4.329  13.425   9.750
  200loPI    C2 3186   4.319  13.410  10.050
  200loPI    C3 3187   4.495  13.487  10.050
  200loPI   PO4 3188   4.441  13.545   9.450
  200loPI   GL1 3189   4.414  13.555   9.150
  200loPI   GL2 3190   4.407  13.409   9.150
  200loPI   C1A 3191   4.488  13.486   8.850
  200loPI   C2A 3192   4.490  13.544   8.550
  200loPI   C3A 3193   4.435  13.501   8.250
  200loPI   C4A 3194   4.403  13.552   7.950
  200loPI   C5A 3195   4.491  13.501   7.650
  200loPI   C6A 3196   4.441  13.471   7.350
  200loPI   C1B 3197   4.306  13.345   8.850
  200loPI   C2B 3198   4.315  13.336   8.550
  200loPI   C3B 3199   4.301  13.361   8.250
  200loPI   C4B 3200   4.301  13.349   7.950
  201loPI    C1 3201   4.513   7.484   9.750
  201loPI    C2 3202   4.509   7.481  10.050
  201loPI    C3 3203   4.465   7.325  10.050
  201loPI   PO4 3204   4.495   7.333   9.450
  201loPI   GL1 3205   4.484   7.331   9.150
  201loPI   GL2 3206   4.490   7.423   9.150
  201loPI   C1A 3207   4.488   7.323   8.850
  201loPI   C2A 3208   4.404   7.374   8.550
  201loPI   C3A 3209   4.438   7.333   8.250
  201loPI   C4A 3210   4.477   7.322   7.950
  201loPI   C5A 3211   4.499   7.340   7.650
  201loPI   C6A 3212   4.483   7.346   7.350
  201loPI   C1B 3213   4.630   7.611   8.850
  201loPI   C2B 3214   4.613   7.615   8.550
  201loPI   C3B 3215   4.586   7.609   8.250
  201loPI   C4B 3216   4.535   7.572   7.950
  202loPI    C1 3217   8.487   7.246   9.750
  202loPI    C2 3218   8.430   7.237  10.050
  202loPI    C3 3219   8.443   7.311  10.050
  202loPI   PO4 3220   8.431   7.405   9.450
  202loPI   GL1 3221   8.477   7.366   9.150
  202loPI   GL2 3222   8.483   7.235   9.150
  202loPI   C1A 3223   8.464   7.312   8.850
  202loPI   C2A 3224   8.409   7.374   8.550
  202loPI   C3A 3225   8.425   7.370   8.250
  202loPI   C4A 3226   8.453   7.369   7.950
  202loPI   C5A 3227   8.475   7.353   7.650
  202loPI   C6A 3228   8.408   7.363   7.350
  202loPI   C1B 3229   8.502   7.093   8.850
  202loPI   C2B 3230   8.483   7.103   8.550
  202loPI   C3B 3231   8.502   7.129   8.250
  202loPI   C4B 3232   8.479   7.093   7.950
  203loPI    C1 3233  11.611  13.417   9.750
  203loPI    C2 3234  11.577  13.446  10.050
  203loPI    C3 3235  11.672  13.485  10.050
  203loPI   PO4 3236  11.626  13.489   9.450
  203loPI   GL1 3237  11.659  13.483   9.150
  203loPI   GL2 3238  11.561  13.367   9.150
  203loPI   C1A 3239  11.665  13.518   8.850
  203loPI   C2A 3240  11.632  13.522   8.550
  203loPI   C3A 3241  11.691  13.528   8.250
  203loPI   C4A 3242  11.692  13.560   7.950
  203loPI   C5A 3243  11.605  13.541   7.650
  203loPI   C6A 3244  11.627  13.474   7.350
  203loPI   C1B 3245  11.476  13.289   8.850
  203loPI   C2B 3246  11.538  13.331   8.550
  203loPI   C3B 3247  11.543  13.269   8.250
  203loPI   C4B 3248  11.522  13.265   7.950
  204loPI    C1 3249   2.133  16.511   9.750
  204loPI    C2 3250   2.133  16.534  10.050
  204loPI    C3 3251   2.023  16.577  10.050
  204loPI   PO4 3252   2.007  16.633   9.450
  204loPI   GL1 3253   2.082  16.621   9.150
  204loPI   GL2 3254   2.162  16.560   9.150
  204loPI   C1A 3255   2.002  16.606   8.850
  204loPI   C2A 3256   2.059  16.622   8.550
  204loPI   C3A 3257   2.067  16.593   8.250
  204loPI   C4A 3258   2.021  16.637   7.950
  204loPI   C5A 3259   2.054  16.583   7.650
  204loPI   C6A 3260   2.094  16.625   7.350
  204loPI   C1B 3261   2.267  16.468   8.850
  204loPI   C2B 3262   2.241  16.516   8.550
  204loPI   C3B 3263   2.243  16.454   8.250
  204loPI   C4B 3264   2.306  16.458   7.950
  205loPI    C1 3265   7.570  12.889   9.750
  205loPI    C2 3266   7.561  12.863  10.050
  205loPI    C3 3267   7.637  12.789  10.050
  205loPI   PO4 3268   7.619  12.777   9.450
  205loPI   GL1 3269   7.630  12.711   9.150
  205loPI   GL2 3270   7.583  12.807   9.150
  205loPI   C1A 3271   7.621  12.747   8.850
  205loPI   C2A 3272   7.690  12.762   8.550
  205loPI   C3A 3273   7.671  12.727   8.250
  205loPI   C4A 3274   7.634  12.708   7.950
  205loPI   C5A 3275   7.648  12.701   7.650
  205loPI   C6A 3276   7.664  12.702   7.350
  205loPI   C1B 3277   7.542  12.994   8.850
  205loPI   C2B 3278   7.563  12.922   8.550
  205loPI   C3B 3279   7.512  12.975   8.250
  205loPI   C4B 3280   7.551  13.004   7.950
  206loPI    C1 3281   9.173   6.685   9.750
  206loPI    C2 3282   9.196   6.727  10.050
  206loPI    C3 3283   9.220   6.621  10.050
  206loPI   PO4 3284   9.272   6.564   9.450
  206loPI   GL1 3285   9.230   6.630   9.150
  206loPI   GL2 3286   9.141   6.695   9.150
  206loPI   C1A 3287   9.217   6.555   8.850
  206loPI   C2A 3288   9.263   6.598   8.550
  206loPI   C3A 3289   9.226   6.598   8.250
  206loPI   C4A 3290   9.290   6.569   7.950
  206loPI   C5A 3291   9.276   6.582   7.650
  206loPI   C6A 3292   9.219   6.565   7.350
  206loPI   C1B 3293   9.076   6.795   8.850
  206loPI   C2B 3294   9.138   6.750   8.550
  206loPI   C3B 3295   9.153   6.812   8.250
  206loPI   C4B 3296   9.148   6.746   7.950
  207loPI    C1 3297   0.601   4.270   9.750
  207loPI    C2 3298   0.581   4.259  10.050
  207loPI    C3 3299   0.463   4.290  10.050
  207loPI   PO4 3300   0.500   4.267   9.450
  207loPI   GL1 3301   0.462   4.259   9.150
  207loPI   GL2 3302   0.592   4.227   9.150
  207loPI   C1A 3303   0.423   4.285   8.850
  207loPI   C2A 3304   0.463   4.295   8.550
  207loPI   C3A 3305   0.474   4.317   8.250
  207loPI   C4A 3306   0.441   4.314   7.950
  207loPI   C5A 3307   0.446   4.275   7.650
  207loPI   C6A 3308   0.456   4.277   7.350
  207loPI   C1B 3309   0.700   4.308   8.850
  207loPI   C2B 3310   0.670   4.222   8.550
  207loPI   C3B 3311   0.690   4.272   8.250
  207loPI   C4B 3312   0.743   4.230   7.950
  208loPI    C1 3313   4.412   4.417   9.750
  208loPI    C2 3314   4.325   4.335  10.050
  208loPI    C3 3315   4.408   4.264  10.050
  208loPI   PO4 3316   4.463   4.315   9.450
  208loPI   GL1 3317   4.427   4.278   9.150
  208loPI   GL2 3318   4.341   4.333   9.150
  208loPI   C1A 3319   4.484   4.274   8.850
  208loPI   C2A 3320   4.428   4.292   8.550
  208loPI   C3A 3321   4.414   4.298   8.250
  208loPI   C4A 3322   4.476   4.249   7.950
  208loPI   C5A 3323   4.401   4.326   7.650
  208loPI   C6A 3324   4.500   4.307   7.350
  208loPI   C1B 3325   4.286   4.433   8.850
  208loPI   C2B 3326   4.277   4.467   8.550
  208loPI   C3B 3327   4.301   4.504   8.250
  208loPI   C4B 3328   4.261   4.435   7.950
  209loPI    C1 3329   8.412   5.150   9.750
  209loPI    C2 3330   8.446   5.191  10.050
  209loPI    C3 3331   8.446   5.074  10.050
  209loPI   PO4 3332   8.467   5.025   9.450
  209loPI   GL1 3333   8.461   5.012   9.150
  209loPI   GL2 3334   8.491   5.184   9.150
  209loPI   C1A 3335   8.444   5.027   8.850
  209loPI   C2A 3336   8.481   5.041   8.550
  209loPI   C3A 3337   8.462   5.095   8.250
  209loPI   C4A 3338   8.490   5.020   7.950
  209loPI   C5A 3339   8.476   5.010   7.650
  209loPI   C6A 3340   8.456   5.045   7.350
  209loPI   C1B 3341   8.419   5.280   8.850
  209loPI   C2B 3342   8.453   5.264   8.550
  209loPI   C3B 3343   8.444   5.290   8.250
  209loPI   C4B 3344   8.434   5.312   7.950
  210loPI    C1 3345   0.461  14.441   9.750
  210loPI    C2 3346   0.461  14.385  10.050
  210loPI    C3 3347   0.480  14.279  10.050
  210loPI   PO4 3348   0.469  14.239   9.450
  210loPI   GL1 3349   0.443  14.279   9.150
  210loPI   GL2 3350   0.449  14.372   9.150
  210loPI   C1A 3351   0.409  14.281   8.850
  210loPI   C2A 3352   0.463  14.330   8.550
  210loPI   C3A 3353   0.429  14.239   8.250
  210loPI   C4A 3354   0.404  14.244   7.950
  210loPI   C5A 3355   0.413  14.256   7.650
  210loPI   C6A 3356   0.407  14.284   7.350
  210loPI   C1B 3357   0.439  14.530   8.850
  210loPI   C2B 3358   0.518  14.506   8.550
  210loPI   C3B 3359   0.500  14.518   8.250
  210loPI   C4B 3360   0.456  14.558   7.950
  211loPI    C1 3361   1.899  18.873   9.750
  211loPI    C2 3362   1.891  18.844  10.050
  211loPI    C3 3363   2.029  18.945  10.050
  211loPI   PO4 3364   2.079  18.900   9.450
  211loPI   GL1 3365   2.002  18.945   9.150
  211loPI   GL2 3366   1.911  18.912   9.150
  211loPI   C1A 3367   2.016  18.850   8.850
  211loPI   C2A 3368   2.064  18.900   8.550
  211loPI   C3A 3369   2.031  18.926   8.250
  211loPI   C4A 3370   2.065  18.901   7.950
  211loPI   C5A 3371   2.075  18.902   7.650
  211loPI   C6A 3372   2.001  18.886   7.350
  211loPI   C1B 3373   1.805  18.854   8.850
  211loPI   C2B 3374   1.825  18.907   8.550
  211loPI   C3B 3375   1.832  18.882   8.250
  211loPI   C4B 3376   1.764  18.888   7.950
  212loPI    C1 3377   1.328   4.355   9.750
  212loPI    C2 3378   1.262   4.409  10.050
  212loPI    C3 3379   1.220   4.245  10.050
  212loPI   PO4 3380   1.291   4.251   9.450
  212loPI   GL1 3381   1.219   4.330   9.150
  212loPI   GL2 3382   1.259   4.401   9.150
  212loPI   C1A 3383   1.201   4.253   8.850
  212loPI   C2A 3384   1.288   4.315   8.550
  212loPI   C3A 3385   1.270   4.243   8.250
  212loPI   C4A 3386   1.256   4.242   7.950
  212loPI   C5A 3387   1.214   4.304   7.650
  212loPI   C6A 3388   1.285   4.255   7.350
  212loPI   C1B 3389   1.267   4.513   8.850
  212loPI   C2B 3390   1.334   4.566   8.550
  212loPI   C3B 3391   1.366   4.489   8.250
  212loPI   C4B 3392   1.301   4.475   7.950
  213loPI    C1 3393  10.034  14.183   9.750
  213loPI    C2 3394  10.065  14.197  10.050
  213loPI    C3 3395  10.085  14.329  10.050
  213loPI   PO4 3396  10.029  14.274   9.450
  213loPI   GL1 3397  10.008  14.268   9.150
  213loPI   GL2 3398  10.074  14.203   9.150
  213loPI   C1A 3399  10.036  14.243   8.850
  213loPI   C2A 3400  10.028  14.313   8.550
  213loPI   C3A 3401  10.081  14.286   8.250
  213loPI   C4A 3402  10.072  14.331   7.950
  213loPI   C5A 3403  10.027  14.280   7.650
  213loPI   C6A 3404  10.024  14.274   7.350
  213loPI   C1B 3405  10.021  14.020   8.850
  213loPI   C2B 3406  10.006  14.021   8.550
  213loPI   C3B 3407  10.038  14.067   8.250
  213loPI   C4B 3408   9.996  13.985   7.950
  214loPI    C1 3409  10.729  12.663   9.750
  214loPI    C2 3410  10.812  12.636  10.050
  214loPI    C3 3411  10.880  12.759  10.050
  214loPI   PO4 3412  10.818  12.742   9.450
  214loPI   GL1 3413  10.814  12.757   9.150
  214loPI   GL2 3414  10.741  12.597   9.150
  214loPI   C1A 3415  10.820  12.731   8.850
  214loPI   C2A 3416  10.847  12.712   8.550
  214loPI   C3A 3417  10.892  12.787   8.250
  214loPI   C4A 3418  10.850  12.784   7.950
  214loPI   C5A 3419  10.837  12.711   7.650
  214loPI   C6A 3420  10.871  12.731   7.350
  214loPI   C1B 3421  10.700  12.591   8.850
  214loPI   C2B 3422  10.704  12.571   8.550
  214loPI   C3B 3423  10.688  12.584   8.250
  214loPI   C4B 3424  10.702  12.587   7.950
  215loPI    C1 3425   3.615   1.054   9.750
  215loPI    C2 3426   3.603   1.074  10.050
  215loPI    C3 3427   3.638   1.193  10.050
  215loPI   PO4 3428   3.682   1.174   9.450
  215loPI   GL1 3429   3.627   1.209   9.150
  215loPI   GL2 3430   3.568   1.099   9.150
  215loPI   C1A 3431   3.618   1.230   8.850
  215loPI   C2A 3432   3.679   1.229   8.550
  215loPI   C3A 3433   3.639   1.223   8.250
  215loPI   C4A 3434   3.628   1.249   7.950
  215loPI   C5A 3435   3.619   1.199   7.650
  215loPI   C6A 3436   3.614   1.215   7.350
  215loPI   C1B 3437   3.521   1.041   8.850
  215loPI   C2B 3438   3.492   0.973   8.550
  215loPI   C3B 3439   3.471   1.038   8.250
  215loPI   C4B 3440   3.550   1.022   7.950
  216loPI    C1 3441   0.552   1.995   9.750
  216loPI    C2 3442   0.527   1.941  10.050
  216loPI    C3 3443   0.473   1.946  10.050
  216loPI   PO4 3444   0.437   1.966   9.450
  216loPI   GL1 3445   0.453   1.988   9.150
  216loPI   GL2 3446   0.535   2.006   9.150
  216loPI   C1A 3447   0.429   1.988   8.850
  216loPI   C2A 3448   0.426   1.998   8.550
  216loPI   C3A 3449   0.497   1.995   8.250
  216loPI   C4A 3450   0.421   1.971   7.950
  216loPI   C5A 3451   0.404   1.951   7.650
  216loPI   C6A 3452   0.460   1.941   7.350
  216loPI   C1B 3453   0.704   2.009   8.850
  216loPI   C2B 3454   0.668   2.005   8.550
  216loPI   C3B 3455   0.713   1.962   8.250
  216loPI   C4B 3456   0.659   2.022   7.950
  217loPI    C1 3457   1.956   8.276   9.750
  217loPI    C2 3458   1.938   8.199  10.050
  217loPI    C3 3459   2.023   8.135  10.050
  217loPI   PO4 3460   2.020   8.173   9.450
  217loPI   GL1 3461   2.069   8.084   9.150
  217loPI   GL2 3462   2.003   8.210   9.150
  217loPI   C1A 3463   2.046   8.098   8.850
  217loPI   C2A 3464   2.069   8.091   8.550
  217loPI   C3A 3465   2.050   8.134   8.250
  217loPI   C4A 3466   2.100   8.100   7.950
  217loPI   C5A 3467   2.052   8.138   7.650
  217loPI   C6A 3468   2.050   8.169   7.350
  217loPI   C1B 3469   1.866   8.346   8.850
  217loPI   C2B 3470   1.902   8.340   8.550
  217loPI   C3B 3471   1.871   8.336   8.250
  217loPI   C4B 3472   1.914   8.324   7.950
  218loPI    C1 3473   4.422   2.826   9.750
  218loPI    C2 3474   4.375   2.855  10.050
  218loPI    C3 3475   4.426   2.775  10.050
  218loPI   PO4 3476   4.433   2.754   9.450
  218loPI   GL1 3477   4.493   2.766   9.150
  218loPI   GL2 3478   4.392   2.840   9.150
  218loPI   C1A 3479   4.488   2.761   8.850
  218loPI   C2A 3480   4.407   2.714   8.550
  218loPI   C3A 3481   4.444   2.749   8.250
  218loPI   C4A 3482   4.462   2.719   7.950
  218loPI   C5A 3483   4.466   2.755   7.650
  218loPI   C6A 3484   4.477   2.744   7.350
  218loPI   C1B 3485   4.271   2.961   8.850
  218loPI   C2B 3486   4.339   2.971   8.550
  218loPI   C3B 3487   4.278   2.927   8.250
  218loPI   C4B 3488   4.292   2.979   7.950
  219loPI    C1 3489   7.753  14.392   9.750
  219loPI    C2 3490   7.748  14.349  10.050
  219loPI    C3 3491   7.603  14.270  10.050
  219loPI   PO4 3492   7.695  14.308   9.450
  219loPI   GL1 3493   7.664  14.241   9.150
  219loPI   GL2 3494   7.762  14.399   9.150
  219loPI   C1A 3495   7.654  14.300   8.850
  219loPI   C2A 3496   7.630  14.231   8.550
  219loPI   C3A 3497   7.637  14.325   8.250
  219loPI   C4A 3498   7.696  14.267   7.950
  219loPI   C5A 3499   7.698  14.281   7.650
  219loPI   C6A 3500   7.681  14.257   7.350
  219loPI   C1B 3501   7.797  14.519   8.850
  219loPI   C2B 3502   7.779  14.474   8.550
  219loPI   C3B 3503   7.794  14.503   8.250
  219loPI   C4B 3504   7.855  14.452   7.950
  220loPI    C1 3505   5.386   5.901   9.750
  220loPI    C2 3506   5.312   5.851  10.050
  220loPI    C3 3507   5.285   5.828  10.050
  220loPI   PO4 3508   5.213   5.785   9.450
  220loPI   GL1 3509   5.236   5.840   9.150
  220loPI   GL2 3510   5.399   5.911   9.150
  220loPI   C1A 3511   5.291   5.810   8.850
  220loPI   C2A 3512   5.256   5.793   8.550
  220loPI   C3A 3513   5.252   5.846   8.250
  220loPI   C4A 3514   5.215   5.822   7.950
  220loPI   C5A 3515   5.212   5.822   7.650
  220loPI   C6A 3516   5.243   5.830   7.350
  220loPI   C1B 3517   5.422   5.991   8.850
  220loPI   C2B 3518   5.492   5.944   8.550
  220loPI   C3B 3519   5.509   5.941   8.250
  220loPI   C4B 3520   5.466   5.955   7.950
  221loPI    C1 3521   4.591   5.894   9.750
  221loPI    C2 3522   4.515   5.872  10.050
  221loPI    C3 3523   4.440   5.824  10.050
  221loPI   PO4 3524   4.477   5.864   9.450
  221loPI   GL1 3525   4.415   5.778   9.150
  221loPI   GL2 3526   4.538   5.860   9.150
  221loPI   C1A 3527   4.417   5.826   8.850
  221loPI   C2A 3528   4.451   5.850   8.550
  221loPI   C3A 3529   4.423   5.788   8.250
  221loPI   C4A 3530   4.472   5.793   7.950
  221loPI   C5A 3531   4.458   5.826   7.650
  221loPI   C6A 3532   4.410   5.839   7.350
  221loPI   C1B 3533   4.627   5.997   8.850
  221loPI   C2B 3534   4.622   6.025   8.550
  221loPI   C3B 3535   4.675   5.972   8.250
  221loPI   C4B 3536   4.676   5.954   7.950
  222loPI    C1 3537   2.853   0.596   9.750
  222loPI    C2 3538   2.858   0.571  10.050
  222loPI    C3 3539   2.847   0.467  10.050
  222loPI   PO4 3540   2.879   0.437   9.450
  222loPI   GL1 3541   2.810   0.393   9.150
  222loPI   GL2 3542   2.888   0.533   9.150
  222loPI   C1A 3543   2.872   0.474   8.850
  222loPI   C2A 3544   2.812   0.479   8.550
  222loPI   C3A 3545   2.809   0.479   8.250
  222loPI   C4A 3546   2.822   0.443   7.950
  222loPI   C5A 3547   2.827   0.414   7.650
  222loPI   C6A 3548   2.821   0.472   7.350
  222loPI   C1B 3549   2.886   0.707   8.850
  222loPI   C2B 3550   2.963   0.714   8.550
  222loPI   C3B 3551   2.925   0.708   8.250
  222loPI   C4B 3552   2.955   0.671   7.950
  223loPI    C1 3553   8.305  19.753   9.750
  223loPI    C2 3554   8.341  19.673  10.050
  223loPI    C3 3555   8.459  19.655  10.050
  223loPI   PO4 3556   8.404  19.685   9.450
  223loPI   GL1 3557   8.499  19.623   9.150
  223loPI   GL2 3558   8.381  19.721   9.150
  223loPI   C1A 3559   8.492  19.628   8.850
  223loPI   C2A 3560   8.450  19.667   8.550
  223loPI   C3A 3561   8.479  19.672   8.250
  223loPI   C4A 3562   8.416  19.671   7.950
  223loPI   C5A 3563   8.452  19.668   7.650
  223loPI   C6A 3564   8.449  19.677   7.350
  223loPI   C1B 3565   8.240  19.802   8.850
  223loPI   C2B 3566   8.245  19.722   8.550
  223loPI   C3B 3567   8.193  19.740   8.250
  223loPI   C4B 3568   8.195  19.713   7.950
  224loPI    C1 3569   1.415   7.354   9.750
  224loPI    C2 3570   1.365   7.403  10.050
  224loPI    C3 3571   1.228   7.341  10.050
  224loPI   PO4 3572   1.233   7.338   9.450
  224loPI   GL1 3573   1.249   7.403   9.150
  224loPI   GL2 3574   1.381   7.353   9.150
  224loPI   C1A 3575   1.243   7.356   8.850
  224loPI   C2A 3576   1.298   7.311   8.550
  224loPI   C3A 3577   1.215   7.330   8.250
  224loPI   C4A 3578   1.271   7.376   7.950
  224loPI   C5A 3579   1.206   7.332   7.650
  224loPI   C6A 3580   1.268   7.373   7.350
  224loPI   C1B 3581   1.530   7.445   8.850
  224loPI   C2B 3582   1.490   7.431   8.550
  224loPI   C3B 3583   1.468   7.445   8.250
  224loPI   C4B 3584   1.509   7.418   7.950
  225loPI    C1 3585  10.687  18.856   9.750
  225loPI    C2 3586  10.731  18.924  10.050
  225loPI    C3 3587  10.866  18.849  10.050
  225loPI   PO4 3588  10.809  18.924   9.450
  225loPI   GL1 3589  10.847  18.856   9.150
  225loPI   GL2 3590  10.703  18.883   9.150
  225loPI   C1A 3591  10.851  18.852   8.850
  225loPI   C2A 3592  10.823  18.893   8.550
  225loPI   C3A 3593  10.819  18.877   8.250
  225loPI   C4A 3594  10.862  18.875   7.950
  225loPI   C5A 3595  10.860  18.875   7.650
  225loPI   C6A 3596  10.810  18.855   7.350
  225loPI   C1B 3597  10.644  18.887   8.850
  225loPI   C2B 3598  10.554  18.885   8.550
  225loPI   C3B 3599  10.628  18.869   8.250
  225loPI   C4B 3600  10.589  18.933   7.950
  226loPI    C1 3601   3.745   8.131   9.750
  226loPI    C2 3602   3.768   8.152  10.050
  226loPI    C3 3603   3.668   8.155  10.050
  226loPI   PO4 3604   3.626   8.120   9.450
  226loPI   GL1 3605   3.627   8.140   9.150
  226loPI   GL2 3606   3.727   8.196   9.150
  226loPI   C1A 3607   3.616   8.154   8.850
  226loPI   C2A 3608   3.607   8.117   8.550
  226loPI   C3A 3609   3.686   8.079   8.250
  226loPI   C4A 3610   3.633   8.143   7.950
  226loPI   C5A 3611   3.637   8.161   7.650
  226loPI   C6A 3612   3.682   8.167   7.350
  226loPI   C1B 3613   3.915   8.204   8.850
  226loPI   C2B 3614   3.861   8.207   8.550
  226loPI   C3B 3615   3.911   8.186   8.250
  226loPI   C4B 3616   3.842   8.192   7.950
  227loPI    C1 3617  11.747  12.806   9.750
  227loPI    C2 3618  11.775  12.796  10.050
  227loPI    C3 3619  11.640  12.785  10.050
  227loPI   PO4 3620  11.686  12.715   9.450
  227loPI   GL1 3621  11.613  12.711   9.150
  227loPI   GL2 3622  11.788  12.797   9.150
  227loPI   C1A 3623  11.630  12.780   8.850
  227loPI   C2A 3624  11.625  12.786   8.550
  227loPI   C3A 3625  11.672  12.700   8.250
  227loPI   C4A 3626  11.621  12.743   7.950
  227loPI   C5A 3627  11.670  12.770   7.650
  227loPI   C6A 3628  11.696  12.713   7.350
  227loPI   C1B 3629  11.872  12.871   8.850
  227loPI   C2B 3630  11.824  12.876   8.550
  227loPI   C3B 3631  11.829  12.897   8.250
  227loPI   C4B 3632  11.799  12.903   7.950
  228loPI    C1 3633   7.571  11.317   9.750
  228loPI    C2 3634   7.584  11.367  10.050
  228loPI    C3 3635   7.633  11.234  10.050
  228loPI   PO4 3636   7.690  11.179   9.450
  228loPI   GL1 3637   7.617  11.187   9.150
  228loPI   GL2 3638   7.632  11.291   9.150
  228loPI   C1A 3639   7.690  11.178   8.850
  228loPI   C2A 3640   7.657  11.160   8.550
  228loPI   C3A 3641   7.646  11.223   8.250
  228loPI   C4A 3642   7.633  11.206   7.950
  228loPI   C5A 3643   7.642  11.168   7.650
  228loPI   C6A 3644   7.658  11.197   7.350
  228loPI   C1B 3645   7.596  11.396   8.850
  228loPI   C2B 3646   7.595  11.399   8.550
  228loPI   C3B 3647   7.613  11.478   8.250
  228loPI   C4B 3648   7.540  11.391   7.950
  229loPI    C1 3649   0.331   3.484   9.750
  229loPI    C2 3650   0.363   3.489  10.050
  229loPI    C3 3651   0.447   3.501  10.050
  229loPI   PO4 3652   0.424   3.526   9.450
  229loPI   GL1 3653   0.471   3.536   9.150
  229loPI   GL2 3654   0.334   3.527   9.150
  229loPI   C1A 3655   0.431   3.551   8.850
  229loPI   C2A 3656   0.424   3.523   8.550
  229loPI   C3A 3657   0.496   3.515   8.250
  229loPI   C4A 3658   0.430   3.544   7.950
  229loPI   C5A 3659   0.460   3.543   7.650
  229loPI   C6A 3660   0.438   3.505   7.350
  229loPI   C1B 3661   0.233   3.411   8.850
  229loPI   C2B 3662   0.198   3.500   8.550
  229loPI   C3B 3663   0.163   3.460   8.250
  229loPI   C4B 3664   0.179   3.430   7.950
  230loPI    C1 3665   5.149   1.828   9.750
  230loPI    C2 3666   5.216   1.886  10.050
  230loPI    C3 3667   5.282   1.941  10.050
  230loPI   PO4 3668   5.236   1.926   9.450
  230loPI   GL1 3669   5.253   1.968   9.150
  230loPI   GL2 3670   5.168   1.832   9.150
  230loPI   C1A 3671   5.255   1.932   8.850
  230loPI   C2A 3672   5.233   2.010   8.550
  230loPI   C3A 3673   5.224   1.986   8.250
  230loPI   C4A 3674   5.206   1.983   7.950
  230loPI   C5A 3675   5.233   2.018   7.650
  230loPI   C6A 3676   5.218   1.927   7.350
  230loPI   C1B 3677   5.125   1.716   8.850
  230loPI   C2B 3678   5.144   1.738   8.550
  230loPI   C3B 3679   5.100   1.801   8.250
  230loPI   C4B 3680   5.106   1.747   7.950
  231loPI    C1 3681   4.529   1.836   9.750
  231loPI    C2 3682   4.497   1.885  10.050
  231loPI    C3 3683   4.444   1.930  10.050
  231loPI   PO4 3684   4.443   1.942   9.450
  231loPI   GL1 3685   4.500   1.987   9.150
  231loPI   GL2 3686   4.540   1.899   9.150
  231loPI   C1A 3687   4.498   2.018   8.850
  231loPI   C2A 3688   4.460   1.937   8.550
  231loPI   C3A 3689   4.437   1.933   8.250
  231loPI   C4A 3690   4.460   1.985   7.950
  231loPI   C5A 3691   4.414   1.979   7.650
  231loPI   C6A 3692   4.423   1.944   7.350
  231loPI   C1B 3693   4.559   1.716   8.850
  231loPI   C2B 3694   4.512   1.754   8.550
  231loPI   C3B 3695   4.599   1.757   8.250
  231loPI   C4B 3696   4.510   1.735   7.950
  232loPI    C1 3697   7.685   8.058   9.750
  232loPI    C2 3698   7.728   8.020  10.050
  232loPI    C3 3699   7.680   8.154  10.050
  232loPI   PO4 3700   7.602   8.098   9.450
  232loPI   GL1 3701   7.693   8.135   9.150
  232loPI   GL2 3702   7.685   8.028   9.150
  232loPI   C1A 3703   7.682   8.125   8.850
  232loPI   C2A 3704   7.601   8.156   8.550
  232loPI   C3A 3705   7.602   8.135   8.250
  232loPI   C4A 3706   7.601   8.165   7.950
  232loPI   C5A 3707   7.601   8.120   7.650
  232loPI   C6A 3708   7.632   8.117   7.350
  232loPI   C1B 3709   7.756   7.943   8.850
  232loPI   C2B 3710   7.769   7.910   8.550
  232loPI   C3B 3711   7.724   7.900   8.250
  232loPI   C4B 3712   7.794   7.878   7.950
  233loPI    C1 3713   0.547  12.046   9.750
  233loPI    C2 3714   0.529  11.999  10.050
  233loPI    C3 3715   0.416  11.985  10.050
  233loPI   PO4 3716   0.467  11.994   9.450
  233loPI   GL1 3717   0.419  11.981   9.150
  233loPI   GL2 3718   0.538  11.980   9.150
  233loPI   C1A 3719   0.451  12.014   8.850
  233loPI   C2A 3720   0.438  11.983   8.550
  233loPI   C3A 3721   0.430  11.971   8.250
  233loPI   C4A 3722   0.427  11.939   7.950
  233loPI   C5A 3723   0.444  11.954   7.650
  233loPI   C6A 3724   0.492  11.965   7.350
  233loPI   C1B 3725   0.659  12.040   8.850
  233loPI   C2B 3726   0.642  12.079   8.550
  233loPI   C3B 3727   0.717  12.083   8.250
  233loPI   C4B 3728   0.651  12.007   7.950
  234loPI    C1 3729  10.814   7.249   9.750
  234loPI    C2 3730  10.834   7.254  10.050
  234loPI    C3 3731  10.875   7.371  10.050
  234loPI   PO4 3732  10.892   7.324   9.450
  234loPI   GL1 3733  10.830   7.391   9.150
  234loPI   GL2 3734  10.820   7.251   9.150
  234loPI   C1A 3735  10.806   7.342   8.850
  234loPI   C2A 3736  10.849   7.351   8.550
  234loPI   C3A 3737  10.820   7.400   8.250
  234loPI   C4A 3738  10.861   7.315   7.950
  234loPI   C5A 3739  10.842   7.383   7.650
  234loPI   C6A 3740  10.876   7.330   7.350
  234loPI   C1B 3741  10.859   7.081   8.850
  234loPI   C2B 3742  10.837   7.117   8.550
  234loPI   C3B 3743  10.853   7.148   8.250
  234loPI   C4B 3744  10.873   7.112   7.950
  235loPI    C1 3745   5.158   1.186   9.750
  235loPI    C2 3746   5.153   1.158  10.050
  235loPI    C3 3747   5.226   1.166  10.050
  235loPI   PO4 3748   5.218   1.176   9.450
  235loPI   GL1 3749   5.290   1.207   9.150
  235loPI   GL2 3750   5.139   1.221   9.150
  235loPI   C1A 3751   5.287   1.164   8.850
  235loPI   C2A 3752   5.273   1.160   8.550
  235loPI   C3A 3753   5.284   1.223   8.250
  235loPI   C4A 3754   5.266   1.246   7.950
  235loPI   C5A 3755   5.215   1.179   7.650
  235loPI   C6A 3756   5.294   1.225   7.350
  235loPI   C1B 3757   5.010   1.223   8.850
  235loPI   C2B 3758   4.956   1.179   8.550
  235loPI   C3B 3759   5.023   1.206   8.250
  235loPI   C4B 3760   5.048   1.168   7.950
  236loPI    C1 3761  10.069   7.979   9.750
  236loPI    C2 3762  10.075   7.967  10.050
  236loPI    C3 3763  10.033   8.175  10.050
  236loPI   PO4 3764  10.089   8.121   9.450
  236loPI   GL1 3765  10.019   8.113   9.150
  236loPI   GL2 3766  10.088   7.997   9.150
  236loPI   C1A 3767  10.042   8.142   8.850
  236loPI   C2A 3768  10.087   8.078   8.550
  236loPI   C3A 3769  10.092   8.149   8.250
  236loPI   C4A 3770  10.032   8.120   7.950
  236loPI   C5A 3771  10.072   8.173   7.650
  236loPI   C6A 3772  10.021   8.094   7.350
  236loPI   C1B 3773  10.078   7.913   8.850
  236loPI   C2B 3774  10.120   7.884   8.550
  236loPI   C3B 3775  10.111   7.842   8.250
  236loPI   C4B 3776  10.117   7.904   7.950
  237loPI    C1 3777   5.359   3.421   9.750
  237loPI    C2 3778   5.292   3.445  10.050
  237loPI    C3 3779   5.272   3.551  10.050
  237loPI   PO4 3780   5.268   3.465   9.450
  237loPI   GL1 3781   5.267   3.518   9.150
  237loPI   GL2 3782   5.330   3.462   9.150
  237loPI   C1A 3783   5.283   3.558   8.850
  237loPI   C2A 3784   5.232   3.464   8.550
  237loPI   C3A 3785   5.263   3.493   8.250
  237loPI   C4A 3786   5.239   3.555   7.950
  237loPI   C5A 3787   5.237   3.548   7.650
  237loPI   C6A 3788   5.271   3.502   7.350
  237loPI   C1B 3789   5.436   3.332   8.850
  237loPI   C2B 3790   5.444   3.285   8.550
  237loPI   C3B 3791   5.416   3.300   8.250
  237loPI   C4B 3792   5.371   3.341   7.950
  238loPI    C1 3793   5.236   2.911   9.750
  238loPI    C2 3794   5.231   2.828  10.050
  238loPI    C3 3795   5.208   2.746  10.050
  238loPI   PO4 3796   5.212   2.760   9.450
  238loPI   GL1 3797   5.298   2.710   9.150
  238loPI   GL2 3798   5.269   2.863   9.150
  238loPI   C1A 3799   5.229   2.764   8.850
  238loPI   C2A 3800   5.256   2.787   8.550
  238loPI   C3A 3801   5.294   2.776   8.250
  238loPI   C4A 3802   5.287   2.731   7.950
  238loPI   C5A 3803   5.231   2.706   7.650
  238loPI   C6A 3804   5.227   2.718   7.350
  238loPI   C1B 3805   5.298   2.944   8.850
  238loPI   C2B 3806   5.264   2.958   8.550
  238loPI   C3B 3807   5.283   2.984   8.250
  238loPI   C4B 3808   5.297   3.011   7.950
  239loPI    C1 3809  10.097   3.436   9.750
  239loPI    C2 3810  10.036   3.433  10.050
  239loPI    C3 3811  10.095   3.462  10.050
  239loPI   PO4 3812  10.032   3.502   9.450
  239loPI   GL1 3813  10.046   3.509   9.150
  239loPI   GL2 3814  10.083   3.354   9.150
  239loPI   C1A 3815  10.081   3.557   8.850
  239loPI   C2A 3816  10.067   3.536   8.550
  239loPI   C3A 3817  10.026   3.462   8.250
  239loPI   C4A 3818  10.017   3.524   7.950
  239loPI   C5A 3819  10.052   3.479   7.650
  239loPI   C6A 3820  10.067   3.487   7.350
  239loPI   C1B 3821  10.116   3.307   8.850
  239loPI   C2B 3822  10.020   3.228   8.550
  239loPI   C3B 3823  10.070   3.300   8.250
  239loPI   C4B 3824  10.023   3.240   7.950
  240loPI    C1 3825   9.371  13.480   9.750
  240loPI    C2 3826   9.350  13.482  10.050
  240loPI    C3 3827   9.294  13.469  10.050
  240loPI   PO4 3828   9.268  13.532   9.450
  240loPI   GL1 3829   9.272  13.503   9.150
  240loPI   GL2 3830   9.415  13.449   9.150
  240loPI   C1A 3831   9.276  13.557   8.850
  240loPI   C2A 3832   9.249  13.472   8.550
  240loPI   C3A 3833   9.269  13.490   8.250
  240loPI   C4A 3834   9.237  13.492   7.950
  240loPI   C5A 3835   9.263  13.509   7.650
  240loPI   C6A 3836   9.274  13.529   7.350
  240loPI   C1B 3837   9.494  13.415   8.850
  240loPI   C2B 3838   9.477  13.440   8.550
  240loPI   C3B 3839   9.462  13.397   8.250
  240loPI   C4B 3840   9.443  13.381   7.950
  241loPI    C1 3841   0.390  12.676   9.750
  241loPI    C2 3842   0.355  12.593  10.050
  241loPI    C3 3843   0.425  12.740  10.050
  241loPI   PO4 3844   0.473  12.698   9.450
  241loPI   GL1 3845   0.441  12.764   9.150
  241loPI   GL2 3846   0.361  12.658   9.150
  241loPI   C1A 3847   0.433  12.749   8.850
  241loPI   C2A 3848   0.497  12.708   8.550
  241loPI   C3A 3849   0.466  12.717   8.250
  241loPI   C4A 3850   0.408  12.705   7.950
  241loPI   C5A 3851   0.483  12.750   7.650
  241loPI   C6A 3852   0.493  12.717   7.350
  241loPI   C1B 3853   0.343  12.502   8.850
  241loPI   C2B 3854   0.280  12.546   8.550
  241loPI   C3B 3855   0.271  12.559   8.250
  241loPI   C4B 3856   0.291  12.574   7.950
  242loPI    C1 3857  11.014   8.101   9.750
  242loPI    C2 3858  10.960   8.073  10.050
  242loPI    C3 3859  10.863   8.129  10.050
  242loPI   PO4 3860  10.840   8.096   9.450
  242loPI   GL1 3861  10.847   8.160   9.150
  242loPI   GL2 3862  11.018   8.080   9.150
  242loPI   C1A 3863  10.876   8.161   8.850
  242loPI   C2A 3864  10.854   8.123   8.550
  242loPI   C3A 3865  10.819   8.110   8.250
  242loPI   C4A 3866  10.883   8.160   7.950
  242loPI   C5A 3867  10.897   8.155   7.650
  242loPI   C6A 3868  10.894   8.095   7.350
  242loPI   C1B 3869  11.064   8.031   8.850
  242loPI   C2B 3870  11.071   8.089   8.550
  242loPI   C3B 3871  11.131   8.113   8.250
  242loPI   C4B 3872  11.097   8.057   7.950
  243loPI    C1 3873   1.964   8.987   9.750
  243loPI    C2 3874   1.947   8.962  10.050
  243loPI    C3 3875   2.060   8.926  10.050
  243loPI   PO4 3876   2.068   8.925   9.450
  243loPI   GL1 3877   2.046   8.891   9.150
  243loPI   GL2 3878   1.919   9.000   9.150
  243loPI   C1A 3879   2.048   8.878   8.850
  243loPI   C2A 3880   2.100   8.912   8.550
  243loPI   C3A 3881   2.074   8.847   8.250
  243loPI   C4A 3882   2.022   8.902   7.950
  243loPI   C5A 3883   2.032   8.944   7.650
  243loPI   C6A 3884   2.014   8.895   7.350
  243loPI   C1B 3885   1.900   9.028   8.850
  243loPI   C2B 3886   1.841   9.044   8.550
  243loPI   C3B 3887   1.888   9.052   8.250
  243loPI   C4B 3888   1.910   9.085   7.950
  244loPI    C1 3889   1.944   7.286   9.750
  244loPI    C2 3890   2.014   7.209  10.050
  244loPI    C3 3891   2.045   7.398  10.050
  244loPI   PO4 3892   2.008   7.320   9.450
  244loPI   GL1 3893   2.016   7.316   9.150
  244loPI   GL2 3894   2.007   7.251   9.150
  244loPI   C1A 3895   2.050   7.404   8.850
  244loPI   C2A 3896   2.021   7.405   8.550
  244loPI   C3A 3897   2.036   7.355   8.250
  244loPI   C4A 3898   2.029   7.397   7.950
  244loPI   C5A 3899   2.006   7.394   7.650
  244loPI   C6A 3900   2.014   7.405   7.350
  244loPI   C1B 3901   1.950   7.176   8.850
  244loPI   C2B 3902   1.946   7.136   8.550
  244loPI   C3B 3903   1.970   7.186   8.250
  244loPI   C4B 3904   1.948   7.119   7.950
  245loPI    C1 3905   9.131  10.534   9.750
  245loPI    C2 3906   9.196  10.501  10.050
  245loPI    C3 3907   9.242  10.444  10.050
  245loPI   PO4 3908   9.258  10.396   9.450
  245loPI   GL1 3909   9.238  10.409   9.150
  245loPI   GL2 3910   9.131  10.472   9.150
  245loPI   C1A 3911   9.203  10.454   8.850
  245loPI   C2A 3912   9.200  10.396   8.550
  245loPI   C3A 3913   9.217  10.480   8.250
  245loPI   C4A 3914   9.292  10.421   7.950
  245loPI   C5A 3915   9.203  10.402   7.650
  245loPI   C6A 3916   9.272  10.465   7.350
  245loPI   C1B 3917   9.042  10.580   8.850
  245loPI   C2B 3918   9.080  10.534   8.550
  245loPI   C3B 3919   9.035  10.593   8.250
  245loPI   C4B 3920   9.041  10.567   7.950
  246loPI    C1 3921   4.560   3.429   9.750
  246loPI    C2 3922   4.579   3.399  10.050
  246loPI    C3 3923   4.486   3.499  10.050
  246loPI   PO4 3924   4.475   3.528   9.450
  246loPI   GL1 3925   4.481   3.508   9.150
  246loPI   GL2 3926   4.554   3.470   9.150
  246loPI   C1A 3927   4.405   3.496   8.850
  246loPI   C2A 3928   4.496   3.494   8.550
  246loPI   C3A 3929   4.485   3.526   8.250
  246loPI   C4A 3930   4.500   3.463   7.950
  246loPI   C5A 3931   4.484   3.493   7.650
  246loPI   C6A 3932   4.496   3.557   7.350
  246loPI   C1B 3933   4.622   3.372   8.850
  246loPI   C2B 3934   4.661   3.355   8.550
  246loPI   C3B 3935   4.634   3.393   8.250
  246loPI   C4B 3936   4.653   3.367   7.950
  247loPI    C1 3937  10.095  11.845   9.750
  247loPI    C2 3938  10.044  11.847  10.050
  247loPI    C3 3939  10.048  12.013  10.050
  247loPI   PO4 3940  10.004  11.995   9.450
  247loPI   GL1 3941  10.007  11.967   9.150
  247loPI   GL2 3942  10.077  11.813   9.150
  247loPI   C1A 3943  10.058  11.974   8.850
  247loPI   C2A 3944  10.041  11.977   8.550
  247loPI   C3A 3945  10.002  12.002   8.250
  247loPI   C4A 3946  10.033  11.981   7.950
  247loPI   C5A 3947  10.012  11.953   7.650
  247loPI   C6A 3948  10.011  12.018   7.350
  247loPI   C1B 3949  10.090  11.713   8.850
  247loPI   C2B 3950  10.088  11.736   8.550
  247loPI   C3B 3951  10.053  11.694   8.250
  247loPI   C4B 3952  10.021  11.684   7.950
  248loPI    C1 3953   9.997   9.642   9.750
  248loPI    C2 3954   9.914   9.559  10.050
  248loPI    C3 3955  10.046   9.663  10.050
  248loPI   PO4 3956  10.092   9.701   9.450
  248loPI   GL1 3957  10.071   9.691   9.150
  248loPI   GL2 3958   9.924   9.579   9.150
  248loPI   C1A 3959  10.085   9.709   8.850
  248loPI   C2A 3960  10.055   9.637   8.550
  248loPI   C3A 3961  10.083   9.657   8.250
  248loPI   C4A 3962  10.040   9.679   7.950
  248loPI   C5A 3963  10.022   9.624   7.650
  248loPI   C6A 3964  10.037   9.694   7.350
  248loPI   C1B 3965   9.818   9.529   8.850
  248loPI   C2B 3966   9.818   9.509   8.550
  248loPI   C3B 3967   9.800   9.525   8.250
  248loPI   C4B 3968   9.865   9.511   7.950
  249loPI    C1 3969   5.960   4.372   9.750
  249loPI    C2 3970   5.932   4.388  10.050
  249loPI    C3 3971   6.022   4.313  10.050
  249loPI   PO4 3972   6.093   4.282   9.450
  249loPI   GL1 3973   6.062   4.253   9.150
  249loPI   GL2 3974   5.922   4.329   9.150
  249loPI   C1A 3975   6.053   4.232   8.850
  249loPI   C2A 3976   6.012   4.319   8.550
  249loPI   C3A 3977   6.038   4.286   8.250
  249loPI   C4A 3978   6.064   4.234   7.950
  249loPI   C5A 3979   6.002   4.278   7.650
  249loPI   C6A 3980   6.065   4.257   7.350
  249loPI   C1B 3981   5.847   4.458   8.850
  249loPI   C2B 3982   5.917   4.507   8.550
  249loPI   C3B 3983   5.898   4.452   8.250
  249loPI   C4B 3984   5.886   4.477   7.950
  250loPI    C1 3985   1.128   0.325   9.750
  250loPI    C2 3986   1.127   0.393  10.050
  250loPI    C3 3987   1.222   0.415  10.050
  250loPI   PO4 3988   1.274   0.434   9.450
  250loPI   GL1 3989   1.296   0.413   9.150
  250loPI   GL2 3990   1.170   0.340   9.150
  250loPI   C1A 3991   1.209   0.448   8.850
  250loPI   C2A 3992   1.205   0.441   8.550
  250loPI   C3A 3993   1.264   0.454   8.250
  250loPI   C4A 3994   1.280   0.443   7.950
  250loPI   C5A 3995   1.221   0.462   7.650
  250loPI   C6A 3996   1.220   0.441   7.350
  250loPI   C1B 3997   1.045   0.224   8.850
  250loPI   C2B 3998   1.052   0.255   8.550
  250loPI   C3B 3999   1.065   0.243   8.250
  250loPI   C4B 4000   1.106   0.254   7.950
  251loPI    C1 4001  10.081   6.747   9.750
  251loPI    C2 4002  10.047   6.713  10.050
  251loPI    C3 4003  10.055   6.542  10.050
  251loPI   PO4 4004  10.027   6.587   9.450
  251loPI   GL1 4005  10.049   6.605   9.150
  251loPI   GL2 4006   9.995   6.695   9.150
  251loPI   C1A 4007  10.009   6.611   8.850
  251loPI   C2A 4008  10.074   6.540   8.550
  251loPI   C3A 4009  10.071   6.599   8.250
  251loPI   C4A 4010  10.036   6.629   7.950
  251loPI   C5A 4011  10.058   6.614   7.650
  251loPI   C6A 4012  10.077   6.564   7.350
  251loPI   C1B 4013   9.980   6.810   8.850
  251loPI   C2B 4014  10.048   6.855   8.550
  251loPI   C3B 4015  10.015   6.789   8.250
  251loPI   C4B 4016  10.019   6.813   7.950
  252loPI    C1 4017   2.731   7.473   9.750
  252loPI    C2 4018   2.698   7.459  10.050
  252loPI    C3 4019   2.801   7.404  10.050
  252loPI   PO4 4020   2.847   7.325   9.450
  252loPI   GL1 4021   2.801   7.396   9.150
  252loPI   GL2 4022   2.746   7.400   9.150
  252loPI   C1A 4023   2.857   7.309   8.850
  252loPI   C2A 4024   2.859   7.378   8.550
  252loPI   C3A 4025   2.834   7.317   8.250
  252loPI   C4A 4026   2.827   7.337   7.950
  252loPI   C5A 4027   2.832   7.397   7.650
  252loPI   C6A 4028   2.826   7.335   7.350
  252loPI   C1B 4029   2.632   7.481   8.850
  252loPI   C2B 4030   2.615   7.522   8.550
  252loPI   C3B 4031   2.629   7.443   8.250
  252loPI   C4B 4032   2.626   7.499   7.950
  253loPI    C1 4033   2.972   9.647   9.750
  253loPI    C2 4034   2.951   9.613  10.050
  253loPI    C3 4035   2.806   9.704  10.050
  253loPI   PO4 4036   2.834   9.668   9.450
  253loPI   GL1 4037   2.871   9.664   9.150
  253loPI   GL2 4038   2.966   9.663   9.150
  253loPI   C1A 4039   2.861   9.678   8.850
  253loPI   C2A 4040   2.888   9.670   8.550
  253loPI   C3A 4041   2.877   9.671   8.250
  253loPI   C4A 4042   2.818   9.688   7.950
  253loPI   C5A 4043   2.811   9.713   7.650
  253loPI   C6A 4044   2.883   9.686   7.350
  253loPI   C1B 4045   3.086   9.605   8.850
  253loPI   C2B 4046   3.086   9.692   8.550
  253loPI   C3B 4047   3.069   9.603   8.250
  253loPI   C4B 4048   3.059   9.683   7.950
  254loPI    C1 4049   5.996   7.226   9.750
  254loPI    C2 4050   6.051   7.194  10.050
  254loPI    C3 4051   6.058   7.367  10.050
  254loPI   PO4 4052   6.017   7.309   9.450
  254loPI   GL1 4053   6.025   7.364   9.150
  254loPI   GL2 4054   6.082   7.253   9.150
  254loPI   C1A 4055   6.005   7.356   8.850
  254loPI   C2A 4056   6.064   7.312   8.550
  254loPI   C3A 4057   6.018   7.401   8.250
  254loPI   C4A 4058   6.033   7.405   7.950
  254loPI   C5A 4059   6.082   7.365   7.650
  254loPI   C6A 4060   6.065   7.333   7.350
  254loPI   C1B 4061   6.041   7.095   8.850
  254loPI   C2B 4062   6.064   7.109   8.550
  254loPI   C3B 4063   6.013   7.158   8.250
  254loPI   C4B 4064   5.998   7.120   7.950
  255loPI    C1 4065   9.197   5.971   9.750
  255loPI    C2 4066   9.273   5.944  10.050
  255loPI    C3 4067   9.227   5.804  10.050
  255loPI   PO4 4068   9.275   5.774   9.450
  255loPI   GL1 4069   9.218   5.866   9.150
  255loPI   GL2 4070   9.213   5.971   9.150
  255loPI   C1A 4071   9.234   5.812   8.850
  255loPI   C2A 4072   9.213   5.808   8.550
  255loPI   C3A 4073   9.234   5.809   8.250
  255loPI   C4A 4074   9.278   5.826   7.950
  255loPI   C5A 4075   9.208   5.781   7.650
  255loPI   C6A 4076   9.245   5.785   7.350
  255loPI   C1B 4077   9.263   6.101   8.850
  255loPI   C2B 4078   9.251   6.090   8.550
  255loPI   C3B 4079   9.203   6.077   8.250
  255loPI   C4B 4080   9.229   6.077   7.950
  256loPI    C1 4081   2.132   0.459   9.750
  256loPI    C2 4082   2.150   0.481  10.050
  256loPI    C3 4083   2.046   0.434  10.050
  256loPI   PO4 4084   2.027   0.393   9.450
  256loPI   GL1 4085   2.010   0.438   9.150
  256loPI   GL2 4086   2.206   0.429   9.150
  256loPI   C1A 4087   2.032   0.429   8.850
  256loPI   C2A 4088   2.020   0.395   8.550
  256loPI   C3A 4089   2.012   0.404   8.250
  256loPI   C4A 4090   2.025   0.403   7.950
  256loPI   C5A 4091   2.055   0.421   7.650
  256loPI   C6A 4092   2.060   0.436   7.350
  256loPI   C1B 4093   2.245   0.473   8.850
  256loPI   C2B 4094   2.262   0.511   8.550
  256loPI   C3B 4095   2.289   0.488   8.250
  256loPI   C4B 4096   2.322   0.540   7.950
  257loPI    C1 4097  10.979  15.881   9.750
  257loPI    C2 4098  10.981  15.825  10.050
  257loPI    C3 4099  10.878  15.786  10.050
  257loPI   PO4 4100  10.830  15.834   9.450
  257loPI   GL1 4101  10.816  15.820   9.150
  257loPI   GL2 4102  10.928  15.845   9.150
  257loPI   C1A 4103  10.854  15.796   8.850
  257loPI   C2A 4104  10.866  15.836   8.550
  257loPI   C3A 4105  10.806  15.787   8.250
  257loPI   C4A 4106  10.896  15.804   7.950
  257loPI   C5A 4107  10.811  15.805   7.650
  257loPI   C6A 4108  10.892  15.832   7.350
  257loPI   C1B 4109  11.049  15.959   8.850
  257loPI   C2B 4110  11.096  15.965   8.550
  257loPI   C3B 4111  11.039  15.924   8.250
  257loPI   C4B 4112  11.073  15.930   7.950
  258loPI    C1 4113   8.524   9.769   9.750
  258loPI    C2 4114   8.511   9.740  10.050
  258loPI    C3 4115   8.467   9.680  10.050
  258loPI   PO4 4116   8.476   9.670   9.450
  258loPI   GL1 4117   8.454   9.662   9.150
  258loPI   GL2 4118   8.585   9.762   9.150
  258loPI   C1A 4119   8.450   9.678   8.850
  258loPI   C2A 4120   8.489   9.653   8.550
  258loPI   C3A 4121   8.402   9.635   8.250
  258loPI   C4A 4122   8.423   9.654   7.950
  258loPI   C5A 4123   8.466   9.637   7.650
  258loPI   C6A 4124   8.458   9.662   7.350
  258loPI   C1B 4125   8.604   9.799   8.850
  258loPI   C2B 4126   8.683   9.823   8.550
  258loPI   C3B 4127   8.632   9.853   8.250
  258loPI   C4B 4128   8.665   9.806   7.950
  259loPI    C1 4129  11.557   1.335   9.750
  259loPI    C2 4130  11.521   1.302  10.050
  259loPI    C3 4131  11.645   1.252  10.050
  259loPI   PO4 4132  11.692   1.173   9.450
  259loPI   GL1 4133  11.604   1.156   9.150
  259loPI   GL2 4134  11.552   1.333   9.150
  259loPI   C1A 4135  11.678   1.157   8.850
  259loPI   C2A 4136  11.658   1.157   8.550
  259loPI   C3A 4137  11.677   1.188   8.250
  259loPI   C4A 4138  11.634   1.238   7.950
  259loPI   C5A 4139  11.611   1.189   7.650
  259loPI   C6A 4140  11.615   1.183   7.350
  259loPI   C1B 4141  11.482   1.365   8.850
  259loPI   C2B 4142  11.465   1.388   8.550
  259loPI   C3B 4143  11.484   1.382   8.250
  259loPI   C4B 4144  11.462   1.377   7.950
  260loPI    C1 4145   1.936   5.956   9.750
  260loPI    C2 4146   1.964   5.949  10.050
  260loPI    C3 4147   2.014   5.865  10.050
  260loPI   PO4 4148   2.063   5.802   9.450
  260loPI   GL1 4149   2.059   5.790   9.150
  260loPI   GL2 4150   1.995   5.876   9.150
  260loPI   C1A 4151   2.068   5.830   8.850
  260loPI   C2A 4152   2.092   5.862   8.550
  260loPI   C3A 4153   2.020   5.774   8.250
  260loPI   C4A 4154   2.081   5.799   7.950
  260loPI   C5A 4155   2.037   5.825   7.650
  260loPI   C6A 4156   2.030   5.771   7.350
  260loPI   C1B 4157   1.918   6.002   8.850
  260loPI   C2B 4158   1.854   6.011   8.550
  260loPI   C3B 4159   1.866   6.014   8.250
  260loPI   C4B 4160   1.934   5.974   7.950
  261loPI    C1 4161   0.587  15.831   9.750
  261loPI    C2 4162   0.589  15.791  10.050
  261loPI    C3 4163   0.483  15.849  10.050
  261loPI   PO4 4164   0.468  15.803   9.450
  261loPI   GL1 4165   0.435  15.826   9.150
  261loPI   GL2 4166   0.612  15.781   9.150
  261loPI   C1A 4167   0.446  15.858   8.850
  261loPI   C2A 4168   0.420  15.787   8.550
  261loPI   C3A 4169   0.482  15.791   8.250
  261loPI   C4A 4170   0.414  15.812   7.950
  261loPI   C5A 4171   0.406  15.770   7.650
  261loPI   C6A 4172   0.473  15.807   7.350
  261loPI   C1B 4173   0.708  15.785   8.850
  261loPI   C2B 4174   0.670  15.790   8.550
  261loPI   C3B 4175   0.719  15.836   8.250
  261loPI   C4B 4176   0.734  15.849   7.950
  262loPI    C1 4177  11.634  10.569   9.750
  262loPI    C2 4178  11.705  10.573  10.050
  262loPI    C3 4179  11.691  10.455  10.050
  262loPI   PO4 4180  11.671  10.411   9.450
  262loPI   GL1 4181  11.617  10.424   9.150
  262loPI   GL2 4182  11.638  10.582   9.150
  262loPI   C1A 4183  11.684  10.442   8.850
  262loPI   C2A 4184  11.603  10.396   8.550
  262loPI   C3A 4185  11.655  10.449   8.250
  262loPI   C4A 4186  11.681  10.424   7.950
  262loPI   C5A 4187  11.614  10.473   7.650
  262loPI   C6A 4188  11.673  10.395   7.350
  262loPI   C1B 4189  11.709  10.703   8.850
  262loPI   C2B 4190  11.655  10.647   8.550
  262loPI   C3B 4191  11.673  10.721   8.250
  262loPI   C4B 4192  11.719  10.689   7.950
  263loPI    C1 4193  10.776  14.284   9.750
  263loPI    C2 4194  10.741  14.204  10.050
  263loPI    C3 4195  10.800  14.244  10.050
  263loPI   PO4 4196  10.856  14.237   9.450
  263loPI   GL1 4197  10.808  14.264   9.150
  263loPI   GL2 4198  10.708  14.235   9.150
  263loPI   C1A 4199  10.878  14.283   8.850
  263loPI   C2A 4200  10.820  14.317   8.550
  263loPI   C3A 4201  10.836  14.266   8.250
  263loPI   C4A 4202  10.812  14.272   7.950
  263loPI   C5A 4203  10.806  14.278   7.650
  263loPI   C6A 4204  10.803  14.321   7.350
  263loPI   C1B 4205  10.649  14.190   8.850
  263loPI   C2B 4206  10.661  14.231   8.550
  263loPI   C3B 4207  10.584  14.239   8.250
  263loPI   C4B 4208  10.640  14.247   7.950
  264loPI    C1 4209   5.988  17.445   9.750
  264loPI    C2 4210   5.968  17.460  10.050
  264loPI    C3 4211   6.090  17.392  10.050
  264loPI   PO4 4212   6.003  17.338   9.450
  264loPI   GL1 4213   6.006  17.371   9.150
  264loPI   GL2 4214   5.956  17.508   9.150
  264loPI   C1A 4215   6.081  17.313   8.850
  264loPI   C2A 4216   6.027  17.370   8.550
  264loPI   C3A 4217   6.042  17.346   8.250
  264loPI   C4A 4218   6.039  17.308   7.950
  264loPI   C5A 4219   6.050  17.336   7.650
  264loPI   C6A 4220   6.027  17.402   7.350
  264loPI   C1B 4221   5.940  17.549   8.850
  264loPI   C2B 4222   5.958  17.588   8.550
  264loPI   C3B 4223   5.977  17.568   8.250
  264loPI   C4B 4224   5.939  17.618   7.950
  265loPI    C1 4225   2.068   1.053   9.750
  265loPI    C2 4226   2.011   1.046  10.050
  265loPI    C3 4227   2.073   1.189  10.050
  265loPI   PO4 4228   2.096   1.226   9.450
  265loPI   GL1 4229   2.020   1.182   9.150
  265loPI   GL2 4230   2.075   1.082   9.150
  265loPI   C1A 4231   2.001   1.165   8.850
  265loPI   C2A 4232   2.055   1.164   8.550
  265loPI   C3A 4233   2.096   1.158   8.250
  265loPI   C4A 4234   2.090   1.226   7.950
  265loPI   C5A 4235   2.010   1.193   7.650
  265loPI   C6A 4236   2.008   1.189   7.350
  265loPI   C1B 4237   2.048   0.997   8.850
  265loPI   C2B 4238   2.096   0.997   8.550
  265loPI   C3B 4239   2.073   0.923   8.250
  265loPI   C4B 4240   2.020   0.974   7.950
  266loPI    C1 4241  10.835   1.280   9.750
  266loPI    C2 4242  10.841   1.300  10.050
  266loPI    C3 4243  10.831   1.164  10.050
  266loPI   PO4 4244  10.862   1.161   9.450
  266loPI   GL1 4245  10.863   1.169   9.150
  266loPI   GL2 4246  10.913   1.310   9.150
  266loPI   C1A 4247  10.866   1.221   8.850
  266loPI   C2A 4248  10.823   1.166   8.550
  266loPI   C3A 4249  10.830   1.171   8.250
  266loPI   C4A 4250  10.839   1.175   7.950
  266loPI   C5A 4251  10.837   1.227   7.650
  266loPI   C6A 4252  10.854   1.197   7.350
  266loPI   C1B 4253  10.916   1.430   8.850
  266loPI   C2B 4254  10.903   1.446   8.550
  266loPI   C3B 4255  10.933   1.490   8.250
  266loPI   C4B 4256  10.931   1.484   7.950
  267loPI    C1 4257   1.351  12.795   9.750
  267loPI    C2 4258   1.354  12.778  10.050
  267loPI    C3 4259   1.223  12.751  10.050
  267loPI   PO4 4260   1.228  12.717   9.450
  267loPI   GL1 4261   1.225  12.699   9.150
  267loPI   GL2 4262   1.315  12.780   9.150
  267loPI   C1A 4263   1.284  12.740   8.850
  267loPI   C2A 4264   1.298  12.764   8.550
  267loPI   C3A 4265   1.224  12.787   8.250
  267loPI   C4A 4266   1.219  12.735   7.950
  267loPI   C5A 4267   1.266  12.694   7.650
  267loPI   C6A 4268   1.241  12.790   7.350
  267loPI   C1B 4269   1.474  12.859   8.850
  267loPI   C2B 4270   1.495  12.890   8.550
  267loPI   C3B 4271   1.460  12.916   8.250
  267loPI   C4B 4272   1.468  12.866   7.950
  268loPI    C1 4273   9.297   8.221   9.750
  268loPI    C2 4274   9.305   8.240  10.050
  268loPI    C3 4275   9.226   8.110  10.050
  268loPI   PO4 4276   9.239   8.136   9.450
  268loPI   GL1 4277   9.204   8.128   9.150
  268loPI   GL2 4278   9.343   8.199   9.150
  268loPI   C1A 4279   9.222   8.086   8.850
  268loPI   C2A 4280   9.298   8.170   8.550
  268loPI   C3A 4281   9.225   8.156   8.250
  268loPI   C4A 4282   9.281   8.113   7.950
  268loPI   C5A 4283   9.264   8.136   7.650
  268loPI   C6A 4284   9.232   8.086   7.350
  268loPI   C1B 4285   9.433   8.355   8.850
  268loPI   C2B 4286   9.369   8.355   8.550
  268loPI   C3B 4287   9.374   8.338   8.250
  268loPI   C4B 4288   9.368   8.299   7.950
  269loPI    C1 4289  10.947   6.692   9.750
  269loPI    C2 4290  10.884   6.658  10.050
  269loPI    C3 4291  10.852   6.546  10.050
  269loPI   PO4 4292  10.878   6.547   9.450
  269loPI   GL1 4293  10.825   6.573   9.150
  269loPI   GL2 4294  10.923   6.689   9.150
  269loPI   C1A 4295  10.822   6.599   8.850
  269loPI   C2A 4296  10.853   6.611   8.550
  269loPI   C3A 4297  10.821   6.625   8.250
  269loPI   C4A 4298  10.868   6.539   7.950
  269loPI   C5A 4299  10.868   6.584   7.650
  269loPI   C6A 4300  10.803   6.567   7.350
  269loPI   C1B 4301  10.989   6.786   8.850
  269loPI   C2B 4302  10.907   6.867   8.550
  269loPI   C3B 4303  10.934   6.856   8.250
  269loPI   C4B 4304  10.919   6.788   7.950
  270loPI    C1 4305   3.543   0.471   9.750
  270loPI    C2 4306   3.568   0.404  10.050
  270loPI    C3 4307   3.647   0.409  10.050
  270loPI   PO4 4308   3.676   0.395   9.450
  270loPI   GL1 4309   3.616   0.460   9.150
  270loPI   GL2 4310   3.514   0.447   9.150
  270loPI   C1A 4311   3.683   0.421   8.850
  270loPI   C2A 4312   3.689   0.440   8.550
  270loPI   C3A 4313   3.634   0.414   8.250
  270loPI   C4A 4314   3.674   0.404   7.950
  270loPI   C5A 4315   3.689   0.484   7.650
  270loPI   C6A 4316   3.601   0.433   7.350
  270loPI   C1B 4317   3.412   0.516   8.850
  270loPI   C2B 4318   3.390   0.494   8.550
  270loPI   C3B 4319   3.371   0.479   8.250
  270loPI   C4B 4320   3.374   0.429   7.950
  271loPI    C1 4321   9.366  17.468   9.750
  271loPI    C2 4322   9.333  17.454  10.050
  271loPI    C3 4323   9.245  17.329  10.050
  271loPI   PO4 4324   9.292  17.399   9.450
  271loPI   GL1 4325   9.216  17.396   9.150
  271loPI   GL2 4326   9.359  17.463   9.150
  271loPI   C1A 4327   9.236  17.396   8.850
  271loPI   C2A 4328   9.255  17.379   8.550
  271loPI   C3A 4329   9.204  17.325   8.250
  271loPI   C4A 4330   9.241  17.378   7.950
  271loPI   C5A 4331   9.266  17.376   7.650
  271loPI   C6A 4332   9.216  17.316   7.350
  271loPI   C1B 4333   9.359  17.523   8.850
  271loPI   C2B 4334   9.372  17.550   8.550
  271loPI   C3B 4335   9.339  17.578   8.250
  271loPI   C4B 4336   9.404  17.532   7.950
  272loPI    C1 4337   2.080   6.715   9.750
  272loPI    C2 4338   2.068   6.665  10.050
  272loPI    C3 4339   2.070   6.621  10.050
  272loPI   PO4 4340   2.067   6.608   9.450
  272loPI   GL1 4341   2.011   6.605   9.150
  272loPI   GL2 4342   2.070   6.683   9.150
  272loPI   C1A 4343   2.071   6.593   8.850
  272loPI   C2A 4344   2.052   6.553   8.550
  272loPI   C3A 4345   2.074   6.603   8.250
  272loPI   C4A 4346   2.056   6.541   7.950
  272loPI   C5A 4347   2.061   6.623   7.650
  272loPI   C6A 4348   2.030   6.623   7.350
  272loPI   C1B 4349   2.081   6.842   8.850
  272loPI   C2B 4350   2.056   6.842   8.550
  272loPI   C3B 4351   2.052   6.860   8.250
  272loPI   C4B 4352   2.099   6.860   7.950
  273loPI    C1 4353   9.194  11.059   9.750
  273loPI    C2 4354   9.181  11.086  10.050
  273loPI    C3 4355   9.229  11.236  10.050
  273loPI   PO4 4356   9.203  11.226   9.450
  273loPI   GL1 4357   9.229  11.163   9.150
  273loPI   GL2 4358   9.172  11.127   9.150
  273loPI   C1A 4359   9.276  11.225   8.850
  273loPI   C2A 4360   9.214  11.218   8.550
  273loPI   C3A 4361   9.213  11.234   8.250
  273loPI   C4A 4362   9.223  11.196   7.950
  273loPI   C5A 4363   9.272  11.236   7.650
  273loPI   C6A 4364   9.273  11.207   7.350
  273loPI   C1B 4365   9.107  11.000   8.850
  273loPI   C2B 4366   9.095  11.005   8.550
  273loPI   C3B 4367   9.104  10.946   8.250
  273loPI   C4B 4368   9.096  11.010   7.950
  274loPI    C1 4369   6.122   2.746   9.750
  274loPI    C2 4370   6.202   2.742  10.050
  274loPI    C3 4371   6.056   2.785  10.050
  274loPI   PO4 4372   6.079   2.737   9.450
  274loPI   GL1 4373   6.028   2.735   9.150
  274loPI   GL2 4374   6.197   2.717   9.150
  274loPI   C1A 4375   6.071   2.706   8.850
  274loPI   C2A 4376   6.066   2.769   8.550
  274loPI   C3A 4377   6.050   2.764   8.250
  274loPI   C4A 4378   6.045   2.728   7.950
  274loPI   C5A 4379   6.096   2.773   7.650
  274loPI   C6A 4380   6.066   2.786   7.350
  274loPI   C1B 4381   6.264   2.633   8.850
  274loPI   C2B 4382   6.329   2.702   8.550
  274loPI   C3B 4383   6.309   2.640   8.250
  274loPI   C4B 4384   6.329   2.682   7.950
  275loPI    C1 4385   9.933   8.905   9.750
  275loPI    C2 4386   9.929   8.881  10.050
  275loPI    C3 4387  10.076   8.851  10.050
  275loPI   PO4 4388  10.054   8.894   9.450
  275loPI   GL1 4389  10.013   8.853   9.150
  275loPI   GL2 4390   9.885   8.904   9.150
  275loPI   C1A 4391  10.007   8.889   8.850
  275loPI   C2A 4392  10.068   8.864   8.550
  275loPI   C3A 4393  10.017   8.871   8.250
  275loPI   C4A 4394  10.051   8.870   7.950
  275loPI   C5A 4395  10.048   8.903   7.650
  275loPI   C6A 4396  10.073   8.884   7.350
  275loPI   C1B 4397   9.858   8.829   8.850
  275loPI   C2B 4398   9.838   8.855   8.550
  275loPI   C3B 4399   9.851   8.867   8.250
  275loPI   C4B 4400   9.769   8.819   7.950
  276loPI    C1 4401   8.318  11.921   9.750
  276loPI    C2 4402   8.325  11.852  10.050
  276loPI    C3 4403   8.481  11.999  10.050
  276loPI   PO4 4404   8.453  11.950   9.450
  276loPI   GL1 4405   8.410  11.956   9.150
  276loPI   GL2 4406   8.325  11.921   9.150
  276loPI   C1A 4407   8.421  12.016   8.850
  276loPI   C2A 4408   8.474  11.955   8.550
  276loPI   C3A 4409   8.420  11.960   8.250
  276loPI   C4A 4410   8.444  12.021   7.950
  276loPI   C5A 4411   8.451  11.976   7.650
  276loPI   C6A 4412   8.461  11.948   7.350
  276loPI   C1B 4413   8.222  11.845   8.850
  276loPI   C2B 4414   8.297  11.844   8.550
  276loPI   C3B 4415   8.313  11.828   8.250
  276loPI   C4B 4416   8.252  11.843   7.950
  277loPI    C1 4417   3.806  12.672   9.750
  277loPI    C2 4418   3.748  12.741  10.050
  277loPI    C3 4419   3.696  12.699  10.050
  277loPI   PO4 4420   3.656  12.717   9.450
  277loPI   GL1 4421   3.640  12.724   9.150
  277loPI   GL2 4422   3.797  12.727   9.150
  277loPI   C1A 4423   3.624  12.785   8.850
  277loPI   C2A 4424   3.697  12.769   8.550
  277loPI   C3A 4425   3.602  12.749   8.250
  277loPI   C4A 4426   3.657  12.772   7.950
  277loPI   C5A 4427   3.637  12.775   7.650
  277loPI   C6A 4428   3.631  12.722   7.350
  277loPI   C1B 4429   3.843  12.651   8.850
  277loPI   C2B 4430   3.894  12.707   8.550
  277loPI   C3B 4431   3.889  12.618   8.250
  277loPI   C4B 4432   3.890  12.619   7.950
  278loPI    C1 4433   9.085   3.425   9.750
  278loPI    C2 4434   9.175   3.497  10.050
  278loPI    C3 4435   9.254   3.491  10.050
  278loPI   PO4 4436   9.234   3.558   9.450
  278loPI   GL1 4437   9.263   3.466   9.150
  278loPI   GL2 4438   9.143   3.434   9.150
  278loPI   C1A 4439   9.221   3.464   8.850
  278loPI   C2A 4440   9.284   3.549   8.550
  278loPI   C3A 4441   9.224   3.475   8.250
  278loPI   C4A 4442   9.272   3.509   7.950
  278loPI   C5A 4443   9.209   3.548   7.650
  278loPI   C6A 4444   9.262   3.524   7.350
  278loPI   C1B 4445   9.024   3.397   8.850
  278loPI   C2B 4446   9.040   3.430   8.550
  278loPI   C3B 4447   9.045   3.401   8.250
  278loPI   C4B 4448   9.064   3.472   7.950
  279loPI    C1 4449   5.144  18.138   9.750
  279loPI    C2 4450   5.124  18.078  10.050
  279loPI    C3 4451   5.267  18.133  10.050
  279loPI   PO4 4452   5.221  18.160   9.450
  279loPI   GL1 4453   5.203  18.160   9.150
  279loPI   GL2 4454   5.085  18.133   9.150
  279loPI   C1A 4455   5.211  18.133   8.850
  279loPI   C2A 4456   5.222  18.085   8.550
  279loPI   C3A 4457   5.204  18.094   8.250
  279loPI   C4A 4458   5.280  18.145   7.950
  279loPI   C5A 4459   5.268  18.167   7.650
  279loPI   C6A 4460   5.275  18.174   7.350
  279loPI   C1B 4461   5.048  18.016   8.850
  279loPI   C2B 4462   5.030  18.048   8.550
  279loPI   C3B 4463   5.019  18.047   8.250
  279loPI   C4B 4464   4.968  18.014   7.950
  280loPI    C1 4465   5.126   7.292   9.750
  280loPI    C2 4466   5.087   7.347  10.050
  280loPI    C3 4467   5.279   7.394  10.050
  280loPI   PO4 4468   5.202   7.346   9.450
  280loPI   GL1 4469   5.254   7.397   9.150
  280loPI   GL2 4470   5.112   7.304   9.150
  280loPI   C1A 4471   5.278   7.373   8.850
  280loPI   C2A 4472   5.211   7.379   8.550
  280loPI   C3A 4473   5.265   7.320   8.250
  280loPI   C4A 4474   5.244   7.315   7.950
  280loPI   C5A 4475   5.263   7.344   7.650
  280loPI   C6A 4476   5.229   7.337   7.350
  280loPI   C1B 4477   4.990   7.220   8.850
  280loPI   C2B 4478   5.046   7.277   8.550
  280loPI   C3B 4479   5.051   7.279   8.250
  280loPI   C4B 4480   5.052   7.299   7.950
  281loPI    C1 4481   9.971   4.196   9.750
  281loPI    C2 4482  10.041   4.168  10.050
  281loPI    C3 4483  10.040   4.329  10.050
  281loPI   PO4 4484  10.089   4.260   9.450
  281loPI   GL1 4485  10.072   4.244   9.150
  281loPI   GL2 4486  10.043   4.195   9.150
  281loPI   C1A 4487  10.032   4.254   8.850
  281loPI   C2A 4488  10.037   4.324   8.550
  281loPI   C3A 4489  10.098   4.293   8.250
  281loPI   C4A 4490  10.028   4.293   7.950
  281loPI   C5A 4491  10.087   4.285   7.650
  281loPI   C6A 4492  10.060   4.316   7.350
  281loPI   C1B 4493   9.994   3.998   8.850
  281loPI   C2B 4494   9.954   4.081   8.550
  281loPI   C3B 4495   9.944   4.051   8.250
  281loPI   C4B 4496  10.036   4.010   7.950
  282loPI    C1 4497   1.244   5.158   9.750
  282loPI    C2 4498   1.262   5.127  10.050
  282loPI    C3 4499   1.287   5.089  10.050
  282loPI   PO4 4500   1.266   5.088   9.450
  282loPI   GL1 4501   1.238   5.021   9.150
  282loPI   GL2 4502   1.283   5.158   9.150
  282loPI   C1A 4503   1.300   5.016   8.850
  282loPI   C2A 4504   1.291   5.062   8.550
  282loPI   C3A 4505   1.288   5.027   8.250
  282loPI   C4A 4506   1.202   5.064   7.950
  282loPI   C5A 4507   1.216   5.055   7.650
  282loPI   C6A 4508   1.218   5.022   7.350
  282loPI   C1B 4509   1.240   5.281   8.850
  282loPI   C2B 4510   1.321   5.348   8.550
  282loPI   C3B 4511   1.270   5.286   8.250
  282loPI   C4B 4512   1.305   5.279   7.950
  283loPI    C1 4513   2.838   6.758   9.750
  283loPI    C2 4514   2.841   6.758  10.050
  283loPI    C3 4515   2.861   6.611  10.050
  283loPI   PO4 4516   2.800   6.562   9.450
  283loPI   GL1 4517   2.899   6.612   9.150
  283loPI   GL2 4518   2.859   6.724   9.150
  283loPI   C1A 4519   2.821   6.603   8.850
  283loPI   C2A 4520   2.896   6.540   8.550
  283loPI   C3A 4521   2.838   6.598   8.250
  283loPI   C4A 4522   2.829   6.590   7.950
  283loPI   C5A 4523   2.840   6.615   7.650
  283loPI   C6A 4524   2.867   6.566   7.350
  283loPI   C1B 4525   2.836   6.874   8.850
  283loPI   C2B 4526   2.799   6.811   8.550
  283loPI   C3B 4527   2.757   6.870   8.250
  283loPI   C4B 4528   2.825   6.842   7.950
  284loPI    C1 4529   8.431  13.431   9.750
  284loPI    C2 4530   8.481  13.433  10.050
  284loPI    C3 4531   8.432  13.507  10.050
  284loPI   PO4 4532   8.427  13.507   9.450
  284loPI   GL1 4533   8.441  13.554   9.150
  284loPI   GL2 4534   8.461  13.399   9.150
  284loPI   C1A 4535   8.449  13.558   8.850
  284loPI   C2A 4536   8.446  13.504   8.550
  284loPI   C3A 4537   8.468  13.488   8.250
  284loPI   C4A 4538   8.405  13.493   7.950
  284loPI   C5A 4539   8.408  13.538   7.650
  284loPI   C6A 4540   8.466  13.526   7.350
  284loPI   C1B 4541   8.515  13.315   8.850
  284loPI   C2B 4542   8.523  13.313   8.550
  284loPI   C3B 4543   8.537  13.262   8.250
  284loPI   C4B 4544   8.538  13.228   7.950
  285loPI    C1 4545   3.536   2.714   9.750
  285loPI    C2 4546   3.545   2.763  10.050
  285loPI    C3 4547   3.634   2.785  10.050
  285loPI   PO4 4548   3.656   2.697   9.450
  285loPI   GL1 4549   3.626   2.753   9.150
  285loPI   GL2 4550   3.480   2.689   9.150
  285loPI   C1A 4551   3.601   2.748   8.850
  285loPI   C2A 4552   3.670   2.740   8.550
  285loPI   C3A 4553   3.690   2.759   8.250
  285loPI   C4A 4554   3.687   2.764   7.950
  285loPI   C5A 4555   3.641   2.704   7.650
  285loPI   C6A 4556   3.651   2.784   7.350
  285loPI   C1B 4557   3.395   2.696   8.850
  285loPI   C2B 4558   3.428   2.739   8.550
  285loPI   C3B 4559   3.420   2.744   8.250
  285loPI   C4B 4560   3.367   2.685   7.950
  286loPI    C1 4561   2.834   1.272   9.750
  286loPI    C2 4562   2.778   1.360  10.050
  286loPI    C3 4563   2.888   1.253  10.050
  286loPI   PO4 4564   2.892   1.161   9.450
  286loPI   GL1 4565   2.861   1.161   9.150
  286loPI   GL2 4566   2.793   1.270   9.150
  286loPI   C1A 4567   2.878   1.196   8.850
  286loPI   C2A 4568   2.858   1.253   8.550
  286loPI   C3A 4569   2.851   1.192   8.250
  286loPI   C4A 4570   2.869   1.195   7.950
  286loPI   C5A 4571   2.847   1.224   7.650
  286loPI   C6A 4572   2.889   1.225   7.350
  286loPI   C1B 4573   2.709   1.426   8.850
  286loPI   C2B 4574   2.779   1.415   8.550
  286loPI   C3B 4575   2.741   1.472   8.250
  286loPI   C4B 4576   2.707   1.478   7.950
  287loPI    C1 4577   2.094   4.940   9.750
  287loPI    C2 4578   2.132   4.966  10.050
  287loPI    C3 4579   2.009   5.029  10.050
  287loPI   PO4 4580   2.041   5.047   9.450
  287loPI   GL1 4581   2.070   5.075   9.150
  287loPI   GL2 4582   2.066   4.951   9.150
  287loPI   C1A 4583   2.054   5.030   8.850
  287loPI   C2A 4584   2.040   5.026   8.550
  287loPI   C3A 4585   2.085   5.099   8.250
  287loPI   C4A 4586   2.014   5.041   7.950
  287loPI   C5A 4587   2.034   5.062   7.650
  287loPI   C6A 4588   2.099   5.093   7.350
  287loPI   C1B 4589   2.115   4.820   8.850
  287loPI   C2B 4590   2.186   4.816   8.550
  287loPI   C3B 4591   2.158   4.789   8.250
  287loPI   C4B 4592   2.136   4.839   7.950
  288loPI    C1 4593  10.713  13.531   9.750
  288loPI    C2 4594  10.720  13.535  10.050
  288loPI    C3 4595  10.829  13.501  10.050
  288loPI   PO4 4596  10.835  13.468   9.450
  288loPI   GL1 4597  10.807  13.561   9.150
  288loPI   GL2 4598  10.722  13.527   9.150
  288loPI   C1A 4599  10.803  13.520   8.850
  288loPI   C2A 4600  10.869  13.542   8.550
  288loPI   C3A 4601  10.839  13.514   8.250
  288loPI   C4A 4602  10.805  13.519   7.950
  288loPI   C5A 4603  10.876  13.508   7.650
  288loPI   C6A 4604  10.820  13.494   7.350
  288loPI   C1B 4605  10.624  13.546   8.850
  288loPI   C2B 4606  10.608  13.540   8.550
  288loPI   C3B 4607  10.595  13.576   8.250
  288loPI   C4B 4608  10.634  13.542   7.950
  289loPI    C1 4609   6.742  17.257   9.750
  289loPI    C2 4610   6.763  17.242  10.050
  289loPI    C3 4611   6.856  17.397  10.050
  289loPI   PO4 4612   6.885  17.347   9.450
  289loPI   GL1 4613   6.874  17.354   9.150
  289loPI   GL2 4614   6.735  17.303   9.150
  289loPI   C1A 4615   6.879  17.355   8.850
  289loPI   C2A 4616   6.825  17.395   8.550
  289loPI   C3A 4617   6.872  17.392   8.250
  289loPI   C4A 4618   6.899  17.311   7.950
  289loPI   C5A 4619   6.849  17.315   7.650
  289loPI   C6A 4620   6.854  17.396   7.350
  289loPI   C1B 4621   6.672  17.240   8.850
  289loPI   C2B 4622   6.681  17.213   8.550
  289loPI   C3B 4623   6.664  17.231   8.250
  289loPI   C4B 4624   6.622  17.210   7.950
  290loPI    C1 4625   0.595   8.924   9.750
  290loPI    C2 4626   0.602   8.977  10.050
  290loPI    C3 4627   0.495   8.876  10.050
  290loPI   PO4 4628   0.461   8.878   9.450
  290loPI   GL1 4629   0.493   8.857   9.150
  290loPI   GL2 4630   0.548   8.932   9.150
  290loPI   C1A 4631   0.437   8.915   8.850
  290loPI   C2A 4632   0.499   8.925   8.550
  290loPI   C3A 4633   0.486   8.926   8.250
  290loPI   C4A 4634   0.401   8.929   7.950
  290loPI   C5A 4635   0.470   8.887   7.650
  290loPI   C6A 4636   0.460   8.847   7.350
  290loPI   C1B 4637   0.650   8.933   8.850
  290loPI   C2B 4638   0.697   8.976   8.550
  290loPI   C3B 4639   0.684   9.001   8.250
  290loPI   C4B 4640   0.674   8.975   7.950
  291loPI    C1 4641  10.994  10.412   9.750
  291loPI    C2 4642  10.954  10.345  10.050
  291loPI    C3 4643  10.864  10.481  10.050
  291loPI   PO4 4644  10.831  10.427   9.450
  291loPI   GL1 4645  10.868  10.404   9.150
  291loPI   GL2 4646  10.980  10.326   9.150
  291loPI   C1A 4647  10.884  10.454   8.850
  291loPI   C2A 4648  10.805  10.463   8.550
  291loPI   C3A 4649  10.874  10.418   8.250
  291loPI   C4A 4650  10.878  10.407   7.950
  291loPI   C5A 4651  10.846  10.435   7.650
  291loPI   C6A 4652  10.900  10.473   7.350
  291loPI   C1B 4653  11.061  10.346   8.850
  291loPI   C2B 4654  11.038  10.340   8.550
  291loPI   C3B 4655  11.100  10.304   8.250
  291loPI   C4B 4656  11.037  10.260   7.950
  292loPI    C1 4657   3.501  15.827   9.750
  292loPI    C2 4658   3.507  15.882  10.050
  292loPI    C3 4659   3.630  15.781  10.050
  292loPI   PO4 4660   3.669  15.861   9.450
  292loPI   GL1 4661   3.616  15.774   9.150
  292loPI   GL2 4662   3.552  15.869   9.150
  292loPI   C1A 4663   3.617  15.835   8.850
  292loPI   C2A 4664   3.676  15.827   8.550
  292loPI   C3A 4665   3.631  15.808   8.250
  292loPI   C4A 4666   3.630  15.833   7.950
  292loPI   C5A 4667   3.662  15.869   7.650
  292loPI   C6A 4668   3.694  15.808   7.350
  292loPI   C1B 4669   3.452  15.874   8.850
  292loPI   C2B 4670   3.404  15.892   8.550
  292loPI   C3B 4671   3.429  15.919   8.250
  292loPI   C4B 4672   3.412  15.912   7.950
  293loPI    C1 4673   6.758  19.804   9.750
  293loPI    C2 4674   6.766  19.757  10.050
  293loPI    C3 4675   6.816  19.664  10.050
  293loPI   PO4 4676   6.899  19.632   9.450
  293loPI   GL1 4677   6.895  19.692   9.150
  293loPI   GL2 4678   6.784  19.793   9.150
  293loPI   C1A 4679   6.833  19.632   8.850
  293loPI   C2A 4680   6.809  19.708   8.550
  293loPI   C3A 4681   6.884  19.689   8.250
  293loPI   C4A 4682   6.874  19.626   7.950
  293loPI   C5A 4683   6.894  19.638   7.650
  293loPI   C6A 4684   6.892  19.637   7.350
  293loPI   C1B 4685   6.781  19.908   8.850
  293loPI   C2B 4686   6.751  19.947   8.550
  293loPI   C3B 4687   6.731  19.915   8.250
  293loPI   C4B 4688   6.800  19.919   7.950
  294loPI    C1 4689   2.152  17.251   9.750
  294loPI    C2 4690   2.082  17.253  10.050
  294loPI    C3 4691   2.008  17.346  10.050
  294loPI   PO4 4692   2.052  17.402   9.450
  294loPI   GL1 4693   2.089  17.370   9.150
  294loPI   GL2 4694   2.173  17.258   9.150
  294loPI   C1A 4695   2.085  17.323   8.850
  294loPI   C2A 4696   2.097  17.377   8.550
  294loPI   C3A 4697   2.008  17.333   8.250
  294loPI   C4A 4698   2.023  17.395   7.950
  294loPI   C5A 4699   2.072  17.388   7.650
  294loPI   C6A 4700   2.017  17.376   7.350
  294loPI   C1B 4701   2.235  17.205   8.850
  294loPI   C2B 4702   2.230  17.183   8.550
  294loPI   C3B 4703   2.160  17.136   8.250
  294loPI   C4B 4704   2.214  17.191   7.950
  295loPI    C1 4705   0.494   9.759   9.750
  295loPI    C2 4706   0.487   9.788  10.050
  295loPI    C3 4707   0.401   9.702  10.050
  295loPI   PO4 4708   0.430   9.705   9.450
  295loPI   GL1 4709   0.402   9.625   9.150
  295loPI   GL2 4710   0.549   9.786   9.150
  295loPI   C1A 4711   0.445   9.631   8.850
  295loPI   C2A 4712   0.485   9.695   8.550
  295loPI   C3A 4713   0.455   9.690   8.250
  295loPI   C4A 4714   0.489   9.678   7.950
  295loPI   C5A 4715   0.457   9.682   7.650
  295loPI   C6A 4716   0.422   9.656   7.350
  295loPI   C1B 4717   0.657   9.861   8.850
  295loPI   C2B 4718   0.631   9.842   8.550
  295loPI   C3B 4719   0.662   9.834   8.250
  295loPI   C4B 4720   0.651   9.861   7.950
  296loPI    C1 4721   9.281   9.509   9.750
  296loPI    C2 4722   9.244   9.512  10.050
  296loPI    C3 4723   9.223   9.650  10.050
  296loPI   PO4 4724   9.289   9.682   9.450
  296loPI   GL1 4725   9.294   9.633   9.150
  296loPI   GL2 4726   9.300   9.503   9.150
  296loPI   C1A 4727   9.238   9.686   8.850
  296loPI   C2A 4728   9.264   9.684   8.550
  296loPI   C3A 4729   9.232   9.647   8.250
  296loPI   C4A 4730   9.274   9.698   7.950
  296loPI   C5A 4731   9.228   9.706   7.650
  296loPI   C6A 4732   9.239   9.653   7.350
  296loPI   C1B 4733   9.299   9.378   8.850
  296loPI   C2B 4734   9.246   9.409   8.550
  296loPI   C3B 4735   9.259   9.389   8.250
  296loPI   C4B 4736   9.240   9.444   7.950
  297loPI    C1 4737   5.967   1.095   9.750
  297loPI    C2 4738   5.993   1.107  10.050
  297loPI    C3 4739   6.080   1.209  10.050
  297loPI   PO4 4740   6.024   1.236   9.450
  297loPI   GL1 4741   6.026   1.163   9.150
  297loPI   GL2 4742   5.993   1.111   9.150
  297loPI   C1A 4743   6.072   1.229   8.850
  297loPI   C2A 4744   6.017   1.195   8.550
  297loPI   C3A 4745   6.087   1.238   8.250
  297loPI   C4A 4746   6.055   1.236   7.950
  297loPI   C5A 4747   6.083   1.249   7.650
  297loPI   C6A 4748   6.094   1.184   7.350
  297loPI   C1B 4749   5.934   0.960   8.850
  297loPI   C2B 4750   5.941   1.030   8.550
  297loPI   C3B 4751   5.906   0.979   8.250
  297loPI   C4B 4752   5.848   1.004   7.950
  298loPI    C1 4753   9.959   5.013   9.750
  298loPI    C2 4754   9.904   4.942  10.050
  298loPI    C3 4755  10.031   5.085  10.050
  298loPI   PO4 4756  10.088   5.090   9.450
  298loPI   GL1 4757  10.089   5.093   9.150
  298loPI   GL2 4758   9.950   5.027   9.150
  298loPI   C1A 4759  10.072   5.026   8.850
  298loPI   C2A 4760  10.058   5.079   8.550
  298loPI   C3A 4761  10.066   5.035   8.250
  298loPI   C4A 4762  10.022   5.009   7.950
  298loPI   C5A 4763  10.092   5.089   7.650
  298loPI   C6A 4764  10.011   5.006   7.350
  298loPI   C1B 4765   9.797   4.924   8.850
  298loPI   C2B 4766   9.819   4.915   8.550
  298loPI   C3B 4767   9.840   4.967   8.250
  298loPI   C4B 4768   9.826   4.958   7.950
  299loPI    C1 4769   6.985  11.923   9.750
  299loPI    C2 4770   6.986  11.984  10.050
  299loPI    C3 4771   6.805  11.972  10.050
  299loPI   PO4 4772   6.864  11.984   9.450
  299loPI   GL1 4773   6.837  11.956   9.150
  299loPI   GL2 4774   6.975  11.999   9.150
  299loPI   C1A 4775   6.826  11.978   8.850
  299loPI   C2A 4776   6.864  11.968   8.550
  299loPI   C3A 4777   6.886  11.991   8.250
  299loPI   C4A 4778   6.880  11.943   7.950
  299loPI   C5A 4779   6.846  11.989   7.650
  299loPI   C6A 4780   6.817  11.962   7.350
  299loPI   C1B 4781   7.114  12.004   8.850
  299loPI   C2B 4782   7.058  11.910   8.550
  299loPI   C3B 4783   7.101  11.947   8.250
  299loPI   C4B 4784   7.143  11.917   7.950
  300loPI    C1 4785   8.399   2.714   9.750
  300loPI    C2 4786   8.389   2.704  10.050
  300loPI    C3 4787   8.492   2.755  10.050
  300loPI   PO4 4788   8.414   2.706   9.450
  300loPI   GL1 4789   8.446   2.757   9.150
  300loPI   GL2 4790   8.380   2.716   9.150
  300loPI   C1A 4791   8.492   2.773   8.850
  300loPI   C2A 4792   8.488   2.718   8.550
  300loPI   C3A 4793   8.454   2.696   8.250
  300loPI   C4A 4794   8.449   2.784   7.950
  300loPI   C5A 4795   8.464   2.733   7.650
  300loPI   C6A 4796   8.479   2.741   7.350
  300loPI   C1B 4797   8.226   2.589   8.850
  300loPI   C2B 4798   8.203   2.545   8.550
  300loPI   C3B 4799   8.289   2.554   8.250
  300loPI   C4B 4800   8.297   2.577   7.950
  301loPI    C1 4801   5.957   9.640   9.750
  301loPI    C2 4802   5.929   9.644  10.050
  301loPI    C3 4803   6.085   9.637  10.050
  301loPI   PO4 4804   6.051   9.627   9.450
  301loPI   GL1 4805   6.089   9.667   9.150
  301loPI   GL2 4806   5.956   9.620   9.150
  301loPI   C1A 4807   6.083   9.638   8.850
  301loPI   C2A 4808   6.050   9.690   8.550
  301loPI   C3A 4809   6.012   9.712   8.250
  301loPI   C4A 4810   6.035   9.697   7.950
  301loPI   C5A 4811   6.035   9.624   7.650
  301loPI   C6A 4812   6.094   9.659   7.350
  301loPI   C1B 4813   5.837   9.584   8.850
  301loPI   C2B 4814   5.778   9.602   8.550
  301loPI   C3B 4815   5.797   9.552   8.250
  301loPI   C4B 4816   5.837   9.531   7.950
  302loPI    C1 4817   7.585  18.848   9.750
  302loPI    C2 4818   7.560  18.827  10.050
  302loPI    C3 4819   7.628  18.896  10.050
  302loPI   PO4 4820   7.661  18.889   9.450
  302loPI   GL1 4821   7.691  18.883   9.150
  302loPI   GL2 4822   7.548  18.887   9.150
  302loPI   C1A 4823   7.628  18.882   8.850
  302loPI   C2A 4824   7.640  18.851   8.550
  302loPI   C3A 4825   7.693  18.887   8.250
  302loPI   C4A 4826   7.635  18.878   7.950
  302loPI   C5A 4827   7.640  18.883   7.650
  302loPI   C6A 4828   7.690  18.851   7.350
  302loPI   C1B 4829   7.438  18.786   8.850
  302loPI   C2B 4830   7.441  18.804   8.550
  302loPI   C3B 4831   7.449  18.802   8.250
  302loPI   C4B 4832   7.420  18.784   7.950
  303loPI    C1 4833   3.509  12.010   9.750
  303loPI    C2 4834   3.543  12.001  10.050
  303loPI    C3 4835   3.664  11.957  10.050
  303loPI   PO4 4836   3.675  12.020   9.450
  303loPI   GL1 4837   3.660  12.016   9.150
  303loPI   GL2 4838   3.551  12.070   9.150
  303loPI   C1A 4839   3.634  11.972   8.850
  303loPI   C2A 4840   3.692  11.980   8.550
  303loPI   C3A 4841   3.610  12.005   8.250
  303loPI   C4A 4842   3.667  11.984   7.950
  303loPI   C5A 4843   3.698  12.010   7.650
  303loPI   C6A 4844   3.614  11.958   7.350
  303loPI   C1B 4845   3.428  12.090   8.850
  303loPI   C2B 4846   3.440  12.030   8.550
  303loPI   C3B 4847   3.454  12.084   8.250
  303loPI   C4B 4848   3.464  12.116   7.950
  304loPI    C1 4849   8.394   4.153   9.750
  304loPI    C2 4850   8.403   4.241  10.050
  304loPI    C3 4851   8.403   4.327  10.050
  304loPI   PO4 4852   8.436   4.328   9.450
  304loPI   GL1 4853   8.470   4.327   9.150
  304loPI   GL2 4854   8.356   4.209   9.150
  304loPI   C1A 4855   8.432   4.289   8.850
  304loPI   C2A 4856   8.454   4.258   8.550
  304loPI   C3A 4857   8.419   4.284   8.250
  304loPI   C4A 4858   8.457   4.316   7.950
  304loPI   C5A 4859   8.493   4.299   7.650
  304loPI   C6A 4860   8.497   4.286   7.350
  304loPI   C1B 4861   8.282   4.120   8.850
  304loPI   C2B 4862   8.316   4.095   8.550
  304loPI   C3B 4863   8.279   4.079   8.250
  304loPI   C4B 4864   8.237   4.097   7.950
  305loPI    C1 4865   7.724  10.434   9.750
  305loPI    C2 4866   7.756  10.446  10.050
  305loPI    C3 4867   7.654  10.463  10.050
  305loPI   PO4 4868   7.697  10.475   9.450
  305loPI   GL1 4869   7.686  10.463   9.150
  305loPI   GL2 4870   7.754  10.431   9.150
  305loPI   C1A 4871   7.688  10.429   8.850
  305loPI   C2A 4872   7.671  10.411   8.550
  305loPI   C3A 4873   7.691  10.472   8.250
  305loPI   C4A 4874   7.669  10.427   7.950
  305loPI   C5A 4875   7.618  10.440   7.650
  305loPI   C6A 4876   7.629  10.432   7.350
  305loPI   C1B 4877   7.945  10.428   8.850
  305loPI   C2B 4878   7.932  10.353   8.550
  305loPI   C3B 4879   7.894  10.418   8.250
  305loPI   C4B 4880   7.886  10.398   7.950
  306loPI    C1 4881   9.176  12.812   9.750
  306loPI    C2 4882   9.122  12.794  10.050
  306loPI    C3 4883   9.222  12.792  10.050
  306loPI   PO4 4884   9.291  12.703   9.450
  306loPI   GL1 4885   9.247  12.702   9.150
  306loPI   GL2 4886   9.149  12.830   9.150
  306loPI   C1A 4887   9.245  12.708   8.850
  306loPI   C2A 4888   9.282  12.723   8.550
  306loPI   C3A 4889   9.230  12.738   8.250
  306loPI   C4A 4890   9.270  12.751   7.950
  306loPI   C5A 4891   9.234  12.722   7.650
  306loPI   C6A 4892   9.205  12.704   7.350
  306loPI   C1B 4893   9.103  12.901   8.850
  306loPI   C2B 4894   9.122  12.923   8.550
  306loPI   C3B 4895   9.047  12.876   8.250
  306loPI   C4B 4896   9.125  12.907   7.950
  307loPI    C1 4897  11.533   8.181   9.750
  307loPI    C2 4898  11.549   8.119  10.050
  307loPI    C3 4899  11.602   8.110  10.050
  307loPI   PO4 4900  11.653   8.102   9.450
  307loPI   GL1 4901  11.700   8.162   9.150
  307loPI   GL2 4902  11.541   8.198   9.150
  307loPI   C1A 4903  11.688   8.102   8.850
  307loPI   C2A 4904  11.631   8.129   8.550
  307loPI   C3A 4905  11.677   8.085   8.250
  307loPI   C4A 4906  11.657   8.095   7.950
  307loPI   C5A 4907  11.657   8.163   7.650
  307loPI   C6A 4908  11.602   8.156   7.350
  307loPI   C1B 4909  11.432   8.150   8.850
  307loPI   C2B 4910  11.432   8.192   8.550
  307loPI   C3B 4911  11.370   8.235   8.250
  307loPI   C4B 4912  11.426   8.210   7.950
  308loPI    C1 4913   0.356   4.999   9.750
  308loPI    C2 4914   0.368   4.959  10.050
  308loPI    C3 4915   0.475   5.065  10.050
  308loPI   PO4 4916   0.435   5.094   9.450
  308loPI   GL1 4917   0.445   5.009   9.150
  308loPI   GL2 4918   0.411   4.938   9.150
  308loPI   C1A 4919   0.444   5.072   8.850
  308loPI   C2A 4920   0.467   5.077   8.550
  308loPI   C3A 4921   0.409   5.019   8.250
  308loPI   C4A 4922   0.435   5.035   7.950
  308loPI   C5A 4923   0.415   5.043   7.650
  308loPI   C6A 4924   0.499   5.038   7.350
  308loPI   C1B 4925   0.322   4.859   8.850
  308loPI   C2B 4926   0.258   4.815   8.550
  308loPI   C3B 4927   0.293   4.880   8.250
  308loPI   C4B 4928   0.290   4.892   7.950
  309loPI    C1 4929   9.159  16.521   9.750
  309loPI    C2 4930   9.199  16.463  10.050
  309loPI    C3 4931   9.288  16.543  10.050
  309loPI   PO4 4932   9.226  16.550   9.450
  309loPI   GL1 4933   9.297  16.616   9.150
  309loPI   GL2 4934   9.218  16.490   9.150
  309loPI   C1A 4935   9.247  16.583   8.850
  309loPI   C2A 4936   9.283  16.623   8.550
  309loPI   C3A 4937   9.236  16.599   8.250
  309loPI   C4A 4938   9.262  16.633   7.950
  309loPI   C5A 4939   9.214  16.549   7.650
  309loPI   C6A 4940   9.267  16.632   7.350
  309loPI   C1B 4941   9.112  16.335   8.850
  309loPI   C2B 4942   9.125  16.413   8.550
  309loPI   C3B 4943   9.154  16.395   8.250
  309loPI   C4B 4944   9.158  16.357   7.950
  310loPI    C1 4945   6.198  14.248   9.750
  310loPI    C2 4946   6.187  14.184  10.050
  310loPI    C3 4947   6.016  14.268  10.050
  310loPI   PO4 4948   6.072  14.290   9.450
  310loPI   GL1 4949   6.036  14.296   9.150
  310loPI   GL2 4950   6.123  14.246   9.150
  310loPI   C1A 4951   6.062  14.249   8.850
  310loPI   C2A 4952   6.098  14.253   8.550
  310loPI   C3A 4953   6.045  14.275   8.250
  310loPI   C4A 4954   6.015  14.294   7.950
  310loPI   C5A 4955   6.008  14.322   7.650
  310loPI   C6A 4956   6.006  14.304   7.350
  310loPI   C1B 4957   6.215  14.098   8.850
  310loPI   C2B 4958   6.231  14.099   8.550
  310loPI   C3B 4959   6.245  14.173   8.250
  310loPI   C4B 4960   6.299  14.176   7.950
  311loPI    C1 4961   1.970  10.320   9.750
  311loPI    C2 4962   1.913  10.340  10.050
  311loPI    C3 4963   2.054  10.413  10.050
  311loPI   PO4 4964   2.042  10.419   9.450
  311loPI   GL1 4965   2.032  10.457   9.150
  311loPI   GL2 4966   1.915  10.378   9.150
  311loPI   C1A 4967   2.069  10.471   8.850
  311loPI   C2A 4968   2.095  10.393   8.550
  311loPI   C3A 4969   2.077  10.413   8.250
  311loPI   C4A 4970   2.098  10.441   7.950
  311loPI   C5A 4971   2.068  10.480   7.650
  311loPI   C6A 4972   2.092  10.412   7.350
  311loPI   C1B 4973   1.894  10.263   8.850
  311loPI   C2B 4974   1.842  10.315   8.550
  311loPI   C3B 4975   1.831  10.233   8.250
  311loPI   C4B 4976   1.860  10.241   7.950
  312loPI    C1 4977   0.427  17.450   9.750
  312loPI    C2 4978   0.426  17.470  10.050
  312loPI    C3 4979   0.422  17.373  10.050
  312loPI   PO4 4980   0.410  17.338   9.450
  312loPI   GL1 4981   0.449  17.318   9.150
  312loPI   GL2 4982   0.359  17.426   9.150
  312loPI   C1A 4983   0.462  17.405   8.850
  312loPI   C2A 4984   0.401  17.388   8.550
  312loPI   C3A 4985   0.476  17.372   8.250
  312loPI   C4A 4986   0.403  17.399   7.950
  312loPI   C5A 4987   0.500  17.344   7.650
  312loPI   C6A 4988   0.436  17.358   7.350
  312loPI   C1B 4989   0.312  17.568   8.850
  312loPI   C2B 4990   0.307  17.557   8.550
  312loPI   C3B 4991   0.387  17.637   8.250
  312loPI   C4B 4992   0.309  17.615   7.950
  313loPI    C1 4993   9.357   5.109   9.750
  313loPI    C2 4994   9.309   5.158  10.050
  313loPI    C3 4995   9.246   5.034  10.050
  313loPI   PO4 4996   9.284   5.088   9.450
  313loPI   GL1 4997   9.260   5.003   9.150
  313loPI   GL2 4998   9.342   5.120   9.150
  313loPI   C1A 4999   9.291   5.038   8.850
  313loPI   C2A 5000   9.212   5.021   8.550
  313loPI   C3A 5001   9.225   5.070   8.250
  313loPI   C4A 5002   9.239   5.039   7.950
  313loPI   C5A 5003   9.225   5.096   7.650
  313loPI   C6A 5004   9.262   5.035   7.350
  313loPI   C1B 5005   9.418   5.207   8.850
  313loPI   C2B 5006   9.458   5.218   8.550
  313loPI   C3B 5007   9.419   5.225   8.250
  313loPI   C4B 5008   9.390   5.230   7.950
  314loPI    C1 5009  11.556   9.565   9.750
  314loPI    C2 5010  11.579   9.544  10.050
  314loPI    C3 5011  11.625   9.667  10.050
  314loPI   PO4 5012  11.671   9.681   9.450
  314loPI   GL1 5013  11.654   9.697   9.150
  314loPI   GL2 5014  11.594   9.588   9.150
  314loPI   C1A 5015  11.659   9.636   8.850
  314loPI   C2A 5016  11.632   9.625   8.550
  314loPI   C3A 5017  11.663   9.639   8.250
  314loPI   C4A 5018  11.674   9.665   7.950
  314loPI   C5A 5019  11.623   9.657   7.650
  314loPI   C6A 5020  11.662   9.692   7.350
  314loPI   C1B 5021  11.511   9.498   8.850
  314loPI   C2B 5022  11.474   9.448   8.550
  314loPI   C3B 5023  11.526   9.484   8.250
  314loPI   C4B 5024  11.506   9.479   7.950
  315loPI    C1 5025   6.929   8.065   9.750
  315loPI    C2 5026   6.971   8.028  10.050
  315loPI    C3 5027   6.872   8.168  10.050
  315loPI   PO4 5028   6.823   8.120   9.450
  315loPI   GL1 5029   6.828   8.133   9.150
  315loPI   GL2 5030   6.945   8.054   9.150
  315loPI   C1A 5031   6.887   8.121   8.850
  315loPI   C2A 5032   6.843   8.148   8.550
  315loPI   C3A 5033   6.822   8.158   8.250
  315loPI   C4A 5034   6.882   8.160   7.950
  315loPI   C5A 5035   6.883   8.102   7.650
  315loPI   C6A 5036   6.882   8.167   7.350
  315loPI   C1B 5037   6.986   7.927   8.850
  315loPI   C2B 5038   7.073   7.953   8.550
  315loPI   C3B 5039   6.987   7.964   8.250
  315loPI   C4B 5040   7.011   7.930   7.950
  316loPI    C1 5041   7.642   4.399   9.750
  316loPI    C2 5042   7.660   4.419  10.050
  316loPI    C3 5043   7.613   4.233  10.050
  316loPI   PO4 5044   7.644   4.288   9.450
  316loPI   GL1 5045   7.642   4.266   9.150
  316loPI   GL2 5046   7.709   4.376   9.150
  316loPI   C1A 5047   7.613   4.297   8.850
  316loPI   C2A 5048   7.648   4.258   8.550
  316loPI   C3A 5049   7.638   4.327   8.250
  316loPI   C4A 5050   7.635   4.283   7.950
  316loPI   C5A 5051   7.685   4.293   7.650
  316loPI   C6A 5052   7.646   4.256   7.350
  316loPI   C1B 5053   7.695   4.481   8.850
  316loPI   C2B 5054   7.726   4.572   8.550
  316loPI   C3B 5055   7.651   4.493   8.250
  316loPI   C4B 5056   7.675   4.539   7.950
  317loPI    C1 5057  10.846   9.757   9.750
  317loPI    C2 5058  10.847   9.809  10.050
  317loPI    C3 5059  10.864   9.694  10.050
  317loPI   PO4 5060  10.894   9.690   9.450
  317loPI   GL1 5061  10.836   9.646   9.150
  317loPI   GL2 5062  10.792   9.801   9.150
  317loPI   C1A 5063  10.882   9.649   8.850
  317loPI   C2A 5064  10.875   9.637   8.550
  317loPI   C3A 5065  10.838   9.624   8.250
  317loPI   C4A 5066  10.833   9.633   7.950
  317loPI   C5A 5067  10.808   9.660   7.650
  317loPI   C6A 5068  10.847   9.689   7.350
  317loPI   C1B 5069  10.737   9.902   8.850
  317loPI   C2B 5070  10.759   9.860   8.550
  317loPI   C3B 5071  10.787   9.867   8.250
  317loPI   C4B 5072  10.765   9.920   7.950
  318loPI    C1 5073   2.819  17.442   9.750
  318loPI    C2 5074   2.761  17.474  10.050
  318loPI    C3 5075   2.883  17.317  10.050
  318loPI   PO4 5076   2.889  17.337   9.450
  318loPI   GL1 5077   2.820  17.372   9.150
  318loPI   GL2 5078   2.755  17.506   9.150
  318loPI   C1A 5079   2.888  17.350   8.850
  318loPI   C2A 5080   2.871  17.333   8.550
  318loPI   C3A 5081   2.872  17.338   8.250
  318loPI   C4A 5082   2.884  17.332   7.950
  318loPI   C5A 5083   2.851  17.315   7.650
  318loPI   C6A 5084   2.816  17.348   7.350
  318loPI   C1B 5085   2.758  17.546   8.850
  318loPI   C2B 5086   2.744  17.544   8.550
  318loPI   C3B 5087   2.778  17.603   8.250
  318loPI   C4B 5088   2.707  17.617   7.950
  319loPI    C1 5089   0.519   0.317   9.750
  319loPI    C2 5090   0.496   0.278  10.050
  319loPI    C3 5091   0.441   0.392  10.050
  319loPI   PO4 5092   0.479   0.407   9.450
  319loPI   GL1 5093   0.446   0.437   9.150
  319loPI   GL2 5094   0.522   0.306   9.150
  319loPI   C1A 5095   0.422   0.389   8.850
  319loPI   C2A 5096   0.450   0.454   8.550
  319loPI   C3A 5097   0.464   0.475   8.250
  319loPI   C4A 5098   0.443   0.477   7.950
  319loPI   C5A 5099   0.476   0.470   7.650
  319loPI   C6A 5100   0.433   0.424   7.350
  319loPI   C1B 5101   0.564   0.169   8.850
  319loPI   C2B 5102   0.592   0.161   8.550
  319loPI   C3B 5103   0.504   0.176   8.250
  319loPI   C4B 5104   0.585   0.245   7.950
  320loPI    C1 5105   7.690   7.450   9.750
  320loPI    C2 5106   7.646   7.440  10.050
  320loPI    C3 5107   7.687   7.319  10.050
  320loPI   PO4 5108   7.676   7.360   9.450
  320loPI   GL1 5109   7.692   7.408   9.150
  320loPI   GL2 5110   7.625   7.523   9.150
  320loPI   C1A 5111   7.623   7.392   8.850
  320loPI   C2A 5112   7.605   7.342   8.550
  320loPI   C3A 5113   7.674   7.389   8.250
  320loPI   C4A 5114   7.654   7.382   7.950
  320loPI   C5A 5115   7.694   7.397   7.650
  320loPI   C6A 5116   7.611   7.399   7.350
  320loPI   C1B 5117   7.656   7.649   8.850
  320loPI   C2B 5118   7.674   7.621   8.550
  320loPI   C3B 5119   7.627   7.653   8.250
  320loPI   C4B 5120   7.709   7.633   7.950
  321loPI    C1 5121  10.199  12.641   9.750
  321loPI    C2 5122  10.131  12.699  10.050
  321loPI    C3 5123  10.009  12.771  10.050
  321loPI   PO4 5124  10.063  12.694   9.450
  321loPI   GL1 5125  10.071  12.747   9.150
  321loPI   GL2 5126  10.143  12.695   9.150
  321loPI   C1A 5127  10.097  12.772   8.850
  321loPI   C2A 5128  10.007  12.758   8.550
  321loPI   C3A 5129  10.000  12.712   8.250
  321loPI   C4A 5130  10.078  12.735   7.950
  321loPI   C5A 5131  10.016  12.710   7.650
  321loPI   C6A 5132  10.053  12.755   7.350
  321loPI   C1B 5133  10.227  12.612   8.850
  321loPI   C2B 5134  10.322  12.621   8.550
  321loPI   C3B 5135  10.258  12.653   8.250
  321loPI   C4B 5136  10.235  12.615   7.950
  322loPI    C1 5137   0.323  13.542   9.750
  322loPI    C2 5138   0.364  13.568  10.050
  322loPI    C3 5139   0.422  13.470  10.050
  322loPI   PO4 5140   0.431  13.493   9.450
  322loPI   GL1 5141   0.454  13.463   9.150
  322loPI   GL2 5142   0.370  13.639   9.150
  322loPI   C1A 5143   0.498  13.530   8.850
  322loPI   C2A 5144   0.495  13.538   8.550
  322loPI   C3A 5145   0.447  13.483   8.250
  322loPI   C4A 5146   0.459  13.475   7.950
  322loPI   C5A 5147   0.458  13.522   7.650
  322loPI   C6A 5148   0.495  13.529   7.350
  322loPI   C1B 5149   0.244  13.651   8.850
  322loPI   C2B 5150   0.293  13.622   8.550
  322loPI   C3B 5151   0.248  13.672   8.250
  322loPI   C4B 5152   0.261  13.708   7.950
  323loPI    C1 5153   1.885  15.036   9.750
  323loPI    C2 5154   1.893  14.999  10.050
  323loPI    C3 5155   2.003  15.046  10.050
  323loPI   PO4 5156   2.034  15.034   9.450
  323loPI   GL1 5157   2.093  15.085   9.150
  323loPI   GL2 5158   1.914  15.064   9.150
  323loPI   C1A 5159   2.000  15.011   8.850
  323loPI   C2A 5160   2.045  15.041   8.550
  323loPI   C3A 5161   2.056  15.059   8.250
  323loPI   C4A 5162   2.027  15.019   7.950
  323loPI   C5A 5163   2.043  15.095   7.650
  323loPI   C6A 5164   2.075  15.014   7.350
  323loPI   C1B 5165   1.776  15.007   8.850
  323loPI   C2B 5166   1.845  15.023   8.550
  323loPI   C3B 5167   1.798  15.039   8.250
  323loPI   C4B 5168   1.752  15.043   7.950
  324loPI    C1 5169   4.432  18.002   9.750
  324loPI    C2 5170   4.440  18.002  10.050
  324loPI    C3 5171   4.411  18.082  10.050
  324loPI   PO4 5172   4.484  18.152   9.450
  324loPI   GL1 5173   4.480  18.081   9.150
  324loPI   GL2 5174   4.446  17.968   9.150
  324loPI   C1A 5175   4.451  18.144   8.850
  324loPI   C2A 5176   4.476  18.133   8.550
  324loPI   C3A 5177   4.423  18.113   8.250
  324loPI   C4A 5178   4.465  18.090   7.950
  324loPI   C5A 5179   4.426  18.161   7.650
  324loPI   C6A 5180   4.491  18.091   7.350
  324loPI   C1B 5181   4.391  17.920   8.850
  324loPI   C2B 5182   4.413  17.870   8.550
  324loPI   C3B 5183   4.362  17.932   8.250
  324loPI   C4B 5184   4.383  17.911   7.950
  325loPI    C1 5185   9.133   1.169   9.750
  325loPI    C2 5186   9.159   1.074  10.050
  325loPI    C3 5187   9.239   1.175  10.050
  325loPI   PO4 5188   9.288   1.196   9.450
  325loPI   GL1 5189   9.271   1.178   9.150
  325loPI   GL2 5190   9.152   1.132   9.150
  325loPI   C1A 5191   9.212   1.215   8.850
  325loPI   C2A 5192   9.213   1.160   8.550
  325loPI   C3A 5193   9.240   1.193   8.250
  325loPI   C4A 5194   9.231   1.190   7.950
  325loPI   C5A 5195   9.286   1.249   7.650
  325loPI   C6A 5196   9.204   1.223   7.350
  325loPI   C1B 5197   9.081   1.006   8.850
  325loPI   C2B 5198   9.071   1.076   8.550
  325loPI   C3B 5199   9.103   1.051   8.250
  325loPI   C4B 5200   9.095   1.011   7.950
  326loPI    C1 5201   8.377   8.138   9.750
  326loPI    C2 5202   8.303   8.098  10.050
  326loPI    C3 5203   8.491   8.089  10.050
  326loPI   PO4 5204   8.405   8.112   9.450
  326loPI   GL1 5205   8.443   8.115   9.150
  326loPI   GL2 5206   8.359   8.132   9.150
  326loPI   C1A 5207   8.409   8.120   8.850
  326loPI   C2A 5208   8.488   8.163   8.550
  326loPI   C3A 5209   8.471   8.086   8.250
  326loPI   C4A 5210   8.408   8.118   7.950
  326loPI   C5A 5211   8.478   8.165   7.650
  326loPI   C6A 5212   8.476   8.102   7.350
  326loPI   C1B 5213   8.252   8.111   8.850
  326loPI   C2B 5214   8.212   8.109   8.550
  326loPI   C3B 5215   8.202   8.060   8.250
  326loPI   C4B 5216   8.171   8.053   7.950
  327loPI    C1 5217   7.692  19.565   9.750
  327loPI    C2 5218   7.708  19.572  10.050
  327loPI    C3 5219   7.642  19.683  10.050
  327loPI   PO4 5220   7.606  19.626   9.450
  327loPI   GL1 5221   7.668  19.619   9.150
  327loPI   GL2 5222   7.698  19.559   9.150
  327loPI   C1A 5223   7.676  19.697   8.850
  327loPI   C2A 5224   7.637  19.676   8.550
  327loPI   C3A 5225   7.620  19.710   8.250
  327loPI   C4A 5226   7.658  19.691   7.950
  327loPI   C5A 5227   7.649  19.715   7.650
  327loPI   C6A 5228   7.624  19.698   7.350
  327loPI   C1B 5229   7.677  19.401   8.850
  327loPI   C2B 5230   7.696  19.410   8.550
  327loPI   C3B 5231   7.696  19.385   8.250
  327loPI   C4B 5232   7.745  19.385   7.950
  328loPI    C1 5233   0.522   6.473   9.750
  328loPI    C2 5234   0.504   6.539  10.050
  328loPI    C3 5235   0.450   6.571  10.050
  328loPI   PO4 5236   0.466   6.557   9.450
  328loPI   GL1 5237   0.483   6.580   9.150
  328loPI   GL2 5238   0.511   6.537   9.150
  328loPI   C1A 5239   0.497   6.622   8.850
  328loPI   C2A 5240   0.489   6.608   8.550
  328loPI   C3A 5241   0.488   6.601   8.250
  328loPI   C4A 5242   0.404   6.560   7.950
  328loPI   C5A 5243   0.443   6.545   7.650
  328loPI   C6A 5244   0.497   6.592   7.350
  328loPI   C1B 5245   0.648   6.472   8.850
  328loPI   C2B 5246   0.614   6.437   8.550
  328loPI   C3B 5247   0.619   6.457   8.250
  328loPI   C4B 5248   0.658   6.387   7.950
  329loPI    C1 5249   3.774  19.637   9.750
  329loPI    C2 5250   3.721  19.634  10.050
  329loPI    C3 5251   3.606  19.641  10.050
  329loPI   PO4 5252   3.600  19.674   9.450
  329loPI   GL1 5253   3.642  19.682   9.150
  329loPI   GL2 5254   3.725  19.575   9.150
  329loPI   C1A 5255   3.607  19.676   8.850
  329loPI   C2A 5256   3.678  19.710   8.550
  329loPI   C3A 5257   3.652  19.684   8.250
  329loPI   C4A 5258   3.654  19.658   7.950
  329loPI   C5A 5259   3.691  19.638   7.650
  329loPI   C6A 5260   3.642  19.700   7.350
  329loPI   C1B 5261   3.832  19.525   8.850
  329loPI   C2B 5262   3.831  19.581   8.550
  329loPI   C3B 5263   3.898  19.534   8.250
  329loPI   C4B 5264   3.841  19.574   7.950
  330loPI    C1 5265   2.869  19.519   9.750
  330loPI    C2 5266   2.833  19.551  10.050
  330loPI    C3 5267   2.800  19.639  10.050
  330loPI   PO4 5268   2.804  19.696   9.450
  330loPI   GL1 5269   2.838  19.634   9.150
  330loPI   GL2 5270   2.809  19.531   9.150
  330loPI   C1A 5271   2.878  19.705   8.850
  330loPI   C2A 5272   2.809  19.692   8.550
  330loPI   C3A 5273   2.855  19.650   8.250
  330loPI   C4A 5274   2.842  19.703   7.950
  330loPI   C5A 5275   2.832  19.704   7.650
  330loPI   C6A 5276   2.825  19.680   7.350
  330loPI   C1B 5277   2.803  19.401   8.850
  330loPI   C2B 5278   2.863  19.395   8.550
  330loPI   C3B 5279   2.788  19.433   8.250
  330loPI   C4B 5280   2.869  19.424   7.950
  331loPI    C1 5281   1.399  11.218   9.750
  331loPI    C2 5282   1.407  11.225  10.050
  331loPI    C3 5283   1.250  11.210  10.050
  331loPI   PO4 5284   1.253  11.219   9.450
  331loPI   GL1 5285   1.266  11.242   9.150
  331loPI   GL2 5286   1.353  11.227   9.150
  331loPI   C1A 5287   1.283  11.172   8.850
  331loPI   C2A 5288   1.214  11.200   8.550
  331loPI   C3A 5289   1.277  11.154   8.250
  331loPI   C4A 5290   1.300  11.181   7.950
  331loPI   C5A 5291   1.215  11.239   7.650
  331loPI   C6A 5292   1.207  11.205   7.350
  331loPI   C1B 5293   1.468  11.211   8.850
  331loPI   C2B 5294   1.450  11.302   8.550
  331loPI   C3B 5295   1.445  11.243   8.250
  331loPI   C4B 5296   1.502  11.224   7.950
  332loPI    C1 5297  11.528  18.008   9.750
  332loPI    C2 5298  11.532  18.053  10.050
  332loPI    C3 5299  11.698  18.174  10.050
  332loPI   PO4 5300  11.670  18.172   9.450
  332loPI   GL1 5301  11.606  18.175   9.150
  332loPI   GL2 5302  11.558  18.078   9.150
  332loPI   C1A 5303  11.649  18.117   8.850
  332loPI   C2A 5304  11.641  18.155   8.550
  332loPI   C3A 5305  11.697  18.091   8.250
  332loPI   C4A 5306  11.615  18.153   7.950
  332loPI   C5A 5307  11.630  18.150   7.650
  332loPI   C6A 5308  11.689  18.165   7.350
  332loPI   C1B 5309  11.472  17.979   8.850
  332loPI   C2B 5310  11.438  17.938   8.550
  332loPI   C3B 5311  11.470  17.994   8.250
  332loPI   C4B 5312  11.406  17.958   7.950
  333loPI    C1 5313   5.949  11.131   9.750
  333loPI    C2 5314   5.937  11.137  10.050
  333loPI    C3 5315   6.063  11.161  10.050
  333loPI   PO4 5316   6.022  11.172   9.450
  333loPI   GL1 5317   6.004  11.244   9.150
  333loPI   GL2 5318   5.906  11.119   9.150
  333loPI   C1A 5319   6.034  11.187   8.850
  333loPI   C2A 5320   6.076  11.244   8.550
  333loPI   C3A 5321   6.090  11.187   8.250
  333loPI   C4A 5322   6.037  11.237   7.950
  333loPI   C5A 5323   6.015  11.228   7.650
  333loPI   C6A 5324   6.056  11.192   7.350
  333loPI   C1B 5325   5.830  11.040   8.850
  333loPI   C2B 5326   5.874  11.135   8.550
  333loPI   C3B 5327   5.825  11.130   8.250
  333loPI   C4B 5328   5.794  11.131   7.950
  334loPI    C1 5329  10.717  16.549   9.750
  334loPI    C2 5330  10.696  16.578  10.050
  334loPI    C3 5331  10.825  16.577  10.050
  334loPI   PO4 5332  10.877  16.588   9.450
  334loPI   GL1 5333  10.801  16.552   9.150
  334loPI   GL2 5334  10.696  16.604   9.150
  334loPI   C1A 5335  10.892  16.558   8.850
  334loPI   C2A 5336  10.883  16.542   8.550
  334loPI   C3A 5337  10.827  16.594   8.250
  334loPI   C4A 5338  10.822  16.637   7.950
  334loPI   C5A 5339  10.888  16.592   7.650
  334loPI   C6A 5340  10.875  16.635   7.350
  334loPI   C1B 5341  10.608  16.600   8.850
  334loPI   C2B 5342  10.622  16.603   8.550
  334loPI   C3B 5343  10.631  16.541   8.250
  334loPI   C4B 5344  10.625  16.530   7.950
  335loPI    C1 5345   8.398   9.027   9.750
  335loPI    C2 5346   8.393   9.039  10.050
  335loPI    C3 5347   8.425   8.920  10.050
  335loPI   PO4 5348   8.487   8.860   9.450
  335loPI   GL1 5349   8.439   8.929   9.150
  335loPI   GL2 5350   8.328   9.014   9.150
  335loPI   C1A 5351   8.406   8.850   8.850
  335loPI   C2A 5352   8.441   8.937   8.550
  335loPI   C3A 5353   8.403   8.862   8.250
  335loPI   C4A 5354   8.470   8.882   7.950
  335loPI   C5A 5355   8.401   8.866   7.650
  335loPI   C6A 5356   8.489   8.936   7.350
  335loPI   C1B 5357   8.261   9.045   8.850
  335loPI   C2B 5358   8.323   9.100   8.550
  335loPI   C3B 5359   8.252   9.040   8.250
  335loPI   C4B 5360   8.261   9.050   7.950
  336loPI    C1 5361  11.581   0.348   9.750
  336loPI    C2 5362  11.632   0.274  10.050
  336loPI    C3 5363  11.663   0.429  10.050
  336loPI   PO4 5364  11.632   0.453   9.450
  336loPI   GL1 5365  11.616   0.390   9.150
  336loPI   GL2 5366  11.616   0.284   9.150
  336loPI   C1A 5367  11.680   0.479   8.850
  336loPI   C2A 5368  11.691   0.421   8.550
  336loPI   C3A 5369  11.687   0.411   8.250
  336loPI   C4A 5370  11.695   0.431   7.950
  336loPI   C5A 5371  11.604   0.416   7.650
  336loPI   C6A 5372  11.622   0.446   7.350
  336loPI   C1B 5373  11.568   0.200   8.850
  336loPI   C2B 5374  11.562   0.193   8.550
  336loPI   C3B 5375  11.580   0.198   8.250
  336loPI   C4B 5376  11.622   0.230   7.950
  337loPI    C1 5377   8.600  17.261   9.750
  337loPI    C2 5378   8.575  17.284  10.050
  337loPI    C3 5379   8.445  17.331  10.050
  337loPI   PO4 5380   8.406  17.379   9.450
  337loPI   GL1 5381   8.407  17.348   9.150
  337loPI   GL2 5382   8.537  17.268   9.150
  337loPI   C1A 5383   8.413  17.352   8.850
  337loPI   C2A 5384   8.423  17.406   8.550
  337loPI   C3A 5385   8.474  17.317   8.250
  337loPI   C4A 5386   8.455  17.356   7.950
  337loPI   C5A 5387   8.480  17.309   7.650
  337loPI   C6A 5388   8.474  17.327   7.350
  337loPI   C1B 5389   8.643  17.266   8.850
  337loPI   C2B 5390   8.659  17.215   8.550
  337loPI   C3B 5391   8.665  17.277   8.250
  337loPI   C4B 5392   8.683  17.226   7.950
  338loPI    C1 5393   1.287  18.768   9.750
  338loPI    C2 5394   1.292  18.800  10.050
  338loPI    C3 5395   1.245  18.922  10.050
  338loPI   PO4 5396   1.291  18.892   9.450
  338loPI   GL1 5397   1.286  18.910   9.150
  338loPI   GL2 5398   1.243  18.804   9.150
  338loPI   C1A 5399   1.229  18.909   8.850
  338loPI   C2A 5400   1.214  18.846   8.550
  338loPI   C3A 5401   1.232  18.883   8.250
  338loPI   C4A 5402   1.221  18.933   7.950
  338loPI   C5A 5403   1.237  18.876   7.650
  338loPI   C6A 5404   1.271  18.934   7.350
  338loPI   C1B 5405   1.200  18.665   8.850
  338loPI   C2B 5406   1.228  18.686   8.550
  338loPI   C3B 5407   1.215  18.678   8.250
  338loPI   C4B 5408   1.249  18.686   7.950
  339loPI    C1 5409   4.341  12.827   9.750
  339loPI    C2 5410   4.413  12.806  10.050
  339loPI    C3 5411   4.404  12.760  10.050
  339loPI   PO4 5412   4.464  12.713   9.450
  339loPI   GL1 5413   4.490  12.741   9.150
  339loPI   GL2 5414   4.434  12.848   9.150
  339loPI   C1A 5415   4.423  12.725   8.850
  339loPI   C2A 5416   4.477  12.783   8.550
  339loPI   C3A 5417   4.400  12.773   8.250
  339loPI   C4A 5418   4.461  12.766   7.950
  339loPI   C5A 5419   4.404  12.704   7.650
  339loPI   C6A 5420   4.438  12.752   7.350
  339loPI   C1B 5421   4.281  12.941   8.850
  339loPI   C2B 5422   4.310  12.969   8.550
  339loPI   C3B 5423   4.359  12.938   8.250
  339loPI   C4B 5424   4.333  12.950   7.950
  340loPI    C1 5425   3.740  14.926   9.750
  340loPI    C2 5426   3.767  14.971  10.050
  340loPI    C3 5427   3.625  15.038  10.050
  340loPI   PO4 5428   3.605  15.059   9.450
  340loPI   GL1 5429   3.612  15.086   9.150
  340loPI   GL2 5430   3.724  14.908   9.150
  340loPI   C1A 5431   3.649  15.017   8.850
  340loPI   C2A 5432   3.632  15.085   8.550
  340loPI   C3A 5433   3.660  15.057   8.250
  340loPI   C4A 5434   3.680  15.096   7.950
  340loPI   C5A 5435   3.694  15.084   7.650
  340loPI   C6A 5436   3.606  15.072   7.350
  340loPI   C1B 5437   3.787  14.910   8.850
  340loPI   C2B 5438   3.770  14.828   8.550
  340loPI   C3B 5439   3.800  14.824   8.250
  340loPI   C4B 5440   3.832  14.835   7.950
  341loPI    C1 5441   5.169   9.587   9.750
  341loPI    C2 5442   5.132   9.593  10.050
  341loPI    C3 5443   5.229   9.642  10.050
  341loPI   PO4 5444   5.279   9.636   9.450
  341loPI   GL1 5445   5.271   9.624   9.150
  341loPI   GL2 5446   5.123   9.628   9.150
  341loPI   C1A 5447   5.299   9.661   8.850
  341loPI   C2A 5448   5.228   9.632   8.550
  341loPI   C3A 5449   5.208   9.635   8.250
  341loPI   C4A 5450   5.212   9.707   7.950
  341loPI   C5A 5451   5.201   9.638   7.650
  341loPI   C6A 5452   5.272   9.658   7.350
  341loPI   C1B 5453   5.054   9.518   8.850
  341loPI   C2B 5454   5.045   9.515   8.550
  341loPI   C3B 5455   5.008   9.524   8.250
  341loPI   C4B 5456   5.004   9.534   7.950
  342loPI    C1 5457  11.513   2.691   9.750
  342loPI    C2 5458  11.531   2.670  10.050
  342loPI    C3 5459  11.695   2.792  10.050
  342loPI   PO4 5460  11.696   2.740   9.450
  342loPI   GL1 5461  11.637   2.745   9.150
  342loPI   GL2 5462  11.589   2.632   9.150
  342loPI   C1A 5463  11.619   2.729   8.850
  342loPI   C2A 5464  11.644   2.700   8.550
  342loPI   C3A 5465  11.603   2.787   8.250
  342loPI   C4A 5466  11.663   2.727   7.950
  342loPI   C5A 5467  11.664   2.735   7.650
  342loPI   C6A 5468  11.664   2.724   7.350
  342loPI   C1B 5469  11.424   2.601   8.850
  342loPI   C2B 5470  11.472   2.572   8.550
  342loPI   C3B 5471  11.501   2.551   8.250
  342loPI   C4B 5472  11.467   2.569   7.950
  343loPI    C1 5473   4.376   8.238   9.750
  343loPI    C2 5474   4.443   8.214  10.050
  343loPI    C3 5475   4.489   8.120  10.050
  343loPI   PO4 5476   4.426   8.173   9.450
  343loPI   GL1 5477   4.433   8.119   9.150
  343loPI   GL2 5478   4.378   8.259   9.150
  343loPI   C1A 5479   4.425   8.102   8.850
  343loPI   C2A 5480   4.467   8.089   8.550
  343loPI   C3A 5481   4.448   8.173   8.250
  343loPI   C4A 5482   4.500   8.121   7.950
  343loPI   C5A 5483   4.441   8.106   7.650
  343loPI   C6A 5484   4.460   8.146   7.350
  343loPI   C1B 5485   4.317   8.366   8.850
  343loPI   C2B 5486   4.332   8.320   8.550
  343loPI   C3B 5487   4.311   8.390   8.250
  343loPI   C4B 5488   4.316   8.382   7.950
  344loPI    C1 5489   4.560   0.446   9.750
  344loPI    C2 5490   4.538   0.528  10.050
  344loPI    C3 5491   4.419   0.395  10.050
  344loPI   PO4 5492   4.488   0.482   9.450
  344loPI   GL1 5493   4.461   0.470   9.150
  344loPI   GL2 5494   4.595   0.475   9.150
  344loPI   C1A 5495   4.489   0.477   8.850
  344loPI   C2A 5496   4.491   0.419   8.550
  344loPI   C3A 5497   4.469   0.442   8.250
  344loPI   C4A 5498   4.455   0.385   7.950
  344loPI   C5A 5499   4.492   0.391   7.650
  344loPI   C6A 5500   4.456   0.417   7.350
  344loPI   C1B 5501   4.707   0.530   8.850
  344loPI   C2B 5502   4.697   0.520   8.550
  344loPI   C3B 5503   4.706   0.532   8.250
  344loPI   C4B 5504   4.727   0.578   7.950
  345loPI    C1 5505   4.558  16.670   9.750
  345loPI    C2 5506   4.552  16.621  10.050
  345loPI    C3 5507   4.420  16.615  10.050
  345loPI   PO4 5508   4.424  16.547   9.450
  345loPI   GL1 5509   4.407  16.610   9.150
  345loPI   GL2 5510   4.574  16.625   9.150
  345loPI   C1A 5511   4.436  16.560   8.850
  345loPI   C2A 5512   4.443  16.608   8.550
  345loPI   C3A 5513   4.494  16.566   8.250
  345loPI   C4A 5514   4.407  16.558   7.950
  345loPI   C5A 5515   4.420  16.581   7.650
  345loPI   C6A 5516   4.419  16.546   7.350
  345loPI   C1B 5517   4.719  16.621   8.850
  345loPI   C2B 5518   4.710  16.686   8.550
  345loPI   C3B 5519   4.697  16.608   8.250
  345loPI   C4B 5520   4.718  16.667   7.950
  346loPI    C1 5521   2.132  15.868   9.750
  346loPI    C2 5522   2.169  15.949  10.050
  346loPI    C3 5523   2.002  15.828  10.050
  346loPI   PO4 5524   2.050  15.778   9.450
  346loPI   GL1 5525   2.098  15.800   9.150
  346loPI   GL2 5526   2.101  15.897   9.150
  346loPI   C1A 5527   2.082  15.801   8.850
  346loPI   C2A 5528   2.060  15.855   8.550
  346loPI   C3A 5529   2.079  15.774   8.250
  346loPI   C4A 5530   2.018  15.842   7.950
  346loPI   C5A 5531   2.056  15.837   7.650
  346loPI   C6A 5532   2.052  15.790   7.350
  346loPI   C1B 5533   2.186  16.002   8.850
  346loPI   C2B 5534   2.202  15.976   8.550
  346loPI   C3B 5535   2.245  16.038   8.250
  346loPI   C4B 5536   2.248  16.003   7.950
  347loPI    C1 5537   3.507  11.231   9.750
  347loPI    C2 5538   3.521  11.243  10.050
  347loPI    C3 5539   3.679  11.175  10.050
  347loPI   PO4 5540   3.616  11.161   9.450
  347loPI   GL1 5541   3.643  11.169   9.150
  347loPI   GL2 5542   3.573  11.245   9.150
  347loPI   C1A 5543   3.679  11.223   8.850
  347loPI   C2A 5544   3.693  11.208   8.550
  347loPI   C3A 5545   3.607  11.232   8.250
  347loPI   C4A 5546   3.630  11.242   7.950
  347loPI   C5A 5547   3.646  11.220   7.650
  347loPI   C6A 5548   3.613  11.192   7.350
  347loPI   C1B 5549   3.405  11.265   8.850
  347loPI   C2B 5550   3.447  11.327   8.550
  347loPI   C3B 5551   3.456  11.283   8.250
  347loPI   C4B 5552   3.412  11.254   7.950
  348loPI    C1 5553   2.937   4.353   9.750
  348loPI    C2 5554   2.934   4.338  10.050
  348loPI    C3 5555   2.815   4.278  10.050
  348loPI   PO4 5556   2.832   4.330   9.450
  348loPI   GL1 5557   2.811   4.237   9.150
  348loPI   GL2 5558   2.924   4.334   9.150
  348loPI   C1A 5559   2.827   4.256   8.850
  348loPI   C2A 5560   2.854   4.325   8.550
  348loPI   C3A 5561   2.886   4.306   8.250
  348loPI   C4A 5562   2.824   4.290   7.950
  348loPI   C5A 5563   2.840   4.236   7.650
  348loPI   C6A 5564   2.864   4.325   7.350
  348loPI   C1B 5565   3.035   4.516   8.850
  348loPI   C2B 5566   2.979   4.487   8.550
  348loPI   C3B 5567   3.028   4.423   8.250
  348loPI   C4B 5568   3.010   4.493   7.950
  349loPI    C1 5569   1.227   2.874   9.750
  349loPI    C2 5570   1.266   2.831  10.050
  349loPI    C3 5571   1.218   2.788  10.050
  349loPI   PO4 5572   1.261   2.787   9.450
  349loPI   GL1 5573   1.290   2.701   9.150
  349loPI   GL2 5574   1.276   2.863   9.150
  349loPI   C1A 5575   1.224   2.741   8.850
  349loPI   C2A 5576   1.252   2.694   8.550
  349loPI   C3A 5577   1.209   2.714   8.250
  349loPI   C4A 5578   1.289   2.769   7.950
  349loPI   C5A 5579   1.254   2.751   7.650
  349loPI   C6A 5580   1.257   2.779   7.350
  349loPI   C1B 5581   1.340   2.977   8.850
  349loPI   C2B 5582   1.349   2.958   8.550
  349loPI   C3B 5583   1.290   3.030   8.250
  349loPI   C4B 5584   1.275   2.994   7.950
  350loPI    C1 5585   1.230   6.720   9.750
  350loPI    C2 5586   1.255   6.729  10.050
  350loPI    C3 5587   1.277   6.549  10.050
  350loPI   PO4 5588   1.226   6.596   9.450
  350loPI   GL1 5589   1.293   6.613   9.150
  350loPI   GL2 5590   1.222   6.712   9.150
  350loPI   C1A 5591   1.275   6.552   8.850
  350loPI   C2A 5592   1.201   6.569   8.550
  350loPI   C3A 5593   1.278   6.559   8.250
  350loPI   C4A 5594   1.219   6.554   7.950
  350loPI   C5A 5595   1.275   6.610   7.650
  350loPI   C6A 5596   1.292   6.588   7.350
  350loPI   C1B 5597   1.216   6.789   8.850
  350loPI   C2B 5598   1.200   6.799   8.550
  350loPI   C3B 5599   1.204   6.870   8.250
  350loPI   C4B 5600   1.194   6.811   7.950
  351loPI    C1 5601   3.552  13.652   9.750
  351loPI    C2 5602   3.612  13.593  10.050
  351loPI    C3 5603   3.662  13.550  10.050
  351loPI   PO4 5604   3.684  13.474   9.450
  351loPI   GL1 5605   3.671  13.553   9.150
  351loPI   GL2 5606   3.630  13.601   9.150
  351loPI   C1A 5607   3.641  13.557   8.850
  351loPI   C2A 5608   3.640  13.495   8.550
  351loPI   C3A 5609   3.696  13.549   8.250
  351loPI   C4A 5610   3.617  13.545   7.950
  351loPI   C5A 5611   3.659  13.517   7.650
  351loPI   C6A 5612   3.613  13.520   7.350
  351loPI   C1B 5613   3.528  13.773   8.850
  351loPI   C2B 5614   3.576  13.728   8.550
  351loPI   C3B 5615   3.572  13.781   8.250
  351loPI   C4B 5616   3.521  13.743   7.950
  352loPI    C1 5617   6.832   5.665   9.750
  352loPI    C2 5618   6.812   5.680  10.050
  352loPI    C3 5619   6.866   5.831  10.050
  352loPI   PO4 5620   6.850   5.851   9.450
  352loPI   GL1 5621   6.852   5.861   9.150
  352loPI   GL2 5622   6.808   5.698   9.150
  352loPI   C1A 5623   6.805   5.787   8.850
  352loPI   C2A 5624   6.818   5.834   8.550
  352loPI   C3A 5625   6.879   5.832   8.250
  352loPI   C4A 5626   6.807   5.797   7.950
  352loPI   C5A 5627   6.806   5.804   7.650
  352loPI   C6A 5628   6.803   5.839   7.350
  352loPI   C1B 5629   6.765   5.546   8.850
  352loPI   C2B 5630   6.778   5.553   8.550
  352loPI   C3B 5631   6.821   5.606   8.250
  352loPI   C4B 5632   6.758   5.533   7.950
  353loPI    C1 5633   3.492  18.878   9.750
  353loPI    C2 5634   3.570  18.908  10.050
  353loPI    C3 5635   3.684  18.855  10.050
  353loPI   PO4 5636   3.647  18.945   9.450
  353loPI   GL1 5637   3.698  18.890   9.150
  353loPI   GL2 5638   3.506  18.917   9.150
  353loPI   C1A 5639   3.646  18.933   8.850
  353loPI   C2A 5640   3.689  18.942   8.550
  353loPI   C3A 5641   3.669  18.933   8.250
  353loPI   C4A 5642   3.602  18.864   7.950
  353loPI   C5A 5643   3.643  18.905   7.650
  353loPI   C6A 5644   3.630  18.919   7.350
  353loPI   C1B 5645   3.375  18.886   8.850
  353loPI   C2B 5646   3.403  18.794   8.550
  353loPI   C3B 5647   3.447  18.865   8.250
  353loPI   C4B 5648   3.437  18.863   7.950
  354loPI    C1 5649   6.843   3.412   9.750
  354loPI    C2 5650   6.898   3.352  10.050
  354loPI    C3 5651   6.815   3.561  10.050
  354loPI   PO4 5652   6.896   3.477   9.450
  354loPI   GL1 5653   6.873   3.501   9.150
  354loPI   GL2 5654   6.869   3.399   9.150
  354loPI   C1A 5655   6.886   3.468   8.850
  354loPI   C2A 5656   6.879   3.495   8.550
  354loPI   C3A 5657   6.818   3.481   8.250
  354loPI   C4A 5658   6.845   3.488   7.950
  354loPI   C5A 5659   6.802   3.542   7.650
  354loPI   C6A 5660   6.875   3.479   7.350
  354loPI   C1B 5661   6.873   3.315   8.850
  354loPI   C2B 5662   6.922   3.306   8.550
  354loPI   C3B 5663   6.907   3.274   8.250
  354loPI   C4B 5664   6.936   3.244   7.950
  355loPI    C1 5665   9.954  18.042   9.750
  355loPI    C2 5666   9.962  18.039  10.050
  355loPI    C3 5667  10.024  18.138  10.050
  355loPI   PO4 5668  10.038  18.139   9.450
  355loPI   GL1 5669  10.069  18.174   9.150
  355loPI   GL2 5670   9.930  18.059   9.150
  355loPI   C1A 5671  10.060  18.108   8.850
  355loPI   C2A 5672  10.089  18.166   8.550
  355loPI   C3A 5673  10.014  18.134   8.250
  355loPI   C4A 5674  10.064  18.144   7.950
  355loPI   C5A 5675  10.061  18.167   7.650
  355loPI   C6A 5676  10.092  18.114   7.350
  355loPI   C1B 5677   9.902  17.915   8.850
  355loPI   C2B 5678   9.860  17.992   8.550
  355loPI   C3B 5679   9.879  17.959   8.250
  355loPI   C4B 5680   9.830  17.927   7.950
  356loPI    C1 5681   1.312  16.627   9.750
  356loPI    C2 5682   1.350  16.672  10.050
  356loPI    C3 5683   1.224  16.621  10.050
  356loPI   PO4 5684   1.221  16.586   9.450
  356loPI   GL1 5685   1.271  16.605   9.150
  356loPI   GL2 5686   1.336  16.663   9.150
  356loPI   C1A 5687   1.223  16.571   8.850
  356loPI   C2A 5688   1.237  16.583   8.550
  356loPI   C3A 5689   1.264  16.540   8.250
  356loPI   C4A 5690   1.290  16.567   7.950
  356loPI   C5A 5691   1.268  16.595   7.650
  356loPI   C6A 5692   1.283  16.560   7.350
  356loPI   C1B 5693   1.396  16.742   8.850
  356loPI   C2B 5694   1.439  16.779   8.550
  356loPI   C3B 5695   1.394  16.736   8.250
  356loPI   C4B 5696   1.434  16.761   7.950
  357loPI    C1 5697  11.708   3.649   9.750
  357loPI    C2 5698  11.684   3.614  10.050
  357loPI    C3 5699  11.674   3.506  10.050
  357loPI   PO4 5700  11.653   3.496   9.450
  357loPI   GL1 5701  11.637   3.476   9.150
  357loPI   GL2 5702  11.677   3.661   9.150
  357loPI   C1A 5703  11.656   3.501   8.850
  357loPI   C2A 5704  11.650   3.464   8.550
  357loPI   C3A 5705  11.686   3.525   8.250
  357loPI   C4A 5706  11.687   3.481   7.950
  357loPI   C5A 5707  11.647   3.528   7.650
  357loPI   C6A 5708  11.638   3.516   7.350
  357loPI   C1B 5709  11.772   3.740   8.850
  357loPI   C2B 5710  11.804   3.706   8.550
  357loPI   C3B 5711  11.767   3.672   8.250
  357loPI   C4B 5712  11.762   3.764   7.950
  358loPI    C1 5713   7.611   0.351   9.750
  358loPI    C2 5714   7.596   0.299  10.050
  358loPI    C3 5715   7.625   0.477  10.050
  358loPI   PO4 5716   7.637   0.431   9.450
  358loPI   GL1 5717   7.619   0.414   9.150
  358loPI   GL2 5718   7.595   0.299   9.150
  358loPI   C1A 5719   7.637   0.452   8.850
  358loPI   C2A 5720   7.675   0.478   8.550
  358loPI   C3A 5721   7.675   0.468   8.250
  358loPI   C4A 5722   7.683   0.479   7.950
  358loPI   C5A 5723   7.667   0.443   7.650
  358loPI   C6A 5724   7.681   0.429   7.350
  358loPI   C1B 5725   7.644   0.191   8.850
  358loPI   C2B 5726   7.603   0.200   8.550
  358loPI   C3B 5727   7.588   0.137   8.250
  358loPI   C4B 5728   7.630   0.194   7.950
  359loPI    C1 5729  10.750  17.372   9.750
  359loPI    C2 5730  10.697  17.438  10.050
  359loPI    C3 5731  10.803  17.387  10.050
  359loPI   PO4 5732  10.864  17.393   9.450
  359loPI   GL1 5733  10.861  17.361   9.150
  359loPI   GL2 5734  10.688  17.376   9.150
  359loPI   C1A 5735  10.833  17.369   8.850
  359loPI   C2A 5736  10.807  17.314   8.550
  359loPI   C3A 5737  10.850  17.388   8.250
  359loPI   C4A 5738  10.800  17.366   7.950
  359loPI   C5A 5739  10.846  17.349   7.650
  359loPI   C6A 5740  10.807  17.406   7.350
  359loPI   C1B 5741  10.617  17.462   8.850
  359loPI   C2B 5742  10.652  17.473   8.550
  359loPI   C3B 5743  10.624  17.455   8.250
  359loPI   C4B 5744  10.594  17.469   7.950
  360loPI    C1 5745   7.514  13.582   9.750
  360loPI    C2 5746   7.538  13.546  10.050
  360loPI    C3 5747   7.686  13.518  10.050
  360loPI   PO4 5748   7.647  13.547   9.450
  360loPI   GL1 5749   7.614  13.509   9.150
  360loPI   GL2 5750   7.498  13.524   9.150
  360loPI   C1A 5751   7.686  13.470   8.850
  360loPI   C2A 5752   7.632  13.547   8.550
  360loPI   C3A 5753   7.648  13.537   8.250
  360loPI   C4A 5754   7.681  13.468   7.950
  360loPI   C5A 5755   7.684  13.533   7.650
  360loPI   C6A 5756   7.687  13.521   7.350
  360loPI   C1B 5757   7.409  13.637   8.850
  360loPI   C2B 5758   7.459  13.643   8.550
  360loPI   C3B 5759   7.418  13.674   8.250
  360loPI   C4B 5760   7.452  13.598   7.950
  361loPI    C1 5761   2.943  16.434   9.750
  361loPI    C2 5762   2.946  16.521  10.050
  361loPI    C3 5763   2.811  16.576  10.050
  361loPI   PO4 5764   2.827  16.572   9.450
  361loPI   GL1 5765   2.851  16.562   9.150
  361loPI   GL2 5766   2.935  16.432   9.150
  361loPI   C1A 5767   2.828  16.602   8.850
  361loPI   C2A 5768   2.821  16.548   8.550
  361loPI   C3A 5769   2.819  16.579   8.250
  361loPI   C4A 5770   2.821  16.607   7.950
  361loPI   C5A 5771   2.801  16.539   7.650
  361loPI   C6A 5772   2.834  16.543   7.350
  361loPI   C1B 5773   2.929  16.331   8.850
  361loPI   C2B 5774   2.991  16.408   8.550
  361loPI   C3B 5775   2.987  16.355   8.250
  361loPI   C4B 5776   2.910  16.326   7.950
  362loPI    C1 5777  10.963   4.387   9.750
  362loPI    C2 5778  10.983   4.369  10.050
  362loPI    C3 5779  10.893   4.304  10.050
  362loPI   PO4 5780  10.814   4.262   9.450
  362loPI   GL1 5781  10.809   4.233   9.150
  362loPI   GL2 5782  10.985   4.362   9.150
  362loPI   C1A 5783  10.826   4.295   8.850
  362loPI   C2A 5784  10.891   4.233   8.550
  362loPI   C3A 5785  10.829   4.233   8.250
  362loPI   C4A 5786  10.850   4.328   7.950
  362loPI   C5A 5787  10.810   4.270   7.650
  362loPI   C6A 5788  10.830   4.279   7.350
  362loPI   C1B 5789  11.069   4.464   8.850
  362loPI   C2B 5790  11.022   4.448   8.550
  362loPI   C3B 5791  11.025   4.464   8.250
  362loPI   C4B 5792  11.080   4.501   7.950
  363loPI    C1 5793   4.593   6.520   9.750
  363loPI    C2 5794   4.531   6.518  10.050
  363loPI    C3 5795   4.479   6.593  10.050
  363loPI   PO4 5796   4.439   6.617   9.450
  363loPI   GL1 5797   4.417   6.578   9.150
  363loPI   GL2 5798   4.601   6.547   9.150
  363loPI   C1A 5799   4.420   6.577   8.850
  363loPI   C2A 5800   4.428   6.560   8.550
  363loPI   C3A 5801   4.470   6.541   8.250
  363loPI   C4A 5802   4.422   6.546   7.950
  363loPI   C5A 5803   4.484   6.556   7.650
  363loPI   C6A 5804   4.488   6.622   7.350
  363loPI   C1B 5805   4.702   6.536   8.850
  363loPI   C2B 5806   4.679   6.592   8.550
  363loPI   C3B 5807   4.704   6.500   8.250
  363loPI   C4B 5808   4.730   6.503   7.950
  364loPI    C1 5809   4.338  17.429   9.750
  364loPI    C2 5810   4.315  17.414  10.050
  364loPI    C3 5811   4.481  17.346  10.050
  364loPI   PO4 5812   4.402  17.397   9.450
  364loPI   GL1 5813   4.477  17.342   9.150
  364loPI   GL2 5814   4.283  17.379   9.150
  364loPI   C1A 5815   4.475  17.403   8.850
  364loPI   C2A 5816   4.451  17.337   8.550
  364loPI   C3A 5817   4.459  17.338   8.250
  364loPI   C4A 5818   4.428  17.312   7.950
  364loPI   C5A 5819   4.437  17.329   7.650
  364loPI   C6A 5820   4.478  17.390   7.350
  364loPI   C1B 5821   4.164  17.357   8.850
  364loPI   C2B 5822   4.205  17.404   8.550
  364loPI   C3B 5823   4.172  17.439   8.250
  364loPI   C4B 5824   4.219  17.373   7.950
  365loPI    C1 5825   1.939   4.220   9.750
  365loPI    C2 5826   1.990   4.159  10.050
  365loPI    C3 5827   2.039   4.271  10.050
  365loPI   PO4 5828   2.079   4.283   9.450
  365loPI   GL1 5829   2.021   4.316   9.150
  365loPI   GL2 5830   1.911   4.218   9.150
  365loPI   C1A 5831   2.017   4.292   8.850
  365loPI   C2A 5832   2.098   4.262   8.550
  365loPI   C3A 5833   2.069   4.321   8.250
  365loPI   C4A 5834   2.050   4.255   7.950
  365loPI   C5A 5835   2.084   4.245   7.650
  365loPI   C6A 5836   2.053   4.234   7.350
  365loPI   C1B 5837   1.869   4.156   8.850
  365loPI   C2B 5838   1.857   4.162   8.550
  365loPI   C3B 5839   1.849   4.125   8.250
  365loPI   C4B 5840   1.832   4.163   7.950
  366loPI    C1 5841   5.335  18.828   9.750
  366loPI    C2 5842   5.352  18.811  10.050
  366loPI    C3 5843   5.292  18.899  10.050
  366loPI   PO4 5844   5.270  18.931   9.450
  366loPI   GL1 5845   5.230  18.903   9.150
  366loPI   GL2 5846   5.378  18.789   9.150
  366loPI   C1A 5847   5.225  18.925   8.850
  366loPI   C2A 5848   5.277  18.852   8.550
  366loPI   C3A 5849   5.241  18.927   8.250
  366loPI   C4A 5850   5.227  18.864   7.950
  366loPI   C5A 5851   5.265  18.862   7.650
  366loPI   C6A 5852   5.209  18.870   7.350
  366loPI   C1B 5853   5.469  18.744   8.850
  366loPI   C2B 5854   5.441  18.768   8.550
  366loPI   C3B 5855   5.414  18.777   8.250
  366loPI   C4B 5856   5.483  18.690   7.950
  367loPI    C1 5857   1.282  19.736   9.750
  367loPI    C2 5858   1.276  19.765  10.050
  367loPI    C3 5859   1.291  19.635  10.050
  367loPI   PO4 5860   1.289  19.690   9.450
  367loPI   GL1 5861   1.259  19.644   9.150
  367loPI   GL2 5862   1.293  19.760   9.150
  367loPI   C1A 5863   1.292  19.694   8.850
  367loPI   C2A 5864   1.291  19.688   8.550
  367loPI   C3A 5865   1.293  19.636   8.250
  367loPI   C4A 5866   1.228  19.673   7.950
  367loPI   C5A 5867   1.288  19.696   7.650
  367loPI   C6A 5868   1.238  19.703   7.350
  367loPI   C1B 5869   1.410  19.915   8.850
  367loPI   C2B 5870   1.422  19.836   8.550
  367loPI   C3B 5871   1.400  19.907   8.250
  367loPI   C4B 5872   1.388  19.909   7.950
  368loPI    C1 5873   2.050   3.378   9.750
  368loPI    C2 5874   2.074   3.429  10.050
  368loPI    C3 5875   2.018   3.472  10.050
  368loPI   PO4 5876   2.016   3.529   9.450
  368loPI   GL1 5877   2.035   3.467   9.150
  368loPI   GL2 5878   2.120   3.356   9.150
  368loPI   C1A 5879   2.047   3.555   8.850
  368loPI   C2A 5880   2.043   3.508   8.550
  368loPI   C3A 5881   2.009   3.546   8.250
  368loPI   C4A 5882   2.056   3.520   7.950
  368loPI   C5A 5883   2.064   3.531   7.650
  368loPI   C6A 5884   2.044   3.528   7.350
  368loPI   C1B 5885   2.135   3.267   8.850
  368loPI   C2B 5886   2.129   3.248   8.550
  368loPI   C3B 5887   2.146   3.239   8.250
  368loPI   C4B 5888   2.083   3.279   7.950
  369loPI    C1 5889   8.607   3.528   9.750
  369loPI    C2 5890   8.551   3.581  10.050
  369loPI    C3 5891   8.479   3.542  10.050
  369loPI   PO4 5892   8.423   3.554   9.450
  369loPI   GL1 5893   8.424   3.526   9.150
  369loPI   GL2 5894   8.620   3.515   9.150
  369loPI   C1A 5895   8.431   3.491   8.850
  369loPI   C2A 5896   8.438   3.502   8.550
  369loPI   C3A 5897   8.418   3.511   8.250
  369loPI   C4A 5898   8.446   3.552   7.950
  369loPI   C5A 5899   8.401   3.559   7.650
  369loPI   C6A 5900   8.420   3.463   7.350
  369loPI   C1B 5901   8.740   3.571   8.850
  369loPI   C2B 5902   8.733   3.541   8.550
  369loPI   C3B 5903   8.694   3.541   8.250
  369loPI   C4B 5904   8.730   3.540   7.950
  370loPI    C1 5905   5.185  15.883   9.750
  370loPI    C2 5906   5.174  15.914  10.050
  370loPI    C3 5907   5.235  15.839  10.050
  370loPI   PO4 5908   5.222  15.866   9.450
  370loPI   GL1 5909   5.272  15.866   9.150
  370loPI   GL2 5910   5.133  15.942   9.150
  370loPI   C1A 5911   5.286  15.856   8.850
  370loPI   C2A 5912   5.282  15.798   8.550
  370loPI   C3A 5913   5.288  15.796   8.250
  370loPI   C4A 5914   5.246  15.846   7.950
  370loPI   C5A 5915   5.230  15.829   7.650
  370loPI   C6A 5916   5.298  15.839   7.350
  370loPI   C1B 5917   5.094  16.012   8.850
  370loPI   C2B 5918   5.102  16.046   8.550
  370loPI   C3B 5919   5.066  15.984   8.250
  370loPI   C4B 5920   5.050  16.035   7.950
  371loPI    C1 5921   7.614   1.850   9.750
  371loPI    C2 5922   7.582   1.929  10.050
  371loPI    C3 5923   7.603   1.934  10.050
  371loPI   PO4 5924   7.683   1.992   9.450
  371loPI   GL1 5925   7.631   1.954   9.150
  371loPI   GL2 5926   7.586   1.915   9.150
  371loPI   C1A 5927   7.617   1.955   8.850
  371loPI   C2A 5928   7.653   1.976   8.550
  371loPI   C3A 5929   7.602   2.001   8.250
  371loPI   C4A 5930   7.609   1.924   7.950
  371loPI   C5A 5931   7.663   2.001   7.650
  371loPI   C6A 5932   7.621   1.936   7.350
  371loPI   C1B 5933   7.472   1.790   8.850
  371loPI   C2B 5934   7.440   1.803   8.550
  371loPI   C3B 5935   7.454   1.834   8.250
  371loPI   C4B 5936   7.483   1.776   7.950
  372loPI    C1 5937   9.964  11.296   9.750
  372loPI    C2 5938   9.956  11.279  10.050
  372loPI    C3 5939  10.008  11.177  10.050
  372loPI   PO4 5940  10.095  11.154   9.450
  372loPI   GL1 5941  10.014  11.196   9.150
  372loPI   GL2 5942   9.941  11.275   9.150
  372loPI   C1A 5943  10.015  11.176   8.850
  372loPI   C2A 5944  10.077  11.200   8.550
  372loPI   C3A 5945  10.047  11.193   8.250
  372loPI   C4A 5946  10.096  11.168   7.950
  372loPI   C5A 5947  10.065  11.167   7.650
  372loPI   C6A 5948  10.072  11.252   7.350
  372loPI   C1B 5949   9.889  11.384   8.850
  372loPI   C2B 5950   9.823  11.341   8.550
  372loPI   C3B 5951   9.901  11.390   8.250
  372loPI   C4B 5952   9.824  11.397   7.950
  373loPI    C1 5953   6.923   5.090   9.750
  373loPI    C2 5954   6.973   5.087  10.050
  373loPI    C3 5955   6.879   5.025  10.050
  373loPI   PO4 5956   6.876   5.098   9.450
  373loPI   GL1 5957   6.814   5.034   9.150
  373loPI   GL2 5958   6.950   5.065   9.150
  373loPI   C1A 5959   6.809   5.016   8.850
  373loPI   C2A 5960   6.829   5.032   8.550
  373loPI   C3A 5961   6.842   5.032   8.250
  373loPI   C4A 5962   6.863   5.010   7.950
  373loPI   C5A 5963   6.883   5.052   7.650
  373loPI   C6A 5964   6.875   5.035   7.350
  373loPI   C1B 5965   7.070   5.166   8.850
  373loPI   C2B 5966   7.117   5.175   8.550
  373loPI   C3B 5967   7.066   5.141   8.250
  373loPI   C4B 5968   7.119   5.189   7.950
  374loPI    C1 5969   6.038  15.669   9.750
  374loPI    C2 5970   5.964  15.683  10.050
  374loPI    C3 5971   6.032  15.805  10.050
  374loPI   PO4 5972   6.080  15.853   9.450
  374loPI   GL1 5973   6.061  15.769   9.150
  374loPI   GL2 5974   5.986  15.708   9.150
  374loPI   C1A 5975   6.015  15.844   8.850
  374loPI   C2A 5976   6.004  15.863   8.550
  374loPI   C3A 5977   6.006  15.784   8.250
  374loPI   C4A 5978   6.048  15.857   7.950
  374loPI   C5A 5979   6.034  15.803   7.650
  374loPI   C6A 5980   6.038  15.807   7.350
  374loPI   C1B 5981   5.913  15.597   8.850
  374loPI   C2B 5982   5.975  15.576   8.550
  374loPI   C3B 5983   5.964  15.606   8.250
  374loPI   C4B 5984   5.909  15.619   7.950
  375loPI    C1 5985   2.067  18.218   9.750
  375loPI    C2 5986   2.095  18.213  10.050
  375loPI    C3 5987   2.089  18.160  10.050
  375loPI   PO4 5988   2.019  18.091   9.450
  375loPI   GL1 5989   2.062  18.139   9.150
  375loPI   GL2 5990   2.052  18.227   9.150
  375loPI   C1A 5991   2.017  18.121   8.850
  375loPI   C2A 5992   2.074  18.128   8.550
  375loPI   C3A 5993   2.044  18.174   8.250
  375loPI   C4A 5994   2.055  18.117   7.950
  375loPI   C5A 5995   2.064  18.163   7.650
  375loPI   C6A 5996   2.008  18.158   7.350
  375loPI   C1B 5997   2.079  18.352   8.850
  375loPI   C2B 5998   2.071  18.337   8.550
  375loPI   C3B 5999   2.107  18.351   8.250
  375loPI   C4B 6000   2.061  18.418   7.950
  376loPI    C1 6001   5.199  10.569   9.750
  376loPI    C2 6002   5.160  10.517  10.050
  376loPI    C3 6003   5.258  10.395  10.050
  376loPI   PO4 6004   5.268  10.405   9.450
  376loPI   GL1 6005   5.211  10.390   9.150
  376loPI   GL2 6006   5.148  10.522   9.150
  376loPI   C1A 6007   5.280  10.445   8.850
  376loPI   C2A 6008   5.257  10.469   8.550
  376loPI   C3A 6009   5.294  10.394   8.250
  376loPI   C4A 6010   5.254  10.463   7.950
  376loPI   C5A 6011   5.258  10.430   7.650
  376loPI   C6A 6012   5.270  10.393   7.350
  376loPI   C1B 6013   5.075  10.651   8.850
  376loPI   C2B 6014   5.053  10.654   8.550
  376loPI   C3B 6015   5.094  10.670   8.250
  376loPI   C4B 6016   5.097  10.661   7.950
  377loPI    C1 6017   4.347  14.919   9.750
  377loPI    C2 6018   4.370  14.909  10.050
  377loPI    C3 6019   4.438  15.094  10.050
  377loPI   PO4 6020   4.484  15.087   9.450
  377loPI   GL1 6021   4.461  15.059   9.150
  377loPI   GL2 6022   4.403  14.976   9.150
  377loPI   C1A 6023   4.411  15.042   8.850
  377loPI   C2A 6024   4.454  15.096   8.550
  377loPI   C3A 6025   4.489  15.055   8.250
  377loPI   C4A 6026   4.427  15.032   7.950
  377loPI   C5A 6027   4.458  15.019   7.650
  377loPI   C6A 6028   4.442  15.048   7.350
  377loPI   C1B 6029   4.252  14.866   8.850
  377loPI   C2B 6030   4.256  14.866   8.550
  377loPI   C3B 6031   4.344  14.880   8.250
  377loPI   C4B 6032   4.337  14.883   7.950
  378loPI    C1 6033   3.727   6.519   9.750
  378loPI    C2 6034   3.765   6.499  10.050
  378loPI    C3 6035   3.649   6.559  10.050
  378loPI   PO4 6036   3.636   6.627   9.450
  378loPI   GL1 6037   3.660   6.631   9.150
  378loPI   GL2 6038   3.798   6.499   9.150
  378loPI   C1A 6039   3.633   6.558   8.850
  378loPI   C2A 6040   3.614   6.581   8.550
  378loPI   C3A 6041   3.669   6.595   8.250
  378loPI   C4A 6042   3.694   6.549   7.950
  378loPI   C5A 6043   3.681   6.608   7.650
  378loPI   C6A 6044   3.683   6.576   7.350
  378loPI   C1B 6045   3.867   6.469   8.850
  378loPI   C2B 6046   3.877   6.388   8.550
  378loPI   C3B 6047   3.883   6.388   8.250
  378loPI   C4B 6048   3.820   6.394   7.950
  379loPI    C1 6049   6.993  16.511   9.750
  379loPI    C2 6050   6.923  16.529  10.050
  379loPI    C3 6051   6.825  16.566  10.050
  379loPI   PO4 6052   6.844  16.550   9.450
  379loPI   GL1 6053   6.839  16.628   9.150
  379loPI   GL2 6054   7.013  16.603   9.150
  379loPI   C1A 6055   6.840  16.584   8.850
  379loPI   C2A 6056   6.884  16.570   8.550
  379loPI   C3A 6057   6.822  16.564   8.250
  379loPI   C4A 6058   6.862  16.559   7.950
  379loPI   C5A 6059   6.880  16.588   7.650
  379loPI   C6A 6060   6.812  16.580   7.350
  379loPI   C1B 6061   7.106  16.508   8.850
  379loPI   C2B 6062   7.077  16.473   8.550
  379loPI   C3B 6063   7.080  16.487   8.250
  379loPI   C4B 6064   7.114  16.550   7.950
  380loPI    C1 6065   8.554  14.941   9.750
  380loPI    C2 6066   8.499  14.973  10.050
  380loPI    C3 6067   8.434  15.048  10.050
  380loPI   PO4 6068   8.461  15.068   9.450
  380loPI   GL1 6069   8.420  15.030   9.150
  380loPI   GL2 6070   8.500  14.912   9.150
  380loPI   C1A 6071   8.426  15.067   8.850
  380loPI   C2A 6072   8.429  15.020   8.550
  380loPI   C3A 6073   8.439  15.016   8.250
  380loPI   C4A 6074   8.447  15.081   7.950
  380loPI   C5A 6075   8.474  15.016   7.650
  380loPI   C6A 6076   8.437  15.061   7.350
  380loPI   C1B 6077   8.656  14.823   8.850
  380loPI   C2B 6078   8.616  14.825   8.550
  380loPI   C3B 6079   8.593  14.917   8.250
  380loPI   C4B 6080   8.617  14.875   7.950
  381loPI    C1 6081  11.733  15.091   9.750
  381loPI    C2 6082  11.776  15.073  10.050
  381loPI    C3 6083  11.660  15.033  10.050
  381loPI   PO4 6084  11.617  15.089   9.450
  381loPI   GL1 6085  11.682  15.047   9.150
  381loPI   GL2 6086  11.786  15.163   9.150
  381loPI   C1A 6087  11.609  15.072   8.850
  381loPI   C2A 6088  11.622  15.069   8.550
  381loPI   C3A 6089  11.620  15.071   8.250
  381loPI   C4A 6090  11.627  15.090   7.950
  381loPI   C5A 6091  11.642  15.055   7.650
  381loPI   C6A 6092  11.618  15.059   7.350
  381loPI   C1B 6093  11.898  15.202   8.850
  381loPI   C2B 6094  11.855  15.179   8.550
  381loPI   C3B 6095  11.890  15.190   8.250
  381loPI   C4B 6096  11.848  15.215   7.950
  382loPI    C1 6097   2.134  12.864   9.750
  382loPI    C2 6098   2.124  12.815  10.050
  382loPI    C3 6099   2.054  12.732  10.050
  382loPI   PO4 6100   2.008  12.725   9.450
  382loPI   GL1 6101   2.007  12.725   9.150
  382loPI   GL2 6102   2.149  12.846   9.150
  382loPI   C1A 6103   2.062  12.763   8.850
  382loPI   C2A 6104   2.039  12.766   8.550
  382loPI   C3A 6105   2.090  12.713   8.250
  382loPI   C4A 6106   2.007  12.700   7.950
  382loPI   C5A 6107   2.053  12.760   7.650
  382loPI   C6A 6108   2.053  12.705   7.350
  382loPI   C1B 6109   2.192  12.947   8.850
  382loPI   C2B 6110   2.151  12.917   8.550
  382loPI   C3B 6111   2.243  12.985   8.250
  382loPI   C4B 6112   2.168  12.987   7.950
  383loPI    C1 6113   6.928  15.822   9.750
  383loPI    C2 6114   6.943  15.774  10.050
  383loPI    C3 6115   6.895  15.826  10.050
  383loPI   PO4 6116   6.857  15.790   9.450
  383loPI   GL1 6117   6.811  15.843   9.150
  383loPI   GL2 6118   6.953  15.788   9.150
  383loPI   C1A 6119   6.848  15.822   8.850
  383loPI   C2A 6120   6.857  15.845   8.550
  383loPI   C3A 6121   6.845  15.807   8.250
  383loPI   C4A 6122   6.856  15.854   7.950
  383loPI   C5A 6123   6.863  15.866   7.650
  383loPI   C6A 6124   6.842  15.863   7.350
  383loPI   C1B 6125   7.103  15.695   8.850
  383loPI   C2B 6126   7.038  15.779   8.550
  383loPI   C3B 6127   7.038  15.758   8.250
  383loPI   C4B 6128   7.110  15.775   7.950
  384loPI    C1 6129   8.527  16.668   9.750
  384loPI    C2 6130   8.583  16.664  10.050
  384loPI    C3 6131   8.492  16.618  10.050
  384loPI   PO4 6132   8.496  16.593   9.450
  384loPI   GL1 6133   8.421  16.571   9.150
  384loPI   GL2 6134   8.565  16.667   9.150
  384loPI   C1A 6135   8.417  16.615   8.850
  384loPI   C2A 6136   8.432  16.628   8.550
  384loPI   C3A 6137   8.428  16.631   8.250
  384loPI   C4A 6138   8.467  16.606   7.950
  384loPI   C5A 6139   8.411  16.583   7.650
  384loPI   C6A 6140   8.417  16.545   7.350
  384loPI   C1B 6141   8.660  16.800   8.850
  384loPI   C2B 6142   8.616  16.733   8.550
  384loPI   C3B 6143   8.627  16.749   8.250
  384loPI   C4B 6144   8.667  16.762   7.950
  385loPI    C1 6145   3.643   9.544   9.750
  385loPI    C2 6146   3.730   9.526  10.050
  385loPI    C3 6147   3.607   9.683  10.050
  385loPI   PO4 6148   3.644   9.689   9.450
  385loPI   GL1 6149   3.660   9.689   9.150
  385loPI   GL2 6150   3.715   9.524   9.150
  385loPI   C1A 6151   3.607   9.649   8.850
  385loPI   C2A 6152   3.644   9.636   8.550
  385loPI   C3A 6153   3.642   9.653   8.250
  385loPI   C4A 6154   3.621   9.648   7.950
  385loPI   C5A 6155   3.632   9.680   7.650
  385loPI   C6A 6156   3.664   9.643   7.350
  385loPI   C1B 6157   3.711   9.441   8.850
  385loPI   C2B 6158   3.741   9.403   8.550
  385loPI   C3B 6159   3.738   9.461   8.250
  385loPI   C4B 6160   3.750   9.389   7.950
  386loPI    C1 6161   9.943  19.617   9.750
  386loPI    C2 6162   9.955  19.574  10.050
  386loPI    C3 6163  10.086  19.660  10.050
  386loPI   PO4 6164  10.065  19.668   9.450
  386loPI   GL1 6165  10.085  19.661   9.150
  386loPI   GL2 6166   9.957  19.623   9.150
  386loPI   C1A 6167  10.057  19.685   8.850
  386loPI   C2A 6168  10.034  19.675   8.550
  386loPI   C3A 6169  10.070  19.626   8.250
  386loPI   C4A 6170  10.082  19.638   7.950
  386loPI   C5A 6171  10.047  19.706   7.650
  386loPI   C6A 6172  10.094  19.649   7.350
  386loPI   C1B 6173   9.817  19.495   8.850
  386loPI   C2B 6174   9.904  19.506   8.550
  386loPI   C3B 6175   9.877  19.450   8.250
  386loPI   C4B 6176   9.822  19.525   7.950
  387loPI    C1 6177   6.096  12.626   9.750
  387loPI    C2 6178   6.091  12.655  10.050
  387loPI    C3 6179   6.053  12.750  10.050
  387loPI   PO4 6180   6.052  12.704   9.450
  387loPI   GL1 6181   6.094  12.768   9.150
  387loPI   GL2 6182   6.074  12.627   9.150
  387loPI   C1A 6183   6.035  12.716   8.850
  387loPI   C2A 6184   6.092  12.767   8.550
  387loPI   C3A 6185   6.051  12.786   8.250
  387loPI   C4A 6186   6.056  12.698   7.950
  387loPI   C5A 6187   6.073  12.741   7.650
  387loPI   C6A 6188   6.042  12.760   7.350
  387loPI   C1B 6189   6.102  12.542   8.850
  387loPI   C2B 6190   6.048  12.478   8.550
  387loPI   C3B 6191   6.064  12.465   8.250
  387loPI   C4B 6192   6.024  12.478   7.950
  388loPI    C1 6193  10.077   2.661   9.750
  388loPI    C2 6194  10.088   2.606  10.050
  388loPI    C3 6195  10.083   2.748  10.050
  388loPI   PO4 6196  10.081   2.701   9.450
  388loPI   GL1 6197  10.083   2.713   9.150
  388loPI   GL2 6198  10.085   2.617   9.150
  388loPI   C1A 6199  10.099   2.702   8.850
  388loPI   C2A 6200  10.096   2.774   8.550
  388loPI   C3A 6201  10.051   2.694   8.250
  388loPI   C4A 6202  10.018   2.788   7.950
  388loPI   C5A 6203  10.040   2.742   7.650
  388loPI   C6A 6204  10.050   2.725   7.350
  388loPI   C1B 6205  10.064   2.445   8.850
  388loPI   C2B 6206  10.057   2.501   8.550
  388loPI   C3B 6207  10.122   2.538   8.250
  388loPI   C4B 6208  10.035   2.527   7.950
  389loPI    C1 6209   0.398   1.138   9.750
  389loPI    C2 6210   0.367   1.119  10.050
  389loPI    C3 6211   0.435   1.241  10.050
  389loPI   PO4 6212   0.453   1.246   9.450
  389loPI   GL1 6213   0.429   1.188   9.150
  389loPI   GL2 6214   0.418   1.128   9.150
  389loPI   C1A 6215   0.417   1.157   8.850
  389loPI   C2A 6216   0.404   1.171   8.550
  389loPI   C3A 6217   0.412   1.210   8.250
  389loPI   C4A 6218   0.413   1.215   7.950
  389loPI   C5A 6219   0.443   1.240   7.650
  389loPI   C6A 6220   0.451   1.202   7.350
  389loPI   C1B 6221   0.364   0.977   8.850
  389loPI   C2B 6222   0.342   1.006   8.550
  389loPI   C3B 6223   0.320   0.930   8.250
  389loPI   C4B 6224   0.336   0.936   7.950
  390loPI    C1 6225   7.709   2.571   9.750
  390loPI    C2 6226   7.652   2.597  10.050
  390loPI    C3 6227   7.614   2.705  10.050
  390loPI   PO4 6228   7.658   2.788   9.450
  390loPI   GL1 6229   7.684   2.729   9.150
  390loPI   GL2 6230   7.642   2.570   9.150
  390loPI   C1A 6231   7.638   2.751   8.850
  390loPI   C2A 6232   7.618   2.749   8.550
  390loPI   C3A 6233   7.692   2.743   8.250
  390loPI   C4A 6234   7.631   2.695   7.950
  390loPI   C5A 6235   7.626   2.701   7.650
  390loPI   C6A 6236   7.695   2.739   7.350
  390loPI   C1B 6237   7.703   2.497   8.850
  390loPI   C2B 6238   7.732   2.541   8.550
  390loPI   C3B 6239   7.704   2.481   8.250
  390loPI   C4B 6240   7.696   2.541   7.950
  391PSPI    C1 6241   5.105  19.008   5.250
  391PSPI    C2 6242   5.124  18.967   4.950
  391PSPI    C3 6243   5.271  18.942   4.950
  391PSPI   PO4 6244   5.227  18.873   5.550
  391PSPI   GL1 6245   5.221  18.929   5.850
  391PSPI   GL2 6246   5.182  18.987   5.850
  391PSPI   C1A 6247   5.259  18.885   6.150
  391PSPI   C2A 6248   5.270  18.895   6.450
  391PSPI   C3A 6249   5.234  18.922   6.750
  391PSPI   C4A 6250   5.293  18.857   7.050
  391PSPI   C1B 6251   5.023  19.013   6.150
  391PSPI   C2B 6252   5.041  19.063   6.450
  391PSPI   C3B 6253   5.018  19.041   6.750
  391PSPI   C4B 6254   5.022  19.020   7.050
  392PSPI    C1 6255   4.495  12.896   5.250
  392PSPI    C2 6256   4.542  12.876   4.950
  392PSPI    C3 6257   4.474  12.782   4.950
  392PSPI   PO4 6258   4.437  12.697   5.550
  392PSPI   GL1 6259   4.481  12.736   5.850
  392PSPI   GL2 6260   4.496  12.895   5.850
  392PSPI   C1A 6261   4.459  12.786   6.150
  392PSPI   C2A 6262   4.494  12.725   6.450
  392PSPI   C3A 6263   4.479  12.718   6.750
  392PSPI   C4A 6264   4.456  12.705   7.050
  392PSPI   C1B 6265   4.607  12.959   6.150
  392PSPI   C2B 6266   4.559  12.991   6.450
  392PSPI   C3B 6267   4.601  12.915   6.750
  392PSPI   C4B 6268   4.533  12.970   7.050
  393PSPI    C1 6269   3.797  19.768   5.250
  393PSPI    C2 6270   3.762  19.787   4.950
  393PSPI    C3 6271   3.619  19.674   4.950
  393PSPI   PO4 6272   3.617  19.621   5.550
  393PSPI   GL1 6273   3.606  19.616   5.850
  393PSPI   GL2 6274   3.721  19.768   5.850
  393PSPI   C1A 6275   3.619  19.655   6.150
  393PSPI   C2A 6276   3.664  19.675   6.450
  393PSPI   C3A 6277   3.681  19.692   6.750
  393PSPI   C4A 6278   3.643  19.683   7.050
  393PSPI   C1B 6279   3.880  19.835   6.150
  393PSPI   C2B 6280   3.805  19.847   6.450
  393PSPI   C3B 6281   3.863  19.838   6.750
  393PSPI   C4B 6282   3.895  19.802   7.050
  394PSPI    C1 6283  11.594   7.323   5.250
  394PSPI    C2 6284  11.516   7.281   4.950
  394PSPI    C3 6285  11.698   7.355   4.950
  394PSPI   PO4 6286  11.686   7.322   5.550
  394PSPI   GL1 6287  11.628   7.308   5.850
  394PSPI   GL2 6288  11.594   7.277   5.850
  394PSPI   C1A 6289  11.632   7.351   6.150
  394PSPI   C2A 6290  11.652   7.384   6.450
  394PSPI   C3A 6291  11.610   7.370   6.750
  394PSPI   C4A 6292  11.604   7.387   7.050
  394PSPI   C1B 6293  11.497   7.174   6.150
  394PSPI   C2B 6294  11.434   7.171   6.450
  394PSPI   C3B 6295  11.452   7.147   6.750
  394PSPI   C4B 6296  11.428   7.219   7.050
  395PSPI    C1 6297   4.382  19.646   5.250
  395PSPI    C2 6298   4.345  19.646   4.950
  395PSPI    C3 6299   4.462  19.658   4.950
  395PSPI   PO4 6300   4.437  19.616   5.550
  395PSPI   GL1 6301   4.405  19.680   5.850
  395PSPI   GL2 6302   4.332  19.650   5.850
  395PSPI   C1A 6303   4.445  19.638   6.150
  395PSPI   C2A 6304   4.494  19.712   6.450
  395PSPI   C3A 6305   4.416  19.676   6.750
  395PSPI   C4A 6306   4.477  19.702   7.050
  395PSPI   C1B 6307   4.205  19.534   6.150
  395PSPI   C2B 6308   4.213  19.535   6.450
  395PSPI   C3B 6309   4.202  19.591   6.750
  395PSPI   C4B 6310   4.232  19.558   7.050
  396PSPI    C1 6311   4.342   6.590   5.250
  396PSPI    C2 6312   4.325   6.577   4.950
  396PSPI    C3 6313   4.424   6.591   4.950
  396PSPI   PO4 6314   4.455   6.586   5.550
  396PSPI   GL1 6315   4.474   6.569   5.850
  396PSPI   GL2 6316   4.333   6.573   5.850
  396PSPI   C1A 6317   4.483   6.576   6.150
  396PSPI   C2A 6318   4.421   6.586   6.450
  396PSPI   C3A 6319   4.465   6.551   6.750
  396PSPI   C4A 6320   4.439   6.618   7.050
  396PSPI   C1B 6321   4.193   6.606   6.150
  396PSPI   C2B 6322   4.198   6.622   6.450
  396PSPI   C3B 6323   4.233   6.594   6.750
  396PSPI   C4B 6324   4.218   6.562   7.050
  397PSPI    C1 6325   6.794   5.109   5.250
  397PSPI    C2 6326   6.787   5.109   4.950
  397PSPI    C3 6327   6.871   5.017   4.950
  397PSPI   PO4 6328   6.897   5.094   5.550
  397PSPI   GL1 6329   6.891   5.066   5.850
  397PSPI   GL2 6330   6.761   5.080   5.850
  397PSPI   C1A 6331   6.820   5.001   6.150
  397PSPI   C2A 6332   6.858   5.001   6.450
  397PSPI   C3A 6333   6.881   5.072   6.750
  397PSPI   C4A 6334   6.841   5.042   7.050
  397PSPI   C1B 6335   6.649   5.236   6.150
  397PSPI   C2B 6336   6.655   5.200   6.450
  397PSPI   C3B 6337   6.611   5.175   6.750
  397PSPI   C4B 6338   6.610   5.150   7.050
  398PSPI    C1 6339   4.553  16.599   5.250
  398PSPI    C2 6340   4.609  16.609   4.950
  398PSPI    C3 6341   4.498  16.562   4.950
  398PSPI   PO4 6342   4.463  16.559   5.550
  398PSPI   GL1 6343   4.414  16.553   5.850
  398PSPI   GL2 6344   4.607  16.641   5.850
  398PSPI   C1A 6345   4.417  16.632   6.150
  398PSPI   C2A 6346   4.458  16.629   6.450
  398PSPI   C3A 6347   4.497  16.577   6.750
  398PSPI   C4A 6348   4.457  16.587   7.050
  398PSPI   C1B 6349   4.701  16.593   6.150
  398PSPI   C2B 6350   4.728  16.588   6.450
  398PSPI   C3B 6351   4.712  16.651   6.750
  398PSPI   C4B 6352   4.682  16.600   7.050
  399PSPI    C1 6353   6.773   6.643   5.250
  399PSPI    C2 6354   6.703   6.605   4.950
  399PSPI    C3 6355   6.850   6.585   4.950
  399PSPI   PO4 6356   6.830   6.565   5.550
  399PSPI   GL1 6357   6.835   6.587   5.850
  399PSPI   GL2 6358   6.771   6.683   5.850
  399PSPI   C1A 6359   6.845   6.611   6.150
  399PSPI   C2A 6360   6.836   6.622   6.450
  399PSPI   C3A 6361   6.875   6.611   6.750
  399PSPI   C4A 6362   6.896   6.566   7.050
  399PSPI   C1B 6363   6.618   6.742   6.150
  399PSPI   C2B 6364   6.602   6.739   6.450
  399PSPI   C3B 6365   6.637   6.682   6.750
  399PSPI   C4B 6366   6.667   6.685   7.050
  400PSPI    C1 6367   8.549   4.316   5.250
  400PSPI    C2 6368   8.520   4.349   4.950
  400PSPI    C3 6369   8.485   4.276   4.950
  400PSPI   PO4 6370   8.411   4.253   5.550
  400PSPI   GL1 6371   8.485   4.307   5.850
  400PSPI   GL2 6372   8.550   4.370   5.850
  400PSPI   C1A 6373   8.469   4.327   6.150
  400PSPI   C2A 6374   8.402   4.259   6.450
  400PSPI   C3A 6375   8.415   4.325   6.750
  400PSPI   C4A 6376   8.482   4.296   7.050
  400PSPI   C1B 6377   8.602   4.420   6.150
  400PSPI   C2B 6378   8.682   4.484   6.450
  400PSPI   C3B 6379   8.668   4.469   6.750
  400PSPI   C4B 6380   8.617   4.476   7.050
  401PSPI    C1 6381   1.318   6.646   5.250
  401PSPI    C2 6382   1.369   6.697   4.950
  401PSPI    C3 6383   1.277   6.605   4.950
  401PSPI   PO4 6384   1.238   6.555   5.550
  401PSPI   GL1 6385   1.281   6.574   5.850
  401PSPI   GL2 6386   1.308   6.663   5.850
  401PSPI   C1A 6387   1.253   6.630   6.150
  401PSPI   C2A 6388   1.254   6.616   6.450
  401PSPI   C3A 6389   1.262   6.599   6.750
  401PSPI   C4A 6390   1.202   6.626   7.050
  401PSPI   C1B 6391   1.388   6.729   6.150
  401PSPI   C2B 6392   1.379   6.763   6.450
  401PSPI   C3B 6393   1.447   6.751   6.750
  401PSPI   C4B 6394   1.381   6.808   7.050
  402POPI    C1 6395   6.788  15.871   5.250
  402POPI    C2 6396   6.775  15.910   4.950
  402POPI    C3 6397   6.875  15.775   4.950
  402POPI   PO4 6398   6.867  15.855   5.550
  402POPI   GL1 6399   6.828  15.856   5.850
  402POPI   GL2 6400   6.754  15.933   5.850
  402POPI   C1A 6401   6.811  15.862   6.150
  402POPI   D2A 6402   6.830  15.798   6.450
  402POPI   C3A 6403   6.882  15.783   6.750
  402POPI   C4A 6404   6.825  15.819   7.050
  402POPI   C1B 6405   6.679  15.941   6.150
  402POPI   C2B 6406   6.647  15.992   6.450
  402POPI   C3B 6407   6.599  15.961   6.750
  402POPI   C4B 6408   6.623  15.925   7.050
  403POPI    C1 6409  11.650   4.974   5.250
  403POPI    C2 6410  11.692   4.952   4.950
  403POPI    C3 6411  11.658   5.099   4.950
  403POPI   PO4 6412  11.669   5.072   5.550
  403POPI   GL1 6413  11.685   5.028   5.850
  403POPI   GL2 6414  11.644   4.923   5.850
  403POPI   C1A 6415  11.639   5.081   6.150
  403POPI   D2A 6416  11.618   5.001   6.450
  403POPI   C3A 6417  11.632   5.010   6.750
  403POPI   C4A 6418  11.652   5.078   7.050
  403POPI   C1B 6419  11.682   4.857   6.150
  403POPI   C2B 6420  11.702   4.777   6.450
  403POPI   C3B 6421  11.706   4.789   6.750
  403POPI   C4B 6422  11.712   4.849   7.050
  404POPI    C1 6423   6.865   2.868   5.250
  404POPI    C2 6424   6.809   2.900   4.950
  404POPI    C3 6425   6.868   2.695   4.950
  404POPI   PO4 6426   6.805   2.706   5.550
  404POPI   GL1 6427   6.844   2.728   5.850
  404POPI   GL2 6428   6.857   2.870   5.850
  404POPI   C1A 6429   6.853   2.781   6.150
  404POPI   D2A 6430   6.836   2.757   6.450
  404POPI   C3A 6431   6.816   2.755   6.750
  404POPI   C4A 6432   6.840   2.792   7.050
  404POPI   C1B 6433   6.827   2.966   6.150
  404POPI   C2B 6434   6.789   2.946   6.450
  404POPI   C3B 6435   6.820   2.953   6.750
  404POPI   C4B 6436   6.778   2.958   7.050
  405POPI    C1 6437   1.126  15.129   5.250
  405POPI    C2 6438   1.118  15.075   4.950
  405POPI    C3 6439   1.216  15.000   4.950
  405POPI   PO4 6440   1.287  15.035   5.550
  405POPI   GL1 6441   1.214  15.051   5.850
  405POPI   GL2 6442   1.143  15.108   5.850
  405POPI   C1A 6443   1.252  15.034   6.150
  405POPI   D2A 6444   1.289  15.057   6.450
  405POPI   C3A 6445   1.259  15.080   6.750
  405POPI   C4A 6446   1.259  15.011   7.050
  405POPI   C1B 6447   1.051  15.224   6.150
  405POPI   C2B 6448   0.996  15.136   6.450
  405POPI   C3B 6449   1.078  15.189   6.750
  405POPI   C4B 6450   1.014  15.132   7.050
  406POPI    C1 6451   2.095   3.622   5.250
  406POPI    C2 6452   2.045   3.581   4.950
  406POPI    C3 6453   2.003   3.506   4.950
  406POPI   PO4 6454   2.062   3.552   5.550
  406POPI   GL1 6455   2.015   3.465   5.850
  406POPI   GL2 6456   2.055   3.614   5.850
  406POPI   C1A 6457   2.031   3.464   6.150
  406POPI   D2A 6458   2.093   3.521   6.450
  406POPI   C3A 6459   2.063   3.467   6.750
  406POPI   C4A 6460   2.028   3.525   7.050
  406POPI   C1B 6461   2.153   3.701   6.150
  406POPI   C2B 6462   2.103   3.714   6.450
  406POPI   C3B 6463   2.109   3.728   6.750
  406POPI   C4B 6464   2.170   3.712   7.050
  407POPI    C1 6465   4.539  17.455   5.250
  407POPI    C2 6466   4.572  17.479   4.950
  407POPI    C3 6467   4.448  17.403   4.950
  407POPI   PO4 6468   4.490  17.368   5.550
  407POPI   GL1 6469   4.495  17.350   5.850
  407POPI   GL2 6470   4.515  17.431   5.850
  407POPI   C1A 6471   4.476  17.337   6.150
  407POPI   D2A 6472   4.455  17.392   6.450
  407POPI   C3A 6473   4.479  17.363   6.750
  407POPI   C4A 6474   4.471  17.313   7.050
  407POPI   C1B 6475   4.680  17.489   6.150
  407POPI   C2B 6476   4.687  17.494   6.450
  407POPI   C3B 6477   4.626  17.499   6.750
  407POPI   C4B 6478   4.648  17.563   7.050
  408POPI    C1 6479   1.268  18.789   5.250
  408POPI    C2 6480   1.291  18.802   4.950
  408POPI    C3 6481   1.230  18.945   4.950
  408POPI   PO4 6482   1.297  18.851   5.550
  408POPI   GL1 6483   1.298  18.898   5.850
  408POPI   GL2 6484   1.247  18.805   5.850
  408POPI   C1A 6485   1.216  18.903   6.150
  408POPI   D2A 6486   1.289  18.905   6.450
  408POPI   C3A 6487   1.253  18.914   6.750
  408POPI   C4A 6488   1.214  18.853   7.050
  408POPI   C1B 6489   1.250  18.631   6.150
  408POPI   C2B 6490   1.335  18.629   6.450
  408POPI   C3B 6491   1.306  18.626   6.750
  408POPI   C4B 6492   1.310  18.696   7.050
  409POPI    C1 6493   6.989  16.519   5.250
  409POPI    C2 6494   6.978  16.586   4.950
  409POPI    C3 6495   6.873  16.630   4.950
  409POPI   PO4 6496   6.875  16.623   5.550
  409POPI   GL1 6497   6.887  16.592   5.850
  409POPI   GL2 6498   6.950  16.552   5.850
  409POPI   C1A 6499   6.826  16.572   6.150
  409POPI   D2A 6500   6.807  16.596   6.450
  409POPI   C3A 6501   6.867  16.615   6.750
  409POPI   C4A 6502   6.803  16.610   7.050
  409POPI   C1B 6503   7.082  16.514   6.150
  409POPI   C2B 6504   7.084  16.548   6.450
  409POPI   C3B 6505   7.126  16.459   6.750
  409POPI   C4B 6506   7.096  16.524   7.050
  410POPI    C1 6507   6.098  16.472   5.250
  410POPI    C2 6508   6.055  16.441   4.950
  410POPI    C3 6509   6.048  16.603   4.950
  410POPI   PO4 6510   6.068  16.565   5.550
  410POPI   GL1 6511   6.096  16.547   5.850
  410POPI   GL2 6512   6.058  16.506   5.850
  410POPI   C1A 6513   6.082  16.610   6.150
  410POPI   D2A 6514   6.036  16.592   6.450
  410POPI   C3A 6515   6.014  16.614   6.750
  410POPI   C4A 6516   6.014  16.600   7.050
  410POPI   C1B 6517   6.128  16.339   6.150
  410POPI   C2B 6518   6.075  16.301   6.450
  410POPI   C3B 6519   6.077  16.345   6.750
  410POPI   C4B 6520   6.171  16.301   7.050
  411POPI    C1 6521   8.505  16.654   5.250
  411POPI    C2 6522   8.529  16.651   4.950
  411POPI    C3 6523   8.406  16.551   4.950
  411POPI   PO4 6524   8.421  16.620   5.550
  411POPI   GL1 6525   8.424  16.579   5.850
  411POPI   GL2 6526   8.529  16.670   5.850
  411POPI   C1A 6527   8.432  16.623   6.150
  411POPI   D2A 6528   8.482  16.540   6.450
  411POPI   C3A 6529   8.402  16.638   6.750
  411POPI   C4A 6530   8.460  16.566   7.050
  411POPI   C1B 6531   8.538  16.772   6.150
  411POPI   C2B 6532   8.556  16.795   6.450
  411POPI   C3B 6533   8.616  16.821   6.750
  411POPI   C4B 6534   8.582  16.758   7.050
  412POPI    C1 6535   1.422   4.310   5.250
  412POPI    C2 6536   1.389   4.306   4.950
  412POPI    C3 6537   1.296   4.304   4.950
  412POPI   PO4 6538   1.238   4.277   5.550
  412POPI   GL1 6539   1.256   4.276   5.850
  412POPI   GL2 6540   1.335   4.275   5.850
  412POPI   C1A 6541   1.251   4.284   6.150
  412POPI   D2A 6542   1.264   4.277   6.450
  412POPI   C3A 6543   1.228   4.256   6.750
  412POPI   C4A 6544   1.269   4.257   7.050
  412POPI   C1B 6545   1.483   4.345   6.150
  412POPI   C2B 6546   1.515   4.339   6.450
  412POPI   C3B 6547   1.458   4.320   6.750
  412POPI   C4B 6548   1.462   4.273   7.050
  413POPI    C1 6549  10.045   8.047   5.250
  413POPI    C2 6550   9.969   7.998   4.950
  413POPI    C3 6551  10.074   8.171   4.950
  413POPI   PO4 6552  10.058   8.120   5.550
  413POPI   GL1 6553  10.030   8.093   5.850
  413POPI   GL2 6554  10.037   8.055   5.850
  413POPI   C1A 6555  10.087   8.133   6.150
  413POPI   D2A 6556  10.013   8.153   6.450
  413POPI   C3A 6557  10.065   8.155   6.750
  413POPI   C4A 6558  10.072   8.096   7.050
  413POPI   C1B 6559   9.958   7.915   6.150
  413POPI   C2B 6560   9.980   7.917   6.450
  413POPI   C3B 6561   9.992   7.859   6.750
  413POPI   C4B 6562   9.926   7.896   7.050
  414POPI    C1 6563   8.380   4.911   5.250
  414POPI    C2 6564   8.375   4.973   4.950
  414POPI    C3 6565   8.473   5.096   4.950
  414POPI   PO4 6566   8.406   5.015   5.550
  414POPI   GL1 6567   8.446   5.053   5.850
  414POPI   GL2 6568   8.344   5.002   5.850
  414POPI   C1A 6569   8.435   5.059   6.150
  414POPI   D2A 6570   8.450   5.084   6.450
  414POPI   C3A 6571   8.411   5.066   6.750
  414POPI   C4A 6572   8.481   5.028   7.050
  414POPI   C1B 6573   8.321   4.825   6.150
  414POPI   C2B 6574   8.268   4.887   6.450
  414POPI   C3B 6575   8.294   4.832   6.750
  414POPI   C4B 6576   8.326   4.883   7.050
  415POPI    C1 6577  11.633   8.040   5.250
  415POPI    C2 6578  11.676   7.964   4.950
  415POPI    C3 6579  11.684   8.118   4.950
  415POPI   PO4 6580  11.601   8.088   5.550
  415POPI   GL1 6581  11.664   8.136   5.850
  415POPI   GL2 6582  11.648   8.012   5.850
  415POPI   C1A 6583  11.693   8.172   6.150
  415POPI   D2A 6584  11.677   8.146   6.450
  415POPI   C3A 6585  11.607   8.140   6.750
  415POPI   C4A 6586  11.688   8.097   7.050
  415POPI   C1B 6587  11.704   7.912   6.150
  415POPI   C2B 6588  11.639   7.840   6.450
  415POPI   C3B 6589  11.671   7.855   6.750
  415POPI   C4B 6590  11.699   7.838   7.050
  416POPI    C1 6591   5.996   8.035   5.250
  416POPI    C2 6592   6.036   7.971   4.950
  416POPI    C3 6593   6.035   8.093   4.950
  416POPI   PO4 6594   6.026   8.121   5.550
  416POPI   GL1 6595   6.018   8.156   5.850
  416POPI   GL2 6596   6.017   7.982   5.850
  416POPI   C1A 6597   6.028   8.134   6.150
  416POPI   D2A 6598   6.070   8.099   6.450
  416POPI   C3A 6599   6.007   8.101   6.750
  416POPI   C4A 6600   6.029   8.113   7.050
  416POPI   C1B 6601   5.981   7.889   6.150
  416POPI   C2B 6602   5.898   7.900   6.450
  416POPI   C3B 6603   5.938   7.924   6.750
  416POPI   C4B 6604   5.896   7.942   7.050
  417POPI    C1 6605   7.589  15.123   5.250
  417POPI    C2 6606   7.565  15.115   4.950
  417POPI    C3 6607   7.633  15.031   4.950
  417POPI   PO4 6608   7.611  15.087   5.550
  417POPI   GL1 6609   7.683  15.064   5.850
  417POPI   GL2 6610   7.588  15.093   5.850
  417POPI   C1A 6611   7.687  15.096   6.150
  417POPI   D2A 6612   7.637  15.049   6.450
  417POPI   C3A 6613   7.620  15.060   6.750
  417POPI   C4A 6614   7.626  15.081   7.050
  417POPI   C1B 6615   7.458  15.200   6.150
  417POPI   C2B 6616   7.435  15.253   6.450
  417POPI   C3B 6617   7.444  15.236   6.750
  417POPI   C4B 6618   7.440  15.267   7.050
  418POPI    C1 6619   0.349   7.277   5.250
  418POPI    C2 6620   0.415   7.288   4.950
  418POPI    C3 6621   0.484   7.363   4.950
  418POPI   PO4 6622   0.424   7.378   5.550
  418POPI   GL1 6623   0.467   7.317   5.850
  418POPI   GL2 6624   0.415   7.214   5.850
  418POPI   C1A 6625   0.429   7.320   6.150
  418POPI   D2A 6626   0.425   7.382   6.450
  418POPI   C3A 6627   0.473   7.361   6.750
  418POPI   C4A 6628   0.471   7.369   7.050
  418POPI   C1B 6629   0.307   7.190   6.150
  418POPI   C2B 6630   0.272   7.126   6.450
  418POPI   C3B 6631   0.328   7.134   6.750
  418POPI   C4B 6632   0.344   7.156   7.050
  419POPI    C1 6633   7.772   2.793   5.250
  419POPI    C2 6634   7.755   2.795   4.950
  419POPI    C3 6635   7.653   2.702   4.950
  419POPI   PO4 6636   7.628   2.731   5.550
  419POPI   GL1 6637   7.616   2.739   5.850
  419POPI   GL2 6638   7.739   2.832   5.850
  419POPI   C1A 6639   7.676   2.792   6.150
  419POPI   D2A 6640   7.649   2.787   6.450
  419POPI   C3A 6641   7.647   2.774   6.750
  419POPI   C4A 6642   7.672   2.716   7.050
  419POPI   C1B 6643   7.825   2.893   6.150
  419POPI   C2B 6644   7.798   2.950   6.450
  419POPI   C3B 6645   7.817   2.931   6.750
  419POPI   C4B 6646   7.781   2.875   7.050
  420POPI    C1 6647   4.304  12.034   5.250
  420POPI    C2 6648   4.340  12.070   4.950
  420POPI    C3 6649   4.412  11.939   4.950
  420POPI   PO4 6650   4.479  11.931   5.550
  420POPI   GL1 6651   4.463  11.942   5.850
  420POPI   GL2 6652   4.343  12.058   5.850
  420POPI   C1A 6653   4.412  11.961   6.150
  420POPI   D2A 6654   4.479  11.982   6.450
  420POPI   C3A 6655   4.444  11.951   6.750
  420POPI   C4A 6656   4.410  11.940   7.050
  420POPI   C1B 6657   4.262  12.083   6.150
  420POPI   C2B 6658   4.187  12.121   6.450
  420POPI   C3B 6659   4.266  12.093   6.750
  420POPI   C4B 6660   4.205  12.129   7.050
  421POPI    C1 6661  11.580  18.152   5.250
  421POPI    C2 6662  11.576  18.215   4.950
  421POPI    C3 6663  11.645  18.116   4.950
  421POPI   PO4 6664  11.690  18.105   5.550
  421POPI   GL1 6665  11.634  18.086   5.850
  421POPI   GL2 6666  11.505  18.182   5.850
  421POPI   C1A 6667  11.679  18.142   6.150
  421POPI   D2A 6668  11.624  18.114   6.450
  421POPI   C3A 6669  11.680  18.122   6.750
  421POPI   C4A 6670  11.604  18.107   7.050
  421POPI   C1B 6671  11.422  18.207   6.150
  421POPI   C2B 6672  11.444  18.204   6.450
  421POPI   C3B 6673  11.412  18.197   6.750
  421POPI   C4B 6674  11.377  18.240   7.050
  422POPI    C1 6675   2.076  13.675   5.250
  422POPI    C2 6676   2.123  13.599   4.950
  422POPI    C3 6677   2.005  13.490   4.950
  422POPI   PO4 6678   2.063  13.486   5.550
  422POPI   GL1 6679   2.012  13.539   5.850
  422POPI   GL2 6680   2.053  13.676   5.850
  422POPI   C1A 6681   2.098  13.466   6.150
  422POPI   D2A 6682   2.058  13.479   6.450
  422POPI   C3A 6683   2.066  13.521   6.750
  422POPI   C4A 6684   2.080  13.502   7.050
  422POPI   C1B 6685   2.131  13.723   6.150
  422POPI   C2B 6686   2.085  13.753   6.450
  422POPI   C3B 6687   2.107  13.712   6.750
  422POPI   C4B 6688   2.176  13.786   7.050
  423POPI    C1 6689   1.269   7.957   5.250
  423POPI    C2 6690   1.256   7.990   4.950
  423POPI    C3 6691   1.249   8.115   4.950
  423POPI   PO4 6692   1.285   8.161   5.550
  423POPI   GL1 6693   1.233   8.135   5.850
  423POPI   GL2 6694   1.266   7.961   5.850
  423POPI   C1A 6695   1.222   8.081   6.150
  423POPI   D2A 6696   1.280   8.125   6.450
  423POPI   C3A 6697   1.252   8.128   6.750
  423POPI   C4A 6698   1.219   8.157   7.050
  423POPI   C1B 6699   1.292   7.888   6.150
  423POPI   C2B 6700   1.309   7.845   6.450
  423POPI   C3B 6701   1.328   7.902   6.750
  423POPI   C4B 6702   1.286   7.855   7.050
  424POPI    C1 6703   8.550  15.926   5.250
  424POPI    C2 6704   8.487  15.872   4.950
  424POPI    C3 6705   8.486  15.781   4.950
  424POPI   PO4 6706   8.463  15.833   5.550
  424POPI   GL1 6707   8.421  15.831   5.850
  424POPI   GL2 6708   8.577  15.923   5.850
  424POPI   C1A 6709   8.442  15.784   6.150
  424POPI   D2A 6710   8.427  15.804   6.450
  424POPI   C3A 6711   8.486  15.783   6.750
  424POPI   C4A 6712   8.401  15.845   7.050
  424POPI   C1B 6713   8.623  16.012   6.150
  424POPI   C2B 6714   8.582  16.040   6.450
  424POPI   C3B 6715   8.605  16.057   6.750
  424POPI   C4B 6716   8.652  15.992   7.050
  425POPI    C1 6717   6.053  10.308   5.250
  425POPI    C2 6718   6.055  10.301   4.950
  425POPI    C3 6719   6.091  10.438   4.950
  425POPI   PO4 6720   6.004  10.436   5.550
  425POPI   GL1 6721   6.000  10.480   5.850
  425POPI   GL2 6722   6.139  10.291   5.850
  425POPI   C1A 6723   6.040  10.465   6.150
  425POPI   D2A 6724   6.017  10.417   6.450
  425POPI   C3A 6725   6.003  10.424   6.750
  425POPI   C4A 6726   6.011  10.406   7.050
  425POPI   C1B 6727   6.125  10.224   6.150
  425POPI   C2B 6728   6.119  10.173   6.450
  425POPI   C3B 6729   6.166  10.216   6.750
  425POPI   C4B 6730   6.104  10.186   7.050
  426POPI    C1 6731   9.932   2.693   5.250
  426POPI    C2 6732   9.977   2.658   4.950
  426POPI    C3 6733  10.067   2.703   4.950
  426POPI   PO4 6734  10.015   2.766   5.550
  426POPI   GL1 6735  10.045   2.742   5.850
  426POPI   GL2 6736   9.971   2.622   5.850
  426POPI   C1A 6737  10.090   2.755   6.150
  426POPI   D2A 6738  10.065   2.769   6.450
  426POPI   C3A 6739  10.091   2.729   6.750
  426POPI   C4A 6740  10.048   2.696   7.050
  426POPI   C1B 6741   9.882   2.612   6.150
  426POPI   C2B 6742   9.843   2.548   6.450
  426POPI   C3B 6743   9.881   2.552   6.750
  426POPI   C4B 6744   9.867   2.597   7.050
  427POPI    C1 6745   0.468   3.670   5.250
  427POPI    C2 6746   0.441   3.664   4.950
  427POPI    C3 6747   0.423   3.487   4.950
  427POPI   PO4 6748   0.412   3.538   5.550
  427POPI   GL1 6749   0.454   3.503   5.850
  427POPI   GL2 6750   0.446   3.661   5.850
  427POPI   C1A 6751   0.496   3.549   6.150
  427POPI   D2A 6752   0.463   3.554   6.450
  427POPI   C3A 6753   0.431   3.495   6.750
  427POPI   C4A 6754   0.482   3.553   7.050
  427POPI   C1B 6755   0.412   3.802   6.150
  427POPI   C2B 6756   0.376   3.803   6.450
  427POPI   C3B 6757   0.402   3.709   6.750
  427POPI   C4B 6758   0.367   3.794   7.050
  428POPI    C1 6759   1.375   8.903   5.250
  428POPI    C2 6760   1.340   8.869   4.950
  428POPI    C3 6761   1.298   8.904   4.950
  428POPI   PO4 6762   1.243   8.938   5.550
  428POPI   GL1 6763   1.212   8.926   5.850
  428POPI   GL2 6764   1.370   8.858   5.850
  428POPI   C1A 6765   1.281   8.921   6.150
  428POPI   D2A 6766   1.210   8.919   6.450
  428POPI   C3A 6767   1.262   8.861   6.750
  428POPI   C4A 6768   1.244   8.905   7.050
  428POPI   C1B 6769   1.466   8.778   6.150
  428POPI   C2B 6770   1.525   8.831   6.450
  428POPI   C3B 6771   1.481   8.783   6.750
  428POPI   C4B 6772   1.479   8.779   7.050
  429POPS   CNO 6773   0.409   4.249   5.250
  429POPS   PO4 6774   0.426   4.325   5.550
  429POPS   GL1 6775   0.477   4.242   5.850
  429POPS   GL2 6776   0.505   4.371   5.850
  429POPS   C1A 6777   0.410   4.276   6.150
  429POPS   D2A 6778   0.414   4.277   6.450
  429POPS   C3A 6779   0.480   4.269   6.750
  429POPS   C4A 6780   0.411   4.323   7.050
  429POPS   C1B 6781   0.505   4.477   6.150
  429POPS   C2B 6782   0.567   4.510   6.450
  429POPS   C3B 6783   0.548   4.528   6.750
  429POPS   C4B 6784   0.566   4.539   7.050
  430POPS   CNO 6785   9.273   1.949   5.250
  430POPS   PO4 6786   9.292   1.935   5.550
  430POPS   GL1 6787   9.271   1.928   5.850
  430POPS   GL2 6788   9.287   2.084   5.850
  430POPS   C1A 6789   9.277   1.981   6.150
  430POPS   D2A 6790   9.232   2.020   6.450
  430POPS   C3A 6791   9.283   2.009   6.750
  430POPS   C4A 6792   9.246   1.948   7.050
  430POPS   C1B 6793   9.225   2.249   6.150
  430POPS   C2B 6794   9.231   2.189   6.450
  430POPS   C3B 6795   9.315   2.189   6.750
  430POPS   C4B 6796   9.221   2.240   7.050
  431POPS   CNO 6797  10.829   2.737   5.250
  431POPS   PO4 6798  10.898   2.751   5.550
  431POPS   GL1 6799  10.892   2.722   5.850
  431POPS   GL2 6800  10.770   2.688   5.850
  431POPS   C1A 6801  10.900   2.712   6.150
  431POPS   D2A 6802  10.828   2.763   6.450
  431POPS   C3A 6803  10.838   2.736   6.750
  431POPS   C4A 6804  10.894   2.727   7.050
  431POPS   C1B 6805  10.625   2.675   6.150
  431POPS   C2B 6806  10.569   2.723   6.450
  431POPS   C3B 6807  10.580   2.687   6.750
  431POPS   C4B 6808  10.585   2.700   7.050
  432POPS   CNO 6809   4.460  18.886   5.250
  432POPS   PO4 6810   4.421  18.935   5.550
  432POPS   GL1 6811   4.421  18.875   5.850
  432POPS   GL2 6812   4.426  18.998   5.850
  432POPS   C1A 6813   4.417  18.940   6.150
  432POPS   D2A 6814   4.500  18.902   6.450
  432POPS   C3A 6815   4.463  18.883   6.750
  432POPS   C4A 6816   4.413  18.892   7.050
  432POPS   C1B 6817   4.524  19.151   6.150
  432POPS   C2B 6818   4.470  19.144   6.450
  432POPS   C3B 6819   4.513  19.136   6.750
  432POPS   C4B 6820   4.488  19.176   7.050
  433POPS   CNO 6821  11.688   5.774   5.250
  433POPS   PO4 6822  11.602   5.811   5.550
  433POPS   GL1 6823  11.617   5.864   5.850
  433POPS   GL2 6824  11.609   5.672   5.850
  433POPS   C1A 6825  11.655   5.772   6.150
  433POPS   D2A 6826  11.665   5.826   6.450
  433POPS   C3A 6827  11.698   5.860   6.750
  433POPS   C4A 6828  11.692   5.853   7.050
  433POPS   C1B 6829  11.630   5.577   6.150
  433POPS   C2B 6830  11.596   5.571   6.450
  433POPS   C3B 6831  11.642   5.587   6.750
  433POPS   C4B 6832  11.618   5.580   7.050
  434POPS   CNO 6833   5.299   8.906   5.250
  434POPS   PO4 6834   5.235   8.866   5.550
  434POPS   GL1 6835   5.255   8.868   5.850
  434POPS   GL2 6836   5.303   8.784   5.850
  434POPS   C1A 6837   5.267   8.935   6.150
  434POPS   D2A 6838   5.215   8.909   6.450
  434POPS   C3A 6839   5.225   8.916   6.750
  434POPS   C4A 6840   5.241   8.885   7.050
  434POPS   C1B 6841   5.457   8.749   6.150
  434POPS   C2B 6842   5.440   8.793   6.450
  434POPS   C3B 6843   5.458   8.706   6.750
  434POPS   C4B 6844   5.430   8.718   7.050
  435POPS   CNO 6845   6.083  12.738   5.250
  435POPS   PO4 6846   6.012  12.767   5.550
  435POPS   GL1 6847   6.065  12.785   5.850
  435POPS   GL2 6848   6.054  12.834   5.850
  435POPS   C1A 6849   6.077  12.781   6.150
  435POPS   D2A 6850   6.039  12.761   6.450
  435POPS   C3A 6851   6.100  12.703   6.750
  435POPS   C4A 6852   6.087  12.779   7.050
  435POPS   C1B 6853   6.064  12.968   6.150
  435POPS   C2B 6854   6.043  12.964   6.450
  435POPS   C3B 6855   6.063  13.035   6.750
  435POPS   C4B 6856   6.059  12.967   7.050
  436POPS   CNO 6857   9.281   8.904   5.250
  436POPS   PO4 6858   9.225   8.867   5.550
  436POPS   GL1 6859   9.259   8.847   5.850
  436POPS   GL2 6860   9.201   8.782   5.850
  436POPS   C1A 6861   9.211   8.871   6.150
  436POPS   D2A 6862   9.282   8.928   6.450
  436POPS   C3A 6863   9.235   8.942   6.750
  436POPS   C4A 6864   9.272   8.926   7.050
  436POPS   C1B 6865   9.036   8.739   6.150
  436POPS   C2B 6866   9.100   8.680   6.450
  436POPS   C3B 6867   9.074   8.758   6.750
  436POPS   C4B 6868   9.081   8.736   7.050
  437POPS   CNO 6869   6.875   7.377   5.250
  437POPS   PO4 6870   6.803   7.379   5.550
  437POPS   GL1 6871   6.833   7.346   5.850
  437POPS   GL2 6872   6.756   7.308   5.850
  437POPS   C1A 6873   6.820   7.370   6.150
  437POPS   D2A 6874   6.828   7.323   6.450
  437POPS   C3A 6875   6.813   7.392   6.750
  437POPS   C4A 6876   6.837   7.377   7.050
  437POPS   C1B 6877   6.637   7.240   6.150
  437POPS   C2B 6878   6.626   7.310   6.450
  437POPS   C3B 6879   6.566   7.319   6.750
  437POPS   C4B 6880   6.587   7.239   7.050
  438POPS   CNO 6881   7.661   5.063   5.250
  438POPS   PO4 6882   7.614   5.055   5.550
  438POPS   GL1 6883   7.609   5.097   5.850
  438POPS   GL2 6884   7.786   5.056   5.850
  438POPS   C1A 6885   7.621   5.089   6.150
  438POPS   D2A 6886   7.611   5.073   6.450
  438POPS   C3A 6887   7.616   5.077   6.750
  438POPS   C4A 6888   7.636   5.040   7.050
  438POPS   C1B 6889   7.863   5.163   6.150
  438POPS   C2B 6890   7.883   5.149   6.450
  438POPS   C3B 6891   7.920   5.164   6.750
  438POPS   C4B 6892   7.857   5.149   7.050
  439POPS   CNO 6893   0.447  11.240   5.250
  439POPS   PO4 6894   0.436  11.230   5.550
  439POPS   GL1 6895   0.454  11.227   5.850
  439POPS   GL2 6896   0.326  11.119   5.850
  439POPS   C1A 6897   0.420  11.231   6.150
  439POPS   D2A 6898   0.455  11.198   6.450
  439POPS   C3A 6899   0.476  11.166   6.750
  439POPS   C4A 6900   0.419  11.237   7.050
  439POPS   C1B 6901   0.296  11.045   6.150
  439POPS   C2B 6902   0.320  11.000   6.450
  439POPS   C3B 6903   0.301  11.020   6.750
  439POPS   C4B 6904   0.247  11.024   7.050
  440POPS   CNO 6905   2.017  18.103   5.250
  440POPS   PO4 6906   2.087  18.134   5.550
  440POPS   GL1 6907   2.032  18.103   5.850
  440POPS   GL2 6908   2.162  18.044   5.850
  440POPS   C1A 6909   2.017  18.113   6.150
  440POPS   D2A 6910   2.087  18.137   6.450
  440POPS   C3A 6911   2.052  18.132   6.750
  440POPS   C4A 6912   2.056  18.114   7.050
  440POPS   C1B 6913   2.286  18.071   6.150
  440POPS   C2B 6914   2.240  18.031   6.450
  440POPS   C3B 6915   2.285  18.063   6.750
  440POPS   C4B 6916   2.307  18.004   7.050
  441POPS   CNO 6917   1.232  11.993   5.250
  441POPS   PO4 6918   1.201  11.997   5.550
  441POPS   GL1 6919   1.244  11.932   5.850
  441POPS   GL2 6920   1.117  11.944   5.850
  441POPS   C1A 6921   1.246  11.924   6.150
  441POPS   D2A 6922   1.201  11.999   6.450
  441POPS   C3A 6923   1.237  11.975   6.750
  441POPS   C4A 6924   1.253  11.934   7.050
  441POPS   C1B 6925   0.984  11.959   6.150
  441POPS   C2B 6926   1.011  11.951   6.450
  441POPS   C3B 6927   1.018  12.006   6.750
  441POPS   C4B 6928   0.957  11.930   7.050
  442POPS   CNO 6929   2.010   0.414   5.250
  442POPS   PO4 6930   2.047   0.465   5.550
  442POPS   GL1 6931   2.093   0.404   5.850
  442POPS   GL2 6932   2.049   0.293   5.850
  442POPS   C1A 6933   2.038   0.469   6.150
  442POPS   D2A 6934   2.007   0.399   6.450
  442POPS   C3A 6935   2.045   0.409   6.750
  442POPS   C4A 6936   2.061   0.423   7.050
  442POPS   C1B 6937   2.021   0.184   6.150
  442POPS   C2B 6938   2.104   0.180   6.450
  442POPS   C3B 6939   2.078   0.227   6.750
  442POPS   C4B 6940   2.076   0.205   7.050
  443POPS   CNO 6941   0.465  18.883   5.250
  443POPS   PO4 6942   0.495  18.850   5.550
  443POPS   GL1 6943   0.497  18.936   5.850
  443POPS   GL2 6944   0.572  18.846   5.850
  443POPS   C1A 6945   0.459  18.861   6.150
  443POPS   D2A 6946   0.421  18.940   6.450
  443POPS   C3A 6947   0.465  18.893   6.750
  443POPS   C4A 6948   0.479  18.891   7.050
  443POPS   C1B 6949   0.701  18.866   6.150
  443POPS   C2B 6950   0.681  18.846   6.450
  443POPS   C3B 6951   0.672  18.864   6.750
  443POPS   C4B 6952   0.668  18.820   7.050
  444POPS   CNO 6953   3.643   5.855   5.250
  444POPS   PO4 6954   3.657   5.778   5.550
  444POPS   GL1 6955   3.669   5.854   5.850
  444POPS   GL2 6956   3.533   5.800   5.850
  444POPS   C1A 6957   3.645   5.805   6.150
  444POPS   D2A 6958   3.690   5.793   6.450
  444POPS   C3A 6959   3.673   5.779   6.750
  444POPS   C4A 6960   3.635   5.799   7.050
  444POPS   C1B 6961   3.440   5.798   6.150
  444POPS   C2B 6962   3.427   5.806   6.450
  444POPS   C3B 6963   3.378   5.784   6.750
  444POPS   C4B 6964   3.394   5.737   7.050
  445POPS   CNO 6965   8.484   7.403   5.250
  445POPS   PO4 6966   8.406   7.311   5.550
  445POPS   GL1 6967   8.426   7.366   5.850
  445POPS   GL2 6968   8.414   7.420   5.850
  445POPS   C1A 6969   8.428   7.335   6.150
  445POPS   D2A 6970   8.493   7.353   6.450
  445POPS   C3A 6971   8.441   7.386   6.750
  445POPS   C4A 6972   8.471   7.401   7.050
  445POPS   C1B 6973   8.285   7.555   6.150
  445POPS   C2B 6974   8.315   7.587   6.450
  445POPS   C3B 6975   8.353   7.587   6.750
  445POPS   C4B 6976   8.316   7.591   7.050
  446POPS   CNO 6977   4.457   4.331   5.250
  446POPS   PO4 6978   4.498   4.238   5.550
  446POPS   GL1 6979   4.430   4.318   5.850
  446POPS   GL2 6980   4.525   4.306   5.850
  446POPS   C1A 6981   4.483   4.305   6.150
  446POPS   D2A 6982   4.412   4.298   6.450
  446POPS   C3A 6983   4.489   4.249   6.750
  446POPS   C4A 6984   4.479   4.311   7.050
  446POPS   C1B 6985   4.621   4.419   6.150
  446POPS   C2B 6986   4.698   4.383   6.450
  446POPS   C3B 6987   4.684   4.421   6.750
  446POPS   C4B 6988   4.618   4.411   7.050
  447POPS   CNO 6989   6.816  19.659   5.250
  447POPS   PO4 6990   6.895  19.662   5.550
  447POPS   GL1 6991   6.851  19.626   5.850
  447POPS   GL2 6992   6.774  19.630   5.850
  447POPS   C1A 6993   6.879  19.644   6.150
  447POPS   D2A 6994   6.881  19.697   6.450
  447POPS   C3A 6995   6.877  19.688   6.750
  447POPS   C4A 6996   6.805  19.617   7.050
  447POPS   C1B 6997   6.607  19.575   6.150
  447POPS   C2B 6998   6.599  19.528   6.450
  447POPS   C3B 6999   6.591  19.603   6.750
  447POPS   C4B 7000   6.645  19.564   7.050
  448POPS   CNO 7001   0.443   1.210   5.250
  448POPS   PO4 7002   0.485   1.187   5.550
  448POPS   GL1 7003   0.480   1.254   5.850
  448POPS   GL2 7004   0.593   1.256   5.850
  448POPS   C1A 7005   0.430   1.239   6.150
  448POPS   D2A 7006   0.498   1.201   6.450
  448POPS   C3A 7007   0.453   1.201   6.750
  448POPS   C4A 7008   0.460   1.179   7.050
  448POPS   C1B 7009   0.668   1.337   6.150
  448POPS   C2B 7010   0.695   1.361   6.450
  448POPS   C3B 7011   0.682   1.322   6.750
  448POPS   C4B 7012   0.603   1.328   7.050
  449POPS   CNO 7013   6.814  17.326   5.250
  449POPS   PO4 7014   6.810  17.319   5.550
  449POPS   GL1 7015   6.823  17.343   5.850
  449POPS   GL2 7016   6.850  17.489   5.850
  449POPS   C1A 7017   6.828  17.406   6.150
  449POPS   D2A 7018   6.818  17.388   6.450
  449POPS   C3A 7019   6.840  17.341   6.750
  449POPS   C4A 7020   6.847  17.316   7.050
  449POPS   C1B 7021   6.901  17.626   6.150
  449POPS   C2B 7022   6.826  17.657   6.450
  449POPS   C3B 7023   6.851  17.627   6.750
  449POPS   C4B 7024   6.869  17.657   7.050
  450POPS   CNO 7025  10.853  16.567   5.250
  450POPS   PO4 7026  10.887  16.545   5.550
  450POPS   GL1 7027  10.822  16.632   5.850
  450POPS   GL2 7028  10.758  16.446   5.850
  450POPS   C1A 7029  10.886  16.578   6.150
  450POPS   D2A 7030  10.867  16.613   6.450
  450POPS   C3A 7031  10.876  16.632   6.750
  450POPS   C4A 7032  10.853  16.591   7.050
  450POPS   C1B 7033  10.745  16.406   6.150
  450POPS   C2B 7034  10.732  16.409   6.450
  450POPS   C3B 7035  10.766  16.338   6.750
  450POPS   C4B 7036  10.709  16.414   7.050
  451POPS   CNO 7037   2.870   0.411   5.250
  451POPS   PO4 7038   2.891   0.401   5.550
  451POPS   GL1 7039   2.841   0.411   5.850
  451POPS   GL2 7040   2.923   0.543   5.850
  451POPS   C1A 7041   2.816   0.421   6.150
  451POPS   D2A 7042   2.871   0.470   6.450
  451POPS   C3A 7043   2.818   0.406   6.750
  451POPS   C4A 7044   2.835   0.442   7.050
  451POPS   C1B 7045   3.084   0.586   6.150
  451POPS   C2B 7046   3.087   0.605   6.450
  451POPS   C3B 7047   3.106   0.516   6.750
  451POPS   C4B 7048   3.086   0.564   7.050
  452POPS   CNO 7049  10.846   1.168   5.250
  452POPS   PO4 7050  10.840   1.208   5.550
  452POPS   GL1 7051  10.831   1.217   5.850
  452POPS   GL2 7052  10.702   1.273   5.850
  452POPS   C1A 7053  10.899   1.241   6.150
  452POPS   D2A 7054  10.899   1.237   6.450
  452POPS   C3A 7055  10.825   1.213   6.750
  452POPS   C4A 7056  10.884   1.233   7.050
  452POPS   C1B 7057  10.657   1.309   6.150
  452POPS   C2B 7058  10.632   1.340   6.450
  452POPS   C3B 7059  10.610   1.299   6.750
  452POPS   C4B 7060  10.597   1.299   7.050
  453POPS   CNO 7061   0.495  17.339   5.250
  453POPS   PO4 7062   0.485  17.311   5.550
  453POPS   GL1 7063   0.491  17.336   5.850
  453POPS   GL2 7064   0.470  17.494   5.850
  453POPS   C1A 7065   0.409  17.360   6.150
  453POPS   D2A 7066   0.402  17.389   6.450
  453POPS   C3A 7067   0.465  17.347   6.750
  453POPS   C4A 7068   0.474  17.334   7.050
  453POPS   C1B 7069   0.611  17.556   6.150
  453POPS   C2B 7070   0.587  17.573   6.450
  453POPS   C3B 7071   0.544  17.552   6.750
  453POPS   C4B 7072   0.526  17.529   7.050
  454POPS   CNO 7073   6.872   4.294   5.250
  454POPS   PO4 7074   6.838   4.290   5.550
  454POPS   GL1 7075   6.858   4.325   5.850
  454POPS   GL2 7076   6.954   4.332   5.850
  454POPS   C1A 7077   6.845   4.291   6.150
  454POPS   D2A 7078   6.883   4.240   6.450
  454POPS   C3A 7079   6.862   4.279   6.750
  454POPS   C4A 7080   6.875   4.289   7.050
  454POPS   C1B 7081   7.052   4.451   6.150
  454POPS   C2B 7082   7.076   4.482   6.450
  454POPS   C3B 7083   7.069   4.404   6.750
  454POPS   C4B 7084   7.061   4.428   7.050
  455POPS   CNO 7085   5.265  10.446   5.250
  455POPS   PO4 7086   5.235  10.418   5.550
  455POPS   GL1 7087   5.242  10.473   5.850
  455POPS   GL2 7088   5.265  10.312   5.850
  455POPS   C1A 7089   5.231  10.420   6.150
  455POPS   D2A 7090   5.234  10.450   6.450
  455POPS   C3A 7091   5.219  10.467   6.750
  455POPS   C4A 7092   5.275  10.444   7.050
  455POPS   C1B 7093   5.253  10.187   6.150
  455POPS   C2B 7094   5.223  10.188   6.450
  455POPS   C3B 7095   5.284  10.207   6.750
  455POPS   C4B 7096   5.292  10.189   7.050
  456POPS   CNO 7097   6.856  11.952   5.250
  456POPS   PO4 7098   6.820  11.964   5.550
  456POPS   GL1 7099   6.874  11.967   5.850
  456POPS   GL2 7100   6.829  12.118   5.850
  456POPS   C1A 7101   6.845  11.953   6.150
  456POPS   D2A 7102   6.860  12.011   6.450
  456POPS   C3A 7103   6.875  11.930   6.750
  456POPS   C4A 7104   6.846  11.946   7.050
  456POPS   C1B 7105   6.817  12.224   6.150
  456POPS   C2B 7106   6.807  12.270   6.450
  456POPS   C3B 7107   6.799  12.213   6.750
  456POPS   C4B 7108   6.806  12.208   7.050
  457POPS   CNO 7109   2.061  15.045   5.250
  457POPS   PO4 7110   2.013  15.099   5.550
  457POPS   GL1 7111   2.020  15.059   5.850
  457POPS   GL2 7112   2.092  15.130   5.850
  457POPS   C1A 7113   2.032  15.015   6.150
  457POPS   D2A 7114   2.031  15.044   6.450
  457POPS   C3A 7115   2.036  15.002   6.750
  457POPS   C4A 7116   2.058  15.077   7.050
  457POPS   C1B 7117   2.209  15.296   6.150
  457POPS   C2B 7118   2.141  15.292   6.450
  457POPS   C3B 7119   2.223  15.218   6.750
  457POPS   C4B 7120   2.229  15.280   7.050
  458POPS   CNO 7121   3.660  12.020   5.250
  458POPS   PO4 7122   3.661  11.965   5.550
  458POPS   GL1 7123   3.681  12.003   5.850
  458POPS   GL2 7124   3.645  12.138   5.850
  458POPS   C1A 7125   3.682  11.943   6.150
  458POPS   D2A 7126   3.672  11.925   6.450
  458POPS   C3A 7127   3.655  11.976   6.750
  458POPS   C4A 7128   3.639  11.935   7.050
  458POPS   C1B 7129   3.578  12.224   6.150
  458POPS   C2B 7130   3.602  12.177   6.450
  458POPS   C3B 7131   3.572  12.170   6.750
  458POPS   C4B 7132   3.521  12.210   7.050
  459POPS   CNO 7133  10.883  13.541   5.250
  459POPS   PO4 7134  10.805  13.469   5.550
  459POPS   GL1 7135  10.831  13.463   5.850
  459POPS   GL2 7136  10.775  13.428   5.850
  459POPS   C1A 7137  10.849  13.540   6.150
  459POPS   D2A 7138  10.804  13.487   6.450
  459POPS   C3A 7139  10.869  13.536   6.750
  459POPS   C4A 7140  10.838  13.489   7.050
  459POPS   C1B 7141  10.767  13.298   6.150
  459POPS   C2B 7142  10.716  13.249   6.450
  459POPS   C3B 7143  10.748  13.263   6.750
  459POPS   C4B 7144  10.779  13.316   7.050
  460POPS   CNO 7145   7.666  11.211   5.250
  460POPS   PO4 7146   7.674  11.226   5.550
  460POPS   GL1 7147   7.614  11.170   5.850
  460POPS   GL2 7148   7.693  11.078   5.850
  460POPS   C1A 7149   7.652  11.220   6.150
  460POPS   D2A 7150   7.666  11.229   6.450
  460POPS   C3A 7151   7.618  11.184   6.750
  460POPS   C4A 7152   7.644  11.167   7.050
  460POPS   C1B 7153   7.777  11.037   6.150
  460POPS   C2B 7154   7.778  11.001   6.450
  460POPS   C3B 7155   7.791  10.979   6.750
  460POPS   C4B 7156   7.824  10.976   7.050
  461POPS   CNO 7157   1.226  19.634   5.250
  461POPS   PO4 7158   1.222  19.693   5.550
  461POPS   GL1 7159   1.225  19.705   5.850
  461POPS   GL2 7160   1.313  19.564   5.850
  461POPS   C1A 7161   1.242  19.623   6.150
  461POPS   D2A 7162   1.226  19.649   6.450
  461POPS   C3A 7163   1.268  19.715   6.750
  461POPS   C4A 7164   1.256  19.704   7.050
  461POPS   C1B 7165   1.478  19.522   6.150
  461POPS   C2B 7166   1.480  19.583   6.450
  461POPS   C3B 7167   1.428  19.523   6.750
  461POPS   C4B 7168   1.481  19.568   7.050
  462POPS   CNO 7169   2.849  10.398   5.250
  462POPS   PO4 7170   2.861  10.423   5.550
  462POPS   GL1 7171   2.864  10.398   5.850
  462POPS   GL2 7172   2.886  10.557   5.850
  462POPS   C1A 7173   2.816  10.407   6.150
  462POPS   D2A 7174   2.802  10.429   6.450
  462POPS   C3A 7175   2.818  10.481   6.750
  462POPS   C4A 7176   2.833  10.437   7.050
  462POPS   C1B 7177   3.015  10.631   6.150
  462POPS   C2B 7178   2.982  10.609   6.450
  462POPS   C3B 7179   3.007  10.688   6.750
  462POPS   C4B 7180   2.975  10.687   7.050
  463POPS   CNO 7181   2.016  19.625   5.250
  463POPS   PO4 7182   2.008  19.676   5.550
  463POPS   GL1 7183   2.033  19.701   5.850
  463POPS   GL2 7184   2.143  19.662   5.850
  463POPS   C1A 7185   2.028  19.711   6.150
  463POPS   D2A 7186   2.031  19.620   6.450
  463POPS   C3A 7187   2.049  19.684   6.750
  463POPS   C4A 7188   2.044  19.644   7.050
  463POPS   C1B 7189   2.346  19.617   6.150
  463POPS   C2B 7190   2.336  19.663   6.450
  463POPS   C3B 7191   2.274  19.583   6.750
  463POPS   C4B 7192   2.333  19.598   7.050
  464POPS   CNO 7193   3.660  17.388   5.250
  464POPS   PO4 7194   3.666  17.328   5.550
  464POPS   GL1 7195   3.622  17.391   5.850
  464POPS   GL2 7196   3.768  17.268   5.850
  464POPS   C1A 7197   3.602  17.383   6.150
  464POPS   D2A 7198   3.650  17.353   6.450
  464POPS   C3A 7199   3.678  17.407   6.750
  464POPS   C4A 7200   3.624  17.358   7.050
  464POPS   C1B 7201   3.804  17.221   6.150
  464POPS   C2B 7202   3.864  17.191   6.450
  464POPS   C3B 7203   3.802  17.159   6.750
  464POPS   C4B 7204   3.800  17.219   7.050
  465POPS   CNO 7205   2.052   9.705   5.250
  465POPS   PO4 7206   2.067   9.681   5.550
  465POPS   GL1 7207   2.001   9.618   5.850
  465POPS   GL2 7208   2.158   9.714   5.850
  465POPS   C1A 7209   2.065   9.616   6.150
  465POPS   D2A 7210   2.027   9.665   6.450
  465POPS   C3A 7211   2.008   9.674   6.750
  465POPS   C4A 7212   2.048   9.642   7.050
  465POPS   C1B 7213   2.308   9.770   6.150
  465POPS   C2B 7214   2.283   9.767   6.450
  465POPS   C3B 7215   2.291   9.771   6.750
  465POPS   C4B 7216   2.316   9.754   7.050
  466POPS   CNO 7217   0.434  13.514   5.250
  466POPS   PO4 7218   0.448  13.500   5.550
  466POPS   GL1 7219   0.492  13.482   5.850
  466POPS   GL2 7220   0.409  13.676   5.850
  466POPS   C1A 7221   0.440  13.551   6.150
  466POPS   D2A 7222   0.425  13.515   6.450
  466POPS   C3A 7223   0.421  13.476   6.750
  466POPS   C4A 7224   0.440  13.536   7.050
  466POPS   C1B 7225   0.397  13.729   6.150
  466POPS   C2B 7226   0.442  13.763   6.450
  466POPS   C3B 7227   0.370  13.726   6.750
  466POPS   C4B 7228   0.416  13.724   7.050
  467POPS   CNO 7229   5.275   8.130   5.250
  467POPS   PO4 7230   5.205   8.129   5.550
  467POPS   GL1 7231   5.262   8.110   5.850
  467POPS   GL2 7232   5.217   8.261   5.850
  467POPS   C1A 7233   5.291   8.151   6.150
  467POPS   D2A 7234   5.214   8.085   6.450
  467POPS   C3A 7235   5.202   8.126   6.750
  467POPS   C4A 7236   5.213   8.149   7.050
  467POPS   C1B 7237   5.261   8.346   6.150
  467POPS   C2B 7238   5.239   8.341   6.450
  467POPS   C3B 7239   5.238   8.401   6.750
  467POPS   C4B 7240   5.240   8.383   7.050
  468POPS   CNO 7241   6.096  17.382   5.250
  468POPS   PO4 7242   6.021  17.370   5.550
  468POPS   GL1 7243   6.008  17.332   5.850
  468POPS   GL2 7244   6.087  17.419   5.850
  468POPS   C1A 7245   6.024  17.375   6.150
  468POPS   D2A 7246   6.033  17.388   6.450
  468POPS   C3A 7247   6.064  17.386   6.750
  468POPS   C4A 7248   6.096  17.381   7.050
  468POPS   C1B 7249   6.217  17.574   6.150
  468POPS   C2B 7250   6.241  17.582   6.450
  468POPS   C3B 7251   6.174  17.520   6.750
  468POPS   C4B 7252   6.199  17.565   7.050
  469YOPS   CNO 7253  11.663  15.794   5.250
  469YOPS   PO4 7254  11.699  15.782   5.550
  469YOPS   GL1 7255  11.644  15.864   5.850
  469YOPS   GL2 7256  11.657  15.689   5.850
  469YOPS   C1A 7257  11.632  15.861   6.150
  469YOPS   D2A 7258  11.673  15.791   6.450
  469YOPS   C3A 7259  11.671  15.828   6.750
  469YOPS   C4A 7260  11.603  15.831   7.050
  469YOPS   C1B 7261  11.753  15.553   6.150
  469YOPS   C2B 7262  11.705  15.622   6.450
  469YOPS   D3B 7263  11.731  15.622   6.750
  469YOPS   C4B 7264  11.781  15.564   7.050
  470YOPS   CNO 7265   6.009   8.874   5.250
  470YOPS   PO4 7266   6.052   8.870   5.550
  470YOPS   GL1 7267   6.050   8.913   5.850
  470YOPS   GL2 7268   6.005   8.758   5.850
  470YOPS   C1A 7269   6.087   8.906   6.150
  470YOPS   D2A 7270   6.008   8.914   6.450
  470YOPS   C3A 7271   6.002   8.914   6.750
  470YOPS   C4A 7272   6.098   8.890   7.050
  470YOPS   C1B 7273   5.947   8.683   6.150
  470YOPS   C2B 7274   6.018   8.664   6.450
  470YOPS   D3B 7275   5.951   8.662   6.750
  470YOPS   C4B 7276   6.022   8.671   7.050
  471YOPS   CNO 7277  10.847   1.945   5.250
  471YOPS   PO4 7278  10.832   1.977   5.550
  471YOPS   GL1 7279  10.851   1.968   5.850
  471YOPS   GL2 7280  10.768   1.985   5.850
  471YOPS   C1A 7281  10.898   2.021   6.150
  471YOPS   D2A 7282  10.870   2.020   6.450
  471YOPS   C3A 7283  10.843   1.994   6.750
  471YOPS   C4A 7284  10.826   1.978   7.050
  471YOPS   C1B 7285  10.647   1.909   6.150
  471YOPS   C2B 7286  10.625   1.993   6.450
  471YOPS   D3B 7287  10.608   1.949   6.750
  471YOPS   C4B 7288  10.567   1.958   7.050
  472YOPS   CNO 7289   0.463  12.016   5.250
  472YOPS   PO4 7290   0.405  12.000   5.550
  472YOPS   GL1 7291   0.425  11.940   5.850
  472YOPS   GL2 7292   0.422  12.104   5.850
  472YOPS   C1A 7293   0.415  12.004   6.150
  472YOPS   D2A 7294   0.497  11.949   6.450
  472YOPS   C3A 7295   0.495  11.972   6.750
  472YOPS   C4A 7296   0.412  12.018   7.050
  472YOPS   C1B 7297   0.460  12.185   6.150
  472YOPS   C2B 7298   0.485  12.216   6.450
  472YOPS   D3B 7299   0.490  12.210   6.750
  472YOPS   C4B 7300   0.498  12.240   7.050
  473YOPS   CNO 7301   3.695   2.694   5.250
  473YOPS   PO4 7302   3.608   2.716   5.550
  473YOPS   GL1 7303   3.661   2.747   5.850
  473YOPS   GL2 7304   3.608   2.659   5.850
  473YOPS   C1A 7305   3.664   2.766   6.150
  473YOPS   D2A 7306   3.657   2.763   6.450
  473YOPS   C3A 7307   3.686   2.734   6.750
  473YOPS   C4A 7308   3.653   2.792   7.050
  473YOPS   C1B 7309   3.519   2.563   6.150
  473YOPS   C2B 7310   3.498   2.521   6.450
  473YOPS   D3B 7311   3.500   2.548   6.750
  473YOPS   C4B 7312   3.465   2.505   7.050
  474YOPS   CNO 7313  11.662   0.461   5.250
  474YOPS   PO4 7314  11.649   0.461   5.550
  474YOPS   GL1 7315  11.676   0.425   5.850
  474YOPS   GL2 7316  11.500   0.463   5.850
  474YOPS   C1A 7317  11.693   0.394   6.150
  474YOPS   D2A 7318  11.692   0.401   6.450
  474YOPS   C3A 7319  11.674   0.477   6.750
  474YOPS   C4A 7320  11.698   0.474   7.050
  474YOPS   C1B 7321  11.443   0.435   6.150
  474YOPS   C2B 7322  11.375   0.459   6.450
  474YOPS   D3B 7323  11.441   0.442   6.750
  474YOPS   C4B 7324  11.413   0.458   7.050
  475YOPS   CNO 7325  11.623   8.916   5.250
  475YOPS   PO4 7326  11.687   8.860   5.550
  475YOPS   GL1 7327  11.696   8.876   5.850
  475YOPS   GL2 7328  11.573   9.007   5.850
  475YOPS   C1A 7329  11.605   8.878   6.150
  475YOPS   D2A 7330  11.619   8.934   6.450
  475YOPS   C3A 7331  11.668   8.924   6.750
  475YOPS   C4A 7332  11.661   8.943   7.050
  475YOPS   C1B 7333  11.556   9.133   6.150
  475YOPS   C2B 7334  11.560   9.151   6.450
  475YOPS   D3B 7335  11.543   9.121   6.750
  475YOPS   C4B 7336  11.529   9.154   7.050
  476YOPS   CNO 7337   2.809  13.533   5.250
  476YOPS   PO4 7338   2.824  13.483   5.550
  476YOPS   GL1 7339   2.867  13.501   5.850
  476YOPS   GL2 7340   2.772  13.436   5.850
  476YOPS   C1A 7341   2.836  13.536   6.150
  476YOPS   D2A 7342   2.874  13.552   6.450
  476YOPS   C3A 7343   2.818  13.471   6.750
  476YOPS   C4A 7344   2.848  13.549   7.050
  476YOPS   C1B 7345   2.627  13.314   6.150
  476YOPS   C2B 7346   2.627  13.302   6.450
  476YOPS   D3B 7347   2.632  13.320   6.750
  476YOPS   C4B 7348   2.706  13.339   7.050
  477YOPS   CNO 7349   1.251  11.164   5.250
  477YOPS   PO4 7350   1.286  11.186   5.550
  477YOPS   GL1 7351   1.236  11.200   5.850
  477YOPS   GL2 7352   1.255  11.330   5.850
  477YOPS   C1A 7353   1.298  11.165   6.150
  477YOPS   D2A 7354   1.291  11.207   6.450
  477YOPS   C3A 7355   1.264  11.186   6.750
  477YOPS   C4A 7356   1.254  11.248   7.050
  477YOPS   C1B 7357   1.132  11.482   6.150
  477YOPS   C2B 7358   1.173  11.430   6.450
  477YOPS   D3B 7359   1.203  11.449   6.750
  477YOPS   C4B 7360   1.116  11.455   7.050
  478YOPS   CNO 7361   6.014   5.779   5.250
  478YOPS   PO4 7362   6.094   5.773   5.550
  478YOPS   GL1 7363   6.011   5.859   5.850
  478YOPS   GL2 7364   5.992   5.674   5.850
  478YOPS   C1A 7365   6.066   5.795   6.150
  478YOPS   D2A 7366   6.079   5.793   6.450
  478YOPS   C3A 7367   6.080   5.779   6.750
  478YOPS   C4A 7368   6.003   5.846   7.050
  478YOPS   C1B 7369   6.014   5.588   6.150
  478YOPS   C2B 7370   6.014   5.587   6.450
  478YOPS   D3B 7371   5.996   5.530   6.750
  478YOPS   C4B 7372   5.966   5.611   7.050
  479YOPS   CNO 7373   1.269  12.721   5.250
  479YOPS   PO4 7374   1.283  12.695   5.550
  479YOPS   GL1 7375   1.255  12.762   5.850
  479YOPS   GL2 7376   1.334  12.769   5.850
  479YOPS   C1A 7377   1.275  12.710   6.150
  479YOPS   D2A 7378   1.252  12.783   6.450
  479YOPS   C3A 7379   1.203  12.763   6.750
  479YOPS   C4A 7380   1.271  12.714   7.050
  479YOPS   C1B 7381   1.503  12.778   6.150
  479YOPS   C2B 7382   1.475  12.772   6.450
  479YOPS   D3B 7383   1.477  12.737   6.750
  479YOPS   C4B 7384   1.494  12.711   7.050
  480YOPS   CNO 7385   3.676  18.101   5.250
  480YOPS   PO4 7386   3.686  18.100   5.550
  480YOPS   GL1 7387   3.624  18.151   5.850
  480YOPS   GL2 7388   3.677  18.060   5.850
  480YOPS   C1A 7389   3.600  18.131   6.150
  480YOPS   D2A 7390   3.660  18.114   6.450
  480YOPS   C3A 7391   3.674  18.102   6.750
  480YOPS   C4A 7392   3.667  18.170   7.050
  480YOPS   C1B 7393   3.784  17.852   6.150
  480YOPS   C2B 7394   3.725  17.921   6.450
  480YOPS   D3B 7395   3.759  17.852   6.750
  480YOPS   C4B 7396   3.781  17.931   7.050
  481YOPS   CNO 7397   2.851   2.742   5.250
  481YOPS   PO4 7398   2.851   2.771   5.550
  481YOPS   GL1 7399   2.889   2.788   5.850
  481YOPS   GL2 7400   2.918   2.715   5.850
  481YOPS   C1A 7401   2.896   2.699   6.150
  481YOPS   D2A 7402   2.861   2.722   6.450
  481YOPS   C3A 7403   2.821   2.770   6.750
  481YOPS   C4A 7404   2.844   2.746   7.050
  481YOPS   C1B 7405   3.019   2.560   6.150
  481YOPS   C2B 7406   3.080   2.566   6.450
  481YOPS   D3B 7407   3.040   2.647   6.750
  481YOPS   C4B 7408   3.020   2.559   7.050
  482YOPS   CNO 7409   6.053  12.019   5.250
  482YOPS   PO4 7410   6.052  11.945   5.550
  482YOPS   GL1 7411   6.078  11.990   5.850
  482YOPS   GL2 7412   6.021  12.074   5.850
  482YOPS   C1A 7413   6.062  11.999   6.150
  482YOPS   D2A 7414   6.048  11.934   6.450
  482YOPS   C3A 7415   6.031  12.010   6.750
  482YOPS   C4A 7416   6.049  11.958   7.050
  482YOPS   C1B 7417   5.897  12.150   6.150
  482YOPS   C2B 7418   5.906  12.188   6.450
  482YOPS   D3B 7419   5.969  12.145   6.750
  482YOPS   C4B 7420   5.911  12.228   7.050
  483YOPS   CNO 7421  11.695  11.977   5.250
  483YOPS   PO4 7422  11.621  11.968   5.550
  483YOPS   GL1 7423  11.699  12.000   5.850
  483YOPS   GL2 7424  11.581  12.122   5.850
  483YOPS   C1A 7425  11.698  11.965   6.150
  483YOPS   D2A 7426  11.680  11.971   6.450
  483YOPS   C3A 7427  11.610  11.964   6.750
  483YOPS   C4A 7428  11.691  11.936   7.050
  483YOPS   C1B 7429  11.575  12.150   6.150
  483YOPS   C2B 7430  11.548  12.198   6.450
  483YOPS   D3B 7431  11.507  12.200   6.750
  483YOPS   C4B 7432  11.548  12.196   7.050
  484YOPS   CNO 7433   3.663  15.776   5.250
  484YOPS   PO4 7434   3.652  15.839   5.550
  484YOPS   GL1 7435   3.692  15.780   5.850
  484YOPS   GL2 7436   3.804  15.774   5.850
  484YOPS   C1A 7437   3.682  15.815   6.150
  484YOPS   D2A 7438   3.609  15.801   6.450
  484YOPS   C3A 7439   3.691  15.808   6.750
  484YOPS   C4A 7440   3.614  15.855   7.050
  484YOPS   C1B 7441   3.934  15.796   6.150
  484YOPS   C2B 7442   3.914  15.782   6.450
  484YOPS   D3B 7443   3.857  15.763   6.750
  484YOPS   C4B 7444   3.849  15.766   7.050
  485YOPS   CNO 7445  10.088   9.650   5.250
  485YOPS   PO4 7446  10.068   9.625   5.550
  485YOPS   GL1 7447  10.038   9.656   5.850
  485YOPS   GL2 7448  10.204   9.716   5.850
  485YOPS   C1A 7449  10.072   9.700   6.150
  485YOPS   D2A 7450  10.078   9.645   6.450
  485YOPS   C3A 7451  10.010   9.676   6.750
  485YOPS   C4A 7452  10.013   9.678   7.050
  485YOPS   C1B 7453  10.260   9.784   6.150
  485YOPS   C2B 7454  10.331   9.723   6.450
  485YOPS   D3B 7455  10.239   9.750   6.750
  485YOPS   C4B 7456  10.276   9.741   7.050
  486POPE   NH3 7457   3.647  18.890   5.250
  486POPE   PO4 7458   3.655  18.915   5.550
  486POPE   GL1 7459   3.682  18.884   5.850
  486POPE   GL2 7460   3.668  19.009   5.850
  486POPE   C1A 7461   3.605  18.904   6.150
  486POPE   D2A 7462   3.666  18.887   6.450
  486POPE   C3A 7463   3.676  18.929   6.750
  486POPE   C4A 7464   3.674  18.939   7.050
  486POPE   C1B 7465   3.737  19.146   6.150
  486POPE   C2B 7466   3.706  19.109   6.450
  486POPE   C3B 7467   3.711  19.143   6.750
  486POPE   C4B 7468   3.690  19.130   7.050
  487POPE   NH3 7469   3.622  16.592   5.250
  487POPE   PO4 7470   3.684  16.599   5.550
  487POPE   GL1 7471   3.609  16.617   5.850
  487POPE   GL2 7472   3.685  16.479   5.850
  487POPE   C1A 7473   3.659  16.550   6.150
  487POPE   D2A 7474   3.684  16.541   6.450
  487POPE   C3A 7475   3.667  16.605   6.750
  487POPE   C4A 7476   3.609  16.543   7.050
  487POPE   C1B 7477   3.645  16.338   6.150
  487POPE   C2B 7478   3.636  16.342   6.450
  487POPE   C3B 7479   3.662  16.307   6.750
  487POPE   C4B 7480   3.656  16.357   7.050
  488POPE   NH3 7481  10.052  15.038   5.250
  488POPE   PO4 7482  10.058  15.042   5.550
  488POPE   GL1 7483  10.002  15.027   5.850
  488POPE   GL2 7484  10.060  14.878   5.850
  488POPE   C1A 7485  10.031  15.086   6.150
  488POPE   D2A 7486  10.050  15.048   6.450
  488POPE   C3A 7487  10.024  15.012   6.750
  488POPE   C4A 7488  10.021  15.003   7.050
  488POPE   C1B 7489  10.079  14.788   6.150
  488POPE   C2B 7490  10.141  14.816   6.450
  488POPE   C3B 7491  10.099  14.798   6.750
  488POPE   C4B 7492  10.138  14.821   7.050
  489POPE   NH3 7493   0.468  14.284   5.250
  489POPE   PO4 7494   0.469  14.257   5.550
  489POPE   GL1 7495   0.452  14.315   5.850
  489POPE   GL2 7496   0.324  14.260   5.850
  489POPE   C1A 7497   0.490  14.282   6.150
  489POPE   D2A 7498   0.474  14.258   6.450
  489POPE   C3A 7499   0.471  14.288   6.750
  489POPE   C4A 7500   0.407  14.281   7.050
  489POPE   C1B 7501   0.191  14.160   6.150
  489POPE   C2B 7502   0.176  14.149   6.450
  489POPE   C3B 7503   0.193  14.213   6.750
  489POPE   C4B 7504   0.212  14.163   7.050
  490POPE   NH3 7505  10.877   4.256   5.250
  490POPE   PO4 7506  10.835   4.309   5.550
  490POPE   GL1 7507  10.898   4.284   5.850
  490POPE   GL2 7508  10.820   4.361   5.850
  490POPE   C1A 7509  10.827   4.241   6.150
  490POPE   D2A 7510  10.833   4.323   6.450
  490POPE   C3A 7511  10.879   4.234   6.750
  490POPE   C4A 7512  10.822   4.308   7.050
  490POPE   C1B 7513  10.657   4.505   6.150
  490POPE   C2B 7514  10.721   4.508   6.450
  490POPE   C3B 7515  10.656   4.529   6.750
  490POPE   C4B 7516  10.692   4.445   7.050
  491POPE   NH3 7517   5.211  17.373   5.250
  491POPE   PO4 7518   5.243  17.308   5.550
  491POPE   GL1 7519   5.241  17.334   5.850
  491POPE   GL2 7520   5.090  17.413   5.850
  491POPE   C1A 7521   5.283  17.395   6.150
  491POPE   D2A 7522   5.245  17.358   6.450
  491POPE   C3A 7523   5.210  17.358   6.750
  491POPE   C4A 7524   5.282  17.364   7.050
  491POPE   C1B 7525   4.968  17.438   6.150
  491POPE   C2B 7526   4.968  17.373   6.450
  491POPE   C3B 7527   5.012  17.441   6.750
  491POPE   C4B 7528   5.025  17.413   7.050
  492POPE   NH3 7529   7.637  11.927   5.250
  492POPE   PO4 7530   7.682  11.994   5.550
  492POPE   GL1 7531   7.679  11.996   5.850
  492POPE   GL2 7532   7.776  11.906   5.850
  492POPE   C1A 7533   7.601  11.995   6.150
  492POPE   D2A 7534   7.624  12.014   6.450
  492POPE   C3A 7535   7.608  11.938   6.750
  492POPE   C4A 7536   7.600  11.939   7.050
  492POPE   C1B 7537   7.940  11.924   6.150
  492POPE   C2B 7538   7.893  11.936   6.450
  492POPE   C3B 7539   7.870  11.898   6.750
  492POPE   C4B 7540   7.897  11.862   7.050
  493POPE   NH3 7541   2.019  15.793   5.250
  493POPE   PO4 7542   2.080  15.833   5.550
  493POPE   GL1 7543   2.055  15.867   5.850
  493POPE   GL2 7544   1.978  15.955   5.850
  493POPE   C1A 7545   2.032  15.859   6.150
  493POPE   D2A 7546   2.081  15.846   6.450
  493POPE   C3A 7547   2.078  15.795   6.750
  493POPE   C4A 7548   2.061  15.797   7.050
  493POPE   C1B 7549   1.964  16.039   6.150
  493POPE   C2B 7550   1.923  16.033   6.450
  493POPE   C3B 7551   1.929  16.103   6.750
  493POPE   C4B 7552   1.929  16.066   7.050
  494POPE   NH3 7553   9.200  11.946   5.250
  494POPE   PO4 7554   9.237  11.953   5.550
  494POPE   GL1 7555   9.282  12.020   5.850
  494POPE   GL2 7556   9.322  11.894   5.850
  494POPE   C1A 7557   9.280  11.934   6.150
  494POPE   D2A 7558   9.210  11.979   6.450
  494POPE   C3A 7559   9.208  11.990   6.750
  494POPE   C4A 7560   9.222  11.988   7.050
  494POPE   C1B 7561   9.369  11.774   6.150
  494POPE   C2B 7562   9.381  11.741   6.450
  494POPE   C3B 7563   9.350  11.785   6.750
  494POPE   C4B 7564   9.412  11.765   7.050
  495POPE   NH3 7565   5.289  11.237   5.250
  495POPE   PO4 7566   5.205  11.202   5.550
  495POPE   GL1 7567   5.293  11.230   5.850
  495POPE   GL2 7568   5.295  11.290   5.850
  495POPE   C1A 7569   5.295  11.199   6.150
  495POPE   D2A 7570   5.223  11.246   6.450
  495POPE   C3A 7571   5.238  11.215   6.750
  495POPE   C4A 7572   5.248  11.246   7.050
  495POPE   C1B 7573   5.319  11.412   6.150
  495POPE   C2B 7574   5.400  11.408   6.450
  495POPE   C3B 7575   5.352  11.407   6.750
  495POPE   C4B 7576   5.413  11.475   7.050
  496POPE   NH3 7577   3.609   1.186   5.250
  496POPE   PO4 7578   3.605   1.201   5.550
  496POPE   GL1 7579   3.640   1.234   5.850
  496POPE   GL2 7580   3.568   1.271   5.850
  496POPE   C1A 7581   3.672   1.184   6.150
  496POPE   D2A 7582   3.607   1.221   6.450
  496POPE   C3A 7583   3.621   1.165   6.750
  496POPE   C4A 7584   3.610   1.219   7.050
  496POPE   C1B 7585   3.383   1.326   6.150
  496POPE   C2B 7586   3.445   1.319   6.450
  496POPE   C3B 7587   3.374   1.339   6.750
  496POPE   C4B 7588   3.381   1.273   7.050
  497POPE   NH3 7589   9.210  16.622   5.250
  497POPE   PO4 7590   9.220  16.573   5.550
  497POPE   GL1 7591   9.214  16.569   5.850
  497POPE   GL2 7592   9.117  16.687   5.850
  497POPE   C1A 7593   9.220  16.586   6.150
  497POPE   D2A 7594   9.261  16.556   6.450
  497POPE   C3A 7595   9.252  16.606   6.750
  497POPE   C4A 7596   9.242  16.624   7.050
  497POPE   C1B 7597   8.986  16.719   6.150
  497POPE   C2B 7598   9.040  16.680   6.450
  497POPE   C3B 7599   8.979  16.666   6.750
  497POPE   C4B 7600   9.010  16.688   7.050
  498POPE   NH3 7601   9.233  11.247   5.250
  498POPE   PO4 7602   9.270  11.179   5.550
  498POPE   GL1 7603   9.246  11.199   5.850
  498POPE   GL2 7604   9.257  11.284   5.850
  498POPE   C1A 7605   9.217  11.196   6.150
  498POPE   D2A 7606   9.294  11.167   6.450
  498POPE   C3A 7607   9.233  11.198   6.750
  498POPE   C4A 7608   9.211  11.230   7.050
  498POPE   C1B 7609   9.221  11.491   6.150
  498POPE   C2B 7610   9.297  11.489   6.450
  498POPE   C3B 7611   9.208  11.454   6.750
  498POPE   C4B 7612   9.260  11.435   7.050
  499POPE   NH3 7613   2.073  11.976   5.250
  499POPE   PO4 7614   2.043  11.966   5.550
  499POPE   GL1 7615   2.018  12.018   5.850
  499POPE   GL2 7616   2.118  12.090   5.850
  499POPE   C1A 7617   2.069  11.967   6.150
  499POPE   D2A 7618   2.022  11.958   6.450
  499POPE   C3A 7619   2.071  11.972   6.750
  499POPE   C4A 7620   2.040  11.982   7.050
  499POPE   C1B 7621   2.087  12.259   6.150
  499POPE   C2B 7622   2.107  12.239   6.450
  499POPE   C3B 7623   2.078  12.230   6.750
  499POPE   C4B 7624   2.115  12.208   7.050
  500POPE   NH3 7625   9.205  14.328   5.250
  500POPE   PO4 7626   9.201  14.261   5.550
  500POPE   GL1 7627   9.212  14.331   5.850
  500POPE   GL2 7628   9.113  14.416   5.850
  500POPE   C1A 7629   9.221  14.307   6.150
  500POPE   D2A 7630   9.272  14.271   6.450
  500POPE   C3A 7631   9.205  14.278   6.750
  500POPE   C4A 7632   9.245  14.241   7.050
  500POPE   C1B 7633   9.052  14.459   6.150
  500POPE   C2B 7634   9.079  14.452   6.450
  500POPE   C3B 7635   9.054  14.424   6.750
  500POPE   C4B 7636   9.029  14.436   7.050
  501POPE   NH3 7637   5.293  11.945   5.250
  501POPE   PO4 7638   5.291  11.954   5.550
  501POPE   GL1 7639   5.236  11.955   5.850
  501POPE   GL2 7640   5.133  11.820   5.850
  501POPE   C1A 7641   5.265  11.978   6.150
  501POPE   D2A 7642   5.279  12.015   6.450
  501POPE   C3A 7643   5.278  11.953   6.750
  501POPE   C4A 7644   5.241  11.962   7.050
  501POPE   C1B 7645   5.121  11.771   6.150
  501POPE   C2B 7646   5.135  11.796   6.450
  501POPE   C3B 7647   5.132  11.723   6.750
  501POPE   C4B 7648   5.158  11.759   7.050
  502POPE   NH3 7649   2.058   5.858   5.250
  502POPE   PO4 7650   2.052   5.860   5.550
  502POPE   GL1 7651   2.071   5.806   5.850
  502POPE   GL2 7652   1.987   5.769   5.850
  502POPE   C1A 7653   2.007   5.823   6.150
  502POPE   D2A 7654   2.024   5.786   6.450
  502POPE   C3A 7655   2.018   5.835   6.750
  502POPE   C4A 7656   2.000   5.834   7.050
  502POPE   C1B 7657   1.845   5.597   6.150
  502POPE   C2B 7658   1.856   5.659   6.450
  502POPE   C3B 7659   1.902   5.643   6.750
  502POPE   C4B 7660   1.902   5.635   7.050
  503YOPE   NH3 7661  11.685  11.163   5.250
  503YOPE   PO4 7662  11.690  11.249   5.550
  503YOPE   GL1 7663  11.603  11.155   5.850
  503YOPE   GL2 7664  11.568  11.145   5.850
  503YOPE   C1A 7665  11.658  11.238   6.150
  503YOPE   D2A 7666  11.613  11.243   6.450
  503YOPE   C3A 7667  11.680  11.181   6.750
  503YOPE   C4A 7668  11.633  11.188   7.050
  503YOPE   C1B 7669  11.468  11.038   6.150
  503YOPE   C2B 7670  11.494  11.057   6.450
  503YOPE   D3B 7671  11.458  11.045   6.750
  503YOPE   C4B 7672  11.437  11.026   7.050
  504YOPE   NH3 7673   6.839  15.078   5.250
  504YOPE   PO4 7674   6.878  15.057   5.550
  504YOPE   GL1 7675   6.805  15.032   5.850
  504YOPE   GL2 7676   6.767  15.034   5.850
  504YOPE   C1A 7677   6.811  15.030   6.150
  504YOPE   D2A 7678   6.806  15.044   6.450
  504YOPE   C3A 7679   6.803  15.036   6.750
  504YOPE   C4A 7680   6.889  15.069   7.050
  504YOPE   C1B 7681   6.635  15.118   6.150
  504YOPE   C2B 7682   6.595  15.051   6.450
  504YOPE   D3B 7683   6.646  15.052   6.750
  504YOPE   C4B 7684   6.625  15.084   7.050
  505YOPE   NH3 7685   2.869   9.684   5.250
  505YOPE   PO4 7686   2.814   9.691   5.550
  505YOPE   GL1 7687   2.821   9.684   5.850
  505YOPE   GL2 7688   2.914   9.715   5.850
  505YOPE   C1A 7689   2.830   9.647   6.150
  505YOPE   D2A 7690   2.852   9.676   6.450
  505YOPE   C3A 7691   2.892   9.619   6.750
  505YOPE   C4A 7692   2.804   9.706   7.050
  505YOPE   C1B 7693   2.993   9.814   6.150
  505YOPE   C2B 7694   3.070   9.885   6.450
  505YOPE   D3B 7695   3.013   9.857   6.750
  505YOPE   C4B 7696   2.989   9.861   7.050
  506YOPE   NH3 7697   7.695  10.406   5.250
  506YOPE   PO4 7698   7.662  10.403   5.550
  506YOPE   GL1 7699   7.632  10.445   5.850
  506YOPE   GL2 7700   7.500  10.442   5.850
  506YOPE   C1A 7701   7.661  10.446   6.150
  506YOPE   D2A 7702   7.671  10.442   6.450
  506YOPE   C3A 7703   7.614  10.456   6.750
  506YOPE   C4A 7704   7.694  10.394   7.050
  506YOPE   C1B 7705   7.396  10.360   6.150
  506YOPE   C2B 7706   7.365  10.344   6.450
  506YOPE   D3B 7707   7.414  10.354   6.750
  506YOPE   C4B 7708   7.402  10.328   7.050
  507YOPE   NH3 7709   2.072  14.284   5.250
  507YOPE   PO4 7710   2.096  14.311   5.550
  507YOPE   GL1 7711   2.019  14.307   5.850
  507YOPE   GL2 7712   2.115  14.310   5.850
  507YOPE   C1A 7713   2.058  14.238   6.150
  507YOPE   D2A 7714   2.037  14.314   6.450
  507YOPE   C3A 7715   2.053  14.258   6.750
  507YOPE   C4A 7716   2.054  14.255   7.050
  507YOPE   C1B 7717   2.286  14.412   6.150
  507YOPE   C2B 7718   2.240  14.419   6.450
  507YOPE   D3B 7719   2.236  14.358   6.750
  507YOPE   C4B 7720   2.306  14.447   7.050
  508YOPE   NH3 7721  10.820  19.664   5.250
  508YOPE   PO4 7722  10.841  19.686   5.550
  508YOPE   GL1 7723  10.861  19.664   5.850
  508YOPE   GL2 7724  10.951  19.563   5.850
  508YOPE   C1A 7725  10.841  19.641   6.150
  508YOPE   D2A 7726  10.863  19.639   6.450
  508YOPE   C3A 7727  10.826  19.647   6.750
  508YOPE   C4A 7728  10.857  19.617   7.050
  508YOPE   C1B 7729  11.026  19.504   6.150
  508YOPE   C2B 7730  11.067  19.481   6.450
  508YOPE   D3B 7731  11.010  19.513   6.750
  508YOPE   C4B 7732  11.071  19.496   7.050
  509YOPE   NH3 7733   9.276  18.900   5.250
  509YOPE   PO4 7734   9.299  18.848   5.550
  509YOPE   GL1 7735   9.202  18.869   5.850
  509YOPE   GL2 7736   9.187  19.035   5.850
  509YOPE   C1A 7737   9.206  18.906   6.150
  509YOPE   D2A 7738   9.213  18.859   6.450
  509YOPE   C3A 7739   9.201  18.884   6.750
  509YOPE   C4A 7740   9.204  18.905   7.050
  509YOPE   C1B 7741   9.115  19.106   6.150
  509YOPE   C2B 7742   9.105  19.131   6.450
  509YOPE   D3B 7743   9.156  19.081   6.750
  509YOPE   C4B 7744   9.098  19.064   7.050
  510YOPE   NH3 7745   5.278  14.274   5.250
  510YOPE   PO4 7746   5.232  14.304   5.550
  510YOPE   GL1 7747   5.232  14.319   5.850
  510YOPE   GL2 7748   5.416  14.252   5.850
  510YOPE   C1A 7749   5.223  14.282   6.150
  510YOPE   D2A 7750   5.275  14.311   6.450
  510YOPE   C3A 7751   5.203  14.246   6.750
  510YOPE   C4A 7752   5.275  14.324   7.050
  510YOPE   C1B 7753   5.537  14.206   6.150
  510YOPE   C2B 7754   5.468  14.252   6.450
  510YOPE   D3B 7755   5.499  14.253   6.750
  510YOPE   C4B 7756   5.524  14.241   7.050
  511YOPE   NH3 7757  10.050   3.509   5.250
  511YOPE   PO4 7758  10.003   3.505   5.550
  511YOPE   GL1 7759  10.074   3.479   5.850
  511YOPE   GL2 7760  10.028   3.633   5.850
  511YOPE   C1A 7761  10.052   3.519   6.150
  511YOPE   D2A 7762  10.076   3.470   6.450
  511YOPE   C3A 7763  10.018   3.514   6.750
  511YOPE   C4A 7764  10.065   3.508   7.050
  511YOPE   C1B 7765   9.963   3.724   6.150
  511YOPE   C2B 7766   9.975   3.686   6.450
  511YOPE   D3B 7767   9.956   3.762   6.750
  511YOPE   C4B 7768   9.949   3.758   7.050
  512YOPE   NH3 7769   6.889  13.490   5.250
  512YOPE   PO4 7770   6.815  13.479   5.550
  512YOPE   GL1 7771   6.863  13.495   5.850
  512YOPE   GL2 7772   6.986  13.387   5.850
  512YOPE   C1A 7773   6.900  13.482   6.150
  512YOPE   D2A 7774   6.817  13.547   6.450
  512YOPE   C3A 7775   6.892  13.533   6.750
  512YOPE   C4A 7776   6.802  13.484   7.050
  512YOPE   C1B 7777   7.008  13.357   6.150
  512YOPE   C2B 7778   7.012  13.320   6.450
  512YOPE   D3B 7779   7.075  13.343   6.750
  512YOPE   C4B 7780   7.058  13.363   7.050
  513YOPE   NH3 7781  10.037  12.750   5.250
  513YOPE   PO4 7782  10.053  12.696   5.550
  513YOPE   GL1 7783  10.080  12.753   5.850
  513YOPE   GL2 7784   9.994  12.628   5.850
  513YOPE   C1A 7785  10.085  12.704   6.150
  513YOPE   D2A 7786  10.065  12.748   6.450
  513YOPE   C3A 7787  10.052  12.735   6.750
  513YOPE   C4A 7788  10.039  12.761   7.050
  513YOPE   C1B 7789   9.964  12.535   6.150
  513YOPE   C2B 7790   9.983  12.540   6.450
  513YOPE   D3B 7791  10.002  12.486   6.750
  513YOPE   C4B 7792   9.939  12.464   7.050
  514YOPE   NH3 7793   2.804   8.883   5.250
  514YOPE   PO4 7794   2.810   8.886   5.550
  514YOPE   GL1 7795   2.855   8.879   5.850
  514YOPE   GL2 7796   2.779   8.766   5.850
  514YOPE   C1A 7797   2.894   8.871   6.150
  514YOPE   D2A 7798   2.839   8.869   6.450
  514YOPE   C3A 7799   2.817   8.851   6.750
  514YOPE   C4A 7800   2.871   8.920   7.050
  514YOPE   C1B 7801   2.617   8.759   6.150
  514YOPE   C2B 7802   2.714   8.754   6.450
  514YOPE   D3B 7803   2.644   8.698   6.750
  514YOPE   C4B 7804   2.672   8.732   7.050
  515YOPE   NH3 7805   2.875  11.979   5.250
  515YOPE   PO4 7806   2.874  11.989   5.550
  515YOPE   GL1 7807   2.819  11.964   5.850
  515YOPE   GL2 7808   2.946  11.920   5.850
  515YOPE   C1A 7809   2.817  11.946   6.150
  515YOPE   D2A 7810   2.838  11.968   6.450
  515YOPE   C3A 7811   2.882  11.983   6.750
  515YOPE   C4A 7812   2.807  11.977   7.050
  515YOPE   C1B 7813   3.050  11.963   6.150
  515YOPE   C2B 7814   3.134  12.000   6.450
  515YOPE   D3B 7815   3.094  11.929   6.750
  515YOPE   C4B 7816   3.107  11.996   7.050
  516YOPE   NH3 7817   2.814  15.825   5.250
  516YOPE   PO4 7818   2.897  15.808   5.550
  516YOPE   GL1 7819   2.858  15.805   5.850
  516YOPE   GL2 7820   2.948  15.813   5.850
  516YOPE   C1A 7821   2.868  15.796   6.150
  516YOPE   D2A 7822   2.875  15.787   6.450
  516YOPE   C3A 7823   2.837  15.772   6.750
  516YOPE   C4A 7824   2.850  15.831   7.050
  516YOPE   C1B 7825   3.063  15.877   6.150
  516YOPE   C2B 7826   3.066  15.792   6.450
  516YOPE   D3B 7827   3.130  15.824   6.750
  516YOPE   C4B 7828   3.101  15.820   7.050
  517YOPE   NH3 7829  11.696  14.257   5.250
  517YOPE   PO4 7830  11.618  14.275   5.550
  517YOPE   GL1 7831  11.668  14.259   5.850
  517YOPE   GL2 7832  11.672  14.212   5.850
  517YOPE   C1A 7833  11.649  14.282   6.150
  517YOPE   D2A 7834  11.671  14.284   6.450
  517YOPE   C3A 7835  11.672  14.306   6.750
  517YOPE   C4A 7836  11.651  14.300   7.050
  517YOPE   C1B 7837  11.718  14.024   6.150
  517YOPE   C2B 7838  11.797  14.031   6.450
  517YOPE   D3B 7839  11.759  14.018   6.750
  517YOPE   C4B 7840  11.765  14.023   7.050
  518YOPE   NH3 7841   4.415  18.177   5.250
  518YOPE   PO4 7842   4.410  18.131   5.550
  518YOPE   GL1 7843   4.459  18.090   5.850
  518YOPE   GL2 7844   4.580  18.077   5.850
  518YOPE   C1A 7845   4.498  18.096   6.150
  518YOPE   D2A 7846   4.436  18.116   6.450
  518YOPE   C3A 7847   4.448  18.133   6.750
  518YOPE   C4A 7848   4.442  18.077   7.050
  518YOPE   C1B 7849   4.646  18.073   6.150
  518YOPE   C2B 7850   4.715  18.053   6.450
  518YOPE   D3B 7851   4.739  18.057   6.750
  518YOPE   C4B 7852   4.683  18.058   7.050
  519YOPE   NH3 7853   9.272  12.712   5.250
  519YOPE   PO4 7854   9.265  12.749   5.550
  519YOPE   GL1 7855   9.217  12.782   5.850
  519YOPE   GL2 7856   9.300  12.631   5.850
  519YOPE   C1A 7857   9.237  12.726   6.150
  519YOPE   D2A 7858   9.228  12.697   6.450
  519YOPE   C3A 7859   9.265  12.697   6.750
  519YOPE   C4A 7860   9.216  12.710   7.050
  519YOPE   C1B 7861   9.340  12.539   6.150
  519YOPE   C2B 7862   9.318  12.462   6.450
  519YOPE   D3B 7863   9.363  12.537   6.750
  519YOPE   C4B 7864   9.308  12.532   7.050
  520YOPE   NH3 7865   6.045  13.523   5.250
  520YOPE   PO4 7866   6.027  13.504   5.550
  520YOPE   GL1 7867   6.091  13.477   5.850
  520YOPE   GL2 7868   6.181  13.457   5.850
  520YOPE   C1A 7869   6.083  13.547   6.150
  520YOPE   D2A 7870   6.001  13.540   6.450
  520YOPE   C3A 7871   6.027  13.480   6.750
  520YOPE   C4A 7872   6.039  13.528   7.050
  520YOPE   C1B 7873   6.297  13.478   6.150
  520YOPE   C2B 7874   6.326  13.434   6.450
  520YOPE   D3B 7875   6.285  13.456   6.750
  520YOPE   C4B 7876   6.326  13.404   7.050
  521YOPE   NH3 7877   7.635  13.480   5.250
  521YOPE   PO4 7878   7.607  13.512   5.550
  521YOPE   GL1 7879   7.637  13.483   5.850
  521YOPE   GL2 7880   7.658  13.408   5.850
  521YOPE   C1A 7881   7.632  13.480   6.150
  521YOPE   D2A 7882   7.679  13.489   6.450
  521YOPE   C3A 7883   7.650  13.505   6.750
  521YOPE   C4A 7884   7.627  13.525   7.050
  521YOPE   C1B 7885   7.594  13.268   6.150
  521YOPE   C2B 7886   7.621  13.262   6.450
  521YOPE   D3B 7887   7.544  13.229   6.750
  521YOPE   C4B 7888   7.581  13.227   7.050
  522YOPE   NH3 7889   3.616  13.496   5.250
  522YOPE   PO4 7890   3.678  13.511   5.550
  522YOPE   GL1 7891   3.622  13.483   5.850
  522YOPE   GL2 7892   3.575  13.606   5.850
  522YOPE   C1A 7893   3.682  13.522   6.150
  522YOPE   D2A 7894   3.635  13.487   6.450
  522YOPE   C3A 7895   3.632  13.559   6.750
  522YOPE   C4A 7896   3.639  13.515   7.050
  522YOPE   C1B 7897   3.468  13.689   6.150
  522YOPE   C2B 7898   3.471  13.667   6.450
  522YOPE   D3B 7899   3.452  13.620   6.750
  522YOPE   C4B 7900   3.425  13.622   7.050
  523YOPE   NH3 7901   6.862  18.167   5.250
  523YOPE   PO4 7902   6.819  18.131   5.550
  523YOPE   GL1 7903   6.886  18.167   5.850
  523YOPE   GL2 7904   6.791  18.036   5.850
  523YOPE   C1A 7905   6.818  18.145   6.150
  523YOPE   D2A 7906   6.891  18.167   6.450
  523YOPE   C3A 7907   6.864  18.169   6.750
  523YOPE   C4A 7908   6.835  18.149   7.050
  523YOPE   C1B 7909   6.700  17.951   6.150
  523YOPE   C2B 7910   6.638  17.933   6.450
  523YOPE   D3B 7911   6.625  17.998   6.750
  523YOPE   C4B 7912   6.660  17.973   7.050
  524YOPE   NH3 7913   5.287   3.468   5.250
  524YOPE   PO4 7914   5.262   3.481   5.550
  524YOPE   GL1 7915   5.261   3.554   5.850
  524YOPE   GL2 7916   5.297   3.346   5.850
  524YOPE   C1A 7917   5.271   3.508   6.150
  524YOPE   D2A 7918   5.208   3.507   6.450
  524YOPE   C3A 7919   5.275   3.497   6.750
  524YOPE   C4A 7920   5.296   3.518   7.050
  524YOPE   C1B 7921   5.306   3.213   6.150
  524YOPE   C2B 7922   5.280   3.283   6.450
  524YOPE   D3B 7923   5.248   3.275   6.750
  524YOPE   C4B 7924   5.220   3.231   7.050
  525YOPE   NH3 7925   8.404  17.314   5.250
  525YOPE   PO4 7926   8.404  17.317   5.550
  525YOPE   GL1 7927   8.486  17.378   5.850
  525YOPE   GL2 7928   8.385  17.276   5.850
  525YOPE   C1A 7929   8.431  17.406   6.150
  525YOPE   D2A 7930   8.446  17.383   6.450
  525YOPE   C3A 7931   8.407  17.309   6.750
  525YOPE   C4A 7932   8.455  17.368   7.050
  525YOPE   C1B 7933   8.285  17.139   6.150
  525YOPE   C2B 7934   8.267  17.188   6.450
  525YOPE   D3B 7935   8.258  17.161   6.750
  525YOPE   C4B 7936   8.257  17.210   7.050
  526YOPE   NH3 7937   4.411  10.389   5.250
  526YOPE   PO4 7938   4.409  10.391   5.550
  526YOPE   GL1 7939   4.474  10.434   5.850
  526YOPE   GL2 7940   4.427  10.518   5.850
  526YOPE   C1A 7941   4.431  10.408   6.150
  526YOPE   D2A 7942   4.454  10.427   6.450
  526YOPE   C3A 7943   4.493  10.424   6.750
  526YOPE   C4A 7944   4.455  10.428   7.050
  526YOPE   C1B 7945   4.388  10.703   6.150
  526YOPE   C2B 7946   4.362  10.648   6.450
  526YOPE   D3B 7947   4.398  10.683   6.750
  526YOPE   C4B 7948   4.348  10.712   7.050
  527YOPE   NH3 7949   8.442   5.796   5.250
  527YOPE   PO4 7950   8.497   5.846   5.550
  527YOPE   GL1 7951   8.476   5.827   5.850
  527YOPE   GL2 7952   8.383   5.659   5.850
  527YOPE   C1A 7953   8.448   5.782   6.150
  527YOPE   D2A 7954   8.422   5.805   6.450
  527YOPE   C3A 7955   8.443   5.840   6.750
  527YOPE   C4A 7956   8.486   5.861   7.050
  527YOPE   C1B 7957   8.391   5.573   6.150
  527YOPE   C2B 7958   8.374   5.576   6.450
  527YOPE   D3B 7959   8.382   5.599   6.750
  527YOPE   C4B 7960   8.384   5.596   7.050
  528YOPE   NH3 7961  10.829   0.469   5.250
  528YOPE   PO4 7962  10.869   0.449   5.550
  528YOPE   GL1 7963  10.846   0.439   5.850
  528YOPE   GL2 7964  10.906   0.569   5.850
  528YOPE   C1A 7965  10.849   0.461   6.150
  528YOPE   D2A 7966  10.819   0.432   6.450
  528YOPE   C3A 7967  10.801   0.460   6.750
  528YOPE   C4A 7968  10.831   0.438   7.050
  528YOPE   C1B 7969  10.873   0.657   6.150
  528YOPE   C2B 7970  10.879   0.733   6.450
  528YOPE   D3B 7971  10.896   0.639   6.750
  528YOPE   C4B 7972  10.867   0.729   7.050
  529YOPE   NH3 7973   8.432  19.637   5.250
  529YOPE   PO4 7974   8.491  19.654   5.550
  529YOPE   GL1 7975   8.459  19.677   5.850
  529YOPE   GL2 7976   8.387  19.528   5.850
  529YOPE   C1A 7977   8.411  19.673   6.150
  529YOPE   D2A 7978   8.433  19.690   6.450
  529YOPE   C3A 7979   8.450  19.645   6.750
  529YOPE   C4A 7980   8.487  19.621   7.050
  529YOPE   C1B 7981   8.303  19.447   6.150
  529YOPE   C2B 7982   8.305  19.456   6.450
  529YOPE   D3B 7983   8.315  19.402   6.750
  529YOPE   C4B 7984   8.347  19.476   7.050
  530YOPE   NH3 7985   8.484  12.699   5.250
  530YOPE   PO4 7986   8.467  12.739   5.550
  530YOPE   GL1 7987   8.403  12.773   5.850
  530YOPE   GL2 7988   8.496  12.635   5.850
  530YOPE   C1A 7989   8.425  12.737   6.150
  530YOPE   D2A 7990   8.477  12.711   6.450
  530YOPE   C3A 7991   8.417  12.747   6.750
  530YOPE   C4A 7992   8.416  12.786   7.050
  530YOPE   C1B 7993   8.548  12.504   6.150
  530YOPE   C2B 7994   8.580  12.532   6.450
  530YOPE   D3B 7995   8.589  12.531   6.750
  530YOPE   C4B 7996   8.545  12.568   7.050
  531YOPE   NH3 7997   2.097  17.372   5.250
  531YOPE   PO4 7998   2.081  17.400   5.550
  531YOPE   GL1 7999   2.033  17.309   5.850
  531YOPE   GL2 8000   2.145  17.432   5.850
  531YOPE   C1A 8001   2.059  17.387   6.150
  531YOPE   D2A 8002   2.080  17.315   6.450
  531YOPE   C3A 8003   2.037  17.308   6.750
  531YOPE   C4A 8004   2.035  17.313   7.050
  531YOPE   C1B 8005   2.278  17.390   6.150
  531YOPE   C2B 8006   2.278  17.409   6.450
  531YOPE   D3B 8007   2.324  17.438   6.750
  531YOPE   C4B 8008   2.261  17.432   7.050
  532YOPE   NH3 8009   9.239   5.081   5.250
  532YOPE   PO4 8010   9.255   5.076   5.550
  532YOPE   GL1 8011   9.279   5.093   5.850
  532YOPE   GL2 8012   9.146   4.936   5.850
  532YOPE   C1A 8013   9.270   5.021   6.150
  532YOPE   D2A 8014   9.264   5.057   6.450
  532YOPE   C3A 8015   9.287   5.051   6.750
  532YOPE   C4A 8016   9.200   5.019   7.050
  532YOPE   C1B 8017   9.057   4.903   6.150
  532YOPE   C2B 8018   9.076   4.951   6.450
  532YOPE   D3B 8019   9.037   4.921   6.750
  532YOPE   C4B 8020   9.044   4.918   7.050
  533YOPE   NH3 8021   6.082  19.672   5.250
  533YOPE   PO4 8022   6.090  19.669   5.550
  533YOPE   GL1 8023   6.038  19.714   5.850
  533YOPE   GL2 8024   6.000  19.598   5.850
  533YOPE   C1A 8025   6.082  19.646   6.150
  533YOPE   D2A 8026   6.004  19.681   6.450
  533YOPE   C3A 8027   6.020  19.629   6.750
  533YOPE   C4A 8028   6.067  19.702   7.050
  533YOPE   C1B 8029   5.973  19.420   6.150
  533YOPE   C2B 8030   5.947  19.441   6.450
  533YOPE   D3B 8031   5.920  19.439   6.750
  533YOPE   C4B 8032   5.953  19.413   7.050
  534YOPE   NH3 8033   0.459   5.092   5.250
  534YOPE   PO4 8034   0.459   5.003   5.550
  534YOPE   GL1 8035   0.412   5.013   5.850
  534YOPE   GL2 8036   0.353   5.127   5.850
  534YOPE   C1A 8037   0.436   5.064   6.150
  534YOPE   D2A 8038   0.405   5.072   6.450
  534YOPE   C3A 8039   0.450   5.022   6.750
  534YOPE   C4A 8040   0.473   5.047   7.050
  534YOPE   C1B 8041   0.286   5.257   6.150
  534YOPE   C2B 8042   0.328   5.284   6.450
  534YOPE   D3B 8043   0.250   5.287   6.750
  534YOPE   C4B 8044   0.294   5.281   7.050
  535YOPE   NH3 8045   6.845  10.451   5.250
  535YOPE   PO4 8046   6.824  10.410   5.550
  535YOPE   GL1 8047   6.816  10.455   5.850
  535YOPE   GL2 8048   6.943  10.357   5.850
  535YOPE   C1A 8049   6.844  10.441   6.150
  535YOPE   D2A 8050   6.881  10.416   6.450
  535YOPE   C3A 8051   6.883  10.417   6.750
  535YOPE   C4A 8052   6.860  10.392   7.050
  535YOPE   C1B 8053   7.034  10.244   6.150
  535YOPE   C2B 8054   7.045  10.234   6.450
  535YOPE   D3B 8055   7.044  10.194   6.750
  535YOPE   C4B 8056   6.977  10.273   7.050
  536YOPE   NH3 8057   2.842   5.849   5.250
  536YOPE   PO4 8058   2.811   5.857   5.550
  536YOPE   GL1 8059   2.801   5.779   5.850
  536YOPE   GL2 8060   2.856   5.990   5.850
  536YOPE   C1A 8061   2.808   5.806   6.150
  536YOPE   D2A 8062   2.824   5.833   6.450
  536YOPE   C3A 8063   2.854   5.847   6.750
  536YOPE   C4A 8064   2.895   5.786   7.050
  536YOPE   C1B 8065   2.836   6.070   6.150
  536YOPE   C2B 8066   2.804   6.028   6.450
  536YOPE   D3B 8067   2.879   6.047   6.750
  536YOPE   C4B 8068   2.829   6.051   7.050
  537YOPE   NH3 8069   7.696   9.651   5.250
  537YOPE   PO4 8070   7.682   9.705   5.550
  537YOPE   GL1 8071   7.607   9.639   5.850
  537YOPE   GL2 8072   7.564   9.684   5.850
  537YOPE   C1A 8073   7.633   9.668   6.150
  537YOPE   D2A 8074   7.611   9.686   6.450
  537YOPE   C3A 8075   7.655   9.657   6.750
  537YOPE   C4A 8076   7.618   9.643   7.050
  537YOPE   C1B 8077   7.447   9.652   6.150
  537YOPE   C2B 8078   7.438   9.634   6.450
  537YOPE   D3B 8079   7.395   9.587   6.750
  537YOPE   C4B 8080   7.454   9.598   7.050
  538YOPE   NH3 8081   4.459   5.051   5.250
  538YOPE   PO4 8082   4.405   5.012   5.550
  538YOPE   GL1 8083   4.427   5.023   5.850
  538YOPE   GL2 8084   4.337   5.128   5.850
  538YOPE   C1A 8085   4.494   5.074   6.150
  538YOPE   D2A 8086   4.438   5.069   6.450
  538YOPE   C3A 8087   4.410   5.047   6.750
  538YOPE   C4A 8088   4.434   5.099   7.050
  538YOPE   C1B 8089   4.316   5.236   6.150
  538YOPE   C2B 8090   4.281   5.303   6.450
  538YOPE   D3B 8091   4.369   5.274   6.750
  538YOPE   C4B 8092   4.287   5.312   7.050
  539YOPE   NH3 8093   2.848  12.728   5.250
  539YOPE   PO4 8094   2.869  12.790   5.550
  539YOPE   GL1 8095   2.820  12.787   5.850
  539YOPE   GL2 8096   2.914  12.703   5.850
  539YOPE   C1A 8097   2.825  12.730   6.150
  539YOPE   D2A 8098   2.890  12.784   6.450
  539YOPE   C3A 8099   2.832  12.708   6.750
  539YOPE   C4A 8100   2.834  12.711   7.050
  539YOPE   C1B 8101   3.090  12.653   6.150
  539YOPE   C2B 8102   3.074  12.642   6.450
  539YOPE   D3B 8103   3.066  12.656   6.750
  539YOPE   C4B 8104   3.063  12.652   7.050
  540YOPE   NH3 8105   6.869  12.784   5.250
  540YOPE   PO4 8106   6.802  12.771   5.550
  540YOPE   GL1 8107   6.828  12.735   5.850
  540YOPE   GL2 8108   6.736  12.687   5.850
  540YOPE   C1A 8109   6.861  12.790   6.150
  540YOPE   D2A 8110   6.864  12.742   6.450
  540YOPE   C3A 8111   6.817  12.789   6.750
  540YOPE   C4A 8112   6.804  12.701   7.050
  540YOPE   C1B 8113   6.717  12.523   6.150
  540YOPE   C2B 8114   6.707  12.564   6.450
  540YOPE   D3B 8115   6.661  12.591   6.750
  540YOPE   C4B 8116   6.652  12.546   7.050
  541YOPE   NH3 8117   6.022   2.019   5.250
  541YOPE   PO4 8118   6.007   2.011   5.550
  541YOPE   GL1 8119   6.087   2.018   5.850
  541YOPE   GL2 8120   6.096   2.143   5.850
  541YOPE   C1A 8121   6.013   1.941   6.150
  541YOPE   D2A 8122   6.093   1.945   6.450
  541YOPE   C3A 8123   6.016   1.952   6.750
  541YOPE   C4A 8124   6.085   1.948   7.050
  541YOPE   C1B 8125   6.058   2.218   6.150
  541YOPE   C2B 8126   6.009   2.198   6.450
  541YOPE   D3B 8127   6.051   2.261   6.750
  541YOPE   C4B 8128   6.042   2.234   7.050
  542YOPE   NH3 8129   1.235  18.134   5.250
  542YOPE   PO4 8130   1.232  18.137   5.550
  542YOPE   GL1 8131   1.298  18.134   5.850
  542YOPE   GL2 8132   1.189  18.075   5.850
  542YOPE   C1A 8133   1.218  18.087   6.150
  542YOPE   D2A 8134   1.240  18.160   6.450
  542YOPE   C3A 8135   1.258  18.091   6.750
  542YOPE   C4A 8136   1.290  18.169   7.050
  542YOPE   C1B 8137   1.066  18.031   6.150
  542YOPE   C2B 8138   1.032  18.019   6.450
  542YOPE   D3B 8139   1.085  18.014   6.750
  542YOPE   C4B 8140   1.055  17.990   7.050
  543POPC   NC3 8141   6.014  18.125   5.250
  543POPC   PO4 8142   6.080  18.106   5.550
  543POPC   GL1 8143   6.032  18.139   5.850
  543POPC   GL2 8144   5.999  18.279   5.850
  543POPC   C1A 8145   6.054  18.141   6.150
  543POPC   D2A 8146   6.014  18.084   6.450
  543POPC   C3A 8147   6.044  18.126   6.750
  543POPC   C4A 8148   6.085  18.111   7.050
  543POPC   C1B 8149   5.966  18.386   6.150
  543POPC   C2B 8150   5.985  18.384   6.450
  543POPC   C3B 8151   5.954  18.332   6.750
  543POPC   C4B 8152   5.987  18.365   7.050
  544POPC   NC3 8153   5.288   0.413   5.250
  544POPC   PO4 8154   5.286   0.465   5.550
  544POPC   GL1 8155   5.214   0.397   5.850
  544POPC   GL2 8156   5.305   0.468   5.850
  544POPC   C1A 8157   5.241   0.394   6.150
  544POPC   D2A 8158   5.202   0.447   6.450
  544POPC   C3A 8159   5.234   0.394   6.750
  544POPC   C4A 8160   5.243   0.385   7.050
  544POPC   C1B 8161   5.449   0.620   6.150
  544POPC   C2B 8162   5.464   0.553   6.450
  544POPC   C3B 8163   5.469   0.595   6.750
  544POPC   C4B 8164   5.447   0.565   7.050
  545POPC   NC3 8165  11.693  15.015   5.250
  545POPC   PO4 8166  11.643  15.071   5.550
  545POPC   GL1 8167  11.605  15.034   5.850
  545POPC   GL2 8168  11.822  15.080   5.850
  545POPC   C1A 8169  11.659  15.014   6.150
  545POPC   D2A 8170  11.670  15.094   6.450
  545POPC   C3A 8171  11.679  15.025   6.750
  545POPC   C4A 8172  11.697  15.020   7.050
  545POPC   C1B 8173  11.857  14.987   6.150
  545POPC   C2B 8174  11.923  14.963   6.450
  545POPC   C3B 8175  11.909  15.056   6.750
  545POPC   C4B 8176  11.852  14.972   7.050
  546POPC   NC3 8177   2.088   6.618   5.250
  546POPC   PO4 8178   2.080   6.617   5.550
  546POPC   GL1 8179   2.091   6.633   5.850
  546POPC   GL2 8180   2.084   6.666   5.850
  546POPC   C1A 8181   2.069   6.560   6.150
  546POPC   D2A 8182   2.071   6.609   6.450
  546POPC   C3A 8183   2.077   6.626   6.750
  546POPC   C4A 8184   2.084   6.584   7.050
  546POPC   C1B 8185   2.026   6.815   6.150
  546POPC   C2B 8186   2.046   6.841   6.450
  546POPC   C3B 8187   2.037   6.880   6.750
  546POPC   C4B 8188   2.003   6.864   7.050
  547POPC   NC3 8189  10.030  18.913   5.250
  547POPC   PO4 8190  10.083  18.878   5.550
  547POPC   GL1 8191  10.057  18.931   5.850
  547POPC   GL2 8192  10.034  18.999   5.850
  547POPC   C1A 8193  10.088  18.939   6.150
  547POPC   D2A 8194  10.092  18.886   6.450
  547POPC   C3A 8195  10.018  18.888   6.750
  547POPC   C4A 8196  10.079  18.886   7.050
  547POPC   C1B 8197  10.116  19.182   6.150
  547POPC   C2B 8198  10.096  19.132   6.450
  547POPC   C3B 8199  10.135  19.141   6.750
  547POPC   C4B 8200  10.068  19.115   7.050
  548POPC   NC3 8201   7.696  19.714   5.250
  548POPC   PO4 8202   7.658  19.650   5.550
  548POPC   GL1 8203   7.687  19.654   5.850
  548POPC   GL2 8204   7.663  19.510   5.850
  548POPC   C1A 8205   7.653  19.709   6.150
  548POPC   D2A 8206   7.629  19.648   6.450
  548POPC   C3A 8207   7.604  19.665   6.750
  548POPC   C4A 8208   7.615  19.714   7.050
  548POPC   C1B 8209   7.736  19.443   6.150
  548POPC   C2B 8210   7.707  19.380   6.450
  548POPC   C3B 8211   7.753  19.426   6.750
  548POPC   C4B 8212   7.705  19.460   7.050
  549POPC   NC3 8213   8.492   8.093   5.250
  549POPC   PO4 8214   8.452   8.152   5.550
  549POPC   GL1 8215   8.483   8.078   5.850
  549POPC   GL2 8216   8.534   7.967   5.850
  549POPC   C1A 8217   8.430   8.106   6.150
  549POPC   D2A 8218   8.403   8.128   6.450
  549POPC   C3A 8219   8.462   8.095   6.750
  549POPC   C4A 8220   8.494   8.166   7.050
  549POPC   C1B 8221   8.491   7.874   6.150
  549POPC   C2B 8222   8.516   7.858   6.450
  549POPC   C3B 8223   8.489   7.875   6.750
  549POPC   C4B 8224   8.535   7.929   7.050
  550POPC   NC3 8225   3.676  10.390   5.250
  550POPC   PO4 8226   3.690  10.392   5.550
  550POPC   GL1 8227   3.618  10.460   5.850
  550POPC   GL2 8228   3.751  10.329   5.850
  550POPC   C1A 8229   3.676  10.484   6.150
  550POPC   D2A 8230   3.678  10.451   6.450
  550POPC   C3A 8231   3.687  10.405   6.750
  550POPC   C4A 8232   3.687  10.483   7.050
  550POPC   C1B 8233   3.757  10.195   6.150
  550POPC   C2B 8234   3.761  10.263   6.450
  550POPC   C3B 8235   3.764  10.236   6.750
  550POPC   C4B 8236   3.754  10.214   7.050
  551POPC   NC3 8237   6.839   1.933   5.250
  551POPC   PO4 8238   6.881   1.965   5.550
  551POPC   GL1 8239   6.837   2.007   5.850
  551POPC   GL2 8240   6.771   1.870   5.850
  551POPC   C1A 8241   6.830   1.934   6.150
  551POPC   D2A 8242   6.852   1.966   6.450
  551POPC   C3A 8243   6.821   2.012   6.750
  551POPC   C4A 8244   6.876   2.009   7.050
  551POPC   C1B 8245   6.687   1.806   6.150
  551POPC   C2B 8246   6.616   1.770   6.450
  551POPC   C3B 8247   6.627   1.763   6.750
  551POPC   C4B 8248   6.692   1.820   7.050
  552POPC   NC3 8249  10.022   5.823   5.250
  552POPC   PO4 8250  10.065   5.864   5.550
  552POPC   GL1 8251  10.049   5.774   5.850
  552POPC   GL2 8252  10.092   5.923   5.850
  552POPC   C1A 8253  10.039   5.774   6.150
  552POPC   D2A 8254  10.064   5.866   6.450
  552POPC   C3A 8255  10.049   5.864   6.750
  552POPC   C4A 8256  10.082   5.826   7.050
  552POPC   C1B 8257  10.086   6.035   6.150
  552POPC   C2B 8258  10.112   6.105   6.450
  552POPC   C3B 8259  10.069   6.026   6.750
  552POPC   C4B 8260  10.125   6.012   7.050
  553POPC   NC3 8261   0.445  16.613   5.250
  553POPC   PO4 8262   0.414  16.546   5.550
  553POPC   GL1 8263   0.402  16.638   5.850
  553POPC   GL2 8264   0.574  16.528   5.850
  553POPC   C1A 8265   0.458  16.563   6.150
  553POPC   D2A 8266   0.489  16.573   6.450
  553POPC   C3A 8267   0.459  16.559   6.750
  553POPC   C4A 8268   0.413  16.607   7.050
  553POPC   C1B 8269   0.729  16.459   6.150
  553POPC   C2B 8270   0.700  16.541   6.450
  553POPC   C3B 8271   0.679  16.498   6.750
  553POPC   C4B 8272   0.690  16.531   7.050
  554POPC   NC3 8273   4.422   1.191   5.250
  554POPC   PO4 8274   4.442   1.231   5.550
  554POPC   GL1 8275   4.460   1.214   5.850
  554POPC   GL2 8276   4.433   1.360   5.850
  554POPC   C1A 8277   4.484   1.219   6.150
  554POPC   D2A 8278   4.434   1.158   6.450
  554POPC   C3A 8279   4.493   1.199   6.750
  554POPC   C4A 8280   4.425   1.184   7.050
  554POPC   C1B 8281   4.415   1.433   6.150
  554POPC   C2B 8282   4.371   1.408   6.450
  554POPC   C3B 8283   4.369   1.483   6.750
  554POPC   C4B 8284   4.390   1.486   7.050
  555POPC   NC3 8285   2.883   1.159   5.250
  555POPC   PO4 8286   2.845   1.166   5.550
  555POPC   GL1 8287   2.806   1.206   5.850
  555POPC   GL2 8288   2.937   1.174   5.850
  555POPC   C1A 8289   2.879   1.246   6.150
  555POPC   D2A 8290   2.846   1.178   6.450
  555POPC   C3A 8291   2.828   1.232   6.750
  555POPC   C4A 8292   2.829   1.250   7.050
  555POPC   C1B 8293   3.109   1.161   6.150
  555POPC   C2B 8294   3.108   1.102   6.450
  555POPC   C3B 8295   3.055   1.189   6.750
  555POPC   C4B 8296   3.100   1.096   7.050
  556POPC   NC3 8297   4.462   2.779   5.250
  556POPC   PO4 8298   4.456   2.740   5.550
  556POPC   GL1 8299   4.429   2.736   5.850
  556POPC   GL2 8300   4.401   2.836   5.850
  556POPC   C1A 8301   4.410   2.757   6.150
  556POPC   D2A 8302   4.435   2.710   6.450
  556POPC   C3A 8303   4.461   2.775   6.750
  556POPC   C4A 8304   4.423   2.740   7.050
  556POPC   C1B 8305   4.292   2.887   6.150
  556POPC   C2B 8306   4.330   2.959   6.450
  556POPC   C3B 8307   4.273   2.975   6.750
  556POPC   C4B 8308   4.333   2.909   7.050
  557POPC   NC3 8309   1.290   0.480   5.250
  557POPC   PO4 8310   1.256   0.461   5.550
  557POPC   GL1 8311   1.227   0.394   5.850
  557POPC   GL2 8312   1.406   0.396   5.850
  557POPC   C1A 8313   1.212   0.388   6.150
  557POPC   D2A 8314   1.233   0.481   6.450
  557POPC   C3A 8315   1.299   0.484   6.750
  557POPC   C4A 8316   1.225   0.416   7.050
  557POPC   C1B 8317   1.521   0.321   6.150
  557POPC   C2B 8318   1.426   0.335   6.450
  557POPC   C3B 8319   1.463   0.287   6.750
  557POPC   C4B 8320   1.506   0.311   7.050
  558POPC   NC3 8321   8.471  11.924   5.250
  558POPC   PO4 8322   8.458  11.972   5.550
  558POPC   GL1 8323   8.411  11.956   5.850
  558POPC   GL2 8324   8.338  12.031   5.850
  558POPC   C1A 8325   8.450  11.967   6.150
  558POPC   D2A 8326   8.451  11.944   6.450
  558POPC   C3A 8327   8.478  11.945   6.750
  558POPC   C4A 8328   8.496  11.934   7.050
  558POPC   C1B 8329   8.249  12.085   6.150
  558POPC   C2B 8330   8.243  12.024   6.450
  558POPC   C3B 8331   8.217  12.107   6.750
  558POPC   C4B 8332   8.246  12.090   7.050
  559POPC   NC3 8333  11.644   2.003   5.250
  559POPC   PO4 8334  11.616   2.009   5.550
  559POPC   GL1 8335  11.601   1.945   5.850
  559POPC   GL2 8336  11.729   1.879   5.850
  559POPC   C1A 8337  11.651   1.958   6.150
  559POPC   D2A 8338  11.619   2.009   6.450
  559POPC   C3A 8339  11.617   2.002   6.750
  559POPC   C4A 8340  11.697   1.989   7.050
  559POPC   C1B 8341  11.843   1.748   6.150
  559POPC   C2B 8342  11.836   1.840   6.450
  559POPC   C3B 8343  11.788   1.757   6.750
  559POPC   C4B 8344  11.843   1.823   7.050
  560POPC   NC3 8345   2.840  18.086   5.250
  560POPC   PO4 8346   2.816  18.132   5.550
  560POPC   GL1 8347   2.834  18.114   5.850
  560POPC   GL2 8348   2.854  18.247   5.850
  560POPC   C1A 8349   2.801  18.111   6.150
  560POPC   D2A 8350   2.889  18.116   6.450
  560POPC   C3A 8351   2.890  18.163   6.750
  560POPC   C4A 8352   2.898  18.126   7.050
  560POPC   C1B 8353   2.726  18.410   6.150
  560POPC   C2B 8354   2.724  18.405   6.450
  560POPC   C3B 8355   2.719  18.398   6.750
  560POPC   C4B 8356   2.787  18.378   7.050
  561POPC   NC3 8357  10.898  15.034   5.250
  561POPC   PO4 8358  10.821  15.059   5.550
  561POPC   GL1 8359  10.852  15.050   5.850
  561POPC   GL2 8360  10.949  15.145   5.850
  561POPC   C1A 8361  10.874  15.005   6.150
  561POPC   D2A 8362  10.897  15.061   6.450
  561POPC   C3A 8363  10.834  15.076   6.750
  561POPC   C4A 8364  10.810  15.031   7.050
  561POPC   C1B 8365  11.000  15.255   6.150
  561POPC   C2B 8366  11.027  15.206   6.450
  561POPC   C3B 8367  10.977  15.261   6.750
  561POPC   C4B 8368  11.006  15.281   7.050
  562POPC   NC3 8369  10.059   4.272   5.250
  562POPC   PO4 8370  10.089   4.320   5.550
  562POPC   GL1 8371  10.036   4.272   5.850
  562POPC   GL2 8372  10.077   4.363   5.850
  562POPC   C1A 8373  10.009   4.232   6.150
  562POPC   D2A 8374  10.041   4.239   6.450
  562POPC   C3A 8375  10.059   4.259   6.750
  562POPC   C4A 8376  10.044   4.286   7.050
  562POPC   C1B 8377  10.164   4.455   6.150
  562POPC   C2B 8378  10.186   4.464   6.450
  562POPC   C3B 8379  10.168   4.512   6.750
  562POPC   C4B 8380  10.166   4.443   7.050
  563POPC   NC3 8381   8.409   2.720   5.250
  563POPC   PO4 8382   8.425   2.725   5.550
  563POPC   GL1 8383   8.429   2.717   5.850
  563POPC   GL2 8384   8.414   2.693   5.850
  563POPC   C1A 8385   8.479   2.692   6.150
  563POPC   D2A 8386   8.465   2.751   6.450
  563POPC   C3A 8387   8.492   2.695   6.750
  563POPC   C4A 8388   8.467   2.734   7.050
  563POPC   C1B 8389   8.302   2.509   6.150
  563POPC   C2B 8390   8.257   2.556   6.450
  563POPC   C3B 8391   8.259   2.594   6.750
  563POPC   C4B 8392   8.288   2.536   7.050
  564POPC   NC3 8393   2.009  10.390   5.250
  564POPC   PO4 8394   2.096  10.440   5.550
  564POPC   GL1 8395   2.079  10.417   5.850
  564POPC   GL2 8396   1.933  10.360   5.850
  564POPC   C1A 8397   2.013  10.395   6.150
  564POPC   D2A 8398   2.050  10.474   6.450
  564POPC   C3A 8399   2.033  10.464   6.750
  564POPC   C4A 8400   2.070  10.435   7.050
  564POPC   C1B 8401   1.872  10.338   6.150
  564POPC   C2B 8402   1.886  10.247   6.450
  564POPC   C3B 8403   1.826  10.244   6.750
  564POPC   C4B 8404   1.849  10.283   7.050
  565POPC   NC3 8405  10.064  18.110   5.250
  565POPC   PO4 8406  10.094  18.160   5.550
  565POPC   GL1 8407  10.029  18.079   5.850
  565POPC   GL2 8408   9.963  18.051   5.850
  565POPC   C1A 8409  10.084  18.152   6.150
  565POPC   D2A 8410  10.020  18.093   6.450
  565POPC   C3A 8411  10.075  18.146   6.750
  565POPC   C4A 8412  10.096  18.090   7.050
  565POPC   C1B 8413   9.850  17.958   6.150
  565POPC   C2B 8414   9.822  17.964   6.450
  565POPC   C3B 8415   9.887  17.980   6.750
  565POPC   C4B 8416   9.900  17.986   7.050
  566YOPC   NC3 8417  10.832  12.014   5.250
  566YOPC   PO4 8418  10.892  11.935   5.550
  566YOPC   GL1 8419  10.843  11.961   5.850
  566YOPC   GL2 8420  10.829  11.822   5.850
  566YOPC   C1A 8421  10.831  11.990   6.150
  566YOPC   D2A 8422  10.805  12.022   6.450
  566YOPC   C3A 8423  10.880  11.933   6.750
  566YOPC   C4A 8424  10.849  12.011   7.050
  566YOPC   C1B 8425  10.808  11.730   6.150
  566YOPC   C2B 8426  10.809  11.703   6.450
  566YOPC   D3B 8427  10.778  11.701   6.750
  566YOPC   C4B 8428  10.779  11.679   7.050
  567YOPC   NC3 8429   4.450   7.322   5.250
  567YOPC   PO4 8430   4.471   7.401   5.550
  567YOPC   GL1 8431   4.495   7.348   5.850
  567YOPC   GL2 8432   4.359   7.314   5.850
  567YOPC   C1A 8433   4.478   7.312   6.150
  567YOPC   D2A 8434   4.498   7.369   6.450
  567YOPC   C3A 8435   4.425   7.374   6.750
  567YOPC   C4A 8436   4.427   7.351   7.050
  567YOPC   C1B 8437   4.262   7.216   6.150
  567YOPC   C2B 8438   4.241   7.169   6.450
  567YOPC   D3B 8439   4.272   7.230   6.750
  567YOPC   C4B 8440   4.242   7.166   7.050
  568YOPC   NC3 8441   1.242   5.828   5.250
  568YOPC   PO4 8442   1.204   5.861   5.550
  568YOPC   GL1 8443   1.280   5.789   5.850
  568YOPC   GL2 8444   1.246   5.950   5.850
  568YOPC   C1A 8445   1.296   5.864   6.150
  568YOPC   D2A 8446   1.278   5.788   6.450
  568YOPC   C3A 8447   1.226   5.817   6.750
  568YOPC   C4A 8448   1.244   5.829   7.050
  568YOPC   C1B 8449   1.148   6.047   6.150
  568YOPC   C2B 8450   1.124   6.096   6.450
  568YOPC   D3B 8451   1.160   6.069   6.750
  568YOPC   C4B 8452   1.150   6.066   7.050
  569YOPC   NC3 8453   4.405  14.252   5.250
  569YOPC   PO4 8454   4.491  14.317   5.550
  569YOPC   GL1 8455   4.437  14.262   5.850
  569YOPC   GL2 8456   4.414  14.333   5.850
  569YOPC   C1A 8457   4.410  14.244   6.150
  569YOPC   D2A 8458   4.434  14.269   6.450
  569YOPC   C3A 8459   4.473  14.240   6.750
  569YOPC   C4A 8460   4.489  14.304   7.050
  569YOPC   C1B 8461   4.263  14.465   6.150
  569YOPC   C2B 8462   4.271  14.433   6.450
  569YOPC   D3B 8463   4.305  14.458   6.750
  569YOPC   C4B 8464   4.249  14.500   7.050
  570YOPC   NC3 8465  11.700  13.527   5.250
  570YOPC   PO4 8466  11.695  13.471   5.550
  570YOPC   GL1 8467  11.669  13.561   5.850
  570YOPC   GL2 8468  11.764  13.601   5.850
  570YOPC   C1A 8469  11.687  13.483   6.150
  570YOPC   D2A 8470  11.630  13.489   6.450
  570YOPC   C3A 8471  11.613  13.494   6.750
  570YOPC   C4A 8472  11.655  13.481   7.050
  570YOPC   C1B 8473  11.768  13.728   6.150
  570YOPC   C2B 8474  11.814  13.658   6.450
  570YOPC   D3B 8475  11.864  13.667   6.750
  570YOPC   C4B 8476  11.831  13.656   7.050
  571YOPC   NC3 8477   1.252  14.309   5.250
  571YOPC   PO4 8478   1.220  14.296   5.550
  571YOPC   GL1 8479   1.214  14.246   5.850
  571YOPC   GL2 8480   1.419  14.307   5.850
  571YOPC   C1A 8481   1.233  14.299   6.150
  571YOPC   D2A 8482   1.293  14.244   6.450
  571YOPC   C3A 8483   1.226  14.271   6.750
  571YOPC   C4A 8484   1.275  14.246   7.050
  571YOPC   C1B 8485   1.455  14.270   6.150
  571YOPC   C2B 8486   1.481  14.340   6.450
  571YOPC   D3B 8487   1.465  14.326   6.750
  571YOPC   C4B 8488   1.534  14.267   7.050
  572YOPC   NC3 8489  10.849   6.586   5.250
  572YOPC   PO4 8490  10.871   6.614   5.550
  572YOPC   GL1 8491  10.854   6.591   5.850
  572YOPC   GL2 8492  10.777   6.601   5.850
  572YOPC   C1A 8493  10.841   6.595   6.150
  572YOPC   D2A 8494  10.855   6.623   6.450
  572YOPC   C3A 8495  10.900   6.594   6.750
  572YOPC   C4A 8496  10.831   6.595   7.050
  572YOPC   C1B 8497  10.658   6.732   6.150
  572YOPC   C2B 8498  10.675   6.698   6.450
  572YOPC   D3B 8499  10.620   6.676   6.750
  572YOPC   C4B 8500  10.598   6.750   7.050
  573YOPC   NC3 8501  10.856  17.344   5.250
  573YOPC   PO4 8502  10.867  17.335   5.550
  573YOPC   GL1 8503  10.862  17.330   5.850
  573YOPC   GL2 8504  10.843  17.279   5.850
  573YOPC   C1A 8505  10.877  17.341   6.150
  573YOPC   D2A 8506  10.822  17.380   6.450
  573YOPC   C3A 8507  10.853  17.396   6.750
  573YOPC   C4A 8508  10.850  17.338   7.050
  573YOPC   C1B 8509  10.780  17.105   6.150
  573YOPC   C2B 8510  10.759  17.097   6.450
  573YOPC   D3B 8511  10.830  17.076   6.750
  573YOPC   C4B 8512  10.819  17.101   7.050
  574YOPC   NC3 8513  10.885   5.849   5.250
  574YOPC   PO4 8514  10.821   5.857   5.550
  574YOPC   GL1 8515  10.813   5.834   5.850
  574YOPC   GL2 8516  10.854   5.928   5.850
  574YOPC   C1A 8517  10.886   5.797   6.150
  574YOPC   D2A 8518  10.865   5.770   6.450
  574YOPC   C3A 8519  10.818   5.833   6.750
  574YOPC   C4A 8520  10.871   5.776   7.050
  574YOPC   C1B 8521  10.861   6.051   6.150
  574YOPC   C2B 8522  10.847   6.086   6.450
  574YOPC   D3B 8523  10.790   6.025   6.750
  574YOPC   C4B 8524  10.797   6.060   7.050
  575YOPC   NC3 8525   5.270  12.735   5.250
  575YOPC   PO4 8526   5.224  12.738   5.550
  575YOPC   GL1 8527   5.219  12.761   5.850
  575YOPC   GL2 8528   5.413  12.688   5.850
  575YOPC   C1A 8529   5.267  12.703   6.150
  575YOPC   D2A 8530   5.261  12.744   6.450
  575YOPC   C3A 8531   5.290  12.754   6.750
  575YOPC   C4A 8532   5.218  12.769   7.050
  575YOPC   C1B 8533   5.484  12.668   6.150
  575YOPC   C2B 8534   5.515  12.671   6.450
  575YOPC   D3B 8535   5.498  12.686   6.750
  575YOPC   C4B 8536   5.509  12.665   7.050
  576YOPC   NC3 8537   9.205   3.559   5.250
  576YOPC   PO4 8538   9.275   3.560   5.550
  576YOPC   GL1 8539   9.206   3.514   5.850
  576YOPC   GL2 8540   9.356   3.593   5.850
  576YOPC   C1A 8541   9.269   3.500   6.150
  576YOPC   D2A 8542   9.296   3.530   6.450
  576YOPC   C3A 8543   9.205   3.549   6.750
  576YOPC   C4A 8544   9.222   3.475   7.050
  576YOPC   C1B 8545   9.354   3.688   6.150
  576YOPC   C2B 8546   9.358   3.681   6.450
  576YOPC   D3B 8547   9.411   3.698   6.750
  576YOPC   C4B 8548   9.420   3.709   7.050
  577YOPC   NC3 8549  10.086  16.590   5.250
  577YOPC   PO4 8550  10.077  16.553   5.550
  577YOPC   GL1 8551  10.088  16.620   5.850
  577YOPC   GL2 8552   9.953  16.747   5.850
  577YOPC   C1A 8553  10.089  16.587   6.150
  577YOPC   D2A 8554  10.085  16.556   6.450
  577YOPC   C3A 8555  10.073  16.626   6.750
  577YOPC   C4A 8556  10.020  16.589   7.050
  577YOPC   C1B 8557   9.923  16.798   6.150
  577YOPC   C2B 8558   9.937  16.774   6.450
  577YOPC   D3B 8559   9.944  16.809   6.750
  577YOPC   C4B 8560   9.951  16.867   7.050
  578YOPC   NC3 8561  10.071  12.001   5.250
  578YOPC   PO4 8562  10.051  11.977   5.550
  578YOPC   GL1 8563  10.035  11.994   5.850
  578YOPC   GL2 8564  10.131  12.074   5.850
  578YOPC   C1A 8565  10.086  11.977   6.150
  578YOPC   D2A 8566  10.090  11.977   6.450
  578YOPC   C3A 8567  10.074  11.944   6.750
  578YOPC   C4A 8568  10.083  12.008   7.050
  578YOPC   C1B 8569  10.223  12.183   6.150
  578YOPC   C2B 8570  10.168  12.197   6.450
  578YOPC   D3B 8571  10.153  12.217   6.750
  578YOPC   C4B 8572  10.205  12.231   7.050
  579YOPC   NC3 8573  11.646   2.776   5.250
  579YOPC   PO4 8574  11.626   2.735   5.550
  579YOPC   GL1 8575  11.683   2.706   5.850
  579YOPC   GL2 8576  11.566   2.707   5.850
  579YOPC   C1A 8577  11.639   2.779   6.150
  579YOPC   D2A 8578  11.686   2.746   6.450
  579YOPC   C3A 8579  11.662   2.718   6.750
  579YOPC   C4A 8580  11.640   2.726   7.050
  579YOPC   C1B 8581  11.438   2.614   6.150
  579YOPC   C2B 8582  11.419   2.652   6.450
  579YOPC   D3B 8583  11.380   2.582   6.750
  579YOPC   C4B 8584  11.463   2.669   7.050
  580YOPC   NC3 8585   3.614   5.077   5.250
  580YOPC   PO4 8586   3.643   5.090   5.550
  580YOPC   GL1 8587   3.669   5.020   5.850
  580YOPC   GL2 8588   3.583   4.881   5.850
  580YOPC   C1A 8589   3.684   5.010   6.150
  580YOPC   D2A 8590   3.683   5.029   6.450
  580YOPC   C3A 8591   3.697   5.100   6.750
  580YOPC   C4A 8592   3.679   5.090   7.050
  580YOPC   C1B 8593   3.598   4.808   6.150
  580YOPC   C2B 8594   3.553   4.788   6.450
  580YOPC   D3B 8595   3.582   4.838   6.750
  580YOPC   C4B 8596   3.600   4.804   7.050
  581YOPC   NC3 8597   0.485   9.690   5.250
  581YOPC   PO4 8598   0.484   9.706   5.550
  581YOPC   GL1 8599   0.431   9.630   5.850
  581YOPC   GL2 8600   0.427   9.741   5.850
  581YOPC   C1A 8601   0.452   9.623   6.150
  581YOPC   D2A 8602   0.416   9.679   6.450
  581YOPC   C3A 8603   0.468   9.632   6.750
  581YOPC   C4A 8604   0.427   9.672   7.050
  581YOPC   C1B 8605   0.368   9.917   6.150
  581YOPC   C2B 8606   0.388   9.920   6.450
  581YOPC   D3B 8607   0.456   9.869   6.750
  581YOPC   C4B 8608   0.453   9.942   7.050
  582YOPC   NC3 8609  10.069   6.555   5.250
  582YOPC   PO4 8610  10.083   6.578   5.550
  582YOPC   GL1 8611  10.000   6.542   5.850
  582YOPC   GL2 8612  10.192   6.488   5.850
  582YOPC   C1A 8613  10.084   6.554   6.150
  582YOPC   D2A 8614  10.069   6.570   6.450
  582YOPC   C3A 8615  10.014   6.571   6.750
  582YOPC   C4A 8616  10.042   6.560   7.050
  582YOPC   C1B 8617  10.247   6.426   6.150
  582YOPC   C2B 8618  10.257   6.409   6.450
  582YOPC   D3B 8619  10.216   6.488   6.750
  582YOPC   C4B 8620  10.259   6.423   7.050
  583YOPC   NC3 8621  10.819  18.861   5.250
  583YOPC   PO4 8622  10.878  18.868   5.550
  583YOPC   GL1 8623  10.898  18.903   5.850
  583YOPC   GL2 8624  10.874  18.771   5.850
  583YOPC   C1A 8625  10.814  18.901   6.150
  583YOPC   D2A 8626  10.868  18.927   6.450
  583YOPC   C3A 8627  10.881  18.926   6.750
  583YOPC   C4A 8628  10.854  18.897   7.050
  583YOPC   C1B 8629  10.801  18.663   6.150
  583YOPC   C2B 8630  10.821  18.674   6.450
  583YOPC   D3B 8631  10.811  18.679   6.750
  583YOPC   C4B 8632  10.824  18.672   7.050
  584YOPC   NC3 8633  11.677  10.481   5.250
  584YOPC   PO4 8634  11.627  10.437   5.550
  584YOPC   GL1 8635  11.672  10.414   5.850
  584YOPC   GL2 8636  11.737  10.549   5.850
  584YOPC   C1A 8637  11.603  10.466   6.150
  584YOPC   D2A 8638  11.647  10.422   6.450
  584YOPC   C3A 8639  11.681  10.461   6.750
  584YOPC   C4A 8640  11.683  10.409   7.050
  584YOPC   C1B 8641  11.811  10.613   6.150
  584YOPC   C2B 8642  11.740  10.641   6.450
  584YOPC   D3B 8643  11.731  10.619   6.750
  584YOPC   C4B 8644  11.742  10.663   7.050
  585YOPC   NC3 8645   7.613   7.325   5.250
  585YOPC   PO4 8646   7.665   7.323   5.550
  585YOPC   GL1 8647   7.611   7.359   5.850
  585YOPC   GL2 8648   7.682   7.441   5.850
  585YOPC   C1A 8649   7.698   7.375   6.150
  585YOPC   D2A 8650   7.611   7.315   6.450
  585YOPC   C3A 8651   7.664   7.372   6.750
  585YOPC   C4A 8652   7.670   7.319   7.050
  585YOPC   C1B 8653   7.681   7.589   6.150
  585YOPC   C2B 8654   7.699   7.565   6.450
  585YOPC   D3B 8655   7.716   7.570   6.750
  585YOPC   C4B 8656   7.745   7.607   7.050
  586YOPC   NC3 8657   4.473  13.475   5.250
  586YOPC   PO4 8658   4.447  13.476   5.550
  586YOPC   GL1 8659   4.500  13.524   5.850
  586YOPC   GL2 8660   4.459  13.611   5.850
  586YOPC   C1A 8661   4.414  13.524   6.150
  586YOPC   D2A 8662   4.409  13.509   6.450
  586YOPC   C3A 8663   4.461  13.561   6.750
  586YOPC   C4A 8664   4.409  13.547   7.050
  586YOPC   C1B 8665   4.483  13.730   6.150
  586YOPC   C2B 8666   4.574  13.728   6.450
  586YOPC   D3B 8667   4.557  13.772   6.750
  586YOPC   C4B 8668   4.541  13.739   7.050
  587YOPC   NC3 8669   6.878   0.467   5.250
  587YOPC   PO4 8670   6.899   0.434   5.550
  587YOPC   GL1 8671   6.890   0.404   5.850
  587YOPC   GL2 8672   6.914   0.364   5.850
  587YOPC   C1A 8673   6.879   0.430   6.150
  587YOPC   D2A 8674   6.876   0.480   6.450
  587YOPC   C3A 8675   6.881   0.458   6.750
  587YOPC   C4A 8676   6.881   0.393   7.050
  587YOPC   C1B 8677   7.000   0.219   6.150
  587YOPC   C2B 8678   7.058   0.206   6.450
  587YOPC   D3B 8679   6.980   0.284   6.750
  587YOPC   C4B 8680   6.984   0.228   7.050
  588YOPC   NC3 8681   3.627  15.065   5.250
  588YOPC   PO4 8682   3.663  15.065   5.550
  588YOPC   GL1 8683   3.669  15.033   5.850
  588YOPC   GL2 8684   3.710  15.142   5.850
  588YOPC   C1A 8685   3.664  15.049   6.150
  588YOPC   D2A 8686   3.621  15.068   6.450
  588YOPC   C3A 8687   3.654  15.087   6.750
  588YOPC   C4A 8688   3.642  15.049   7.050
  588YOPC   C1B 8689   3.880  15.170   6.150
  588YOPC   C2B 8690   3.857  15.157   6.450
  588YOPC   D3B 8691   3.860  15.205   6.750
  588YOPC   C4B 8692   3.861  15.131   7.050
  589YOPC   NC3 8693   2.827  11.207   5.250
  589YOPC   PO4 8694   2.822  11.169   5.550
  589YOPC   GL1 8695   2.831  11.172   5.850
  589YOPC   GL2 8696   2.841  11.115   5.850
  589YOPC   C1A 8697   2.817  11.187   6.150
  589YOPC   D2A 8698   2.861  11.187   6.450
  589YOPC   C3A 8699   2.888  11.162   6.750
  589YOPC   C4A 8700   2.837  11.187   7.050
  589YOPC   C1B 8701   2.892  10.988   6.150
  589YOPC   C2B 8702   2.918  10.912   6.450
  589YOPC   D3B 8703   2.917  10.941   6.750
  589YOPC   C4B 8704   2.925  10.936   7.050
  590YOPC   NC3 8705   3.697   6.635   5.250
  590YOPC   PO4 8706   3.700   6.625   5.550
  590YOPC   GL1 8707   3.692   6.624   5.850
  590YOPC   GL2 8708   3.553   6.476   5.850
  590YOPC   C1A 8709   3.616   6.558   6.150
  590YOPC   D2A 8710   3.674   6.552   6.450
  590YOPC   C3A 8711   3.678   6.543   6.750
  590YOPC   C4A 8712   3.631   6.635   7.050
  590YOPC   C1B 8713   3.484   6.415   6.150
  590YOPC   C2B 8714   3.487   6.407   6.450
  590YOPC   D3B 8715   3.515   6.361   6.750
  590YOPC   C4B 8716   3.457   6.410   7.050
  591YOPC   NC3 8717   8.430  15.043   5.250
  591YOPC   PO4 8718   8.477  15.014   5.550
  591YOPC   GL1 8719   8.442  15.079   5.850
  591YOPC   GL2 8720   8.358  15.101   5.850
  591YOPC   C1A 8721   8.454  15.030   6.150
  591YOPC   D2A 8722   8.500  15.096   6.450
  591YOPC   C3A 8723   8.418  15.045   6.750
  591YOPC   C4A 8724   8.460  15.036   7.050
  591YOPC   C1B 8725   8.208  15.174   6.150
  591YOPC   C2B 8726   8.173  15.131   6.450
  591YOPC   D3B 8727   8.223  15.165   6.750
  591YOPC   C4B 8728   8.204  15.115   7.050
  592YOPC   NC3 8729   6.097   1.197   5.250
  592YOPC   PO4 8730   6.096   1.248   5.550
  592YOPC   GL1 8731   6.054   1.193   5.850
  592YOPC   GL2 8732   5.994   1.278   5.850
  592YOPC   C1A 8733   6.021   1.213   6.150
  592YOPC   D2A 8734   6.015   1.204   6.450
  592YOPC   C3A 8735   6.025   1.205   6.750
  592YOPC   C4A 8736   6.079   1.172   7.050
  592YOPC   C1B 8737   5.803   1.315   6.150
  592YOPC   C2B 8738   5.836   1.380   6.450
  592YOPC   D3B 8739   5.873   1.367   6.750
  592YOPC   C4B 8740   5.830   1.349   7.050
  593YOPC   NC3 8741   1.201   5.004   5.250
  593YOPC   PO4 8742   1.247   5.049   5.550
  593YOPC   GL1 8743   1.241   5.022   5.850
  593YOPC   GL2 8744   1.083   4.996   5.850
  593YOPC   C1A 8745   1.228   5.024   6.150
  593YOPC   D2A 8746   1.262   5.044   6.450
  593YOPC   C3A 8747   1.216   5.092   6.750
  593YOPC   C4A 8748   1.288   5.033   7.050
  593YOPC   C1B 8749   1.028   4.923   6.150
  593YOPC   C2B 8750   1.049   4.937   6.450
  593YOPC   D3B 8751   0.984   4.981   6.750
  593YOPC   C4B 8752   1.060   4.918   7.050
  594YOPC   NC3 8753   6.037   9.644   5.250
  594YOPC   PO4 8754   6.086   9.651   5.550
  594YOPC   GL1 8755   6.027   9.645   5.850
  594YOPC   GL2 8756   5.933   9.655   5.850
  594YOPC   C1A 8757   6.069   9.710   6.150
  594YOPC   D2A 8758   6.076   9.687   6.450
  594YOPC   C3A 8759   6.079   9.673   6.750
  594YOPC   C4A 8760   6.048   9.687   7.050
  594YOPC   C1B 8761   5.817   9.550   6.150
  594YOPC   C2B 8762   5.825   9.619   6.450
  594YOPC   D3B 8763   5.797   9.605   6.750
  594YOPC   C4B 8764   5.854   9.560   7.050
  595YOPC   NC3 8765   0.454   0.405   5.250
  595YOPC   PO4 8766   0.410   0.468   5.550
  595YOPC   GL1 8767   0.473   0.442   5.850
  595YOPC   GL2 8768   0.382   0.324   5.850
  595YOPC   C1A 8769   0.422   0.468   6.150
  595YOPC   D2A 8770   0.410   0.400   6.450
  595YOPC   C3A 8771   0.486   0.410   6.750
  595YOPC   C4A 8772   0.483   0.470   7.050
  595YOPC   C1B 8773   0.404   0.193   6.150
  595YOPC   C2B 8774   0.405   0.216   6.450
  595YOPC   D3B 8775   0.369   0.233   6.750
  595YOPC   C4B 8776   0.366   0.221   7.050
  596YOPC   NC3 8777  11.689  18.910   5.250
  596YOPC   PO4 8778  11.652  18.927   5.550
  596YOPC   GL1 8779  11.607  18.877   5.850
  596YOPC   GL2 8780  11.660  19.029   5.850
  596YOPC   C1A 8781  11.635  18.848   6.150
  596YOPC   D2A 8782  11.685  18.855   6.450
  596YOPC   C3A 8783  11.679  18.874   6.750
  596YOPC   C4A 8784  11.684  18.940   7.050
  596YOPC   C1B 8785  11.625  19.107   6.150
  596YOPC   C2B 8786  11.707  19.138   6.450
  596YOPC   D3B 8787  11.699  19.112   6.750
  596YOPC   C4B 8788  11.691  19.161   7.050
  597YOPC   NC3 8789   4.471   2.015   5.250
  597YOPC   PO4 8790   4.469   2.020   5.550
  597YOPC   GL1 8791   4.426   1.937   5.850
  597YOPC   GL2 8792   4.496   2.129   5.850
  597YOPC   C1A 8793   4.435   1.948   6.150
  597YOPC   D2A 8794   4.429   1.959   6.450
  597YOPC   C3A 8795   4.409   2.001   6.750
  597YOPC   C4A 8796   4.435   2.006   7.050
  597YOPC   C1B 8797   4.454   2.207   6.150
  597YOPC   C2B 8798   4.485   2.183   6.450
  597YOPC   D3B 8799   4.444   2.264   6.750
  597YOPC   C4B 8800   4.436   2.197   7.050
  598YOPC   NC3 8801   5.291  15.061   5.250
  598YOPC   PO4 8802   5.242  15.060   5.550
  598YOPC   GL1 8803   5.299  15.031   5.850
  598YOPC   GL2 8804   5.175  14.988   5.850
  598YOPC   C1A 8805   5.287  15.029   6.150
  598YOPC   D2A 8806   5.216  15.081   6.450
  598YOPC   C3A 8807   5.206  15.099   6.750
  598YOPC   C4A 8808   5.294  15.067   7.050
  598YOPC   C1B 8809   5.072  14.930   6.150
  598YOPC   C2B 8810   5.084  14.943   6.450
  598YOPC   D3B 8811   5.056  14.910   6.750
  598YOPC   C4B 8812   5.083  14.942   7.050
  599YOPC   NC3 8813   6.085  11.195   5.250
  599YOPC   PO4 8814   6.077  11.230   5.550
  599YOPC   GL1 8815   6.060  11.171   5.850
  599YOPC   GL2 8816   6.042  11.337   5.850
  599YOPC   C1A 8817   6.091  11.208   6.150
  599YOPC   D2A 8818   6.087  11.165   6.450
  599YOPC   C3A 8819   6.081  11.197   6.750
  599YOPC   C4A 8820   6.066  11.157   7.050
  599YOPC   C1B 8821   6.083  11.433   6.150
  599YOPC   C2B 8822   6.032  11.435   6.450
  599YOPC   D3B 8823   6.039  11.435   6.750
  599YOPC   C4B 8824   6.045  11.475   7.050
  600YOPC   NC3 8825  10.032  17.371   5.250
  600YOPC   PO4 8826  10.039  17.352   5.550
  600YOPC   GL1 8827  10.018  17.352   5.850
  600YOPC   GL2 8828   9.971  17.434   5.850
  600YOPC   C1A 8829  10.042  17.353   6.150
  600YOPC   D2A 8830  10.014  17.405   6.450
  600YOPC   C3A 8831  10.083  17.380   6.750
  600YOPC   C4A 8832  10.047  17.391   7.050
  600YOPC   C1B 8833   9.884  17.459   6.150
  600YOPC   C2B 8834   9.874  17.498   6.450
  600YOPC   D3B 8835   9.824  17.489   6.750
  600YOPC   C4B 8836   9.801  17.452   7.050
  601YOPC   NC3 8837   1.291   1.210   5.250
  601YOPC   PO4 8838   1.220   1.212   5.550
  601YOPC   GL1 8839   1.240   1.245   5.850
  601YOPC   GL2 8840   1.284   1.301   5.850
  601YOPC   C1A 8841   1.263   1.237   6.150
  601YOPC   D2A 8842   1.231   1.207   6.450
  601YOPC   C3A 8843   1.213   1.232   6.750
  601YOPC   C4A 8844   1.298   1.240   7.050
  601YOPC   C1B 8845   1.400   1.365   6.150
  601YOPC   C2B 8846   1.413   1.418   6.450
  601YOPC   D3B 8847   1.378   1.358   6.750
  601YOPC   C4B 8848   1.436   1.357   7.050
  602YOPC   NC3 8849  10.089  14.273   5.250
  602YOPC   PO4 8850  10.043  14.237   5.550
  602YOPC   GL1 8851  10.080  14.259   5.850
  602YOPC   GL2 8852  10.070  14.164   5.850
  602YOPC   C1A 8853  10.045  14.322   6.150
  602YOPC   D2A 8854  10.074  14.302   6.450
  602YOPC   C3A 8855  10.042  14.326   6.750
  602YOPC   C4A 8856  10.022  14.263   7.050
  602YOPC   C1B 8857  10.008  13.987   6.150
  602YOPC   C2B 8858  10.055  14.010   6.450
  602YOPC   D3B 8859  10.016  14.033   6.750
  602YOPC   C4B 8860  10.036  14.076   7.050
  603YOPC   NC3 8861   3.637   2.005   5.250
  603YOPC   PO4 8862   3.628   2.021   5.550
  603YOPC   GL1 8863   3.644   1.944   5.850
  603YOPC   GL2 8864   3.673   2.128   5.850
  603YOPC   C1A 8865   3.662   1.970   6.150
  603YOPC   D2A 8866   3.632   2.022   6.450
  603YOPC   C3A 8867   3.641   1.992   6.750
  603YOPC   C4A 8868   3.605   2.010   7.050
  603YOPC   C1B 8869   3.668   2.188   6.150
  603YOPC   C2B 8870   3.625   2.271   6.450
  603YOPC   D3B 8871   3.625   2.195   6.750
  603YOPC   C4B 8872   3.644   2.253   7.050
  604YOPC   NC3 8873   6.801   8.170   5.250
  604YOPC   PO4 8874   6.839   8.083   5.550
  604YOPC   GL1 8875   6.846   8.147   5.850
  604YOPC   GL2 8876   7.000   8.150   5.850
  604YOPC   C1A 8877   6.887   8.116   6.150
  604YOPC   D2A 8878   6.841   8.103   6.450
  604YOPC   C3A 8879   6.854   8.098   6.750
  604YOPC   C4A 8880   6.875   8.150   7.050
  604YOPC   C1B 8881   7.074   8.146   6.150
  604YOPC   C2B 8882   7.135   8.120   6.450
  604YOPC   D3B 8883   7.109   8.190   6.750
  604YOPC   C4B 8884   7.052   8.128   7.050
  605YOPC   NC3 8885   7.611   0.467   5.250
  605YOPC   PO4 8886   7.684   0.454   5.550
  605YOPC   GL1 8887   7.660   0.396   5.850
  605YOPC   GL2 8888   7.566   0.570   5.850
  605YOPC   C1A 8889   7.607   0.456   6.150
  605YOPC   D2A 8890   7.684   0.393   6.450
  605YOPC   C3A 8891   7.606   0.392   6.750
  605YOPC   C4A 8892   7.649   0.435   7.050
  605YOPC   C1B 8893   7.473   0.606   6.150
  605YOPC   C2B 8894   7.501   0.616   6.450
  605YOPC   D3B 8895   7.524   0.633   6.750
  605YOPC   C4B 8896   7.508   0.607   7.050
  606YOPC   NC3 8897   9.219   5.806   5.250
  606YOPC   PO4 8898   9.287   5.846   5.550
  606YOPC   GL1 8899   9.299   5.792   5.850
  606YOPC   GL2 8900   9.086   5.810   5.850
  606YOPC   C1A 8901   9.214   5.823   6.150
  606YOPC   D2A 8902   9.212   5.792   6.450
  606YOPC   C3A 8903   9.269   5.782   6.750
  606YOPC   C4A 8904   9.236   5.776   7.050
  606YOPC   C1B 8905   8.983   5.810   6.150
  606YOPC   C2B 8906   8.958   5.794   6.450
  606YOPC   D3B 8907   9.046   5.765   6.750
  606YOPC   C4B 8908   9.000   5.826   7.050
  607YOPC   NC3 8909   2.010   1.977   5.250
  607YOPC   PO4 8910   2.005   2.011   5.550
  607YOPC   GL1 8911   2.045   2.016   5.850
  607YOPC   GL2 8912   2.042   1.856   5.850
  607YOPC   C1A 8913   2.006   1.998   6.150
  607YOPC   D2A 8914   2.016   1.942   6.450
  607YOPC   C3A 8915   2.001   1.975   6.750
  607YOPC   C4A 8916   2.081   1.979   7.050
  607YOPC   C1B 8917   2.001   1.699   6.150
  607YOPC   C2B 8918   2.072   1.734   6.450
  607YOPC   D3B 8919   2.045   1.726   6.750
  607YOPC   C4B 8920   2.007   1.717   7.050
  608YOPC   NC3 8921   2.810   2.017   5.250
  608YOPC   PO4 8922   2.828   1.955   5.550
  608YOPC   GL1 8923   2.866   1.955   5.850
  608YOPC   GL2 8924   2.709   1.920   5.850
  608YOPC   C1A 8925   2.836   1.994   6.150
  608YOPC   D2A 8926   2.821   1.990   6.450
  608YOPC   C3A 8927   2.814   1.960   6.750
  608YOPC   C4A 8928   2.847   2.000   7.050
  608YOPC   C1B 8929   2.590   1.911   6.150
  608YOPC   C2B 8930   2.566   1.906   6.450
  608YOPC   D3B 8931   2.560   1.908   6.750
  608YOPC   C4B 8932   2.563   1.864   7.050
  609YOPC   NC3 8933  11.645   6.545   5.250
  609YOPC   PO4 8934  11.635   6.564   5.550
  609YOPC   GL1 8935  11.601   6.564   5.850
  609YOPC   GL2 8936  11.710   6.732   5.850
  609YOPC   C1A 8937  11.612   6.540   6.150
  609YOPC   D2A 8938  11.661   6.609   6.450
  609YOPC   C3A 8939  11.620   6.559   6.750
  609YOPC   C4A 8940  11.642   6.544   7.050
  609YOPC   C1B 8941  11.659   6.796   6.150
  609YOPC   C2B 8942  11.684   6.806   6.450
  609YOPC   D3B 8943  11.661   6.791   6.750
  609YOPC   C4B 8944  11.723   6.825   7.050
  610YOPC   NC3 8945   5.212  18.131   5.250
  610YOPC   PO4 8946   5.208  18.137   5.550
  610YOPC   GL1 8947   5.222  18.161   5.850
  610YOPC   GL2 8948   5.328  18.173   5.850
  610YOPC   C1A 8949   5.217  18.174   6.150
  610YOPC   D2A 8950   5.229  18.103   6.450
  610YOPC   C3A 8951   5.224  18.166   6.750
  610YOPC   C4A 8952   5.292  18.156   7.050
  610YOPC   C1B 8953   5.434  18.300   6.150
  610YOPC   C2B 8954   5.436  18.245   6.450
  610YOPC   D3B 8955   5.476  18.258   6.750
  610YOPC   C4B 8956   5.421  18.216   7.050
  611YOPC   NC3 8957  11.615  17.321   5.250
  611YOPC   PO4 8958  11.687  17.356   5.550
  611YOPC   GL1 8959  11.610  17.359   5.850
  611YOPC   GL2 8960  11.597  17.279   5.850
  611YOPC   C1A 8961  11.654  17.339   6.150
  611YOPC   D2A 8962  11.615  17.343   6.450
  611YOPC   C3A 8963  11.692  17.336   6.750
  611YOPC   C4A 8964  11.611  17.309   7.050
  611YOPC   C1B 8965  11.608  17.100   6.150
  611YOPC   C2B 8966  11.632  17.105   6.450
  611YOPC   D3B 8967  11.602  17.064   6.750
  611YOPC   C4B 8968  11.623  17.122   7.050
  612YOPC   NC3 8969   4.485  15.003   5.250
  612YOPC   PO4 8970   4.468  15.043   5.550
  612YOPC   GL1 8971   4.444  15.019   5.850
  612YOPC   GL2 8972   4.360  15.134   5.850
  612YOPC   C1A 8973   4.444  15.088   6.150
  612YOPC   D2A 8974   4.414  15.093   6.450
  612YOPC   C3A 8975   4.467  15.091   6.750
  612YOPC   C4A 8976   4.441  15.067   7.050
  612YOPC   C1B 8977   4.337  15.289   6.150
  612YOPC   C2B 8978   4.323  15.262   6.450
  612YOPC   D3B 8979   4.375  15.228   6.750
  612YOPC   C4B 8980   4.349  15.234   7.050
  613YOPC   NC3 8981   6.871   8.866   5.250
  613YOPC   PO4 8982   6.802   8.892   5.550
  613YOPC   GL1 8983   6.887   8.873   5.850
  613YOPC   GL2 8984   7.014   8.912   5.850
  613YOPC   C1A 8985   6.888   8.857   6.150
  613YOPC   D2A 8986   6.813   8.879   6.450
  613YOPC   C3A 8987   6.898   8.931   6.750
  613YOPC   C4A 8988   6.858   8.856   7.050
  613YOPC   C1B 8989   7.108   8.818   6.150
  613YOPC   C2B 8990   7.064   8.900   6.450
  613YOPC   D3B 8991   7.102   8.818   6.750
  613YOPC   C4B 8992   7.076   8.892   7.050
  614YOPC   NC3 8993   6.007  18.890   5.250
  614YOPC   PO4 8994   6.079  18.899   5.550
  614YOPC   GL1 8995   6.053  18.857   5.850
  614YOPC   GL2 8996   6.132  18.856   5.850
  614YOPC   C1A 8997   6.097  18.929   6.150
  614YOPC   D2A 8998   6.016  18.866   6.450
  614YOPC   C3A 8999   6.048  18.925   6.750
  614YOPC   C4A 9000   6.045  18.933   7.050
  614YOPC   C1B 9001   6.264  18.771   6.150
  614YOPC   C2B 9002   6.255  18.769   6.450
  614YOPC   D3B 9003   6.325  18.808   6.750
  614YOPC   C4B 9004   6.252  18.772   7.050
  615YOPC   NC3 9005   3.697   3.529   5.250
  615YOPC   PO4 9006   3.690   3.537   5.550
  615YOPC   GL1 9007   3.681   3.531   5.850
  615YOPC   GL2 9008   3.548   3.517   5.850
  615YOPC   C1A 9009   3.668   3.549   6.150
  615YOPC   D2A 9010   3.627   3.463   6.450
  615YOPC   C3A 9011   3.690   3.463   6.750
  615YOPC   C4A 9012   3.640   3.468   7.050
  615YOPC   C1B 9013   3.431   3.621   6.150
  615YOPC   C2B 9014   3.429   3.577   6.450
  615YOPC   D3B 9015   3.367   3.620   6.750
  615YOPC   C4B 9016   3.373   3.565   7.050
  616YOPC   NC3 9017   4.499   3.550   5.250
  616YOPC   PO4 9018   4.485   3.511   5.550
  616YOPC   GL1 9019   4.405   3.466   5.850
  616YOPC   GL2 9020   4.535   3.478   5.850
  616YOPC   C1A 9021   4.453   3.545   6.150
  616YOPC   D2A 9022   4.407   3.496   6.450
  616YOPC   C3A 9023   4.414   3.554   6.750
  616YOPC   C4A 9024   4.480   3.495   7.050
  616YOPC   C1B 9025   4.691   3.470   6.150
  616YOPC   C2B 9026   4.719   3.481   6.450
  616YOPC   D3B 9027   4.728   3.545   6.750
  616YOPC   C4B 9028   4.728   3.546   7.050
  617YOPC   NC3 9029  10.075  13.467   5.250
  617YOPC   PO4 9030  10.011  13.534   5.550
  617YOPC   GL1 9031  10.017  13.477   5.850
  617YOPC   GL2 9032  10.088  13.421   5.850
  617YOPC   C1A 9033  10.029  13.543   6.150
  617YOPC   D2A 9034  10.096  13.526   6.450
  617YOPC   C3A 9035  10.084  13.525   6.750
  617YOPC   C4A 9036  10.006  13.559   7.050
  617YOPC   C1B 9037  10.149  13.259   6.150
  617YOPC   C2B 9038  10.127  13.258   6.450
  617YOPC   D3B 9039  10.195  13.289   6.750
  617YOPC   C4B 9040  10.138  13.246   7.050
  618YOPC   NC3 9041  10.046   1.943   5.250
  618YOPC   PO4 9042  10.010   2.016   5.550
  618YOPC   GL1 9043  10.096   2.004   5.850
  618YOPC   GL2 9044  10.150   2.003   5.850
  618YOPC   C1A 9045  10.063   1.934   6.150
  618YOPC   D2A 9046  10.036   1.943   6.450
  618YOPC   C3A 9047  10.081   1.996   6.750
  618YOPC   C4A 9048  10.005   2.013   7.050
  618YOPC   C1B 9049  10.309   2.020   6.150
  618YOPC   C2B 9050  10.266   2.022   6.450
  618YOPC   D3B 9051  10.239   2.066   6.750
  618YOPC   C4B 9052  10.256   2.114   7.050
  619YOPC   NC3 9053  10.069   7.377   5.250
  619YOPC   PO4 9054  10.097   7.319   5.550
  619YOPC   GL1 9055  10.040   7.320   5.850
  619YOPC   GL2 9056  10.020   7.431   5.850
  619YOPC   C1A 9057  10.044   7.334   6.150
  619YOPC   D2A 9058  10.007   7.352   6.450
  619YOPC   C3A 9059  10.051   7.340   6.750
  619YOPC   C4A 9060  10.037   7.406   7.050
  619YOPC   C1B 9061   9.987   7.548   6.150
  619YOPC   C2B 9062   9.973   7.648   6.450
  619YOPC   D3B 9063  10.020   7.575   6.750
  619YOPC   C4B 9064   9.982   7.594   7.050
  620YOPC   NC3 9065   7.656   3.522   5.250
  620YOPC   PO4 9066   7.693   3.487   5.550
  620YOPC   GL1 9067   7.610   3.557   5.850
  620YOPC   GL2 9068   7.755   3.610   5.850
  620YOPC   C1A 9069   7.628   3.506   6.150
  620YOPC   D2A 9070   7.669   3.545   6.450
  620YOPC   C3A 9071   7.630   3.545   6.750
  620YOPC   C4A 9072   7.624   3.560   7.050
  620YOPC   C1B 9073   7.808   3.679   6.150
  620YOPC   C2B 9074   7.826   3.720   6.450
  620YOPC   D3B 9075   7.783   3.680   6.750
  620YOPC   C4B 9076   7.766   3.757   7.050
  621YOPC   NC3 9077   2.077   5.018   5.250
  621YOPC   PO4 9078   2.033   5.052   5.550
  621YOPC   GL1 9079   2.040   5.068   5.850
  621YOPC   GL2 9080   2.112   5.094   5.850
  621YOPC   C1A 9081   2.034   5.010   6.150
  621YOPC   D2A 9082   2.048   5.022   6.450
  621YOPC   C3A 9083   2.048   5.094   6.750
  621YOPC   C4A 9084   2.062   5.003   7.050
  621YOPC   C1B 9085   2.230   5.172   6.150
  621YOPC   C2B 9086   2.307   5.204   6.450
  621YOPC   D3B 9087   2.245   5.148   6.750
  621YOPC   C4B 9088   2.267   5.224   7.050
  622YOPC   NC3 9089   7.672  15.836   5.250
  622YOPC   PO4 9090   7.615  15.845   5.550
  622YOPC   GL1 9091   7.615  15.834   5.850
  622YOPC   GL2 9092   7.772  15.689   5.850
  622YOPC   C1A 9093   7.674  15.788   6.150
  622YOPC   D2A 9094   7.627  15.834   6.450
  622YOPC   C3A 9095   7.605  15.819   6.750
  622YOPC   C4A 9096   7.687  15.791   7.050
  622YOPC   C1B 9097   7.749  15.648   6.150
  622YOPC   C2B 9098   7.811  15.598   6.450
  622YOPC   D3B 9099   7.783  15.649   6.750
  622YOPC   C4B 9100   7.767  15.625   7.050
  623YOPC   NC3 9101   5.212   9.657   5.250
  623YOPC   PO4 9102   5.229   9.666   5.550
  623YOPC   GL1 9103   5.285   9.688   5.850
  623YOPC   GL2 9104   5.387   9.610   5.850
  623YOPC   C1A 9105   5.260   9.703   6.150
  623YOPC   D2A 9106   5.202   9.704   6.450
  623YOPC   C3A 9107   5.236   9.639   6.750
  623YOPC   C4A 9108   5.208   9.628   7.050
  623YOPC   C1B 9109   5.415   9.515   6.150
  623YOPC   C2B 9110   5.437   9.522   6.450
  623YOPC   D3B 9111   5.424   9.568   6.750
  623YOPC   C4B 9112   5.428   9.518   7.050
  624YOPC   NC3 9113   6.024  14.296   5.250
  624YOPC   PO4 9114   6.092  14.292   5.550
  624YOPC   GL1 9115   6.001  14.319   5.850
  624YOPC   GL2 9116   6.180  14.202   5.850
  624YOPC   C1A 9117   6.046  14.317   6.150
  624YOPC   D2A 9118   6.016  14.306   6.450
  624YOPC   C3A 9119   6.097  14.297   6.750
  624YOPC   C4A 9120   6.052  14.239   7.050
  624YOPC   C1B 9121   6.271  14.154   6.150
  624YOPC   C2B 9122   6.219  14.192   6.450
  624YOPC   D3B 9123   6.298  14.145   6.750
  624YOPC   C4B 9124   6.260  14.179   7.050
  625YOPC   NC3 9125  10.064  19.680   5.250
  625YOPC   PO4 9126  10.075  19.705   5.550
  625YOPC   GL1 9127  10.065  19.638   5.850
  625YOPC   GL2 9128   9.914  19.631   5.850
  625YOPC   C1A 9129  10.016  19.629   6.150
  625YOPC   D2A 9130  10.063  19.690   6.450
  625YOPC   C3A 9131  10.087  19.673   6.750
  625YOPC   C4A 9132  10.034  19.656   7.050
  625YOPC   C1B 9133   9.810  19.646   6.150
  625YOPC   C2B 9134   9.789  19.575   6.450
  625YOPC   D3B 9135   9.794  19.576   6.750
  625YOPC   C4B 9136   9.799  19.582   7.050
  626YOPC   NC3 9137   2.883  17.402   5.250
  626YOPC   PO4 9138   2.820  17.360   5.550
  626YOPC   GL1 9139   2.886  17.321   5.850
  626YOPC   GL2 9140   2.727  17.285   5.850
  626YOPC   C1A 9141   2.833  17.324   6.150
  626YOPC   D2A 9142   2.885  17.353   6.450
  626YOPC   C3A 9143   2.811  17.364   6.750
  626YOPC   C4A 9144   2.874  17.367   7.050
  626YOPC   C1B 9145   2.614  17.186   6.150
  626YOPC   C2B 9146   2.656  17.187   6.450
  626YOPC   D3B 9147   2.683  17.204   6.750
  626YOPC   C4B 9148   2.663  17.252   7.050
  627YOPC   NC3 9149   0.491   1.985   5.250
  627YOPC   PO4 9150   0.434   1.941   5.550
  627YOPC   GL1 9151   0.494   1.987   5.850
  627YOPC   GL2 9152   0.354   1.935   5.850
  627YOPC   C1A 9153   0.416   1.978   6.150
  627YOPC   D2A 9154   0.428   1.930   6.450
  627YOPC   C3A 9155   0.476   2.008   6.750
  627YOPC   C4A 9156   0.407   1.943   7.050
  627YOPC   C1B 9157   0.235   1.855   6.150
  627YOPC   C2B 9158   0.166   1.868   6.450
  627YOPC   D3B 9159   0.195   1.862   6.750
  627YOPC   C4B 9160   0.169   1.925   7.050
  628YOPC   NC3 9161  10.864  15.773   5.250
  628YOPC   PO4 9162  10.880  15.803   5.550
  628YOPC   GL1 9163  10.833  15.859   5.850
  628YOPC   GL2 9164  11.016  15.822   5.850
  628YOPC   C1A 9165  10.840  15.830   6.150
  628YOPC   D2A 9166  10.851  15.826   6.450
  628YOPC   C3A 9167  10.807  15.861   6.750
  628YOPC   C4A 9168  10.839  15.785   7.050
  628YOPC   C1B 9169  11.104  15.881   6.150
  628YOPC   C2B 9170  11.085  15.868   6.450
  628YOPC   D3B 9171  11.085  15.895   6.750
  628YOPC   C4B 9172  11.058  15.868   7.050
  629YOPC   NC3 9173   0.450  12.701   5.250
  629YOPC   PO4 9174   0.423  12.704   5.550
  629YOPC   GL1 9175   0.490  12.775   5.850
  629YOPC   GL2 9176   0.529  12.849   5.850
  629YOPC   C1A 9177   0.417  12.708   6.150
  629YOPC   D2A 9178   0.422  12.719   6.450
  629YOPC   C3A 9179   0.473  12.742   6.750
  629YOPC   C4A 9180   0.448  12.723   7.050
  629YOPC   C1B 9181   0.617  12.862   6.150
  629YOPC   C2B 9182   0.678  12.901   6.450
  629YOPC   D3B 9183   0.620  12.881   6.750
  629YOPC   C4B 9184   0.603  12.931   7.050
  630YOPC   NC3 9185   8.445  13.509   5.250
  630YOPC   PO4 9186   8.456  13.527   5.550
  630YOPC   GL1 9187   8.497  13.550   5.850
  630YOPC   GL2 9188   8.440  13.357   5.850
  630YOPC   C1A 9189   8.459  13.514   6.150
  630YOPC   D2A 9190   8.449  13.524   6.450
  630YOPC   C3A 9191   8.434  13.474   6.750
  630YOPC   C4A 9192   8.414  13.484   7.050
  630YOPC   C1B 9193   8.313  13.269   6.150
  630YOPC   C2B 9194   8.349  13.325   6.450
  630YOPC   D3B 9195   8.307  13.294   6.750
  630YOPC   C4B 9196   8.311  13.245   7.050
  631YOPC   NC3 9197   0.486  18.135   5.250
  631YOPC   PO4 9198   0.436  18.107   5.550
  631YOPC   GL1 9199   0.494  18.099   5.850
  631YOPC   GL2 9200   0.374  18.020   5.850
  631YOPC   C1A 9201   0.474  18.095   6.150
  631YOPC   D2A 9202   0.481  18.085   6.450
  631YOPC   C3A 9203   0.446  18.107   6.750
  631YOPC   C4A 9204   0.454  18.081   7.050
  631YOPC   C1B 9205   0.370  17.850   6.150
  631YOPC   C2B 9206   0.404  17.904   6.450
  631YOPC   D3B 9207   0.363  17.906   6.750
  631YOPC   C4B 9208   0.362  17.924   7.050
  632YOPC   NC3 9209   7.675  18.125   5.250
  632YOPC   PO4 9210   7.632  18.093   5.550
  632YOPC   GL1 9211   7.614  18.086   5.850
  632YOPC   GL2 9212   7.701  18.039   5.850
  632YOPC   C1A 9213   7.648  18.143   6.150
  632YOPC   D2A 9214   7.680  18.087   6.450
  632YOPC   C3A 9215   7.657  18.170   6.750
  632YOPC   C4A 9216   7.656  18.084   7.050
  632YOPC   C1B 9217   7.847  17.926   6.150
  632YOPC   C2B 9218   7.800  17.996   6.450
  632YOPC   D3B 9219   7.843  17.951   6.750
  632YOPC   C4B 9220   7.825  18.007   7.050
  633YOPC   NC3 9221  11.680  19.674   5.250
  633YOPC   PO4 9222  11.684  19.643   5.550
  633YOPC   GL1 9223  11.670  19.672   5.850
  633YOPC   GL2 9224  11.550  19.630   5.850
  633YOPC   C1A 9225  11.684  19.690   6.150
  633YOPC   D2A 9226  11.644  19.655   6.450
  633YOPC   C3A 9227  11.673  19.715   6.750
  633YOPC   C4A 9228  11.602  19.672   7.050
  633YOPC   C1B 9229  11.376  19.616   6.150
  633YOPC   C2B 9230  11.454  19.545   6.450
  633YOPC   D3B 9231  11.379  19.616   6.750
  633YOPC   C4B 9232  11.435  19.573   7.050
  634YOPC   NC3 9233   0.496  19.656   5.250
  634YOPC   PO4 9234   0.461  19.644   5.550
  634YOPC   GL1 9235   0.421  19.651   5.850
  634YOPC   GL2 9236   0.617  19.701   5.850
  634YOPC   C1A 9237   0.413  19.638   6.150
  634YOPC   D2A 9238   0.491  19.699   6.450
  634YOPC   C3A 9239   0.497  19.708   6.750
  634YOPC   C4A 9240   0.469  19.710   7.050
  634YOPC   C1B 9241   0.664  19.623   6.150
  634YOPC   C2B 9242   0.672  19.684   6.450
  634YOPC   D3B 9243   0.657  19.641   6.750
  634YOPC   C4B 9244   0.673  19.608   7.050
  635YOPC   NC3 9245   0.466   6.577   5.250
  635YOPC   PO4 9246   0.465   6.623   5.550
  635YOPC   GL1 9247   0.409   6.632   5.850
  635YOPC   GL2 9248   0.379   6.648   5.850
  635YOPC   C1A 9249   0.464   6.550   6.150
  635YOPC   D2A 9250   0.483   6.580   6.450
  635YOPC   C3A 9251   0.468   6.588   6.750
  635YOPC   C4A 9252   0.420   6.576   7.050
  635YOPC   C1B 9253   0.276   6.794   6.150
  635YOPC   C2B 9254   0.258   6.754   6.450
  635YOPC   D3B 9255   0.254   6.727   6.750
  635YOPC   C4B 9256   0.251   6.704   7.050
  636YOPC   NC3 9257   7.658   1.215   5.250
  636YOPC   PO4 9258   7.617   1.208   5.550
  636YOPC   GL1 9259   7.614   1.244   5.850
  636YOPC   GL2 9260   7.505   1.247   5.850
  636YOPC   C1A 9261   7.639   1.228   6.150
  636YOPC   D2A 9262   7.603   1.163   6.450
  636YOPC   C3A 9263   7.699   1.157   6.750
  636YOPC   C4A 9264   7.683   1.201   7.050
  636YOPC   C1B 9265   7.416   1.329   6.150
  636YOPC   C2B 9266   7.437   1.298   6.450
  636YOPC   D3B 9267   7.460   1.357   6.750
  636YOPC   C4B 9268   7.452   1.356   7.050
  637YOPC   NC3 9269   2.081   2.763   5.250
  637YOPC   PO4 9270   2.007   2.765   5.550
  637YOPC   GL1 9271   2.031   2.720   5.850
  637YOPC   GL2 9272   2.157   2.849   5.850
  637YOPC   C1A 9273   2.069   2.711   6.150
  637YOPC   D2A 9274   2.043   2.785   6.450
  637YOPC   C3A 9275   2.018   2.771   6.750
  637YOPC   C4A 9276   2.001   2.752   7.050
  637YOPC   C1B 9277   2.230   2.894   6.150
  637YOPC   C2B 9278   2.193   2.980   6.450
  637YOPC   D3B 9279   2.229   2.940   6.750
  637YOPC   C4B 9280   2.216   2.923   7.050
  638YOPC   NC3 9281   2.067   1.231   5.250
  638YOPC   PO4 9282   2.047   1.246   5.550
  638YOPC   GL1 9283   2.028   1.214   5.850
  638YOPC   GL2 9284   1.996   1.272   5.850
  638YOPC   C1A 9285   2.087   1.213   6.150
  638YOPC   D2A 9286   2.063   1.180   6.450
  638YOPC   C3A 9287   2.093   1.241   6.750
  638YOPC   C4A 9288   2.027   1.167   7.050
  638YOPC   C1B 9289   1.848   1.363   6.150
  638YOPC   C2B 9290   1.862   1.373   6.450
  638YOPC   D3B 9291   1.924   1.343   6.750
  638YOPC   C4B 9292   1.862   1.402   7.050
  639YOPC   NC3 9293   6.054  15.098   5.250
  639YOPC   PO4 9294   6.015  15.022   5.550
  639YOPC   GL1 9295   6.009  15.084   5.850
  639YOPC   GL2 9296   5.972  15.000   5.850
  639YOPC   C1A 9297   6.008  15.001   6.150
  639YOPC   D2A 9298   6.048  15.096   6.450
  639YOPC   C3A 9299   6.093  15.052   6.750
  639YOPC   C4A 9300   6.056  15.027   7.050
  639YOPC   C1B 9301   5.768  14.937   6.150
  639YOPC   C2B 9302   5.804  14.959   6.450
  639YOPC   D3B 9303   5.804  14.983   6.750
  639YOPC   C4B 9304   5.834  14.931   7.050
  640YOPC   NC3 9305   7.610   5.840   5.250
  640YOPC   PO4 9306   7.619   5.810   5.550
  640YOPC   GL1 9307   7.619   5.792   5.850
  640YOPC   GL2 9308   7.660   5.685   5.850
  640YOPC   C1A 9309   7.609   5.808   6.150
  640YOPC   D2A 9310   7.688   5.823   6.450
  640YOPC   C3A 9311   7.622   5.831   6.750
  640YOPC   C4A 9312   7.609   5.788   7.050
  640YOPC   C1B 9313   7.693   5.613   6.150
  640YOPC   C2B 9314   7.703   5.531   6.450
  640YOPC   D3B 9315   7.632   5.597   6.750
  640YOPC   C4B 9316   7.663   5.619   7.050
  641YOPC   NC3 9317   9.235   7.338   5.250
  641YOPC   PO4 9318   9.290   7.327   5.550
  641YOPC   GL1 9319   9.294   7.339   5.850
  641YOPC   GL2 9320   9.345   7.209   5.850
  641YOPC   C1A 9321   9.259   7.372   6.150
  641YOPC   D2A 9322   9.244   7.401   6.450
  641YOPC   C3A 9323   9.211   7.407   6.750
  641YOPC   C4A 9324   9.232   7.335   7.050
  641YOPC   C1B 9325   9.361   7.097   6.150
  641YOPC   C2B 9326   9.385   7.151   6.450
  641YOPC   D3B 9327   9.358   7.147   6.750
  641YOPC   C4B 9328   9.375   7.151   7.050
  642YOPC   NC3 9329   8.441   1.996   5.250
  642YOPC   PO4 9330   8.500   1.958   5.550
  642YOPC   GL1 9331   8.475   1.989   5.850
  642YOPC   GL2 9332   8.391   1.811   5.850
  642YOPC   C1A 9333   8.443   1.930   6.150
  642YOPC   D2A 9334   8.433   1.989   6.450
  642YOPC   C3A 9335   8.495   1.949   6.750
  642YOPC   C4A 9336   8.494   1.992   7.050
  642YOPC   C1B 9337   8.405   1.736   6.150
  642YOPC   C2B 9338   8.398   1.754   6.450
  642YOPC   D3B 9339   8.352   1.757   6.750
  642YOPC   C4B 9340   8.373   1.695   7.050
  643YOPC   NC3 9341   9.252  13.483   5.250
  643YOPC   PO4 9342   9.255  13.543   5.550
  643YOPC   GL1 9343   9.256  13.530   5.850
  643YOPC   GL2 9344   9.301  13.417   5.850
  643YOPC   C1A 9345   9.286  13.473   6.150
  643YOPC   D2A 9346   9.279  13.503   6.450
  643YOPC   C3A 9347   9.201  13.502   6.750
  643YOPC   C4A 9348   9.232  13.482   7.050
  643YOPC   C1B 9349   9.317  13.295   6.150
  643YOPC   C2B 9350   9.312  13.223   6.450
  643YOPC   D3B 9351   9.299  13.258   6.750
  643YOPC   C4B 9352   9.341  13.235   7.050
  644YOPC   NC3 9353   5.221   1.199   5.250
  644YOPC   PO4 9354   5.213   1.202   5.550
  644YOPC   GL1 9355   5.222   1.165   5.850
  644YOPC   GL2 9356   5.124   1.177   5.850
  644YOPC   C1A 9357   5.294   1.174   6.150
  644YOPC   D2A 9358   5.253   1.208   6.450
  644YOPC   C3A 9359   5.264   1.160   6.750
  644YOPC   C4A 9360   5.299   1.223   7.050
  644YOPC   C1B 9361   5.022   1.182   6.150
  644YOPC   C2B 9362   5.020   1.167   6.450
  644YOPC   D3B 9363   5.042   1.187   6.750
  644YOPC   C4B 9364   5.007   1.252   7.050
  645YOPC   NC3 9365   6.841   5.795   5.250
  645YOPC   PO4 9366   6.856   5.812   5.550
  645YOPC   GL1 9367   6.848   5.837   5.850
  645YOPC   GL2 9368   6.719   5.862   5.850
  645YOPC   C1A 9369   6.873   5.859   6.150
  645YOPC   D2A 9370   6.821   5.784   6.450
  645YOPC   C3A 9371   6.809   5.797   6.750
  645YOPC   C4A 9372   6.840   5.787   7.050
  645YOPC   C1B 9373   6.589   5.864   6.150
  645YOPC   C2B 9374   6.624   5.771   6.450
  645YOPC   D3B 9375   6.606   5.780   6.750
  645YOPC   C4B 9376   6.601   5.785   7.050
  646YOPC   NC3 9377   0.437  15.856   5.250
  646YOPC   PO4 9378   0.415  15.799   5.550
  646YOPC   GL1 9379   0.406  15.828   5.850
  646YOPC   GL2 9380   0.322  15.832   5.850
  646YOPC   C1A 9381   0.432  15.834   6.150
  646YOPC   D2A 9382   0.484  15.860   6.450
  646YOPC   C3A 9383   0.414  15.843   6.750
  646YOPC   C4A 9384   0.432  15.840   7.050
  646YOPC   C1B 9385   0.204  15.855   6.150
  646YOPC   C2B 9386   0.204  15.849   6.450
  646YOPC   D3B 9387   0.250  15.853   6.750
  646YOPC   C4B 9388   0.251  15.916   7.050
  647YOPC   NC3 9389  10.824   8.906   5.250
  647YOPC   PO4 9390  10.842   8.857   5.550
  647YOPC   GL1 9391  10.885   8.942   5.850
  647YOPC   GL2 9392  10.851   9.062   5.850
  647YOPC   C1A 9393  10.899   8.914   6.150
  647YOPC   D2A 9394  10.805   8.924   6.450
  647YOPC   C3A 9395  10.821   8.928   6.750
  647YOPC   C4A 9396  10.815   8.883   7.050
  647YOPC   C1B 9397  10.884   9.185   6.150
  647YOPC   C2B 9398  10.962   9.158   6.450
  647YOPC   D3B 9399  10.934   9.159   6.750
  647YOPC   C4B 9400  10.907   9.090   7.050
  648YOPC   NC3 9401   1.235  10.417   5.250
  648YOPC   PO4 9402   1.257  10.407   5.550
  648YOPC   GL1 9403   1.264  10.412   5.850
  648YOPC   GL2 9404   1.422  10.465   5.850
  648YOPC   C1A 9405   1.221  10.405   6.150
  648YOPC   D2A 9406   1.255  10.426   6.450
  648YOPC   C3A 9407   1.286  10.427   6.750
  648YOPC   C4A 9408   1.233  10.402   7.050
  648YOPC   C1B 9409   1.464  10.419   6.150
  648YOPC   C2B 9410   1.499  10.462   6.450
  648YOPC   D3B 9411   1.480  10.516   6.750
  648YOPC   C4B 9412   1.451  10.460   7.050
  649YOPC   NC3 9413  10.075   5.052   5.250
  649YOPC   PO4 9414  10.037   5.050   5.550
  649YOPC   GL1 9415  10.079   5.081   5.850
  649YOPC   GL2 9416   9.947   5.013   5.850
  649YOPC   C1A 9417  10.064   5.014   6.150
  649YOPC   D2A 9418  10.071   5.042   6.450
  649YOPC   C3A 9419  10.058   5.065   6.750
  649YOPC   C4A 9420  10.088   5.100   7.050
  649YOPC   C1B 9421   9.896   4.856   6.150
  649YOPC   C2B 9422   9.825   4.877   6.450
  649YOPC   D3B 9423   9.823   4.920   6.750
  649YOPC   C4B 9424   9.904   4.879   7.050
  650YOPC   NC3 9425   2.064  18.886   5.250
  650YOPC   PO4 9426   2.028  18.851   5.550
  650YOPC   GL1 9427   2.050  18.885   5.850
  650YOPC   GL2 9428   2.106  19.040   5.850
  650YOPC   C1A 9429   2.024  18.907   6.150
  650YOPC   D2A 9430   2.090  18.933   6.450
  650YOPC   C3A 9431   2.020  18.921   6.750
  650YOPC   C4A 9432   2.058  18.942   7.050
  650YOPC   C1B 9433   2.229  19.136   6.150
  650YOPC   C2B 9434   2.251  19.109   6.450
  650YOPC   D3B 9435   2.178  19.046   6.750
  650YOPC   C4B 9436   2.233  19.042   7.050
  651YOPC   NC3 9437  11.640   4.279   5.250
  651YOPC   PO4 9438  11.635   4.258   5.550
  651YOPC   GL1 9439  11.620   4.247   5.850
  651YOPC   GL2 9440  11.547   4.326   5.850
  651YOPC   C1A 9441  11.680   4.312   6.150
  651YOPC   D2A 9442  11.630   4.274   6.450
  651YOPC   C3A 9443  11.612   4.256   6.750
  651YOPC   C4A 9444  11.643   4.253   7.050
  651YOPC   C1B 9445  11.512   4.483   6.150
  651YOPC   C2B 9446  11.448   4.510   6.450
  651YOPC   D3B 9447  11.488   4.433   6.750
  651YOPC   C4B 9448  11.519   4.504   7.050
  652YOPC   NC3 9449   4.471   8.082   5.250
  652YOPC   PO4 9450   4.427   8.146   5.550
  652YOPC   GL1 9451   4.478   8.176   5.850
  652YOPC   GL2 9452   4.320   8.182   5.850
  652YOPC   C1A 9453   4.442   8.151   6.150
  652YOPC   D2A 9454   4.433   8.115   6.450
  652YOPC   C3A 9455   4.410   8.133   6.750
  652YOPC   C4A 9456   4.488   8.163   7.050
  652YOPC   C1B 9457   4.228   8.167   6.150
  652YOPC   C2B 9458   4.214   8.173   6.450
  652YOPC   D3B 9459   4.214   8.134   6.750
  652YOPC   C4B 9460   4.202   8.194   7.050
  653YOPC   NC3 9461  11.612  16.566   5.250
  653YOPC   PO4 9462  11.697  16.586   5.550
  653YOPC   GL1 9463  11.614  16.539   5.850
  653YOPC   GL2 9464  11.530  16.474   5.850
  653YOPC   C1A 9465  11.680  16.539   6.150
  653YOPC   D2A 9466  11.608  16.564   6.450
  653YOPC   C3A 9467  11.677  16.600   6.750
  653YOPC   C4A 9468  11.671  16.592   7.050
  653YOPC   C1B 9469  11.494  16.425   6.150
  653YOPC   C2B 9470  11.467  16.378   6.450
  653YOPC   D3B 9471  11.486  16.418   6.750
  653YOPC   C4B 9472  11.426  16.434   7.050
  654YOPC   NC3 9473   0.412   8.863   5.250
  654YOPC   PO4 9474   0.497   8.863   5.550
  654YOPC   GL1 9475   0.404   8.920   5.850
  654YOPC   GL2 9476   0.458   8.779   5.850
  654YOPC   C1A 9477   0.433   8.905   6.150
  654YOPC   D2A 9478   0.456   8.933   6.450
  654YOPC   C3A 9479   0.456   8.921   6.750
  654YOPC   C4A 9480   0.495   8.933   7.050
  654YOPC   C1B 9481   0.506   8.650   6.150
  654YOPC   C2B 9482   0.422   8.623   6.450
  654YOPC   D3B 9483   0.463   8.625   6.750
  654YOPC   C4B 9484   0.469   8.666   7.050
  655YOPC   NC3 9485   7.688   4.272   5.250
  655YOPC   PO4 9486   7.612   4.247   5.550
  655YOPC   GL1 9487   7.611   4.278   5.850
  655YOPC   GL2 9488   7.739   4.265   5.850
  655YOPC   C1A 9489   7.662   4.310   6.150
  655YOPC   D2A 9490   7.698   4.307   6.450
  655YOPC   C3A 9491   7.603   4.267   6.750
  655YOPC   C4A 9492   7.644   4.302   7.050
  655YOPC   C1B 9493   7.923   4.305   6.150
  655YOPC   C2B 9494   7.914   4.323   6.450
  655YOPC   D3B 9495   7.891   4.284   6.750
  655YOPC   C4B 9496   7.909   4.281   7.050
  656YOPC   NC3 9497   8.408   8.894   5.250
  656YOPC   PO4 9498   8.463   8.859   5.550
  656YOPC   GL1 9499   8.478   8.871   5.850
  656YOPC   GL2 9500   8.553   8.899   5.850
  656YOPC   C1A 9501   8.481   8.934   6.150
  656YOPC   D2A 9502   8.463   8.876   6.450
  656YOPC   C3A 9503   8.431   8.856   6.750
  656YOPC   C4A 9504   8.409   8.914   7.050
  656YOPC   C1B 9505   8.679   8.858   6.150
  656YOPC   C2B 9506   8.661   8.847   6.450
  656YOPC   D3B 9507   8.671   8.807   6.750
  656YOPC   C4B 9508   8.723   8.866   7.050
  657YOPC   NC3 9509   7.679  17.366   5.250
  657YOPC   PO4 9510   7.646  17.355   5.550
  657YOPC   GL1 9511   7.694  17.318   5.850
  657YOPC   GL2 9512   7.771  17.255   5.850
  657YOPC   C1A 9513   7.632  17.342   6.150
  657YOPC   D2A 9514   7.631  17.361   6.450
  657YOPC   C3A 9515   7.620  17.363   6.750
  657YOPC   C4A 9516   7.608  17.347   7.050
  657YOPC   C1B 9517   7.837  17.172   6.150
  657YOPC   C2B 9518   7.771  17.134   6.450
  657YOPC   D3B 9519   7.749  17.159   6.750
  657YOPC   C4B 9520   7.765  17.159   7.050
  658YOPC   NC3 9521   3.625  14.328   5.250
  658YOPC   PO4 9522   3.693  14.305   5.550
  658YOPC   GL1 9523   3.687  14.328   5.850
  658YOPC   GL2 9524   3.720  14.295   5.850
  658YOPC   C1A 9525   3.695  14.330   6.150
  658YOPC   D2A 9526   3.649  14.303   6.450
  658YOPC   C3A 9527   3.661  14.254   6.750
  658YOPC   C4A 9528   3.679  14.317   7.050
  658YOPC   C1B 9529   3.921  14.380   6.150
  658YOPC   C2B 9530   3.871  14.395   6.450
  658YOPC   D3B 9531   3.852  14.349   6.750
  658YOPC   C4B 9532   3.914  14.303   7.050
  659ERGO   ROH 9533  10.834   9.663   5.460
  659ERGO    R1 9534  10.885   9.696   5.700
  659ERGO    R2 9535  10.967   9.917   5.880
  659ERGO    R3 9536  10.844   9.644   6.060
  659ERGO    R4 9537  10.968   9.878   6.150
  659ERGO    R5 9538  10.833   9.621   6.270
  659ERGO    C1 9539  10.889   9.694   6.630
  659ERGO    C2 9540  10.859   9.710   7.050
  660ERGO   ROH 9541   8.477   3.559   5.460
  660ERGO    R1 9542   8.463   3.544   5.700
  660ERGO    R2 9543   8.220   3.350   5.880
  660ERGO    R3 9544   8.425   3.547   6.060
  660ERGO    R4 9545   8.226   3.358   6.150
  660ERGO    R5 9546   8.447   3.489   6.270
  660ERGO    C1 9547   8.410   3.502   6.630
  660ERGO    C2 9548   8.493   3.472   7.050
  661ERGO   ROH 9549   1.230   2.735   5.460
  661ERGO    R1 9550   1.274   2.734   5.700
  661ERGO    R2 9551   1.329   2.948   5.880
  661ERGO    R3 9552   1.210   2.780   6.060
  661ERGO    R4 9553   1.342   3.017   6.150
  661ERGO    R5 9554   1.291   2.711   6.270
  661ERGO    C1 9555   1.235   2.781   6.630
  661ERGO    C2 9556   1.249   2.720   7.050
  662ERGO   ROH 9557   5.277   2.739   5.460
  662ERGO    R1 9558   5.256   2.705   5.700
  662ERGO    R2 9559   5.154   2.499   5.880
  662ERGO    R3 9560   5.277   2.755   6.060
  662ERGO    R4 9561   5.200   2.508   6.150
  662ERGO    R5 9562   5.277   2.709   6.270
  662ERGO    C1 9563   5.290   2.781   6.630
  662ERGO    C2 9564   5.235   2.727   7.050
  663ERGO   ROH 9565   5.267  13.487   5.460
  663ERGO    R1 9566   5.212  13.542   5.700
  663ERGO    R2 9567   5.130  13.323   5.880
  663ERGO    R3 9568   5.226  13.487   6.060
  663ERGO    R4 9569   5.162  13.292   6.150
  663ERGO    R5 9570   5.218  13.500   6.270
  663ERGO    C1 9571   5.293  13.529   6.630
  663ERGO    C2 9572   5.266  13.505   7.050
  664ERGO   ROH 9573   3.601   9.704   5.460
  664ERGO    R1 9574   3.675   9.657   5.700
  664ERGO    R2 9575   3.420   9.682   5.880
  664ERGO    R3 9576   3.689   9.621   6.060
  664ERGO    R4 9577   3.447   9.657   6.150
  664ERGO    R5 9578   3.657   9.660   6.270
  664ERGO    C1 9579   3.677   9.632   6.630
  664ERGO    C2 9580   3.675   9.651   7.050
  665ERGO   ROH 9581   2.083   7.344   5.460
  665ERGO    R1 9582   2.015   7.386   5.700
  665ERGO    R2 9583   2.086   7.083   5.880
  665ERGO    R3 9584   2.088   7.356   6.060
  665ERGO    R4 9585   2.106   7.149   6.150
  665ERGO    R5 9586   2.044   7.310   6.270
  665ERGO    C1 9587   2.020   7.341   6.630
  665ERGO    C2 9588   2.024   7.339   7.050
  666ERGO   ROH 9589   8.477   0.474   5.460
  666ERGO    R1 9590   8.406   0.427   5.700
  666ERGO    R2 9591   8.742   0.449   5.880
  666ERGO    R3 9592   8.470   0.403   6.060
  666ERGO    R4 9593   8.672   0.471   6.150
  666ERGO    R5 9594   8.440   0.400   6.270
  666ERGO    C1 9595   8.496   0.397   6.630
  666ERGO    C2 9596   8.430   0.406   7.050
  667ERGO   ROH 9597   0.487   5.788   5.460
  667ERGO    R1 9598   0.496   5.790   5.700
  667ERGO    R2 9599   0.560   6.018   5.880
  667ERGO    R3 9600   0.488   5.789   6.060
  667ERGO    R4 9601   0.542   6.003   6.150
  667ERGO    R5 9602   0.426   5.820   6.270
  667ERGO    C1 9603   0.463   5.791   6.630
  667ERGO    C2 9604   0.402   5.863   7.050
  668ERGO   ROH 9605  10.055  10.429   5.460
  668ERGO    R1 9606  10.001  10.411   5.700
  668ERGO    R2 9607  10.264  10.208   5.880
  668ERGO    R3 9608  10.092  10.476   6.060
  668ERGO    R4 9609  10.248  10.256   6.150
  668ERGO    R5 9610  10.100  10.450   6.270
  668ERGO    C1 9611  10.001  10.482   6.630
  668ERGO    C2 9612  10.045  10.388   7.050
  669ERGO   ROH 9613   9.274   2.750   5.460
  669ERGO    R1 9614   9.275   2.701   5.700
  669ERGO    R2 9615   9.174   2.452   5.880
  669ERGO    R3 9616   9.276   2.771   6.060
  669ERGO    R4 9617   9.237   2.464   6.150
  669ERGO    R5 9618   9.298   2.743   6.270
  669ERGO    C1 9619   9.256   2.716   6.630
  669ERGO    C2 9620   9.222   2.698   7.050
  670ERGO   ROH 9621   6.065   6.597   5.460
  670ERGO    R1 9622   6.039   6.584   5.700
  670ERGO    R2 9623   5.896   6.820   5.880
  670ERGO    R3 9624   6.057   6.581   6.060
  670ERGO    R4 9625   5.955   6.823   6.150
  670ERGO    R5 9626   6.072   6.576   6.270
  670ERGO    C1 9627   6.092   6.629   6.630
  670ERGO    C2 9628   6.068   6.541   7.050
  671ERGO   ROH 9629   7.685  18.910   5.460
  671ERGO    R1 9630   7.685  18.939   5.700
  671ERGO    R2 9631   7.688  19.191   5.880
  671ERGO    R3 9632   7.641  18.864   6.060
  671ERGO    R4 9633   7.665  19.157   6.150
  671ERGO    R5 9634   7.692  18.933   6.270
  671ERGO    C1 9635   7.670  18.893   6.630
  671ERGO    C2 9636   7.630  18.862   7.050
  672ERGO   ROH 9637   5.244  19.623   5.460
  672ERGO    R1 9638   5.238  19.636   5.700
  672ERGO    R2 9639   5.397  19.446   5.880
  672ERGO    R3 9640   5.293  19.642   6.060
  672ERGO    R4 9641   5.429  19.494   6.150
  672ERGO    R5 9642   5.260  19.629   6.270
  672ERGO    C1 9643   5.287  19.691   6.630
  672ERGO    C2 9644   5.244  19.632   7.050
  673ERGO   ROH 9645   9.278  17.349   5.460
  673ERGO    R1 9646   9.294  17.358   5.700
  673ERGO    R2 9647   9.428  17.535   5.880
  673ERGO    R3 9648   9.235  17.377   6.060
  673ERGO    R4 9649   9.425  17.562   6.150
  673ERGO    R5 9650   9.298  17.339   6.270
  673ERGO    C1 9651   9.217  17.351   6.630
  673ERGO    C2 9652   9.224  17.391   7.050
  674ERGO   ROH 9653   8.498   6.585   5.460
  674ERGO    R1 9654   8.464   6.554   5.700
  674ERGO    R2 9655   8.648   6.398   5.880
  674ERGO    R3 9656   8.491   6.580   6.060
  674ERGO    R4 9657   8.618   6.428   6.150
  674ERGO    R5 9658   8.462   6.540   6.270
  674ERGO    C1 9659   8.482   6.556   6.630
  674ERGO    C2 9660   8.425   6.586   7.050
  675ERGO   ROH 9661   9.222  15.786   5.460
  675ERGO    R1 9662   9.250  15.784   5.700
  675ERGO    R2 9663   9.023  15.673   5.880
  675ERGO    R3 9664   9.298  15.778   6.060
  675ERGO    R4 9665   9.053  15.737   6.150
  675ERGO    R5 9666   9.214  15.785   6.270
  675ERGO    C1 9667   9.255  15.777   6.630
  675ERGO    C2 9668   9.206  15.816   7.050
  676ERGO   ROH 9669   8.488  14.255   5.460
  676ERGO    R1 9670   8.467  14.322   5.700
  676ERGO    R2 9671   8.697  14.352   5.880
  676ERGO    R3 9672   8.410  14.292   6.060
  676ERGO    R4 9673   8.676  14.327   6.150
  676ERGO    R5 9674   8.451  14.266   6.270
  676ERGO    C1 9675   8.470  14.323   6.630
  676ERGO    C2 9676   8.424  14.308   7.050
  677ERGO   ROH 9677  10.858  10.456   5.460
  677ERGO    R1 9678  10.864  10.423   5.700
  677ERGO    R2 9679  11.068  10.282   5.880
  677ERGO    R3 9680  10.842  10.456   6.060
  677ERGO    R4 9681  11.052  10.207   6.150
  677ERGO    R5 9682  10.806  10.431   6.270
  677ERGO    C1 9683  10.801  10.479   6.630
  677ERGO    C2 9684  10.809  10.422   7.050
  678ERGO   ROH 9685   2.846   5.061   5.460
  678ERGO    R1 9686   2.882   5.033   5.700
  678ERGO    R2 9687   2.989   4.878   5.880
  678ERGO    R3 9688   2.833   5.060   6.060
  678ERGO    R4 9689   3.029   4.827   6.150
  678ERGO    R5 9690   2.896   5.088   6.270
  678ERGO    C1 9691   2.837   5.040   6.630
  678ERGO    C2 9692   2.836   5.065   7.050
  679ERGO   ROH 9693   1.261  16.550   5.460
  679ERGO    R1 9694   1.238  16.577   5.700
  679ERGO    R2 9695   0.975  16.547   5.880
  679ERGO    R3 9696   1.283  16.549   6.060
  679ERGO    R4 9697   1.040  16.522   6.150
  679ERGO    R5 9698   1.228  16.551   6.270
  679ERGO    C1 9699   1.257  16.610   6.630
  679ERGO    C2 9700   1.287  16.544   7.050
  680ERGO   ROH 9701   6.011   2.786   5.460
  680ERGO    R1 9702   6.100   2.748   5.700
  680ERGO    R2 9703   5.802   2.680   5.880
  680ERGO    R3 9704   6.073   2.744   6.060
  680ERGO    R4 9705   5.810   2.685   6.150
  680ERGO    R5 9706   6.054   2.754   6.270
  680ERGO    C1 9707   6.061   2.715   6.630
  680ERGO    C2 9708   6.009   2.718   7.050
  681ERGO   ROH 9709  10.881  14.270   5.460
  681ERGO    R1 9710  10.820  14.261   5.700
  681ERGO    R2 9711  10.587  14.379   5.880
  681ERGO    R3 9712  10.850  14.260   6.060
  681ERGO    R4 9713  10.654  14.379   6.150
  681ERGO    R5 9714  10.805  14.238   6.270
  681ERGO    C1 9715  10.885  14.279   6.630
  681ERGO    C2 9716  10.871  14.281   7.050
  682ERGO   ROH 9717  10.817  11.209   5.460
  682ERGO    R1 9718  10.819  11.236   5.700
  682ERGO    R2 9719  10.819  11.437   5.880
  682ERGO    R3 9720  10.832  11.198   6.060
  682ERGO    R4 9721  10.732  11.450   6.150
  682ERGO    R5 9722  10.810  11.154   6.270
  682ERGO    C1 9723  10.861  11.159   6.630
  682ERGO    C2 9724  10.886  11.228   7.050
  683ERGO   ROH 9725   9.227   6.601   5.460
  683ERGO    R1 9726   9.246   6.574   5.700
  683ERGO    R2 9727   9.313   6.335   5.880
  683ERGO    R3 9728   9.287   6.631   6.060
  683ERGO    R4 9729   9.301   6.334   6.150
  683ERGO    R5 9730   9.260   6.568   6.270
  683ERGO    C1 9731   9.234   6.607   6.630
  683ERGO    C2 9732   9.299   6.547   7.050
  684ERGO   ROH 9733   6.848   1.197   5.460
  684ERGO    R1 9734   6.892   1.172   5.700
  684ERGO    R2 9735   6.881   0.921   5.880
  684ERGO    R3 9736   6.823   1.241   6.060
  684ERGO    R4 9737   6.802   0.985   6.150
  684ERGO    R5 9738   6.838   1.183   6.270
  684ERGO    C1 9739   6.878   1.177   6.630
  684ERGO    C2 9740   6.827   1.225   7.050
  685ERGO   ROH 9741   1.244  13.489   5.460
  685ERGO    R1 9742   1.218  13.506   5.700
  685ERGO    R2 9743   1.439  13.371   5.880
  685ERGO    R3 9744   1.289  13.545   6.060
  685ERGO    R4 9745   1.475  13.307   6.150
  685ERGO    R5 9746   1.215  13.537   6.270
  685ERGO    C1 9747   1.282  13.523   6.630
  685ERGO    C2 9748   1.223  13.491   7.050
  686ERGO   ROH 9749  10.852  12.765   5.460
  686ERGO    R1 9750  10.828  12.722   5.700
  686ERGO    R2 9751  11.108  12.654   5.880
  686ERGO    R3 9752  10.827  12.719   6.060
  686ERGO    R4 9753  11.076  12.599   6.150
  686ERGO    R5 9754  10.837  12.723   6.270
  686ERGO    C1 9755  10.855  12.768   6.630
  686ERGO    C2 9756  10.819  12.724   7.050
  687ERGO   ROH 9757   1.235  15.799   5.460
  687ERGO    R1 9758   1.296  15.838   5.700
  687ERGO    R2 9759   1.296  15.567   5.880
  687ERGO    R3 9760   1.240  15.864   6.060
  687ERGO    R4 9761   1.248  15.617   6.150
  687ERGO    R5 9762   1.249  15.864   6.270
  687ERGO    C1 9763   1.253  15.801   6.630
  687ERGO    C2 9764   1.290  15.857   7.050
  688ERGO   ROH 9765   2.078  16.557   5.460
  688ERGO    R1 9766   2.049  16.591   5.700
  688ERGO    R2 9767   1.816  16.589   5.880
  688ERGO    R3 9768   2.098  16.606   6.060
  688ERGO    R4 9769   1.795  16.542   6.150
  688ERGO    R5 9770   2.055  16.587   6.270
  688ERGO    C1 9771   2.069  16.577   6.630
  688ERGO    C2 9772   2.064  16.608   7.050
  689ERGO   ROH 9773   5.226   6.577   5.460
  689ERGO    R1 9774   5.285   6.549   5.700
  689ERGO    R2 9775   5.473   6.649   5.880
  689ERGO    R3 9776   5.246   6.616   6.060
  689ERGO    R4 9777   5.488   6.666   6.150
  689ERGO    R5 9778   5.215   6.542   6.270
  689ERGO    C1 9779   5.214   6.614   6.630
  689ERGO    C2 9780   5.234   6.567   7.050
  690ERGO   ROH 9781   7.627   1.928   5.460
  690ERGO    R1 9782   7.612   1.995   5.700
  690ERGO    R2 9783   7.385   1.847   5.880
  690ERGO    R3 9784   7.681   1.971   6.060
  690ERGO    R4 9785   7.445   1.876   6.150
  690ERGO    R5 9786   7.664   1.964   6.270
  690ERGO    C1 9787   7.622   1.959   6.630
  690ERGO    C2 9788   7.694   1.957   7.050
  691ERGO   ROH 9789   1.205  17.322   5.460
  691ERGO    R1 9790   1.214  17.368   5.700
  691ERGO    R2 9791   0.983  17.417   5.880
  691ERGO    R3 9792   1.270  17.325   6.060
  691ERGO    R4 9793   0.981  17.467   6.150
  691ERGO    R5 9794   1.219  17.343   6.270
  691ERGO    C1 9795   1.260  17.383   6.630
  691ERGO    C2 9796   1.245  17.383   7.050
  692ERGO   ROH 9797   2.086  12.731   5.460
  692ERGO    R1 9798   2.046  12.788   5.700
  692ERGO    R2 9799   1.818  12.892   5.880
  692ERGO    R3 9800   2.067  12.718   6.060
  692ERGO    R4 9801   1.836  12.946   6.150
  692ERGO    R5 9802   2.043  12.705   6.270
  692ERGO    C1 9803   2.029  12.714   6.630
  692ERGO    C2 9804   2.014  12.764   7.050
  693ERGO   ROH 9805   5.207   5.828   5.460
  693ERGO    R1 9806   5.268   5.843   5.700
  693ERGO    R2 9807   5.133   6.062   5.880
  693ERGO    R3 9808   5.205   5.803   6.060
  693ERGO    R4 9809   5.184   6.078   6.150
  693ERGO    R5 9810   5.253   5.774   6.270
  693ERGO    C1 9811   5.277   5.824   6.630
  693ERGO    C2 9812   5.238   5.785   7.050
  694ERGO   ROH 9813  11.628  12.699   5.460
  694ERGO    R1 9814  11.608  12.713   5.700
  694ERGO    R2 9815  11.803  12.582   5.880
  694ERGO    R3 9816  11.689  12.719   6.060
  694ERGO    R4 9817  11.791  12.550   6.150
  694ERGO    R5 9818  11.695  12.785   6.270
  694ERGO    C1 9819  11.642  12.730   6.630
  694ERGO    C2 9820  11.688  12.746   7.050
  695ERGO   ROH 9821   5.215   7.390   5.460
  695ERGO    R1 9822   5.266   7.376   5.700
  695ERGO    R2 9823   5.222   7.627   5.880
  695ERGO    R3 9824   5.299   7.321   6.060
  695ERGO    R4 9825   5.265   7.581   6.150
  695ERGO    R5 9826   5.230   7.385   6.270
  695ERGO    C1 9827   5.299   7.395   6.630
  695ERGO    C2 9828   5.275   7.338   7.050
  696ERGO   ROH 9829   2.806  18.875   5.460
  696ERGO    R1 9830   2.856  18.896   5.700
  696ERGO    R2 9831   2.975  18.618   5.880
  696ERGO    R3 9832   2.839  18.876   6.060
  696ERGO    R4 9833   2.900  18.668   6.150
  696ERGO    R5 9834   2.867  18.860   6.270
  696ERGO    C1 9835   2.824  18.894   6.630
  696ERGO    C2 9836   2.802  18.880   7.050
  697ERGO   ROH 9837   8.492   9.703   5.460
  697ERGO    R1 9838   8.425   9.697   5.700
  697ERGO    R2 9839   8.665   9.532   5.880
  697ERGO    R3 9840   8.400   9.713   6.060
  697ERGO    R4 9841   8.633   9.542   6.150
  697ERGO    R5 9842   8.456   9.701   6.270
  697ERGO    C1 9843   8.497   9.666   6.630
  697ERGO    C2 9844   8.465   9.695   7.050
  698ERGO   ROH 9845  11.688   9.628   5.460
  698ERGO    R1 9846  11.677   9.663   5.700
  698ERGO    R2 9847  11.794   9.389   5.880
  698ERGO    R3 9848  11.657   9.619   6.060
  698ERGO    R4 9849  11.790   9.428   6.150
  698ERGO    R5 9850  11.626   9.695   6.270
  698ERGO    C1 9851  11.668   9.647   6.630
  698ERGO    C2 9852  11.683   9.638   7.050
  699ERGO   ROH 9853   9.233  10.426   5.460
  699ERGO    R1 9854   9.215  10.457   5.700
  699ERGO    R2 9855   9.135  10.188   5.880
  699ERGO    R3 9856   9.238  10.483   6.060
  699ERGO    R4 9857   9.129  10.151   6.150
  699ERGO    R5 9858   9.203  10.413   6.270
  699ERGO    C1 9859   9.247  10.455   6.630
  699ERGO    C2 9860   9.263  10.475   7.050
  700ERGO   ROH 9861   7.649   6.560   5.460
  700ERGO    R1 9862   7.676   6.619   5.700
  700ERGO    R2 9863   7.802   6.420   5.880
  700ERGO    R3 9864   7.637   6.583   6.060
  700ERGO    R4 9865   7.811   6.411   6.150
  700ERGO    R5 9866   7.628   6.586   6.270
  700ERGO    C1 9867   7.662   6.560   6.630
  700ERGO    C2 9868   7.652   6.561   7.050
  701ERGO   ROH 9869   3.686  11.228   5.460
  701ERGO    R1 9870   3.631  11.170   5.700
  701ERGO    R2 9871   3.842  11.042   5.880
  701ERGO    R3 9872   3.687  11.183   6.060
  701ERGO    R4 9873   3.885  11.032   6.150
  701ERGO    R5 9874   3.606  11.231   6.270
  701ERGO    C1 9875   3.620  11.213   6.630
  701ERGO    C2 9876   3.613  11.248   7.050
  702ERGO   ROH 9877  10.835   5.087   5.460
  702ERGO    R1 9878  10.818   5.029   5.700
  702ERGO    R2 9879  11.013   4.808   5.880
  702ERGO    R3 9880  10.818   5.083   6.060
  702ERGO    R4 9881  11.037   4.815   6.150
  702ERGO    R5 9882  10.889   5.065   6.270
  702ERGO    C1 9883  10.841   5.096   6.630
  702ERGO    C2 9884  10.806   5.028   7.050
  703ERGO   ROH 9885   9.236   8.115   5.460
  703ERGO    R1 9886   9.210   8.087   5.700
  703ERGO    R2 9887   9.023   8.286   5.880
  703ERGO    R3 9888   9.266   8.081   6.060
  703ERGO    R4 9889   9.060   8.318   6.150
  703ERGO    R5 9890   9.268   8.090   6.270
  703ERGO    C1 9891   9.216   8.104   6.630
  703ERGO    C2 9892   9.271   8.147   7.050
  704ERGO   ROH 9893   5.219   4.305   5.460
  704ERGO    R1 9894   5.294   4.238   5.700
  704ERGO    R2 9895   5.208   4.554   5.880
  704ERGO    R3 9896   5.277   4.318   6.060
  704ERGO    R4 9897   5.224   4.527   6.150
  704ERGO    R5 9898   5.213   4.287   6.270
  704ERGO    C1 9899   5.267   4.293   6.630
  704ERGO    C2 9900   5.206   4.254   7.050
  705ERGO   ROH 9901   6.065   0.401   5.460
  705ERGO    R1 9902   6.092   0.412   5.700
  705ERGO    R2 9903   6.001   0.691   5.880
  705ERGO    R3 9904   6.075   0.425   6.060
  705ERGO    R4 9905   5.994   0.686   6.150
  705ERGO    R5 9906   6.031   0.460   6.270
  705ERGO    C1 9907   6.038   0.407   6.630
  705ERGO    C2 9908   6.041   0.482   7.050
  706ERGO   ROH 9909   4.403   0.416   5.460
  706ERGO    R1 9910   4.487   0.443   5.700
  706ERGO    R2 9911   4.687   0.582   5.880
  706ERGO    R3 9912   4.441   0.397   6.060
  706ERGO    R4 9913   4.685   0.597   6.150
  706ERGO    R5 9914   4.452   0.398   6.270
  706ERGO    C1 9915   4.494   0.416   6.630
  706ERGO    C2 9916   4.476   0.411   7.050
  707ERGO   ROH 9917   0.478  15.044   5.460
  707ERGO    R1 9918   0.483  15.032   5.700
  707ERGO    R2 9919   0.399  14.841   5.880
  707ERGO    R3 9920   0.476  15.080   6.060
  707ERGO    R4 9921   0.383  14.816   6.150
  707ERGO    R5 9922   0.401  15.050   6.270
  707ERGO    C1 9923   0.406  15.091   6.630
  707ERGO    C2 9924   0.462  15.021   7.050
  708ERGO   ROH 9925   5.217   5.029   5.460
  708ERGO    R1 9926   5.260   5.072   5.700
  708ERGO    R2 9927   5.159   5.275   5.880
  708ERGO    R3 9928   5.261   5.015   6.060
  708ERGO    R4 9929   5.121   5.326   6.150
  708ERGO    R5 9930   5.242   5.014   6.270
  708ERGO    C1 9931   5.253   5.015   6.630
  708ERGO    C2 9932   5.220   5.031   7.050
  709ERGO   ROH 9933   2.866  14.269   5.460
  709ERGO    R1 9934   2.856  14.301   5.700
  709ERGO    R2 9935   2.846  14.526   5.880
  709ERGO    R3 9936   2.894  14.316   6.060
  709ERGO    R4 9937   2.824  14.496   6.150
  709ERGO    R5 9938   2.887  14.279   6.270
  709ERGO    C1 9939   2.894  14.294   6.630
  709ERGO    C2 9940   2.825  14.298   7.050
  710ERGO   ROH 9941   2.891   3.557   5.460
  710ERGO    R1 9942   2.823   3.516   5.700
  710ERGO    R2 9943   3.039   3.607   5.880
  710ERGO    R3 9944   2.859   3.491   6.060
  710ERGO    R4 9945   3.046   3.629   6.150
  710ERGO    R5 9946   2.868   3.475   6.270
  710ERGO    C1 9947   2.820   3.547   6.630
  710ERGO    C2 9948   2.887   3.469   7.050
  711ERGO   ROH 9949   6.888  14.256   5.460
  711ERGO    R1 9950   6.877  14.286   5.700
  711ERGO    R2 9951   7.073  14.084   5.880
  711ERGO    R3 9952   6.889  14.246   6.060
  711ERGO    R4 9953   7.043  14.135   6.150
  711ERGO    R5 9954   6.892  14.245   6.270
  711ERGO    C1 9955   6.804  14.328   6.630
  711ERGO    C2 9956   6.800  14.306   7.050
  712ERGO   ROH 9957   2.821  16.550   5.460
  712ERGO    R1 9958   2.820  16.545   5.700
  712ERGO    R2 9959   3.055  16.731   5.880
  712ERGO    R3 9960   2.819  16.576   6.060
  712ERGO    R4 9961   3.052  16.748   6.150
  712ERGO    R5 9962   2.853  16.623   6.270
  712ERGO    C1 9963   2.847  16.611   6.630
  712ERGO    C2 9964   2.892  16.562   7.050
  713ERGO   ROH 9965   8.455  18.907   5.460
  713ERGO    R1 9966   8.457  18.857   5.700
  713ERGO    R2 9967   8.721  18.918   5.880
  713ERGO    R3 9968   8.492  18.939   6.060
  713ERGO    R4 9969   8.661  18.904   6.150
  713ERGO    R5 9970   8.497  18.890   6.270
  713ERGO    C1 9971   8.477  18.879   6.630
  713ERGO    C2 9972   8.401  18.861   7.050
  714ERGO   ROH 9973  10.818   8.132   5.460
  714ERGO    R1 9974  10.822   8.164   5.700
  714ERGO    R2 9975  11.120   8.188   5.880
  714ERGO    R3 9976  10.876   8.110   6.060
  714ERGO    R4 9977  11.038   8.253   6.150
  714ERGO    R5 9978  10.861   8.158   6.270
  714ERGO    C1 9979  10.823   8.081   6.630
  714ERGO    C2 9980  10.891   8.111   7.050
  715ERGO   ROH 9981   7.700  12.756   5.460
  715ERGO    R1 9982   7.656  12.728   5.700
  715ERGO    R2 9983   7.410  12.845   5.880
  715ERGO    R3 9984   7.612  12.744   6.060
  715ERGO    R4 9985   7.461  12.820   6.150
  715ERGO    R5 9986   7.643  12.763   6.270
  715ERGO    C1 9987   7.689  12.750   6.630
  715ERGO    C2 9988   7.666  12.764   7.050
  716ERGO   ROH 9989   9.220   4.284   5.460
  716ERGO    R1 9990   9.213   4.325   5.700
  716ERGO    R2 9991   9.032   4.125   5.880
  716ERGO    R3 9992   9.228   4.236   6.060
  716ERGO    R4 9993   9.047   4.165   6.150
  716ERGO    R5 9994   9.204   4.265   6.270
  716ERGO    C1 9995   9.238   4.290   6.630
  716ERGO    C2 9996   9.226   4.275   7.050
  717ERGO   ROH 9997   1.237   3.483   5.460
  717ERGO    R1 9998   1.205   3.540   5.700
  717ERGO    R2 9999   1.384   3.314   5.880
  717ERGO    R310000   1.229   3.553   6.060
  717ERGO    R410001   1.378   3.234   6.150
  717ERGO    R510002   1.296   3.509   6.270
  717ERGO    C110003   1.293   3.560   6.630
  717ERGO    C210004   1.294   3.484   7.050
  718ERGO   ROH10005   0.465   2.693   5.460
  718ERGO    R110006   0.435   2.775   5.700
  718ERGO    R210007   0.720   2.788   5.880
  718ERGO    R310008   0.410   2.779   6.060
  718ERGO    R410009   0.643   2.792   6.150
  718ERGO    R510010   0.478   2.734   6.270
  718ERGO    C110011   0.481   2.728   6.630
  718ERGO    C210012   0.402   2.743   7.050
  719ERGO   ROH10013   7.668  14.304   5.460
  719ERGO    R110014   7.649  14.256   5.700
  719ERGO    R210015   7.532  14.479   5.880
  719ERGO    R310016   7.670  14.300   6.060
  719ERGO    R410017   7.476  14.510   6.150
  719ERGO    R510018   7.652  14.277   6.270
  719ERGO    C110019   7.639  14.257   6.630
  719ERGO    C210020   7.606  14.246   7.050
  720ERGO   ROH10021   4.405  11.175   5.460
  720ERGO    R110022   4.448  11.177   5.700
  720ERGO    R210023   4.423  11.471   5.880
  720ERGO    R310024   4.401  11.196   6.060
  720ERGO    R410025   4.391  11.423   6.150
  720ERGO    R510026   4.420  11.226   6.270
  720ERGO    C110027   4.467  11.169   6.630
  720ERGO    C210028   4.450  11.187   7.050
  721ERGO   ROH10029   3.653   8.878   5.460
  721ERGO    R110030   3.675   8.878   5.700
  721ERGO    R210031   3.395   8.799   5.880
  721ERGO    R310032   3.666   8.936   6.060
  721ERGO    R410033   3.394   8.882   6.150
  721ERGO    R510034   3.698   8.943   6.270
  721ERGO    C110035   3.683   8.927   6.630
  721ERGO    C210036   3.673   8.896   7.050
  722ERGO   ROH10037   2.837   6.584   5.460
  722ERGO    R110038   2.857   6.566   5.700
  722ERGO    R210039   2.599   6.593   5.880
  722ERGO    R310040   2.818   6.550   6.060
  722ERGO    R410041   2.620   6.525   6.150
  722ERGO    R510042   2.862   6.571   6.270
  722ERGO    C110043   2.812   6.620   6.630
  722ERGO    C210044   2.816   6.619   7.050
  723ERGO   ROH10045   2.080   8.108   5.460
  723ERGO    R110046   2.074   8.124   5.700
  723ERGO    R210047   2.264   8.348   5.880
  723ERGO    R310048   2.078   8.162   6.060
  723ERGO    R410049   2.260   8.284   6.150
  723ERGO    R510050   2.049   8.162   6.270
  723ERGO    C110051   2.034   8.115   6.630
  723ERGO    C210052   2.009   8.147   7.050
  724ERGO   ROH10053   6.026   4.284   5.460
  724ERGO    R110054   6.006   4.306   5.700
  724ERGO    R210055   6.339   4.288   5.880
  724ERGO    R310056   6.005   4.231   6.060
  724ERGO    R410057   6.295   4.351   6.150
  724ERGO    R510058   6.027   4.255   6.270
  724ERGO    C110059   6.023   4.272   6.630
  724ERGO    C210060   6.019   4.315   7.050
  725ERGO   ROH10061   6.030   5.084   5.460
  725ERGO    R110062   6.058   5.073   5.700
  725ERGO    R210063   5.830   4.945   5.880
  725ERGO    R310064   6.037   5.001   6.060
  725ERGO    R410065   5.842   4.976   6.150
  725ERGO    R510066   6.046   5.100   6.270
  725ERGO    C110067   6.010   5.085   6.630
  725ERGO    C210068   6.077   5.083   7.050
  726ERGO   ROH10069   8.403   1.238   5.460
  726ERGO    R110070   8.474   1.161   5.700
  726ERGO    R210071   8.265   1.067   5.880
  726ERGO    R310072   8.422   1.196   6.060
  726ERGO    R410073   8.230   1.050   6.150
  726ERGO    R510074   8.410   1.226   6.270
  726ERGO    C110075   8.475   1.157   6.630
  726ERGO    C210076   8.484   1.205   7.050
  727ERGO   ROH10077   2.025  11.203   5.460
  727ERGO    R110078   2.004  11.178   5.700
  727ERGO    R210079   1.907  11.425   5.880
  727ERGO    R310080   2.037  11.251   6.060
  727ERGO    R410081   1.877  11.426   6.150
  727ERGO    R510082   2.055  11.157   6.270
  727ERGO    C110083   2.012  11.177   6.630
  727ERGO    C210084   2.097  11.247   7.050
  728ERGO   ROH10085   8.400  11.219   5.460
  728ERGO    R110086   8.420  11.221   5.700
  728ERGO    R210087   8.748  11.189   5.880
  728ERGO    R310088   8.444  11.213   6.060
  728ERGO    R410089   8.652  11.162   6.150
  728ERGO    R510090   8.473  11.169   6.270
  728ERGO    C110091   8.497  11.180   6.630
  728ERGO    C210092   8.425  11.242   7.050
  729ERGO   ROH10093   5.217   1.994   5.460
  729ERGO    R110094   5.291   1.928   5.700
  729ERGO    R210095   5.453   1.950   5.880
  729ERGO    R310096   5.278   1.966   6.060
  729ERGO    R410097   5.448   1.891   6.150
  729ERGO    R510098   5.213   1.989   6.270
  729ERGO    C110099   5.217   1.938   6.630
  729ERGO    C210100   5.260   2.011   7.050
  730ERGO   ROH10101   4.416   5.835   5.460
  730ERGO    R110102   4.400   5.776   5.700
  730ERGO    R210103   4.481   5.540   5.880
  730ERGO    R310104   4.476   5.844   6.060
  730ERGO    R410105   4.545   5.589   6.150
  730ERGO    R510106   4.449   5.866   6.270
  730ERGO    C110107   4.493   5.795   6.630
  730ERGO    C210108   4.445   5.807   7.050
  731ERGO   ROH10109   9.287   0.403   5.460
  731ERGO    R110110   9.239   0.464   5.700
  731ERGO    R210111   8.986   0.367   5.880
  731ERGO    R310112   9.244   0.416   6.060
  731ERGO    R410113   9.006   0.381   6.150
  731ERGO    R510114   9.291   0.472   6.270
  731ERGO    C110115   9.277   0.428   6.630
  731ERGO    C210116   9.266   0.390   7.050
  732ERGO   ROH10117   6.040   7.323   5.460
  732ERGO    R110118   6.005   7.394   5.700
  732ERGO    R210119   6.309   7.248   5.880
  732ERGO    R310120   6.053   7.367   6.060
  732ERGO    R410121   6.248   7.220   6.150
  732ERGO    R510122   6.031   7.348   6.270
  732ERGO    C110123   6.069   7.402   6.630
  732ERGO    C210124   6.089   7.328   7.050
  733ERGO   ROH10125  10.018   1.221   5.460
  733ERGO    R110126  10.015   1.229   5.700
  733ERGO    R210127   9.915   0.988   5.880
  733ERGO    R310128  10.009   1.222   6.060
  733ERGO    R410129   9.916   0.961   6.150
  733ERGO    R510130  10.012   1.227   6.270
  733ERGO    C110131  10.080   1.253   6.630
  733ERGO    C210132  10.090   1.211   7.050
  734ERGO   ROH10133   9.255   9.672   5.460
  734ERGO    R110134   9.222   9.628   5.700
  734ERGO    R210135   9.286   9.962   5.880
  734ERGO    R310136   9.278   9.713   6.060
  734ERGO    R410137   9.273   9.904   6.150
  734ERGO    R510138   9.213   9.616   6.270
  734ERGO    C110139   9.274   9.631   6.630
  734ERGO    C210140   9.200   9.712   7.050
  735ERGO   ROH10141   1.269   7.385   5.460
  735ERGO    R110142   1.268   7.364   5.700
  735ERGO    R210143   1.520   7.369   5.880
  735ERGO    R310144   1.255   7.312   6.060
  735ERGO    R410145   1.478   7.340   6.150
  735ERGO    R510146   1.225   7.358   6.270
  735ERGO    C110147   1.276   7.328   6.630
  735ERGO    C210148   1.238   7.346   7.050
  736ERGO   ROH10149   7.681  16.590   5.460
  736ERGO    R110150   7.689  16.576   5.700
  736ERGO    R210151   7.906  16.583   5.880
  736ERGO    R310152   7.629  16.552   6.060
  736ERGO    R410153   7.862  16.643   6.150
  736ERGO    R510154   7.691  16.574   6.270
  736ERGO    C110155   7.668  16.561   6.630
  736ERGO    C210156   7.666  16.610   7.050
  737ERGO   ROH10157  11.668   1.180   5.460
  737ERGO    R110158  11.642   1.180   5.700
  737ERGO    R210159  11.447   1.102   5.880
  737ERGO    R310160  11.637   1.238   6.060
  737ERGO    R410161  11.456   1.051   6.150
  737ERGO    R510162  11.688   1.200   6.270
  737ERGO    C110163  11.645   1.226   6.630
  737ERGO    C210164  11.601   1.223   7.050
  738ERGO   ROH10165   3.650   4.330   5.460
  738ERGO    R110166   3.612   4.235   5.700
  738ERGO    R210167   3.729   3.984   5.880
  738ERGO    R310168   3.604   4.247   6.060
  738ERGO    R410169   3.668   3.989   6.150
  738ERGO    R510170   3.650   4.275   6.270
  738ERGO    C110171   3.612   4.328   6.630
  738ERGO    C210172   3.647   4.254   7.050
  739ERGO   ROH10173   4.403  15.855   5.460
  739ERGO    R110174   4.472  15.770   5.700
  739ERGO    R210175   4.567  15.986   5.880
  739ERGO    R310176   4.489  15.809   6.060
  739ERGO    R410177   4.610  15.999   6.150
  739ERGO    R510178   4.408  15.864   6.270
  739ERGO    C110179   4.419  15.867   6.630
  739ERGO    C210180   4.500  15.780   7.050
  740ERGO   ROH10181  10.802   7.320   5.460
  740ERGO    R110182  10.870   7.406   5.700
  740ERGO    R210183  11.134   7.363   5.880
  740ERGO    R310184  10.847   7.343   6.060
  740ERGO    R410185  11.075   7.439   6.150
  740ERGO    R510186  10.886   7.328   6.270
  740ERGO    C110187  10.875   7.315   6.630
  740ERGO    C210188  10.836   7.314   7.050
  741ERGO   ROH10189   7.643   8.859   5.460
  741ERGO    R110190   7.685   8.922   5.700
  741ERGO    R210191   7.861   8.726   5.880
  741ERGO    R310192   7.687   8.871   6.060
  741ERGO    R410193   7.826   8.711   6.150
  741ERGO    R510194   7.675   8.909   6.270
  741ERGO    C110195   7.656   8.888   6.630
  741ERGO    C210196   7.690   8.867   7.050
  742ERGO   ROH10197   4.407   8.866   5.460
  742ERGO    R110198   4.474   8.865   5.700
  742ERGO    R210199   4.419   8.641   5.880
  742ERGO    R310200   4.441   8.900   6.060
  742ERGO    R410201   4.372   8.621   6.150
  742ERGO    R510202   4.426   8.894   6.270
  742ERGO    C110203   4.420   8.903   6.630
  742ERGO    C210204   4.400   8.868   7.050
  743ERGO   ROH10205   3.616   0.430   5.460
  743ERGO    R110206   3.697   0.459   5.700
  743ERGO    R210207   3.439   0.324   5.880
  743ERGO    R310208   3.645   0.405   6.060
  743ERGO    R410209   3.459   0.268   6.150
  743ERGO    R510210   3.690   0.469   6.270
  743ERGO    C110211   3.680   0.402   6.630
  743ERGO    C210212   3.660   0.417   7.050
  744ERGO   ROH10213   2.827  15.031   5.460
  744ERGO    R110214   2.889  15.097   5.700
  744ERGO    R210215   2.569  14.970   5.880
  744ERGO    R310216   2.842  15.045   6.060
  744ERGO    R410217   2.597  15.025   6.150
  744ERGO    R510218   2.813  15.056   6.270
  744ERGO    C110219   2.810  15.057   6.630
  744ERGO    C210220   2.875  15.032   7.050
  745ERGO   ROH10221   6.868   9.625   5.460
  745ERGO    R110222   6.841   9.698   5.700
  745ERGO    R210223   6.648   9.539   5.880
  745ERGO    R310224   6.829   9.631   6.060
  745ERGO    R410225   6.631   9.606   6.150
  745ERGO    R510226   6.885   9.690   6.270
  745ERGO    C110227   6.845   9.653   6.630
  745ERGO    C210228   6.863   9.649   7.050
  746ERGO   ROH10229  10.029  11.227   5.460
  746ERGO    R110230  10.069  11.232   5.700
  746ERGO    R210231  10.217  11.104   5.880
  746ERGO    R310232  10.051  11.197   6.060
  746ERGO    R410233  10.222  11.086   6.150
  746ERGO    R510234  10.026  11.184   6.270
  746ERGO    C110235  10.069  11.168   6.630
  746ERGO    C210236  10.032  11.179   7.050
  747ERGO   ROH10237   6.024   3.486   5.460
  747ERGO    R110238   6.012   3.487   5.700
  747ERGO    R210239   5.961   3.750   5.880
  747ERGO    R310240   6.011   3.541   6.060
  747ERGO    R410241   5.866   3.682   6.150
  747ERGO    R510242   6.087   3.494   6.270
  747ERGO    C110243   6.064   3.506   6.630
  747ERGO    C210244   6.098   3.495   7.050
  748ERGO   ROH10245   3.681   8.126   5.460
  748ERGO    R110246   3.646   8.143   5.700
  748ERGO    R210247   3.484   8.328   5.880
  748ERGO    R310248   3.673   8.168   6.060
  748ERGO    R410249   3.569   8.347   6.150
  748ERGO    R510250   3.684   8.088   6.270
  748ERGO    C110251   3.618   8.107   6.630
  748ERGO    C210252   3.604   8.095   7.050
  749ERGO   ROH10253  10.084   8.854   5.460
  749ERGO    R110254  10.036   8.874   5.700
  749ERGO    R210255  10.183   9.098   5.880
  749ERGO    R310256  10.007   8.944   6.060
  749ERGO    R410257  10.122   9.116   6.150
  749ERGO    R510258  10.063   8.850   6.270
  749ERGO    C110259  10.018   8.869   6.630
  749ERGO    C210260  10.053   8.913   7.050
  750ERGO   ROH10261   8.499  18.116   5.460
  750ERGO    R110262   8.485  18.144   5.700
  750ERGO    R210263   8.516  17.900   5.880
  750ERGO    R310264   8.439  18.133   6.060
  750ERGO    R410265   8.460  17.848   6.150
  750ERGO    R510266   8.444  18.150   6.270
  750ERGO    C110267   8.425  18.149   6.630
  750ERGO    C210268   8.489  18.176   7.050
  751ERGO   ROH10269  11.687   3.555   5.460
  751ERGO    R110270  11.665   3.503   5.700
  751ERGO    R210271  11.726   3.297   5.880
  751ERGO    R310272  11.604   3.561   6.060
  751ERGO    R410273  11.671   3.237   6.150
  751ERGO    R510274  11.614   3.539   6.270
  751ERGO    C110275  11.607   3.526   6.630
  751ERGO    C210276  11.607   3.527   7.050
  752ERGO   ROH10277   3.692   7.330   5.460
  752ERGO    R110278   3.694   7.364   5.700
  752ERGO    R210279   3.480   7.568   5.880
  752ERGO    R310280   3.685   7.364   6.060
  752ERGO    R410281   3.482   7.562   6.150
  752ERGO    R510282   3.673   7.397   6.270
  752ERGO    C110283   3.646   7.310   6.630
  752ERGO    C210284   3.685   7.402   7.050
  753ERGO   ROH10285   7.646   8.134   5.460
  753ERGO    R110286   7.635   8.132   5.700
  753ERGO    R210287   7.921   8.205   5.880
  753ERGO    R310288   7.617   8.121   6.060
  753ERGO    R410289   7.934   8.215   6.150
  753ERGO    R510290   7.633   8.102   6.270
  753ERGO    C110291   7.625   8.161   6.630
  753ERGO    C210292   7.694   8.168   7.050
  754ERGO   ROH10293   4.452   9.662   5.460
  754ERGO    R110294   4.441   9.621   5.700
  754ERGO    R210295   4.420   9.463   5.880
  754ERGO    R310296   4.494   9.644   6.060
  754ERGO    R410297   4.350   9.430   6.150
  754ERGO    R510298   4.440   9.674   6.270
  754ERGO    C110299   4.499   9.707   6.630
  754ERGO    C210300   4.497   9.695   7.050
  755ERGO   ROH10301   2.050   4.309   5.460
  755ERGO    R110302   2.007   4.284   5.700
  755ERGO    R210303   2.338   4.199   5.880
  755ERGO    R310304   2.021   4.328   6.060
  755ERGO    R410305   2.267   4.196   6.150
  755ERGO    R510306   2.057   4.264   6.270
  755ERGO    C110307   2.060   4.331   6.630
  755ERGO    C210308   2.051   4.287   7.050
  756ERGO   ROH10309   6.812  18.867   5.460
  756ERGO    R110310   6.875  18.878   5.700
  756ERGO    R210311   7.119  18.902   5.880
  756ERGO    R310312   6.870  18.909   6.060
  756ERGO    R410313   7.084  18.971   6.150
  756ERGO    R510314   6.816  18.891   6.270
  756ERGO    C110315   6.810  18.862   6.630
  756ERGO    C210316   6.856  18.871   7.050
  757ERGO   ROH10317   9.270  15.052   5.460
  757ERGO    R110318   9.206  15.019   5.700
  757ERGO    R210319   9.081  14.869   5.880
  757ERGO    R310320   9.298  15.077   6.060
  757ERGO    R410321   9.042  14.869   6.150
  757ERGO    R510322   9.266  15.010   6.270
  757ERGO    C110323   9.266  15.100   6.630
  757ERGO    C210324   9.216  15.069   7.050
  758ERGO   ROH10325   8.440  10.407   5.460
  758ERGO    R110326   8.473  10.429   5.700
  758ERGO    R210327   8.359  10.645   5.880
  758ERGO    R310328   8.429  10.450   6.060
  758ERGO    R410329   8.441  10.647   6.150
  758ERGO    R510330   8.490  10.462   6.270
  758ERGO    C110331   8.441  10.407   6.630
  758ERGO    C210332   8.446  10.460   7.050
  759ERGO   ROH10333   5.246  15.840   5.460
  759ERGO    R110334   5.265  15.829   5.700
  759ERGO    R210335   5.079  16.054   5.880
  759ERGO    R310336   5.243  15.797   6.060
  759ERGO    R410337   5.107  16.035   6.150
  759ERGO    R510338   5.260  15.816   6.270
  759ERGO    C110339   5.233  15.819   6.630
  759ERGO    C210340   5.217  15.779   7.050
  760ERGO   ROH10341  10.878  18.086   5.460
  760ERGO    R110342  10.867  18.077   5.700
  760ERGO    R210343  11.069  17.988   5.880
  760ERGO    R310344  10.808  18.078   6.060
  760ERGO    R410345  11.052  18.079   6.150
  760ERGO    R510346  10.809  18.149   6.270
  760ERGO    C110347  10.858  18.113   6.630
  760ERGO    C210348  10.803  18.107   7.050
  761ERGO   ROH10349   2.877   7.322   5.460
  761ERGO    R110350   2.867   7.369   5.700
  761ERGO    R210351   2.957   7.602   5.880
  761ERGO    R310352   2.872   7.344   6.060
  761ERGO    R410353   2.952   7.607   6.150
  761ERGO    R510354   2.814   7.372   6.270
  761ERGO    C110355   2.857   7.396   6.630
  761ERGO    C210356   2.892   7.361   7.050
  762ERGO   ROH10357   2.027   8.847   5.460
  762ERGO    R110358   2.046   8.874   5.700
  762ERGO    R210359   1.773   8.785   5.880
  762ERGO    R310360   2.092   8.866   6.060
  762ERGO    R410361   1.770   8.835   6.150
  762ERGO    R510362   2.049   8.944   6.270
  762ERGO    C110363   2.011   8.855   6.630
  762ERGO    C210364   2.045   8.914   7.050
  763ERGO   ROH10365   0.484   8.078   5.460
  763ERGO    R110366   0.427   8.144   5.700
  763ERGO    R210367   0.536   7.850   5.880
  763ERGO    R310368   0.489   8.109   6.060
  763ERGO    R410369   0.448   7.848   6.150
  763ERGO    R510370   0.443   8.153   6.270
  763ERGO    C110371   0.500   8.140   6.630
  763ERGO    C210372   0.435   8.081   7.050
  764ERGO   ROH10373   5.265  16.589   5.460
  764ERGO    R110374   5.292  16.589   5.700
  764ERGO    R210375   5.472  16.559   5.880
  764ERGO    R310376   5.288  16.570   6.060
  764ERGO    R410377   5.461  16.620   6.150
  764ERGO    R510378   5.290  16.594   6.270
  764ERGO    C110379   5.254  16.545   6.630
  764ERGO    C210380   5.227  16.565   7.050
  765ERGO   ROH10381   9.260  18.122   5.460
  765ERGO    R110382   9.248  18.104   5.700
  765ERGO    R210383   9.084  17.877   5.880
  765ERGO    R310384   9.221  18.142   6.060
  765ERGO    R410385   9.059  17.881   6.150
  765ERGO    R510386   9.218  18.159   6.270
  765ERGO    C110387   9.250  18.116   6.630
  765ERGO    C210388   9.204  18.094   7.050
  766ERGO   ROH10389   3.688  12.790   5.460
  766ERGO    R110390   3.694  12.766   5.700
  766ERGO    R210391   3.670  12.529   5.880
  766ERGO    R310392   3.663  12.738   6.060
  766ERGO    R410393   3.604  12.450   6.150
  766ERGO    R510394   3.608  12.696   6.270
  766ERGO    C110395   3.628  12.745   6.630
  766ERGO    C210396   3.605  12.766   7.050
  767ERGO   ROH10397  10.878   3.474   5.460
  767ERGO    R110398  10.810   3.465   5.700
  767ERGO    R210399  10.991   3.296   5.880
  767ERGO    R310400  10.850   3.493   6.060
  767ERGO    R410401  11.063   3.379   6.150
  767ERGO    R510402  10.830   3.532   6.270
  767ERGO    C110403  10.892   3.483   6.630
  767ERGO    C210404  10.866   3.517   7.050
  768ERGO   ROH10405  10.020   0.483   5.460
  768ERGO    R110406  10.001   0.457   5.700
  768ERGO    R210407  10.347   0.443   5.880
  768ERGO    R310408  10.023   0.457   6.060
  768ERGO    R410409  10.316   0.450   6.150
  768ERGO    R510410  10.021   0.413   6.270
  768ERGO    C110411  10.047   0.390   6.630
  768ERGO    C210412  10.068   0.478   7.050
  769ERGO   ROH10413  10.064  15.796   5.460
  769ERGO    R110414  10.029  15.848   5.700
  769ERGO    R210415  10.271  15.666   5.880
  769ERGO    R310416  10.088  15.828   6.060
  769ERGO    R410417  10.221  15.739   6.150
  769ERGO    R510418  10.055  15.867   6.270
  769ERGO    C110419  10.097  15.867   6.630
  769ERGO    C210420  10.014  15.796   7.050
  770ERGO   ROH10421   0.437  10.400   5.460
  770ERGO    R110422   0.428  10.425   5.700
  770ERGO    R210423   0.625  10.566   5.880
  770ERGO    R310424   0.469  10.388   6.060
  770ERGO    R410425   0.640  10.530   6.150
  770ERGO    R510426   0.469  10.403   6.270
  770ERGO    C110427   0.471  10.441   6.630
  770ERGO    C210428   0.486  10.410   7.050
  771ERGO   ROH10429   1.205   1.979   5.460
  771ERGO    R110430   1.254   1.954   5.700
  771ERGO    R210431   1.444   1.824   5.880
  771ERGO    R310432   1.277   2.008   6.060
  771ERGO    R410433   1.422   1.819   6.150
  771ERGO    R510434   1.214   1.958   6.270
  771ERGO    C110435   1.210   1.959   6.630
  771ERGO    C210436   1.294   1.923   7.050
  772ERGO   ROH10437   6.865   3.469   5.460
  772ERGO    R110438   6.875   3.541   5.700
  772ERGO    R210439   6.994   3.390   5.880
  772ERGO    R310440   6.877   3.552   6.060
  772ERGO    R410441   7.010   3.366   6.150
  772ERGO    R510442   6.893   3.466   6.270
  772ERGO    C110443   6.865   3.504   6.630
  772ERGO    C210444   6.870   3.517   7.050
  773ERGO   ROH10445   6.006  15.810   5.460
  773ERGO    R110446   6.083  15.783   5.700
  773ERGO    R210447   6.272  15.743   5.880
  773ERGO    R310448   6.033  15.858   6.060
  773ERGO    R410449   6.268  15.703   6.150
  773ERGO    R510450   6.072  15.776   6.270
  773ERGO    C110451   6.096  15.789   6.630
  773ERGO    C210452   6.072  15.786   7.050
  774ERGO   ROH10453   1.208   9.617   5.460
  774ERGO    R110454   1.237   9.629   5.700
  774ERGO    R210455   1.467   9.692   5.880
  774ERGO    R310456   1.240   9.662   6.060
  774ERGO    R410457   1.471   9.690   6.150
  774ERGO    R510458   1.285   9.664   6.270
  774ERGO    C110459   1.276   9.653   6.630
  774ERGO    C210460   1.226   9.640   7.050
  775ERGO   ROH10461   2.892   4.263   5.460
  775ERGO    R110462   2.856   4.263   5.700
  775ERGO    R210463   2.568   4.221   5.880
  775ERGO    R310464   2.818   4.291   6.060
  775ERGO    R410465   2.619   4.182   6.150
  775ERGO    R510466   2.892   4.247   6.270
  775ERGO    C110467   2.810   4.254   6.630
  775ERGO    C210468   2.891   4.312   7.050
  776W        W10469   9.372  18.798   0.245
  777W        W10470   2.180   6.624  12.371
  778W        W10471   4.088   8.073   0.249
  779W        W10472   1.219  19.303   1.713
  780W        W10473   7.949   8.083   1.720
  781W        W10474   0.731  10.490  13.796
  782W        W10475  11.312   6.136  14.301
  783W        W10476   5.040  10.503  11.882
  784W        W10477   3.161  18.335   4.629
  785W        W10478   3.610   6.141   3.632
  786W        W10479   2.656   7.119  10.910
  787W        W10480   1.693  17.847  10.896
  788W        W10481  10.340  13.918   3.193
  789W        W10482  11.309   0.739   4.608
  790W        W10483   6.998   7.105  11.889
  791W        W10484   5.048   1.244  13.313
  792W        W10485   4.096   9.520   0.267
  793W        W10486   1.717  17.343   1.700
  794W        W10487   9.374  13.461   0.265
  795W        W10488   5.541   0.775  10.914
  796W        W10489   7.456  10.519   2.674
  797W        W10490   3.639  14.410  14.791
  798W        W10491   4.602  13.461  13.325
  799W        W10492   6.487  16.376   4.141
  800W        W10493   9.858  10.979  10.914
  801W        W10494   3.153  16.366  14.805
  802W        W10495   4.571   3.215   2.208
  803W        W10496  10.828  18.296  12.372
  804W        W10497  11.780   7.577   0.266
  805W        W10498   9.361  16.851   2.186
  806W        W10499   8.889   4.676  12.856
  807W        W10500   2.177   7.121  12.865
  808W        W10501   4.080   0.246  13.329
  809W        W10502   6.995   6.632   4.151
  810W        W10503   6.048   1.747   3.169
  811W        W10504  10.807   2.222   1.217
  812W        W10505   1.714  14.897  11.403
  813W        W10506   4.578  14.889   3.149
  814W        W10507   5.544  15.885  11.386
  815W        W10508  10.805  14.927  12.346
  816W        W10509   1.715   6.102   1.695
  817W        W10510   7.452  11.980  14.763
  818W        W10511   9.864   1.756  13.797
  819W        W10512   3.149   7.074   3.640
  820W        W10513   5.543  13.430  14.313
  821W        W10514   6.522  14.401  11.376
  822W        W10515   2.662   6.113  11.385
  823W        W10516   6.490  18.808   0.285
  824W        W10517   5.058   4.158  13.822
  825W        W10518  10.328   1.717   0.731
  826W        W10519   8.428  12.456  14.767
  827W        W10520  10.803   9.538   2.695
  828W        W10521  10.349  14.891  13.819
  829W        W10522   9.388   6.615  12.866
  830W        W10523  10.356   5.128  14.279
  831W        W10524   0.248  16.356  13.343
  832W        W10525   4.109  13.911  13.800
  833W        W10526   3.146  13.933   0.273
  834W        W10527   6.028  14.398  12.869
  835W        W10528   2.163  12.971  11.381
  836W        W10529   0.761   6.111  12.369
  837W        W10530  10.361   1.231  11.882
  838W        W10531   2.188  10.020  13.328
  839W        W10532   2.170   6.136   4.141
  840W        W10533   6.526   4.180   1.219
  841W        W10534   1.208  11.961  13.322
  842W        W10535   1.705   6.101   3.175
  843W        W10536   9.367  15.372  12.856
  844W        W10537   4.081  14.430   2.191
  845W        W10538   9.863   0.272   4.161
  846W        W10539  10.357   2.698   2.698
  847W        W10540   0.246  16.344  14.795
  848W        W10541   0.760   5.125  14.276
  849W        W10542   1.238  17.318   0.748
  850W        W10543   8.905  11.980   0.277
  851W        W10544   4.117   6.125  14.790
  852W        W10545   7.440   6.115  13.799
  853W        W10546   2.650   7.606  12.849
  854W        W10547   4.106  10.488  14.773
  855W        W10548   7.444   3.218  14.321
  856W        W10549   6.999  17.805   0.276
  857W        W10550   9.404   8.576   0.770
  858W        W10551   6.029   7.590   0.745
  859W        W10552   3.612   0.265  13.805
  860W        W10553   3.142   1.241   1.703
  861W        W10554   8.921   3.697  10.920
  862W        W10555   0.747   3.706   4.122
  863W        W10556   6.991   5.646  13.353
  864W        W10557   4.598  18.308   0.257
  865W        W10558   6.488  11.469   2.672
  866W        W10559   2.652  18.321  10.912
  867W        W10560   1.211   3.666  11.413
  868W        W10561   6.993   8.060  11.856
  869W        W10562   4.582  15.879  10.889
  870W        W10563   7.481  10.006  14.295
  871W        W10564  11.290   8.096   2.183
  872W        W10565   6.488   0.256   0.770
  873W        W10566   4.090  10.504   0.756
  874W        W10567   6.990   6.608   0.736
  875W        W10568   5.530   7.082   4.148
  876W        W10569  10.805  11.496  11.415
  877W        W10570   2.201  13.450   1.710
  878W        W10571   3.602  12.469  11.865
  879W        W10572   3.126  15.408   4.619
  880W        W10573   7.457  10.984  12.844
  881W        W10574   5.535  12.970  14.771
  882W        W10575   1.241  17.322  13.313
  883W        W10576   2.677   5.127  10.895
  884W        W10577   3.627   8.544   0.265
  885W        W10578   5.070   9.036  10.890
  886W        W10579   7.951  12.965  11.875
  887W        W10580   7.000  17.346  14.804
  888W        W10581   2.666   2.196   2.180
  889W        W10582   3.121  13.448  11.410
  890W        W10583   6.966   6.143  12.832
  891W        W10584   4.103  10.984  14.771
  892W        W10585   0.265  11.465   3.174
  893W        W10586  11.323   7.081   2.673
  894W        W10587   6.518  19.275  13.798
  895W        W10588   4.607  19.765   4.141
  896W        W10589   8.922  18.324   2.677
  897W        W10590   3.601  15.404   1.719
  898W        W10591   5.550   5.125   4.630
  899W        W10592   3.622   5.650  12.352
  900W        W10593   6.962   3.701   1.214
  901W        W10594   4.120   1.738  14.794
  902W        W10595   3.635  17.325  11.388
  903W        W10596   8.433  14.404   0.751
  904W        W10597   6.971  11.958   2.206
  905W        W10598   7.963  14.430   4.612
  906W        W10599   2.205  14.397  12.851
  907W        W10600   3.159  15.884  11.865
  908W        W10601  11.769  10.985  13.819
  909W        W10602  10.846   6.110  12.860
  910W        W10603   7.941   4.175  12.349
  911W        W10604   8.886   2.723  14.306
  912W        W10605   3.124   9.516  13.312
  913W        W10606   7.954  14.895  14.785
  914W        W10607   4.586   2.701   3.642
  915W        W10608   7.456  18.316   3.165
  916W        W10609   0.244  19.785   0.742
  917W        W10610   4.562  10.983  10.912
  918W        W10611   2.646   4.177  12.359
  919W        W10612   2.643   8.057  14.794
  920W        W10613   9.362   2.707  10.902
  921W        W10614   1.717  19.278  11.866
  922W        W10615  10.341  13.461   2.678
  923W        W10616   0.286   1.222   4.146
  924W        W10617   9.406   7.092  12.361
  925W        W10618   9.381  18.323  14.282
  926W        W10619   1.232  12.967   1.229
  927W        W10620  10.363  14.906   0.264
  928W        W10621   3.133  19.760   2.178
  929W        W10622   4.598  11.492   3.661
  930W        W10623   8.901  17.348   4.625
  931W        W10624   4.110  17.832   2.203
  932W        W10625  11.301   9.037   1.733
  933W        W10626   5.558  12.939   4.600
  934W        W10627   1.219  17.842   3.667
  935W        W10628   0.255  12.476   2.188
  936W        W10629  10.845   9.065  13.351
  937W        W10630   0.748   4.663   2.673
  938W        W10631   3.626  13.933   0.268
  939W        W10632  11.289  12.458   0.289
  940W        W10633   2.178   6.624   0.258
  941W        W10634   3.646   1.742  13.325
  942W        W10635   9.846  11.015  14.778
  943W        W10636  11.295  11.961   0.757
  944W        W10637  11.778   3.688  12.343
  945W        W10638   8.893  13.420   2.198
  946W        W10639   6.983   9.545  12.833
  947W        W10640   9.388  15.892  14.319
  948W        W10641   1.689   7.085  11.886
  949W        W10642   4.110   1.263   0.275
  950W        W10643   6.514   3.177   3.642
  951W        W10644   7.923  11.981   4.639
  952W        W10645   8.919  19.274  14.315
  953W        W10646  10.347   1.255  12.386
  954W        W10647  11.782  10.045   3.191
  955W        W10648   3.640  16.378   1.233
  956W        W10649   9.380   3.188  11.380
  957W        W10650  11.775   4.174   1.253
  958W        W10651   9.380  17.806   1.726
  959W        W10652  10.827  10.526  13.803
  960W        W10653   6.971  13.924   3.669
  961W        W10654   4.098  18.333  13.353
  962W        W10655   5.062   3.681   1.709
  963W        W10656  11.796   9.050   2.201
  964W        W10657   6.038   1.252  11.372
  965W        W10658   2.208  19.307   1.734
  966W        W10659   7.006  10.492   4.121
  967W        W10660   8.919   1.717   4.605
  968W        W10661  10.846  16.843  10.893
  969W        W10662   0.766   6.606  12.381
  970W        W10663   5.061   1.733   2.206
  971W        W10664   0.250  10.504  13.330
  972W        W10665   5.080   3.196  13.352
  973W        W10666   7.933   0.771  12.857
  974W        W10667   6.991  14.908   3.657
  975W        W10668   6.991  16.836  12.856
  976W        W10669   1.683  18.298  12.379
  977W        W10670   0.249  12.927   4.128
  978W        W10671   6.025  10.490  12.846
  979W        W10672   0.767  15.889  14.281
  980W        W10673   5.528  18.825  10.895
  981W        W10674  11.771  17.833  14.283
  982W        W10675   0.753   2.729   1.233
  983W        W10676   6.997  10.500   1.255
  984W        W10677   2.678   7.086  14.806
  985W        W10678   0.742   0.288  14.806
  986W        W10679   3.635  12.939   1.210
  987W        W10680   4.598   5.156  10.923
  988W        W10681   8.884  11.953  13.833
  989W        W10682   1.228   9.554   4.642
  990W        W10683   8.923  11.471   2.219
  991W        W10684  10.321  10.041  11.897
  992W        W10685   7.959  17.834  13.353
  993W        W10686   4.572  16.841  10.933
  994W        W10687   4.574  13.458   3.632
  995W        W10688  11.778  19.274   0.747
  996W        W10689   3.156  17.325  13.332
  997W        W10690   8.902   6.127   3.148
  998W        W10691   9.392   1.251  14.760
  999W        W10692   3.165   3.182   4.615
 1000W        W10693  10.805   9.047   3.189
 1001W        W10694   9.380   0.742  11.888
 1002W        W10695   6.042  11.000  10.901
 1003W        W10696   4.087   9.048   4.136
 1004W        W10697   1.233   8.078   4.144
 1005W        W10698   1.211   2.705  11.887
 1006W        W10699   7.932  11.466   0.751
 1007W        W10700   2.653   9.056  12.846
 1008W        W10701  11.764   7.566  10.893
 1009W        W10702   7.001  15.871   3.182
 1010W        W10703  11.797  12.455   1.723
 1011W        W10704   0.768   7.566   2.188
 1012W        W10705   6.013   8.067   3.664
 1013W        W10706   0.276  10.022   3.169
 1014W        W10707  10.354   2.708  14.799
 1015W        W10708   3.135  12.449  12.363
 1016W        W10709   4.599  15.883   0.290
 1017W        W10710   5.557  10.991   1.222
 1018W        W10711   0.262  11.984  14.280
 1019W        W10712   0.248   8.061  11.892
 1020W        W10713   8.907   3.672  11.412
 1021W        W10714   3.152   4.663  12.829
 1022W        W10715   7.005   8.064  13.816
 1023W        W10716   9.383   2.728  12.829
 1024W        W10717   8.410  14.408   2.685
 1025W        W10718   7.456   7.088   2.689
 1026W        W10719   0.767   7.078   0.269
 1027W        W10720  11.783  14.422   0.270
 1028W        W10721   4.576   8.054  13.351
 1029W        W10722   7.956   2.207   0.762
 1030W        W10723  10.822  11.491  13.315
 1031W        W10724   6.966   4.182   3.192
 1032W        W10725   6.519  11.965  11.412
 1033W        W10726   0.742   9.518   3.676
 1034W        W10727   3.145   9.066   2.217
 1035W        W10728   6.974   8.562   3.669
 1036W        W10729   6.496  14.917  12.379
 1037W        W10730   1.701  16.390  14.317
 1038W        W10731  11.796  17.331  11.893
 1039W        W10732   9.393   3.209   1.252
 1040W        W10733   4.120  11.497   1.255
 1041W        W10734   2.674   0.275   2.191
 1042W        W10735   4.574   9.546  13.347
 1043W        W10736   5.077   3.669   1.234
 1044W        W10737   6.992   3.187   2.213
 1045W        W10738   3.604   3.672   0.737
 1046W        W10739   8.424   0.740  11.859
 1047W        W10740   1.240  16.361  11.859
 1048W        W10741   5.045   7.087  10.896
 1049W        W10742   4.080  17.851   1.249
 1050W        W10743   6.521   5.633   0.285
 1051W        W10744   7.452  10.515  14.785
 1052W        W10745   2.683   5.132   1.725
 1053W        W10746   2.172  16.850   4.129
 1054W        W10747  10.806   3.670   0.742
 1055W        W10748   5.523  12.932  13.830
 1056W        W10749   7.456   2.217  13.806
 1057W        W10750   1.715  17.318  10.921
 1058W        W10751   4.573  17.337  13.339
 1059W        W10752   6.993   9.553   0.243
 1060W        W10753   2.199  17.324   2.670
 1061W        W10754   4.570   1.264  14.289
 1062W        W10755   4.084   7.589   2.201
 1063W        W10756   4.563   9.521  12.831
 1064W        W10757   3.148   0.253   3.153
 1065W        W10758   4.564   7.581  10.935
 1066W        W10759  11.765  15.902   4.612
 1067W        W10760   6.044   8.082   1.228
 1068W        W10761   6.968  13.917  11.898
 1069W        W10762   7.958  12.478  12.387
 1070W        W10763   2.644  10.038   3.188
 1071W        W10764   6.524  14.402   1.215
 1072W        W10765   6.515  15.407  11.372
 1073W        W10766  11.792  10.491  12.848
 1074W        W10767   0.743  11.482  12.846
 1075W        W10768  11.764  15.400   3.183
 1076W        W10769   3.142  19.759   1.244
 1077W        W10770   3.605   4.155  14.294
 1078W        W10771  11.796  12.457  14.787
 1079W        W10772  10.353   2.241   2.188
 1080W        W10773   9.859  13.424  12.382
 1081W        W10774   5.074   9.540   1.704
 1082W        W10775   0.270   4.636   2.180
 1083W        W10776   1.232  14.390  10.906
 1084W        W10777   2.185   1.733  12.862
 1085W        W10778   2.173  19.302   3.192
 1086W        W10779   4.591  17.824   4.115
 1087W        W10780   8.916   9.070  14.297
 1088W        W10781   6.038  13.925  12.367
 1089W        W10782   2.657  17.362  13.307
 1090W        W10783   4.598  17.830   3.632
 1091W        W10784   4.082  17.341   2.691
 1092W        W10785   8.919   7.566   3.656
 1093W        W10786  10.819  11.013   4.633
 1094W        W10787   0.253   0.757   3.186
 1095W        W10788  10.327   3.206  12.346
 1096W        W10789   6.972   9.067  13.802
 1097W        W10790   7.927   1.752   1.223
 1098W        W10791   4.583  13.906  11.416
 1099W        W10792   7.943   5.657  14.295
 1100W        W10793   4.568   2.244  12.358
 1101W        W10794   7.934  17.348  13.802
 1102W        W10795   0.264   6.590   1.718
 1103W        W10796   5.568   1.732   4.635
 1104W        W10797   1.702   4.656  13.353
 1105W        W10798   8.412   2.224  14.301
 1106W        W10799   6.038   9.041  13.316
 1107W        W10800   6.994  18.810  13.334
 1108W        W10801   4.111   5.632   2.674
 1109W        W10802   0.278  14.888  12.841
 1110W        W10803   6.518  19.775   2.671
 1111W        W10804   2.184  17.321   0.756
 1112W        W10805  10.327   9.530  14.281
 1113W        W10806   9.370  15.400  13.309
 1114W        W10807   6.021  14.390  13.802
 1115W        W10808   6.010  10.999  14.805
 1116W        W10809   9.850  14.417   1.230
 1117W        W10810   3.639   7.109   2.682
 1118W        W10811   6.035   7.076  14.289
 1119W        W10812  10.344  19.298  14.305
 1120W        W10813   2.648   5.170   0.727
 1121W        W10814  11.283  17.350  10.918
 1122W        W10815   0.279  16.873  11.859
 1123W        W10816   3.646   4.158   3.661
 1124W        W10817   8.440  13.461   4.122
 1125W        W10818   3.606  10.995  12.871
 1126W        W10819   2.647  10.022  14.279
 1127W        W10820  11.771  15.400   2.688
 1128W        W10821   0.271   5.613  11.415
 1129W        W10822   0.766  19.280  13.799
 1130W        W10823  11.780  16.372   0.732
 1131W        W10824  11.316   5.654  13.837
 1132W        W10825   8.405   1.235   2.193
 1133W        W10826   8.413   5.140   3.642
 1134W        W10827   6.992  19.786  14.287
 1135W        W10828   8.401   5.646   1.721
 1136W        W10829   8.910  19.759   2.707
 1137W        W10830  11.800  11.006   2.186
 1138W        W10831   9.859   0.751  11.379
 1139W        W10832   7.488  11.500  12.342
 1140W        W10833   5.067   0.285  10.935
 1141W        W10834   1.705  19.796   4.597
 1142W        W10835   2.649   1.243   2.215
 1143W        W10836   3.631  11.018   3.175
 1144W        W10837   6.008   4.156  11.375
 1145W        W10838   1.208   7.577  11.374
 1146W        W10839   2.662  14.922   0.251
 1147W        W10840   0.762  15.399   1.700
 1148W        W10841  11.298  13.434  14.769
 1149W        W10842   7.927   5.162   1.252
 1150W        W10843  11.772   2.702   4.130
 1151W        W10844   6.522  13.426   4.644
 1152W        W10845   2.656  19.284   4.634
 1153W        W10846   0.765  11.481   0.749
 1154W        W10847   7.961  18.788   1.695
 1155W        W10848   0.748  13.440  10.931
 1156W        W10849   0.254   1.244   0.288
 1157W        W10850  10.826  12.956   4.606
 1158W        W10851  10.843  16.868  14.793
 1159W        W10852   9.383  16.871  13.310
 1160W        W10853   8.416   0.258   1.256
 1161W        W10854  10.356   4.190   2.702
 1162W        W10855   8.414  10.999   3.172
 1163W        W10856   2.176  11.997   3.152
 1164W        W10857   3.631   2.207  11.377
 1165W        W10858   6.492   0.245   4.617
 1166W        W10859   9.390   1.238   4.124
 1167W        W10860   8.901   8.580  12.840
 1168W        W10861   7.447  18.329  13.329
 1169W        W10862   1.719   9.539   2.688
 1170W        W10863   9.399  11.487   3.654
 1171W        W10864   4.579  11.992   4.149
 1172W        W10865   6.005   1.225   0.251
 1173W        W10866   3.617  16.846  11.391
 1174W        W10867   3.122  12.964   2.704
 1175W        W10868   3.627   3.689  14.283
 1176W        W10869   3.129   0.252  12.371
 1177W        W10870  11.296  11.993  11.857
 1178W        W10871   9.887  11.971  12.834
 1179W        W10872   9.399  18.788   3.184
 1180W        W10873  10.356  18.785   3.178
 1181W        W10874   4.599  16.840  13.317
 1182W        W10875   1.219  13.458  14.769
 1183W        W10876   9.378  10.981   4.128
 1184W        W10877  11.313  13.432   0.767
 1185W        W10878   7.931  10.012   3.653
 1186W        W10879   6.997   4.169   4.621
 1187W        W10880   5.045  17.343  13.801
 1188W        W10881   1.727   3.199   4.141
 1189W        W10882   8.426  18.340  12.825
 1190W        W10883   2.160   3.179  12.870
 1191W        W10884   9.844   0.255  12.846
 1192W        W10885   1.716   4.178  11.857
 1193W        W10886   5.532   9.516   0.254
 1194W        W10887   3.127  13.941  11.390
 1195W        W10888   0.269  10.498  14.300
 1196W        W10889   8.412  15.376  12.362
 1197W        W10890   6.995  19.315  14.278
 1198W        W10891  11.311  12.445  11.388
 1199W        W10892   2.651   8.056   4.599
 1200W        W10893   6.032   9.516  11.887
 1201W        W10894   4.112  18.310   2.186
 1202W        W10895   0.245   6.618  11.862
 1203W        W10896   3.644   7.563   4.604
 1204W        W10897   1.694   2.698   3.675
 1205W        W10898   4.563   3.706   0.757
 1206W        W10899   7.480   4.170  11.396
 1207W        W10900   7.487   8.579  11.398
 1208W        W10901   3.138   3.661   1.248
 1209W        W10902   4.581  13.441  12.370
 1210W        W10903   5.044  17.811  12.368
 1211W        W10904  11.772   6.619   2.208
 1212W        W10905  11.311  16.374   1.221
 1213W        W10906   8.406   6.124   3.151
 1214W        W10907   4.117  17.356  11.879
 1215W        W10908   9.400   8.548  14.783
 1216W        W10909   5.560  13.453   0.750
 1217W        W10910  10.808  11.980   2.679
 1218W        W10911   0.261  17.837  10.925
 1219W        W10912   3.126  18.300  11.866
 1220W        W10913   4.585   4.644   1.736
 1221W        W10914   3.167   7.586  14.306
 1222W        W10915   8.884   5.616  14.289
 1223W        W10916   4.126  10.002   4.638
 1224W        W10917   7.001   7.105   3.152
 1225W        W10918  10.801   0.274   2.681
 1226W        W10919   6.999  17.360   4.617
 1227W        W10920   9.381   4.166   4.622
 1228W        W10921   5.086   8.080  13.795
 1229W        W10922  10.810  16.355  12.823
 1230W        W10923   0.744  11.004  14.300
 1231W        W10924   7.453  19.293   0.274
 1232W        W10925   6.506  14.438  13.336
 1233W        W10926  11.786  10.039   0.736
 1234W        W10927   9.399   1.233  14.309
 1235W        W10928   7.455  16.868  14.777
 1236W        W10929   1.712  19.783  12.386
 1237W        W10930  10.814   1.262  14.786
 1238W        W10931   3.633   8.091  14.766
 1239W        W10932   6.481   8.581   4.151
 1240W        W10933   1.202  12.458  14.800
 1241W        W10934   6.960  13.912  11.392
 1242W        W10935   6.962   1.249  14.291
 1243W        W10936  11.803   7.572  13.327
 1244W        W10937   8.407  12.931  13.320
 1245W        W10938   1.227  11.999   2.219
 1246W        W10939  11.772   8.055  10.916
 1247W        W10940   2.173   7.099  11.869
 1248W        W10941   9.373   7.604  12.827
 1249W        W10942   5.549  18.310  10.931
 1250W        W10943   3.645  11.024  13.337
 1251W        W10944   6.527  15.876   3.673
 1252W        W10945   7.923   0.283   0.746
 1253W        W10946   8.881  10.518  12.853
 1254W        W10947   9.366  17.836   4.625
 1255W        W10948  10.845   5.645   2.219
 1256W        W10949   3.134  17.824  13.821
 1257W        W10950  10.801   7.568   0.766
 1258W        W10951   9.381  13.461   1.218
 1259W        W10952  11.765   2.728  14.758
 1260W        W10953   2.170   0.742   0.278
 1261W        W10954  10.341  19.308   3.647
 1262W        W10955   2.177   2.240   4.144
 1263W        W10956   0.249   1.738  13.323
 1264W        W10957   5.059  19.799  11.412
 1265W        W10958   9.389   2.219   0.750
 1266W        W10959   0.753   3.700  12.386
 1267W        W10960   2.182   8.547  14.787
 1268W        W10961   0.277  11.512  10.926
 1269W        W10962   9.857  10.015   4.597
 1270W        W10963   0.255  17.820   1.254
 1271W        W10964   4.081  11.962  14.801
 1272W        W10965  10.829   5.651   1.230
 1273W        W10966  10.825  13.439   0.733
 1274W        W10967   8.427   4.171   3.182
 1275W        W10968   2.685   3.181   0.731
 1276W        W10969   2.168  15.868   0.728
 1277W        W10970   5.076  14.421  14.760
 1278W        W10971   7.450  11.000   1.723
 1279W        W10972   3.157   0.257  13.804
 1280W        W10973   6.032  17.319  12.369
 1281W        W10974   4.115  14.908  14.321
 1282W        W10975   5.063  11.471  14.778
 1283W        W10976  11.319   6.103  12.828
 1284W        W10977   8.431   7.120   2.198
 1285W        W10978   4.595  10.978   1.695
 1286W        W10979   6.492  15.397  11.856
 1287W        W10980   3.620   6.629   3.183
 1288W        W10981   8.915  16.380   3.166
 1289W        W10982   9.856  18.337  14.303
 1290W        W10983   8.424  12.929   2.697
 1291W        W10984   2.666  18.312   3.671
 1292W        W10985   3.610  17.830   0.751
 1293W        W10986   4.096   1.259  13.316
 1294W        W10987   7.939   5.132   1.697
 1295W        W10988   8.407  11.006  13.825
 1296W        W10989   9.873  11.019  12.376
 1297W        W10990   5.554  17.362  14.774
 1298W        W10991   8.918   4.189  14.311
 1299W        W10992   4.121  10.988   4.144
 1300W        W10993   8.888   7.562  14.763
 1301W        W10994   5.057  12.955   3.178
 1302W        W10995  10.330  11.022   0.727
 1303W        W10996   9.380  13.458  14.801
 1304W        W10997   4.584   1.711  14.794
 1305W        W10998   4.567   3.190   3.149
 1306W        W10999   4.085  13.452  14.293
 1307W        W11000   8.443   5.622  11.400
 1308W        W11001   3.151  18.299  13.810
 1309W        W11002   1.714   1.748   0.284
 1310W        W11003   3.120   8.073  12.363
 1311W        W11004   7.951  18.316   1.737
 1312W        W11005   4.119   3.703  12.833
 1313W        W11006   9.865  14.917   2.204
 1314W        W11007   8.887  10.983  12.831
 1315W        W11008   5.073  17.839  14.286
 1316W        W11009   7.442   1.232  11.867
 1317W        W11010  11.794   4.172   3.148
 1318W        W11011   2.179  10.514   0.284
 1319W        W11012  10.335  14.432  14.776
 1320W        W11013  11.288   0.265  11.875
 1321W        W11014  10.325  15.386  14.772
 1322W        W11015   9.873   3.200   1.248
 1323W        W11016  11.768   9.555  14.275
 1324W        W11017   5.047  18.316   4.152
 1325W        W11018   9.877   4.643  10.903
 1326W        W11019   8.409   6.127  12.824
 1327W        W11020   2.681  18.317  12.379
 1328W        W11021   5.084   8.052  13.351
 1329W        W11022   2.166  19.764   2.694
 1330W        W11023   2.669  13.938   2.689
 1331W        W11024  10.337   6.602   1.246
 1332W        W11025   9.374  15.369  10.929
 1333W        W11026  10.822   4.175   2.700
 1334W        W11027   8.920  14.907  13.832
 1335W        W11028  11.785   4.666  10.893
 1336W        W11029   2.170   2.693   4.633
 1337W        W11030  10.826   0.764  14.806
 1338W        W11031  11.791  15.870  11.860
 1339W        W11032   9.882  12.949  10.897
 1340W        W11033   6.023   8.563  11.888
 1341W        W11034   6.525   7.578  10.899
 1342W        W11035   3.149  17.334   3.650
 1343W        W11036   2.197  12.465   1.255
 1344W        W11037   5.053  13.938   3.654
 1345W        W11038  11.328  11.500   2.212
 1346W        W11039   9.368   3.184  10.893
 1347W        W11040   7.001  15.902   1.245
 1348W        W11041   9.361   8.545  10.926
 1349W        W11042   2.659  10.979  12.870
 1350W        W11043  11.768   4.646   0.763
 1351W        W11044   6.489   3.196  12.866
 1352W        W11045   3.134  14.409   1.735
 1353W        W11046  10.823   1.710  12.858
 1354W        W11047   8.416   0.285   3.176
 1355W        W11048   2.195  19.270  13.813
 1356W        W11049   8.418   0.251   4.118
 1357W        W11050   7.942  12.976   4.634
 1358W        W11051   3.638   6.628   4.123
 1359W        W11052   6.514   5.149   2.208
 1360W        W11053   5.554   9.047   4.148
 1361W        W11054   1.218  16.343  13.808
 1362W        W11055   4.081   7.570   3.152
 1363W        W11056  11.319   0.267  14.302
 1364W        W11057   6.019  11.973  13.824
 1365W        W11058   1.727   5.163   4.139
 1366W        W11059   1.239  19.313   4.131
 1367W        W11060  11.294   1.731  14.282
 1368W        W11061   2.192   1.749  13.310
 1369W        W11062   7.945  10.535  13.347
 1370W        W11063   0.260  17.325  13.351
 1371W        W11064   7.930  12.466  10.914
 1372W        W11065   0.265   4.649  13.815
 1373W        W11066   9.874   4.663  11.389
 1374W        W11067  10.833   5.158   0.248
 1375W        W11068   2.680  14.878   3.182
 1376W        W11069   8.403   3.700   0.268
 1377W        W11070   0.739   1.229  11.404
 1378W        W11071   9.390   6.608   1.713
 1379W        W11072  11.311  14.925   0.728
 1380W        W11073   3.621   6.626  12.838
 1381W        W11074   0.747  10.047  14.767
 1382W        W11075   8.424   4.194   2.195
 1383W        W11076   0.730  10.030  11.897
 1384W        W11077   6.506   0.286  11.401
 1385W        W11078   3.128  18.325   3.157
 1386W        W11079  11.312   7.569  12.842
 1387W        W11080   6.033  16.863   4.142
 1388W        W11081   0.263  10.510   3.639
 1389W        W11082   9.376   9.548   0.261
 1390W        W11083   5.041   0.254   3.669
 1391W        W11084   0.274  15.395   0.249
 1392W        W11085   7.962   6.611   3.176
 1393W        W11086   1.724  12.463  11.415
 1394W        W11087   5.555  11.017  14.803
 1395W        W11088   6.029   1.739  11.374
 1396W        W11089   2.173  14.395   0.736
 1397W        W11090   9.390  10.007  14.776
 1398W        W11091   1.682   6.630  11.403
 1399W        W11092   1.700  15.400  14.316
 1400W        W11093  11.284  11.471  12.360
 1401W        W11094   3.123  12.471   1.224
 1402W        W11095   3.152  14.892   3.166
 1403W        W11096   7.003   4.671  12.853
 1404W        W11097   9.391  15.399   3.645
 1405W        W11098   3.151  16.835   3.159
 1406W        W11099   4.114  10.495   2.709
 1407W        W11100   1.708   0.780   1.734
 1408W        W11101   7.958  17.830   0.760
 1409W        W11102  11.315   3.685   1.217
 1410W        W11103   8.918  17.807   4.147
 1411W        W11104   0.740  18.826  13.316
 1412W        W11105   2.206  13.910   1.709
 1413W        W11106   5.084   4.175   0.263
 1414W        W11107   3.628   1.716  11.867
 1415W        W11108   9.363  11.016  12.358
 1416W        W11109   6.525   4.646  14.765
 1417W        W11110  11.798   1.738  14.791
 1418W        W11111   2.170   8.073  14.769
 1419W        W11112   4.123   7.121  12.377
 1420W        W11113   6.009  15.856   1.720
 1421W        W11114   7.001   0.774   1.704
 1422W        W11115   4.602   8.060  14.780
 1423W        W11116   1.708  19.793  13.331
 1424W        W11117   2.173  12.441  13.796
 1425W        W11118   1.233  10.491   1.235
 1426W        W11119   0.244  11.474  13.332
 1427W        W11120  11.796  15.371   4.597
 1428W        W11121   8.881   7.101  14.302
 1429W        W11122   3.150  12.471  11.413
 1430W        W11123   1.230  19.300   0.281
 1431W        W11124   8.910   3.178   2.221
 1432W        W11125  11.309   7.074  12.845
 1433W        W11126   0.276   2.691   4.632
 1434W        W11127  11.326  13.458   2.676
 1435W        W11128   0.247  11.959   3.153
 1436W        W11129   5.556   1.744   1.728
 1437W        W11130   4.585   0.753   2.681
 1438W        W11131   3.619  12.944   0.748
 1439W        W11132   1.681  11.023   4.143
 1440W        W11133  10.801   1.230  13.831
 1441W        W11134  11.297  19.295   3.153
 1442W        W11135   0.258  18.811   3.637
 1443W        W11136   8.888  15.413  14.298
 1444W        W11137   1.691  15.880  12.865
 1445W        W11138   0.240   4.657   4.150
 1446W        W11139   2.676   4.147   1.244
 1447W        W11140   7.463  16.369  11.872
 1448W        W11141   6.519  16.383  11.864
 1449W        W11142   6.036   1.742  13.839
 1450W        W11143   2.677   0.739   3.176
 1451W        W11144   2.650   7.580  11.888
 1452W        W11145   4.101  13.443   2.178
 1453W        W11146   2.198   8.544   1.712
 1454W        W11147   8.914   8.090  11.399
 1455W        W11148   4.603   2.208   1.241
 1456W        W11149   0.740  16.363  11.382
 1457W        W11150   0.274   0.740  12.865
 1458W        W11151   1.715   0.272  11.390
 1459W        W11152  10.815  16.830   3.168
 1460W        W11153   1.218   5.163   4.623
 1461W        W11154   3.128   4.637   4.634
 1462W        W11155   4.102  10.038  10.917
 1463W        W11156   5.539   5.128  14.805
 1464W        W11157   7.001  11.976   3.664
 1465W        W11158   6.494   1.228   0.747
 1466W        W11159  10.325   5.149  11.380
 1467W        W11160   1.712   7.111  11.403
 1468W        W11161   2.650  12.941  12.865
 1469W        W11162   1.715  16.858  12.379
 1470W        W11163   3.609   5.654   3.153
 1471W        W11164   3.619   3.683   3.155
 1472W        W11165   3.139  10.509   4.620
 1473W        W11166   6.041  12.449   0.742
 1474W        W11167   7.942  19.787  12.372
 1475W        W11168   9.863  15.370  11.411
 1476W        W11169   6.965  12.484  13.338
 1477W        W11170   0.747  15.896   1.244
 1478W        W11171   9.858  19.775   4.126
 1479W        W11172   1.214   7.110  14.287
 1480W        W11173   1.685   3.209  11.409
 1481W        W11174   7.460   7.095   1.733
 1482W        W11175   3.624   4.170   0.256
 1483W        W11176   4.565   8.560  12.375
 1484W        W11177   0.280   6.123   0.733
 1485W        W11178   7.962  10.979  10.931
 1486W        W11179   9.369  17.324  14.291
 1487W        W11180   1.205  14.919  13.803
 1488W        W11181   2.662   7.594   4.633
 1489W        W11182   7.948   0.745   3.165
 1490W        W11183   0.729  18.783   0.262
 1491W        W11184  11.792  12.935   3.172
 1492W        W11185   7.442  13.904  12.348
 1493W        W11186   0.761  16.366  13.311
 1494W        W11187   8.911   8.573  14.296
 1495W        W11188   9.373   9.552   2.211
 1496W        W11189  10.366  10.035  13.336
 1497W        W11190   9.886  18.781   4.606
 1498W        W11191   2.650  15.865  11.383
 1499W        W11192   2.649  14.437   4.617
 1500W        W11193   0.273  12.463   0.287
 1501W        W11194   1.245   6.130   4.118
 1502W        W11195   8.919   5.625  13.343
 1503W        W11196   7.922  12.457  14.285
 1504W        W11197   3.619  11.474   3.653
 1505W        W11198   3.166  13.912  14.771
 1506W        W11199   5.550   7.597  11.405
 1507W        W11200   3.162   5.133  14.771
 1508W        W11201  11.795  16.842   3.153
 1509W        W11202   4.605   9.069  12.829
 1510W        W11203   7.924   5.155   3.676
 1511W        W11204   9.853   2.703   4.129
 1512W        W11205  11.797  18.298   0.754
 1513W        W11206   2.672  11.512  13.330
 1514W        W11207   3.640   9.054  14.763
 1515W        W11208   6.029  19.292  11.859
 1516W        W11209  10.818   3.207  13.350
 1517W        W11210  10.350  13.904   1.231
 1518W        W11211   7.467  14.408  13.352
 1519W        W11212   9.377   0.746   3.146
 1520W        W11213   2.659   6.102   0.251
 1521W        W11214   1.701   9.041   1.212
 1522W        W11215   8.410   7.077   3.644
 1523W        W11216   4.583   7.588   4.639
 1524W        W11217   5.549  15.900   4.133
 1525W        W11218  11.793  14.925  13.335
 1526W        W11219   6.041   3.693   0.756
 1527W        W11220  10.348  16.343  13.332
 1528W        W11221  10.328   5.617   1.718
 1529W        W11222   6.038  11.465  12.354
 1530W        W11223   9.854  14.428   0.265
 1531W        W11224   0.267  14.424  11.866
 1532W        W11225   6.519   1.237   2.704
 1533W        W11226   9.879  12.473  10.893
 1534W        W11227   1.715   6.595   3.640
 1535W        W11228   4.593  13.441   1.710
 1536W        W11229   1.703   2.218   3.650
 1537W        W11230  11.294  17.339   1.696
 1538W        W11231   1.686   3.200   0.728
 1539W        W11232   9.865  11.469   3.178
 1540W        W11233   6.033  18.804  12.376
 1541W        W11234   0.724  10.032   4.148
 1542W        W11235   2.191  18.792  12.836
 1543W        W11236   3.166   5.618  11.391
 1544W        W11237   9.384   2.712   3.645
 1545W        W11238   6.001  16.390   3.170
 1546W        W11239   9.394   6.596  10.916
 1547W        W11240   2.180  10.032   4.152
 1548W        W11241   9.844  18.797   1.706
 1549W        W11242   7.922  15.881  10.933
 1550W        W11243   4.565  10.513  12.376
 1551W        W11244   2.657  11.970  11.865
 1552W        W11245   5.558   7.116  12.835
 1553W        W11246  11.303   3.216   2.680
 1554W        W11247   0.722  14.426   4.158
 1555W        W11248   0.751  16.869  12.860
 1556W        W11249   2.678  10.033   2.669
 1557W        W11250   4.588  13.925   0.754
 1558W        W11251   6.036   2.712  13.320
 1559W        W11252  10.320  15.857  14.805
 1560W        W11253   7.488  16.367   3.191
 1561W        W11254   7.925   7.581   0.735
 1562W        W11255   8.420  11.963   2.191
 1563W        W11256   1.247   9.523   3.165
 1564W        W11257   1.231  13.437   4.133
 1565W        W11258   0.727   0.276  11.396
 1566W        W11259   2.204   7.086   3.632
 1567W        W11260   3.127   7.592   4.617
 1568W        W11261   3.132  17.349  14.775
 1569W        W11262   7.955   7.576   4.121
 1570W        W11263   2.653   1.712   4.148
 1571W        W11264   9.390   8.073  12.379
 1572W        W11265  10.325  16.876  10.922
 1573W        W11266   8.445  18.334   2.698
 1574W        W11267   5.080   2.706   0.759
 1575W        W11268   4.112   3.209  13.803
 1576W        W11269   5.077  10.988   0.258
 1577W        W11270   5.524   2.222  10.888
 1578W        W11271   1.703   8.078   2.687
 1579W        W11272   6.977   3.211   3.185
 1580W        W11273   7.927   7.119   0.729
 1581W        W11274   7.460   3.187  11.879
 1582W        W11275   1.718   1.239  13.310
 1583W        W11276   7.006   0.264  10.908
 1584W        W11277   1.215  11.022  11.875
 1585W        W11278   6.003   0.250  12.359
 1586W        W11279   5.084   2.244   2.678
 1587W        W11280   3.166   6.614  11.876
 1588W        W11281   5.050  10.049   1.705
 1589W        W11282   8.404  19.784   2.212
 1590W        W11283   8.883  11.956   0.734
 1591W        W11284   1.244   7.080  11.863
 1592W        W11285   4.099   3.693   1.728
 1593W        W11286  11.289   2.230  12.841
 1594W        W11287   3.645  16.342   4.608
 1595W        W11288   8.424   1.267  13.321
 1596W        W11289  11.796  16.876  11.378
 1597W        W11290   3.613  15.393  11.388
 1598W        W11291   6.483   2.722   1.721
 1599W        W11292  11.319  11.999  14.763
 1600W        W11293   0.286   8.578   1.701
 1601W        W11294   5.528  12.464   3.646
 1602W        W11295  10.838   9.537   4.148
 1603W        W11296   4.577   0.742   3.630
 1604W        W11297   1.719  17.348  13.793
 1605W        W11298   2.647  15.379  12.349
 1606W        W11299   1.226   5.622  14.308
 1607W        W11300   8.435  18.306   1.721
 1608W        W11301   1.696   5.652  14.800
 1609W        W11302  10.842  13.935   2.212
 1610W        W11303   2.677   9.049  11.868
 1611W        W11304   9.875   0.259   3.648
 1612W        W11305   8.406   9.522   1.701
 1613W        W11306   0.725   4.680   0.249
 1614W        W11307   6.490   4.175  10.918
 1615W        W11308   0.738   7.114  10.931
 1616W        W11309   7.444   7.601  12.381
 1617W        W11310   9.849  12.966   1.210
 1618W        W11311   3.611   5.651  14.767
 1619W        W11312   7.446  15.856   2.185
 1620W        W11313   9.366  10.518  14.308
 1621W        W11314   3.642   3.186  10.890
 1622W        W11315   4.598  11.999   1.245
 1623W        W11316   9.870   1.744  10.926
 1624W        W11317   9.840   1.226   2.180
 1625W        W11318  10.367  13.419  11.855
 1626W        W11319   6.964  17.337   0.243
 1627W        W11320   0.729   6.589  12.846
 1628W        W11321   3.638   8.539  13.315
 1629W        W11322   6.980   8.082   1.709
 1630W        W11323   9.865  19.289  13.813
 1631W        W11324   3.626   7.118   0.290
 1632W        W11325   4.581  15.379   1.721
 1633W        W11326   6.996   7.581  13.313
 1634W        W11327   8.919  10.988  11.866
 1635W        W11328  11.785   4.161  12.348
 1636W        W11329   4.089  16.849   2.220
 1637W        W11330   2.202   8.560  14.286
 1638W        W11331   3.148  15.864  13.309
 1639W        W11332  10.830  12.443  12.854
 1640W        W11333   8.406   1.755   4.637
 1641W        W11334   8.913   0.761   0.248
 1642W        W11335   4.113   3.692   1.218
 1643W        W11336   9.854   1.239   3.631
 1644W        W11337   0.260   4.172   1.695
 1645W        W11338   1.719   7.569   4.615
 1646W        W11339   7.942   2.689  14.803
 1647W        W11340   4.597  16.848  14.296
 1648W        W11341   1.233   1.241   0.732
 1649W        W11342   0.725   8.557  11.394
 1650W        W11343   7.445  16.836   2.697
 1651W        W11344   0.286   2.211  13.829
 1652W        W11345   7.933   6.117   2.681
 1653W        W11346  11.786   7.598  12.339
 1654W        W11347   0.266   5.657   2.673
 1655W        W11348   6.043   2.687   2.200
 1656W        W11349   6.495   2.205  14.289
 1657W        W11350   4.111   2.234  10.929
 1658W        W11351   9.842  11.479  11.869
 1659W        W11352   6.480  16.358   3.674
 1660W        W11353  10.844   4.150   4.621
 1661W        W11354   4.088   8.552   2.680
 1662W        W11355   3.130   8.566  11.389
 1663W        W11356   3.153   0.770  12.837
 1664W        W11357  11.313  19.272  12.345
 1665W        W11358   0.734   4.191   1.241
 1666W        W11359   9.372   6.616  11.881
 1667W        W11360   4.089  15.858  10.891
 1668W        W11361  10.352  16.352   4.630
 1669W        W11362   7.475  13.424   4.638
 1670W        W11363   1.693   9.057  13.349
 1671W        W11364   1.722  13.436  11.411
 1672W        W11365   2.186   2.210  14.788
 1673W        W11366  11.768   7.597   1.212
 1674W        W11367   5.071   1.720   1.210
 1675W        W11368   6.522  10.991   4.144
 1676W        W11369   7.957  18.788   3.647
 1677W        W11370   3.161   3.206  12.838
 1678W        W11371   9.865  13.460   4.603
 1679W        W11372   5.538  18.324   1.700
 1680W        W11373   7.935   3.214   2.185
 1681W        W11374   9.882  19.273  12.829
 1682W        W11375   8.910  16.866  10.899
 1683W        W11376   4.577   3.707  11.406
 1684W        W11377   5.063   2.718   3.652
 1685W        W11378   2.676  13.427   1.229
 1686W        W11379   9.876  17.320  11.394
 1687W        W11380   7.941  19.277   3.659
 1688W        W11381   3.140   5.160   1.696
 1689W        W11382   6.514  15.897   3.160
 1690W        W11383   4.125   4.649   4.627
 1691W        W11384   0.742  18.811   3.663
 1692W        W11385   1.221   3.198   2.202
 1693W        W11386   5.560   9.042  11.384
 1694W        W11387  10.330   5.140  11.875
 1695W        W11388   8.906  12.454   2.190
 1696W        W11389   6.513  19.284   1.737
 1697W        W11390   1.211  14.881  14.792
 1698W        W11391   3.122   8.087   4.130
 1699W        W11392   0.734   0.764   1.234
 1700W        W11393  11.292   0.780   1.737
 1701W        W11394   9.361   8.052  14.785
 1702W        W11395   7.478   8.074  14.292
 1703W        W11396   8.921   4.182   1.726
 1704W        W11397   6.493   7.579   0.286
 1705W        W11398   5.041  17.822  12.856
 1706W        W11399   5.079  17.817  13.353
 1707W        W11400   2.161  13.904  13.813
 1708W        W11401  10.361  11.970  12.364
 1709W        W11402   5.052  13.439  14.277
 1710W        W11403   2.677   7.106   2.682
 1711W        W11404   8.903  10.044  14.799
 1712W        W11405   2.681   5.630  14.789
 1713W        W11406   6.033  16.852  14.318
 1714W        W11407   1.236   2.701   2.200
 1715W        W11408  10.344  11.960  13.316
 1716W        W11409   4.586   7.097  11.871
 1717W        W11410   9.386   8.063   1.721
 1718W        W11411  11.315  10.014  14.314
 1719W        W11412   4.607   2.710  11.900
 1720W        W11413   3.613   6.135   4.150
 1721W        W11414   1.213  10.982   0.267
 1722W        W11415  10.820  19.780  14.805
 1723W        W11416   9.852  15.389  14.763
 1724W        W11417  10.352  13.931  13.337
 1725W        W11418   3.617  11.474   1.215
 1726W        W11419   9.406  17.822  14.779
 1727W        W11420  11.281   0.245   2.203
 1728W        W11421   3.621  13.911  13.821
 1729W        W11422   2.672  14.897  11.411
 1730W        W11423   9.853   3.172   4.138
 1731W        W11424   1.690   4.188   0.741
 1732W        W11425   3.644   8.079   1.695
 1733W        W11426   6.021   0.748  13.326
 1734W        W11427  10.350   1.224  13.340
 1735W        W11428   2.191  19.301  13.319
 1736W        W11429   8.416   3.694   3.660
 1737W        W11430   8.405   7.578  11.903
 1738W        W11431  11.789   8.553  10.924
 1739W        W11432   9.400  14.418   2.182
 1740W        W11433   6.999  13.909   0.273
 1741W        W11434   6.018  14.879  13.334
 1742W        W11435  10.818   4.660   4.620
 1743W        W11436  11.804  10.022   1.230
 1744W        W11437   1.720  16.851  14.283
 1745W        W11438  11.803   5.138   4.159
 1746W        W11439   0.263  10.024   1.238
 1747W        W11440   6.505   7.601  11.410
 1748W        W11441   1.245   0.282   2.669
 1749W        W11442  11.307   8.095   3.152
 1750W        W11443  11.282  12.445   0.771
 1751W        W11444   4.121   6.129   3.651
 1752W        W11445   7.927  18.310  12.344
 1753W        W11446   8.884   9.053   1.740
 1754W        W11447   7.951   5.612   0.748
 1755W        W11448  11.291  18.319  14.761
 1756W        W11449   8.904  10.494  13.324
 1757W        W11450  11.296  19.793  10.887
 1758W        W11451  10.325  13.447  10.895
 1759W        W11452   1.720   2.211   1.728
 1760W        W11453   3.166  12.972  11.882
 1761W        W11454  10.815   4.644  11.407
 1762W        W11455   0.254   6.633   1.245
 1763W        W11456   7.007  10.999   1.256
 1764W        W11457   2.646  11.509   0.266
 1765W        W11458   3.121   2.722   2.707
 1766W        W11459   8.414   7.110  12.383
 1767W        W11460   0.270  13.912  12.371
 1768W        W11461   6.969   1.246  13.331
 1769W        W11462   5.075  16.832  11.893
 1770W        W11463   4.095  17.814   3.156
 1771W        W11464   2.162  17.334   0.249
 1772W        W11465   9.850  19.782   3.181
 1773W        W11466  11.303  16.841   1.244
 1774W        W11467   7.953  12.447   4.598
 1775W        W11468   6.048   8.062   0.267
 1776W        W11469   2.681   1.234   0.733
 1777W        W11470   1.696   3.197   1.722
 1778W        W11471   6.004   2.701  14.285
 1779W        W11472   8.918  19.290   4.637
 1780W        W11473   9.385  12.942  11.888
 1781W        W11474   4.101  12.936  14.294
 1782W        W11475   7.928   7.576   3.190
 1783W        W11476   5.085   6.126  11.895
 1784W        W11477   4.580   3.204  12.844
 1785W        W11478   8.915   5.638  10.906
 1786W        W11479  10.353  19.773  14.772
 1787W        W11480   4.561   0.289   2.681
 1788W        W11481   9.884  18.786   2.183
 1789W        W11482  11.788   4.194   2.676
 1790W        W11483   5.066   3.184   4.621
 1791W        W11484   1.721   5.136  12.346
 1792W        W11485   4.118   3.688  13.815
 1793W        W11486   4.603  10.512   3.158
 1794W        W11487   8.903   1.713   1.699
 1795W        W11488   5.075   8.078  11.400
 1796W        W11489   2.189  19.787   4.116
 1797W        W11490   1.212  10.030  14.798
 1798W        W11491  10.361  19.776  12.342
 1799W        W11492   2.673  16.379   2.682
 1800W        W11493   2.645   2.704   4.633
 1801W        W11494   9.861   6.119   4.626
 1802W        W11495   8.420  18.332   0.258
 1803W        W11496   6.489  12.929  14.758
 1804W        W11497   6.525   4.192   2.183
 1805W        W11498   3.621   3.178   1.245
 1806W        W11499  11.771   7.115  11.862
 1807W        W11500   3.606  16.365   1.720
 1808W        W11501   6.509  17.824  14.296
 1809W        W11502   1.235  16.836  14.797
 1810W        W11503   0.745   1.232   0.253
 1811W        W11504   9.855  17.842  14.294
 1812W        W11505   6.516  18.330   4.151
 1813W        W11506  10.360   8.577   3.667
 1814W        W11507   8.440  18.326   4.600
 1815W        W11508   7.487   1.224   4.627
 1816W        W11509  11.281   3.203  14.297
 1817W        W11510   6.990   8.555  12.856
 1818W        W11511  10.836   6.601  14.279
 1819W        W11512   5.531   1.224  12.384
 1820W        W11513  10.342  14.422  12.354
 1821W        W11514  11.801   3.194  12.360
 1822W        W11515   5.567  11.960  12.863
 1823W        W11516   5.046  10.989  11.386
 1824W        W11517   0.276  15.404  12.360
 1825W        W11518   6.011   9.025   1.729
 1826W        W11519  10.845   4.194  13.837
 1827W        W11520   0.731  12.443   4.606
 1828W        W11521   7.929  18.782  14.766
 1829W        W11522   4.588  12.452   2.663
 1830W        W11523   3.601  17.844   1.702
 1831W        W11524   8.408   9.052  11.900
 1832W        W11525   0.240  19.763  10.913
 1833W        W11526   3.163  18.812   1.715
 1834W        W11527   2.664  19.313  13.319
 1835W        W11528   0.267  17.806   2.696
 1836W        W11529   1.242  11.476  13.335
 1837W        W11530   0.253   2.236   3.188
 1838W        W11531   3.636  15.896   3.657
 1839W        W11532   0.761  19.317   2.675
 1840W        W11533   2.666  13.920  11.399
 1841W        W11534   9.393   7.576   1.256
 1842W        W11535  11.281   9.537  13.323
 1843W        W11536   9.856   4.647   4.610
 1844W        W11537  10.800  10.506   3.631
 1845W        W11538  11.324  19.791  12.360
 1846W        W11539   7.000   6.632  13.318
 1847W        W11540   1.210   4.647   3.155
 1848W        W11541   9.882  11.995   0.750
 1849W        W11542   9.361  11.985   4.131
 1850W        W11543   3.130  11.472  10.899
 1851W        W11544   4.123  13.457   0.260
 1852W        W11545  10.814   7.567  12.354
 1853W        W11546   7.928   6.590   4.159
 1854W        W11547   5.535   9.057  11.863
 1855W        W11548   3.141  13.935  13.317
 1856W        W11549   9.864   9.517  11.898
 1857W        W11550   4.590   2.206   4.146
 1858W        W11551  10.347  17.834   0.765
 1859W        W11552   4.565   1.249  13.312
 1860W        W11553   0.269   9.529  10.910
 1861W        W11554   4.601  15.891  14.775
 1862W        W11555   8.419   9.538  11.400
 1863W        W11556   3.154   7.602  12.855
 1864W        W11557   0.272   3.184   2.683
 1865W        W11558   0.256   1.258  13.343
 1866W        W11559   3.157  15.857   3.631
 1867W        W11560   3.638   9.065   3.629
 1868W        W11561   6.987   2.724   1.233
 1869W        W11562   4.560  10.498  13.330
 1870W        W11563   3.604   3.195   4.633
 1871W        W11564   2.643   2.686  12.845
 1872W        W11565   0.736   5.644   2.666
 1873W        W11566   4.126   9.543  11.413
 1874W        W11567  11.321  15.411   0.282
 1875W        W11568   6.038   4.654   3.191
 1876W        W11569   2.683   2.201  10.932
 1877W        W11570   5.546  11.962   3.153
 1878W        W11571  10.813  19.308  14.794
 1879W        W11572   3.128   3.703   2.189
 1880W        W11573   0.263   5.626  11.878
 1881W        W11574   9.367  11.471   2.672
 1882W        W11575   3.613  11.483  10.929
 1883W        W11576   0.754   4.660   4.148
 1884W        W11577   9.369   7.586  13.793
 1885W        W11578   0.279  11.510   2.219
 1886W        W11579   4.565   2.686   0.250
 1887W        W11580   8.415   7.114  11.374
 1888W        W11581   8.887  10.501   4.133
 1889W        W11582  10.840  18.307   0.727
 1890W        W11583  11.305  11.481   1.225
 1891W        W11584   0.281   1.226  14.786
 1892W        W11585   9.879   1.724  11.868
 1893W        W11586   6.008   0.273   1.713
 1894W        W11587   1.234   9.518  13.319
 1895W        W11588   1.240  16.865   4.154
 1896W        W11589   9.363   9.047  14.304
 1897W        W11590  10.350   2.689   3.164
 1898W        W11591   2.193   6.623  11.376
 1899W        W11592   2.180  16.359  12.841
 1900W        W11593   2.688   2.233  13.313
 1901W        W11594   4.590  16.354   0.729
 1902W        W11595   9.388  15.880   1.721
 1903W        W11596   5.552   2.237   0.270
 1904W        W11597   5.062   4.184  14.775
 1905W        W11598  10.342   8.573  11.861
 1906W        W11599   0.729   2.718   2.710
 1907W        W11600   9.379  15.902   1.232
 1908W        W11601   0.747  17.355   3.651
 1909W        W11602   0.277  10.029  14.775
 1910W        W11603   8.429   4.188   0.243
 1911W        W11604   5.084   2.221  13.316
 1912W        W11605   3.142  16.346   4.610
 1913W        W11606   7.949   6.130   3.675
 1914W        W11607   1.228  10.021   3.637
 1915W        W11608   6.513  19.782   4.616
 1916W        W11609   6.484  15.883   2.694
 1917W        W11610  11.319  14.430   2.196
 1918W        W11611   0.735  11.475   0.255
 1919W        W11612   2.183  10.991   3.655
 1920W        W11613   5.076   7.587   1.696
 1921W        W11614   2.641  11.986  11.383
 1922W        W11615   5.522   2.716  11.412
 1923W        W11616   2.161  18.790   4.141
 1924W        W11617   8.906   9.512  11.887
 1925W        W11618   2.173   2.201  13.315
 1926W        W11619   1.239   2.685  10.927
 1927W        W11620   0.743  19.303   3.635
 1928W        W11621   2.162   8.571  11.869
 1929W        W11622  10.336   6.625  11.886
 1930W        W11623   5.063   3.209   1.224
 1931W        W11624   4.577  13.910  14.278
 1932W        W11625   4.599  10.504   2.191
 1933W        W11626   7.468   1.740   1.697
 1934W        W11627   3.165  13.939  13.813
 1935W        W11628  11.774   6.119  12.828
 1936W        W11629   7.945   5.652   4.607
 1937W        W11630   7.453   6.120  12.383
 1938W        W11631   4.601  12.469  11.879
 1939W        W11632   6.967  13.450   4.639
 1940W        W11633   2.658  12.441   3.675
 1941W        W11634   9.404   8.069  10.895
 1942W        W11635   9.394   3.695   2.676
 1943W        W11636   8.888  12.968  11.903
 1944W        W11637   7.466   3.185  11.411
 1945W        W11638   8.884   9.514  14.764
 1946W        W11639   6.047   8.555   2.678
 1947W        W11640  11.306   7.119   2.199
 1948W        W11641   1.727  15.892   0.739
 1949W        W11642   8.411   2.720   4.619
 1950W        W11643   5.069   1.720  10.920
 1951W        W11644   6.031  17.820  13.322
 1952W        W11645   2.677   3.691   0.284
 1953W        W11646  10.838  10.525   1.226
 1954W        W11647   1.208  15.879  14.320
 1955W        W11648   3.158  12.975  14.767
 1956W        W11649   3.621  10.032  11.858
 1957W        W11650   6.973  12.959   4.608
 1958W        W11651   6.526  16.830  10.933
 1959W        W11652   6.528  11.500   1.716
 1960W        W11653   1.693  11.990   4.628
 1961W        W11654   6.516   6.595  12.357
 1962W        W11655   5.564   2.691   1.736
 1963W        W11656   0.277   7.084   1.213
 1964W        W11657   6.040   2.684  12.384
 1965W        W11658   8.892  12.942   0.750
 1966W        W11659   0.724  11.473  11.410
 1967W        W11660   9.875  16.387   3.671
 1968W        W11661   0.742  16.831  13.825
 1969W        W11662   0.728  19.763   4.117
 1970W        W11663   6.000   8.539   0.259
 1971W        W11664   5.083  17.362   4.125
 1972W        W11665  10.359  18.789   1.736
 1973W        W11666   8.413  12.948  12.364
 1974W        W11667   5.530  19.803  10.902
 1975W        W11668   1.217  14.921   2.705
 1976W        W11669   1.206  13.927   4.138
 1977W        W11670  10.839   2.223  12.356
 1978W        W11671  10.354   9.540  11.881
 1979W        W11672   9.387   1.221   0.767
 1980W        W11673   1.241  16.856  14.302
 1981W        W11674   9.391   1.225  11.863
 1982W        W11675  10.353  10.006   2.694
 1983W        W11676   2.179  10.520   1.220
 1984W        W11677   0.749   5.614   4.113
 1985W        W11678   1.710  19.268  10.893
 1986W        W11679   4.604   3.191   4.120
 1987W        W11680   7.464   1.750   3.169
 1988W        W11681   6.483   1.737   1.223
 1989W        W11682  10.364   2.200  12.344
 1990W        W11683  11.807  14.438   1.728
 1991W        W11684   0.248   3.199  13.354
 1992W        W11685   6.980   2.707  12.833
 1993W        W11686   0.756  10.027   0.267
 1994W        W11687   1.726  14.437  12.366
 1995W        W11688   6.506   1.745   0.270
 1996W        W11689   7.462   0.282  14.319
 1997W        W11690   2.642   5.639   4.152
 1998W        W11691  11.786  13.950   1.250
 1999W        W11692   9.875  19.772  12.841
 2000W        W11693   4.122  16.843  10.901
 2001W        W11694   6.046  11.510  11.899
 2002W        W11695   7.920   8.583   0.266
 2003W        W11696  10.336   9.519   1.710
 2004W        W11697   5.542   5.653  12.864
 2005W        W11698   7.943   7.594   1.255
 2006W        W11699   3.136  18.797  12.836
 2007W        W11700   1.205  19.284  13.827
 2008W        W11701  10.331   3.171  12.856
 2009W        W11702  11.806  11.473   1.699
 2010W        W11703   7.922   9.556   4.637
 2011W        W11704   2.683   1.755   0.731
 2012W        W11705   7.929   4.667  12.833
 2013W        W11706   3.120  18.813   3.156
 2014W        W11707   6.502  19.306  11.863
 2015W        W11708   7.932   1.730   4.627
 2016W        W11709   6.974   2.717  12.341
 2017W        W11710   2.684  12.475   2.219
 2018W        W11711  11.779  14.417  14.311
 2019W        W11712   6.497  13.906   3.163
 2020W        W11713   7.924  19.798   3.189
 2021W        W11714   8.899   1.238   2.700
 2022W        W11715  10.827  15.387   0.761
 2023W        W11716   1.215   9.058  11.414
 2024W        W11717   6.974   6.144   3.179
 2025W        W11718   8.444   0.775  11.403
 2026W        W11719   1.229  10.024  14.299
 2027W        W11720  10.355  18.327  14.795
 2028W        W11721  10.838   4.155   3.644
 2029W        W11722   9.870   5.123   2.690
 2030W        W11723  10.823  19.281  13.339
 2031W        W11724   4.594  18.302   1.712
 2032W        W11725   3.156   0.262   2.180
 2033W        W11726  10.848  11.986   1.732
 2034W        W11727   0.761  16.373   1.701
 2035W        W11728   8.921  19.269  12.848
 2036W        W11729   1.212   3.193  12.863
 2037W        W11730   4.604  11.018   3.164
 2038W        W11731  10.340  10.007   0.751
 2039W        W11732   9.380  11.978   4.612
 2040W        W11733  11.761  15.889   4.152
 2041W        W11734   3.633  18.340   2.188
 2042W        W11735   2.673  17.334   2.192
 2043W        W11736   3.126  14.426  13.792
 2044W        W11737   1.201  14.393   4.117
 2045W        W11738   3.146  11.484  13.803
 2046W        W11739   6.012   8.061  13.338
 2047W        W11740   6.041   7.573  11.866
 2048W        W11741   1.241   3.664   2.666
 2049W        W11742  10.801   5.148  14.318
 2050W        W11743   5.539  11.972   2.206
 2051W        W11744  10.823  18.323  13.337
 2052W        W11745  11.763   8.557   2.207
 2053W        W11746   2.200   2.217   1.251
 2054W        W11747  10.330   8.558   3.153
 2055W        W11748  10.837   6.608  11.415
 2056W        W11749   0.725   6.119  10.914
 2057W        W11750   0.254  19.786  11.884
 2058W        W11751   7.443  10.042  11.862
 2059W        W11752  10.333  12.473  14.770
 2060W        W11753   2.202   6.127  12.866
 2061W        W11754  11.292  19.306  11.379
 2062W        W11755   3.602  13.907   2.223
 2063W        W11756  11.305  17.830   2.201
 2064W        W11757   9.378  17.849  12.374
 2065W        W11758   5.532  15.399   2.215
 2066W        W11759   0.727   6.139   0.769
 2067W        W11760  10.827  16.832   3.669
 2068W        W11761   3.633   0.276  12.362
 2069W        W11762   3.614  15.856  11.377
 2070W        W11763   2.653   5.145  13.334
 2071W        W11764   8.889  13.451   0.281
 2072W        W11765   8.438   3.679   0.759
 2073W        W11766   3.636  16.376   2.204
 2074W        W11767   6.018  19.768   2.685
 2075W        W11768   8.899  19.312  10.929
 2076W        W11769   8.881   2.716  13.341
 2077W        W11770  11.797   8.092  13.826
 2078W        W11771   3.623  10.507   0.288
 2079W        W11772   1.228  15.407  14.278
 2080W        W11773  10.365   7.604  13.344
 2081W        W11774  11.760  11.961  12.353
 2082W        W11775   9.847  13.427  14.797
 2083W        W11776   9.362   2.238   4.598
 2084W        W11777   4.599   7.121   4.155
 2085W        W11778   3.642  18.309  12.847
 2086W        W11779   3.139  15.877  10.889
 2087W        W11780   3.147   0.732   4.619
 2088W        W11781   5.053   0.273  12.355
 2089W        W11782   7.948  16.345   2.178
 2090W        W11783   0.250  18.825  12.369
 2091W        W11784   7.447   5.633  14.318
 2092W        W11785   0.759  13.934  13.826
 2093W        W11786  11.781  15.384  14.285
 2094W        W11787   6.496   5.634   2.694
 2095W        W11788  10.829   3.211  12.357
 2096W        W11789   9.364  12.945  13.345
 2097W        W11790   6.025   8.572   4.144
 2098W        W11791  11.796   3.200   4.637
 2099W        W11792   3.141   0.745   0.280
 2100W        W11793   6.511  14.915   0.766
 2101W        W11794   4.085   2.209   2.199
 2102W        W11795   8.917   2.226   2.215
 2103W        W11796   1.216  15.404   2.689
 2104W        W11797   9.402  18.797  13.330
 2105W        W11798  11.787  14.390  13.832
 2106W        W11799   2.644  14.414  12.348
 2107W        W11800  10.834   6.106  10.926
 2108W        W11801   6.035   0.751  12.858
 2109W        W11802   9.369  16.343   4.644
 2110W        W11803  11.290  12.927   1.249
 2111W        W11804   6.511   5.632  14.796
 2112W        W11805   3.136   6.628   1.245
 2113W        W11806   0.740   3.183   2.222
 2114W        W11807   7.450  12.442   4.138
 2115W        W11808  10.337   1.709   3.644
 2116W        W11809   7.443  14.414  14.321
 2117W        W11810  10.351  14.902  13.342
 2118W        W11811   9.384   0.269  13.325
 2119W        W11812   8.422  18.294   1.244
 2120W        W11813   0.733  12.931   0.288
 2121W        W11814   4.126   1.253   0.759
 2122W        W11815  10.333   0.739   2.221
 2123W        W11816   5.072  15.375  13.827
 2124W        W11817   9.869  14.917  14.295
 2125W        W11818   8.923  11.482  11.889
 2126W        W11819  11.326  12.466   4.628
 2127W        W11820   9.384  12.456  10.912
 2128W        W11821   9.868   7.075  10.906
 2129W        W11822  10.330  16.830  11.409
 2130W        W11823   5.082   6.631   2.211
 2131W        W11824   2.654  16.385  13.338
 2132W        W11825   1.687   7.605  11.856
 2133W        W11826   7.486   1.250  11.418
 2134W        W11827   9.370   1.737  14.303
 2135W        W11828   5.544  18.811  14.759
 2136W        W11829   3.620  16.380  11.892
 2137W        W11830  10.831   4.165  12.379
 2138W        W11831   8.406   0.257   0.285
 2139W        W11832   4.596  19.301  12.361
 2140W        W11833   7.948   5.613   1.244
 2141W        W11834   6.964  18.801  12.360
 2142W        W11835   3.621  11.478   1.720
 2143W        W11836   4.083   6.609  12.849
 2144W        W11837   3.609  10.491   2.211
 2145W        W11838   5.530  16.357   0.770
 2146W        W11839   6.036  15.901  13.804
 2147W        W11840   0.756   7.582  12.347
 2148W        W11841   7.946  17.337  10.895
 2149W        W11842   1.209  15.856   2.185
 2150W        W11843   3.153   9.547   4.617
 2151W        W11844   3.629  10.040   0.283
 2152W        W11845   1.203  18.336   4.119
 2153W        W11846  10.345  16.860   1.233
 2154W        W11847   1.687  12.950   2.209
 2155W        W11848   0.752  17.839   1.741
 2156W        W11849  11.794   4.163   3.663
 2157W        W11850   8.881  13.929   2.687
 2158W        W11851   9.404   7.601   4.139
 2159W        W11852   5.538  14.919   2.671
 2160W        W11853   1.230  16.858  11.393
 2161W        W11854   3.626   4.666   0.727
 2162W        W11855   7.944  12.487   1.722
 2163W        W11856   4.574  19.801  13.826
 2164W        W11857   0.259  16.350   1.701
 2165W        W11858   3.157   4.152   1.713
 2166W        W11859   9.871   0.256  12.383
 2167W        W11860   9.841   3.675  12.365
 2168W        W11861   8.413   6.122  11.393
 2169W        W11862   3.611  13.450   0.743
 2170W        W11863   6.482  14.902   3.152
 2171W        W11864   3.133   0.267  13.347
 2172W        W11865   9.365   8.064  14.286
 2173W        W11866  11.326  17.333  13.319
 2174W        W11867   9.392   7.084  11.412
 2175W        W11868   8.401   2.716  13.335
 2176W        W11869   5.056  13.454  14.773
 2177W        W11870  11.800  14.888   1.695
 2178W        W11871   1.715  11.000   3.175
 2179W        W11872   4.114   0.273   1.236
 2180W        W11873  11.283  10.041   0.257
 2181W        W11874   2.658   2.714  11.387
 2182W        W11875   0.276   0.765  11.393
 2183W        W11876   4.576  18.324  11.373
 2184W        W11877   1.694   3.210   4.607
 2185W        W11878   2.174   1.721   1.211
 2186W        W11879   9.884   0.777   3.665
 2187W        W11880   0.730  11.956  13.310
 2188W        W11881   3.645  11.012   3.657
 2189W        W11882   7.951   1.747   0.759
 2190W        W11883   5.045  12.474   1.735
 2191W        W11884   2.686  13.418   0.774
 2192W        W11885   7.475   1.754  14.292
 2193W        W11886   7.947   3.696  11.380
 2194W        W11887   0.736   8.553   4.150
 2195W        W11888  10.327  14.409   3.665
 2196W        W11889   7.484   0.775  11.867
 2197W        W11890   1.242   1.713  13.318
 2198W        W11891   0.729  17.324  12.861
 2199W        W11892  11.328   1.245  11.411
 2200W        W11893   1.697   1.711   2.200
 2201W        W11894  11.301  17.350   0.755
 2202W        W11895   4.603   0.274  13.810
 2203W        W11896   0.735  16.872  13.318
 2204W        W11897   9.842  15.899  14.320
 2205W        W11898   0.730   7.081  11.880
 2206W        W11899   5.053  19.273   2.192
 2207W        W11900   6.497   4.165   2.698
 2208W        W11901   3.639   3.204   3.172
 2209W        W11902   0.757  17.828   3.631
 2210W        W11903  10.832  11.993  13.339
 2211W        W11904  11.292   2.228   2.205
 2212W        W11905   5.084  13.926   3.188
 2213W        W11906   2.671   9.060  13.322
 2214W        W11907   3.605   5.158  12.385
 2215W        W11908   8.900  10.499   2.199
 2216W        W11909   5.544   5.133  14.304
 2217W        W11910   2.170  16.355   2.181
 2218W        W11911   0.275   3.203   1.707
 2219W        W11912   0.763  12.467  10.934
 2220W        W11913   4.109  10.984  11.855
 2221W        W11914   7.952   8.056   2.200
 2222W        W11915   0.730   6.593  10.891
 2223W        W11916   7.447   0.276  12.868
 2224W        W11917   8.915  17.358   2.685
 2225W        W11918   8.431   2.722  12.855
 2226W        W11919   6.045  16.348  11.379
 2227W        W11920   0.267  13.911  10.910
 2228W        W11921   6.023  16.372   1.232
 2229W        W11922  11.324   3.669   0.268
 2230W        W11923   9.376   9.544   1.713
 2231W        W11924   9.851  10.499   4.618
 2232W        W11925  11.324  11.009   4.613
 2233W        W11926   2.682   1.228   4.143
 2234W        W11927   5.066   0.287   4.603
 2235W        W11928  11.792   8.058   0.273
 2236W        W11929   5.565  13.432  14.768
 2237W        W11930   4.566  11.985  14.806
 2238W        W11931   6.965   4.193   2.214
 2239W        W11932   7.961  16.386  12.834
 2240W        W11933   1.206   1.713  14.785
 2241W        W11934   4.091  14.915   2.668
 2242W        W11935   1.245   3.694  12.857
 2243W        W11936  11.284   0.761  11.385
 2244W        W11937   9.863  15.895  13.830
 2245W        W11938  11.310  16.857   2.205
 2246W        W11939   0.738   1.744  11.895
 2247W        W11940   4.568   0.247   0.729
 2248W        W11941   1.214  14.879   0.760
 2249W        W11942   7.469  10.016   0.740
 2250W        W11943   4.582  19.775   3.671
 2251W        W11944   5.068   9.514   4.132
 2252W        W11945   2.193   3.695   3.630
 2253W        W11946   7.921  19.774   2.672
 2254W        W11947   3.641   6.100   0.759
 2255W        W11948   2.178   9.541   4.640
 2256W        W11949   4.120  15.404   1.713
 2257W        W11950   7.446   0.747   3.155
 2258W        W11951  10.828  19.273   4.629
 2259W        W11952  11.328   9.055   0.772
 2260W        W11953   3.620  18.828   3.638
 2261W        W11954   0.746  19.290  10.904
 2262W        W11955   6.961  13.942   2.209
 2263W        W11956   7.937  17.813   0.279
 2264W        W11957  10.365  10.002   4.636
 2265W        W11958   0.250   0.286   2.179
 2266W        W11959   7.442  19.285  12.839
 2267W        W11960   1.693   9.517  12.357
 2268W        W11961  10.833   5.610  13.820
 2269W        W11962   6.039  12.456   3.670
 2270W        W11963   6.500  10.991   2.674
 2271W        W11964   8.908  13.910   4.608
 2272W        W11965   1.245   0.732   1.255
 2273W        W11966   9.861  11.016   4.633
 2274W        W11967   2.643  18.340  14.760
 2275W        W11968   5.522   6.122   3.668
 2276W        W11969   0.265  10.048  11.873
 2277W        W11970   8.404  13.446  13.345
 2278W        W11971   3.153  18.302   0.763
 2279W        W11972   1.695   7.581   1.231
 2280W        W11973   4.588  11.965   2.677
 2281W        W11974   6.481  11.981   4.598
 2282W        W11975   7.004  13.417   3.672
 2283W        W11976   9.365  11.495  14.321
 2284W        W11977   5.081   8.067  14.311
 2285W        W11978   6.509  11.017  11.406
 2286W        W11979  11.298   4.664   0.244
 2287W        W11980  10.818   1.265   2.675
 2288W        W11981  10.839  10.024  11.891
 2289W        W11982   0.752  19.768   3.660
 2290W        W11983   2.651  11.490   2.667
 2291W        W11984   6.015  17.328  13.333
 2292W        W11985   5.532   7.564  12.846
 2293W        W11986   8.892  16.868   1.250
 2294W        W11987  10.835  14.884   3.154
 2295W        W11988   0.765   5.150   0.280
 2296W        W11989   3.135   6.112   3.640
 2297W        W11990   4.565  12.462  13.793
 2298W        W11991  10.824  10.508   4.612
 2299W        W11992   9.847   6.126   3.179
 2300W        W11993   9.389   8.575   3.651
 2301W        W11994   5.076   1.266   2.225
 2302W        W11995   6.038   5.630   0.726
 2303W        W11996   1.696   4.194  14.292
 2304W        W11997   5.542  13.927  12.833
 2305W        W11998   3.164   7.563  11.863
 2306W        W11999   4.092  11.483  13.329
 2307W        W12000   9.397   7.563  10.893
 2308W        W12001   2.660  10.533   2.676
 2309W        W12002   1.245  15.408   3.187
 2310W        W12003   6.980  14.410  14.288
 2311W        W12004   5.058  15.869   2.191
 2312W        W12005   0.751  18.311  12.343
 2313W        W12006   8.440  11.006   0.746
 2314W        W12007   9.405   3.189  14.293
 2315W        W12008   8.922  13.433  13.835
 2316W        W12009  10.337  19.777   1.257
 2317W        W12010   3.141  17.833   2.676
 2318W        W12011   7.934   6.606  13.352
 2319W        W12012   7.930  10.525   2.179
 2320W        W12013   7.456  14.922  13.340
 2321W        W12014   6.488  18.312  14.776
 2322W        W12015   5.068  17.337  10.919
 2323W        W12016   4.080  13.925  13.334
 2324W        W12017   6.035  10.995   3.664
 2325W        W12018  11.285  13.946   2.181
 2326W        W12019   6.499   4.676   2.197
 2327W        W12020   6.997  14.922  10.901
 2328W        W12021  10.833  17.843   2.688
 2329W        W12022   4.597  13.431  13.808
 2330W        W12023   9.360   6.608   3.670
 2331W        W12024  11.304   4.672   3.668
 2332W        W12025   2.164   3.176  14.301
 2333W        W12026   3.168  19.789   1.694
 2334W        W12027  10.322   0.275   0.732
 2335W        W12028   5.558   8.570   4.124
 2336W        W12029   5.533  12.441  13.332
 2337W        W12030   8.400   1.748   0.286
 2338W        W12031   6.995  16.368  12.379
 2339W        W12032   1.704   3.195   3.666
 2340W        W12033   6.509  14.433   0.758
 2341W        W12034   4.114  19.793  13.798
 2342W        W12035   9.849  19.787  12.382
 2343W        W12036   0.764   8.541   2.216
 2344W        W12037   7.453  19.803   2.220
 2345W        W12038   6.027  11.500   4.615
 2346W        W12039   8.893   3.202  13.811
 2347W        W12040  10.801   0.268  11.869
 2348W        W12041  10.341  15.377  11.867
 2349W        W12042   3.603   8.087  11.398
 2350W        W12043  11.763   4.659   2.204
 2351W        W12044  11.766  19.282  13.333
 2352W        W12045   4.092   4.641   3.188
 2353W        W12046   3.144   7.118   1.720
 2354W        W12047   5.040  10.516  12.381
 2355W        W12048   2.199  13.446   2.694
 2356W        W12049  10.822  12.475   1.719
 2357W        W12050   6.482  15.891   1.213
 2358W        W12051   8.890   2.225   1.212
 2359W        W12052   8.432  15.393  14.777
 2360W        W12053   9.867  16.383   1.717
 2361W        W12054  10.814  10.520   4.148
 2362W        W12055  11.295  17.347   3.161
 2363W        W12056   4.564  10.520   4.160
 2364W        W12057   7.925  15.407   0.274
 2365W        W12058   4.093  11.464  10.903
 2366W        W12059  10.817  10.522  10.892
 2367W        W12060   7.475   4.152  14.767
 2368W        W12061   0.288   9.530  11.399
 2369W        W12062   6.976   5.612  14.804
 2370W        W12063   8.422  19.790   3.189
 2371W        W12064   7.932  12.950  14.302
 2372W        W12065   5.528  13.922   0.282
 2373W        W12066   8.903   7.595   0.747
 2374W        W12067   6.503  17.329  13.329
 2375W        W12068   5.058   5.158   3.174
 2376W        W12069   4.106  13.937   0.750
 2377W        W12070   8.405   7.583   4.616
 2378W        W12071   4.571  13.433   4.603
 2379W        W12072   5.069  13.951  11.411
 2380W        W12073   1.203  16.372   4.612
 2381W        W12074   7.472   5.158   3.649
 2382W        W12075   1.246   6.123   3.172
 2383W        W12076   5.530  13.915  10.903
 2384W        W12077  11.325   4.194  10.923
 2385W        W12078   0.264  16.360   2.183
 2386W        W12079  11.766  14.924   4.599
 2387W        W12080   0.726   0.751   0.761
 2388W        W12081   7.452  12.942  12.361
 2389W        W12082   5.061   5.630  12.363
 2390W        W12083  10.336  10.491   2.189
 2391W        W12084  11.305   3.684  14.797
 2392W        W12085   2.201  13.931   3.667
 2393W        W12086   3.146  12.473  13.353
 2394W        W12087   2.675  16.344   3.634
 2395W        W12088   7.960  17.839  14.292
 2396W        W12089  11.785   7.608  12.841
 2397W        W12090   5.531  14.419  11.393
 2398W        W12091   1.726   1.257  13.819
 2399W        W12092   0.264   5.129   2.202
 2400W        W12093   9.858   6.110  10.888
 2401W        W12094   8.406  18.783   0.731
 2402W        W12095   5.043  11.501   2.671
 2403W        W12096  11.787   4.157  13.337
 2404W        W12097  11.298  14.882  12.844
 2405W        W12098   8.403  15.881   3.174
 2406W        W12099  10.801  15.368   2.212
 2407W        W12100   1.709  17.846  12.342
 2408W        W12101  11.299   7.101   3.648
 2409W        W12102  11.787  13.420  14.769
 2410W        W12103   9.388   3.205   0.745
 2411W        W12104   8.441   5.141  10.922
 2412W        W12105   5.055   8.548   4.600
 2413W        W12106  11.297  12.940   4.142
 2414W        W12107   1.690   5.610   4.622
 2415W        W12108   6.997   4.169  13.797
 2416W        W12109   7.445  10.023  11.417
 2417W        W12110   2.190   4.149   0.765
 2418W        W12111   6.979   3.215   1.720
 2419W        W12112  11.777   5.638   1.244
 2420W        W12113   5.044  10.999  12.825
 2421W        W12114   8.405  14.433   4.639
 2422W        W12115   8.412  13.454  14.319
 2423W        W12116   1.721  17.842   0.248
 2424W        W12117   2.664  10.511   1.247
 2425W        W12118   8.434   4.651  13.810
 2426W        W12119   2.655   3.669  14.780
 2427W        W12120   5.056  14.427  12.373
 2428W        W12121   0.266   4.654  10.922
 2429W        W12122   8.907  18.789   1.243
 2430W        W12123   5.543  10.535   0.276
 2431W        W12124  10.328   8.576  12.845
 2432W        W12125  11.328   6.624   3.649
 2433W        W12126   0.736   1.724  14.803
 2434W        W12127  10.360   7.604  11.873
 2435W        W12128   2.686   7.584   0.738
 2436W        W12129   8.921  15.857   0.246
 2437W        W12130   8.883  14.907  13.307
 2438W        W12131   7.468   8.086  14.789
 2439W        W12132   6.493   6.629   0.769
 2440W        W12133   4.122  11.490   2.207
 2441W        W12134   8.883  14.427  10.909
 2442W        W12135   9.860   9.072   0.772
 2443W        W12136   8.408   9.512  12.348
 2444W        W12137   0.742  17.817   2.208
 2445W        W12138   7.466  11.509  13.321
 2446W        W12139   1.230   2.238   0.249
 2447W        W12140   0.764  17.823   0.748
 2448W        W12141   3.148  18.312  11.404
 2449W        W12142   0.253  11.016  11.894
 2450W        W12143   9.841   2.705   1.230
 2451W        W12144   8.410   2.215  11.380
 2452W        W12145   2.176  11.508  12.344
 2453W        W12146  11.288  11.958   4.135
 2454W        W12147   5.561  16.838   4.145
 2455W        W12148   0.761  15.384  11.871
 2456W        W12149   9.865  17.811   2.669
 2457W        W12150   2.180  15.404  12.842
 2458W        W12151   9.397  11.490  12.349
 2459W        W12152   6.037  16.375  14.785
 2460W        W12153   0.762   2.205  13.830
 2461W        W12154   0.738   1.222   4.610
 2462W        W12155   7.956   4.173   4.603
 2463W        W12156   4.580   9.053  12.364
 2464W        W12157   6.000   8.055  10.929
 2465W        W12158   9.887   5.133   4.621
 2466W        W12159   1.231  16.388  13.351
 2467W        W12160   9.403  14.892  13.808
 2468W        W12161   2.673  15.408  13.330
 2469W        W12162   5.070   2.689  12.352
 2470W        W12163  10.836   5.147   1.705
 2471W        W12164  10.367   0.767  11.863
 2472W        W12165  11.786  16.382   1.721
 2473W        W12166   0.282  12.968  14.312
 2474W        W12167   1.698  10.504   1.725
 2475W        W12168  11.788  16.350   3.177
 2476W        W12169   4.124   6.593   3.630
 2477W        W12170  11.323  15.866   1.700
 2478W        W12171   1.696   2.710   2.673
 2479W        W12172   8.896   0.739   3.675
 2480W        W12173  10.332  15.879   2.677
 2481W        W12174   7.474   2.700  13.837
 2482W        W12175  10.348  13.445   0.246
 2483W        W12176   6.487  19.297   2.178
 2484W        W12177   6.036   6.142   0.283
 2485W        W12178   3.134  10.526  12.358
 2486W        W12179   2.174   4.676  11.383
 2487W        W12180  10.802  14.416   1.715
 2488W        W12181   6.026  14.395  13.329
 2489W        W12182   3.150   5.147  11.859
 2490W        W12183   6.484   6.608  14.762
 2491W        W12184   5.073   1.234  12.353
 2492W        W12185   9.851  17.339   4.632
 2493W        W12186   5.547   1.247   1.220
 2494W        W12187   5.062  13.904  13.811
 2495W        W12188   4.581   0.742  11.400
 2496W        W12189   8.441  15.377  13.796
 2497W        W12190   8.444  11.464  14.307
 2498W        W12191   9.881   0.777  10.905
 2499W        W12192   4.124   8.563   1.212
 2500W        W12193   6.987   9.060  14.322
 2501W        W12194   7.453  13.948   2.699
 2502W        W12195   4.091  13.926   1.242
 2503W        W12196   4.583   2.233  13.324
 2504W        W12197   3.619   6.596   1.702
 2505W        W12198  10.348  12.935   1.706
 2506W        W12199   9.402  11.018  14.280
 2507W        W12200   1.213   3.175  12.359
 2508W        W12201   7.442  18.808  11.390
 2509W        W12202   7.008  13.438   3.150
 2510W        W12203   9.865   6.624   0.275
 2511W        W12204   4.566  15.880  13.824
 2512W        W12205   2.677   7.563   3.654
 2513W        W12206   2.187   1.718   4.645
 2514W        W12207   8.893   5.170  11.894
 2515W        W12208   0.725  12.957   1.701
 2516W        W12209  10.843  13.923  13.825
 2517W        W12210   5.546   1.752  12.370
 2518W        W12211   6.046  15.873  11.862
 2519W        W12212   2.207  16.347  13.334
 2520W        W12213   7.450   6.587  12.340
 2521W        W12214   0.281  13.930  14.298
 2522W        W12215   0.746   4.668   3.650
 2523W        W12216   1.693  17.351   1.244
 2524W        W12217  11.302  17.840   0.256
 2525W        W12218   0.274  11.478   4.152
 2526W        W12219   7.936   8.062  11.890
 2527W        W12220   3.166   9.536  11.380
 2528W        W12221   2.202  19.802   0.760
 2529W        W12222   2.183  14.423   3.146
 2530W        W12223   2.172  10.030  11.402
 2531W        W12224   2.184   8.072   4.161
 2532W        W12225  11.790   5.151  11.864
 2533W        W12226   7.457   1.228  14.316
 2534W        W12227   4.086  12.464  14.772
 2535W        W12228   3.633  13.436   1.735
 2536W        W12229   9.845  14.405  12.840
 2537W        W12230   1.235   0.286   0.253
 2538W        W12231   2.204   2.709  10.904
 2539W        W12232   7.469   4.647  14.790
 2540W        W12233   8.437  13.948  14.294
 2541W        W12234   9.861  15.395   0.741
 2542W        W12235   2.664  16.390  14.279
 2543W        W12236  11.797   1.732  14.276
 2544W        W12237  11.799   0.249   3.150
 2545W        W12238   9.862   8.547   3.165
 2546W        W12239   0.286   0.776   0.739
 2547W        W12240   8.423   5.156   2.206
 2548W        W12241  11.303   8.559   4.123
 2549W        W12242   5.086  11.018   3.656
 2550W        W12243   4.115   1.753  14.290
 2551W        W12244   1.244   6.104  11.412
 2552W        W12245   2.662   3.684  11.856
 2553W        W12246  11.783  17.819   1.709
 2554W        W12247   6.964  18.791  14.302
 2555W        W12248  10.345  14.909   1.244
 2556W        W12249   8.412   5.160  13.345
 2557W        W12250   6.982  14.915  14.313
 2558W        W12251   3.120  16.858   3.640
 2559W        W12252  10.333  19.804  11.890
 2560W        W12253   4.112   5.141   0.257
 2561W        W12254   3.638  15.867   0.287
 2562W        W12255   0.721  10.979   0.761
 2563W        W12256   5.529   1.221   2.688
 2564W        W12257   3.132  19.775   4.134
 2565W        W12258   0.254   7.099   0.746
 2566W        W12259   5.081   3.663   0.739
 2567W        W12260   3.161   4.157  12.381
 2568W        W12261   1.239  16.848  12.870
 2569W        W12262   8.883   5.165  12.350
 2570W        W12263   7.941  13.463  11.859
 2571W        W12264   8.903  18.826   0.728
 2572W        W12265   6.977   7.109   3.653
 2573W        W12266   0.266  17.345  14.307
 2574W        W12267  11.799   9.044   3.184
 2575W        W12268   6.002  13.421   3.156
 2576W        W12269   4.113   7.578  12.377
 2577W        W12270   4.599   3.180  12.366
 2578W        W12271   4.575  11.499  12.362
 2579W        W12272   6.035  12.469  12.361
 2580W        W12273   4.574  19.791  14.302
 2581W        W12274   3.124   5.614   4.131
 2582W        W12275   3.163   9.058  11.898
 2583W        W12276   3.643   1.715   1.722
 2584W        W12277   3.129  15.860   2.684
 2585W        W12278  10.838   1.255   4.128
 2586W        W12279   9.866  11.998   2.670
 2587W        W12280   2.186  10.029   1.731
 2588W        W12281   1.693   3.677   3.629
 2589W        W12282   5.043   8.052  12.343
 2590W        W12283   8.889  13.915  13.328
 2591W        W12284   4.566  16.834   0.729
 2592W        W12285   7.949   3.207   2.687
 2593W        W12286   1.714  12.445  10.899
 2594W        W12287  10.353   8.569   1.233
 2595W        W12288   7.446   5.624   2.216
 2596W        W12289   0.754  14.407  14.311
 2597W        W12290   7.458  13.928  13.314
 2598W        W12291   9.376   7.085   3.169
 2599W        W12292   6.483   7.593   4.605
 2600W        W12293   8.889   5.623   2.684
 2601W        W12294  10.838  15.395  14.319
 2602W        W12295   5.526  19.780  11.866
 2603W        W12296   6.977   8.098  11.412
 2604W        W12297   1.209  15.393  11.891
 2605W        W12298   3.615  10.002   2.683
 2606W        W12299  10.803  13.905  12.341
 2607W        W12300   0.262   0.251  11.392
 2608W        W12301   2.657   0.258   2.674
 2609W        W12302  10.838  11.988   2.180
 2610W        W12303   6.020  14.923   1.727
 2611W        W12304   9.867  18.793  13.806
 2612W        W12305   6.025   7.603  13.806
 2613W        W12306   5.543  13.423  10.911
 2614W        W12307   3.608   7.580  11.403
 2615W        W12308   9.885  11.984  12.366
 2616W        W12309  10.361   0.281   4.615
 2617W        W12310   3.125   5.638   0.733
 2618W        W12311  10.831   4.181  11.866
 2619W        W12312   6.012  15.897  13.324
 2620W        W12313   8.923   4.678   3.676
 2621W        W12314   1.717  11.021   0.749
 2622W        W12315   1.695  12.945  14.800
 2623W        W12316  11.280  18.803  12.364
 2624W        W12317   7.457   8.066  12.369
 2625W        W12318   3.646  19.757  10.924
 2626W        W12319   7.486  17.840   0.285
 2627W        W12320   1.206  16.857   2.202
 2628W        W12321   9.367  19.290  13.814
 2629W        W12322   7.458  11.976   3.644
 2630W        W12323   7.440  10.488   0.752
 2631W        W12324   2.647  19.775   3.658
 2632W        W12325   7.468   8.541  12.350
 2633W        W12326   0.254  10.980  14.287
 2634W        W12327  10.811  17.809   3.635
 2635W        W12328   4.103  16.369   0.740
 2636W        W12329   2.180  12.443  11.405
 2637W        W12330   9.373  11.488   1.216
 2638W        W12331   8.917   7.121   0.248
 2639W        W12332   6.969  12.934   1.256
 2640W        W12333  10.838   4.160   0.271
 2641W        W12334  10.345   0.748   1.732
 2642W        W12335   3.614  12.943   0.269
 2643W        W12336   4.565  17.843   0.267
 2644W        W12337   9.880   1.256  12.355
 2645W        W12338   8.902   6.588   1.705
 2646W        W12339   9.391  17.817   4.159
 2647W        W12340   5.529  18.329   4.153
 2648W        W12341  10.348  15.395   1.700
 2649W        W12342   2.644  16.876  13.832
 2650W        W12343   4.100   5.621  12.356
 2651W        W12344   8.925  19.797   1.697
 2652W        W12345   1.720  18.298   0.245
 2653W        W12346   2.666   8.059   0.741
 2654W        W12347   2.650  14.881  14.801
 2655W        W12348   3.627  10.980   2.205
 2656W        W12349   4.594   9.062  13.836
 2657W        W12350  11.291   9.560   0.756
 2658W        W12351  11.783   5.641  14.322
 2659W        W12352   6.506  12.448   1.698
 2660W        W12353   3.163   5.650  13.308
 2661W        W12354   8.912   6.592  11.885
 2662W        W12355   0.755  18.808   2.706
 2663W        W12356   6.033  11.485  11.380
 2664W        W12357   2.189  16.844   2.211
 2665W        W12358   9.853   3.661   3.646
 2666W        W12359   9.878   7.098  14.295
 2667W        W12360  11.317  18.790  14.805
 2668W        W12361  10.360  16.876   2.199
 2669W        W12362   1.713  19.316  12.385
 2670W        W12363   6.523   6.596  13.343
 2671W        W12364  10.336  10.011   0.250
 2672W        W12365   3.130   6.104   0.268
 2673W        W12366   2.682  17.853  13.793
 2674W        W12367   6.005   3.676  13.799
 2675W        W12368   1.245   6.614   2.674
 2676W        W12369   1.227  16.365   1.250
 2677W        W12370   1.221   7.090  13.826
 2678W        W12371   4.589   2.211  13.819
 2679W        W12372   8.895   4.656  11.861
 2680W        W12373   8.448  13.911   1.718
 2681W        W12374   8.896   0.293   1.253
 2682W        W12375   3.634  11.502  12.365
 2683W        W12376   9.875  19.795  11.895
 2684W        W12377  11.782  10.020   2.216
 2685W        W12378   9.880  10.529  13.352
 2686W        W12379   8.908  14.917   1.716
 2687W        W12380   1.691  14.889  12.339
 2688W        W12381   1.213  10.046   1.243
 2689W        W12382  10.325  17.344   3.173
 2690W        W12383  11.297  15.855  12.346
 2691W        W12384   4.082   2.219   1.211
 2692W        W12385   0.761   2.244   0.285
 2693W        W12386   2.207   2.215   3.159
 2694W        W12387   7.467  11.986  12.370
 2695W        W12388   3.130   4.646   1.239
 2696W        W12389  10.818  12.440   4.157
 2697W        W12390   1.228  15.408   2.189
 2698W        W12391   9.870   2.716   2.697
 2699W        W12392   4.085   5.623  11.889
 2700W        W12393   5.044  13.463  11.902
 2701W        W12394   7.484   1.755   0.759
 2702W        W12395  10.829   2.212  14.323
 2703W        W12396   6.998  17.830  12.362
 2704W        W12397   4.095  12.968   1.217
 2705W        W12398  11.774  17.341  12.363
 2706W        W12399   8.415  15.379   2.708
 2707W        W12400   5.079  16.866  14.795
 2708W        W12401   1.223  16.374   0.772
 2709W        W12402   7.446  14.882   4.135
 2710W        W12403   6.039   9.550  13.806
 2711W        W12404   8.426   6.619  13.836
 2712W        W12405  11.801  16.851   1.718
 2713W        W12406  10.801  10.991  12.365
 2714W        W12407   6.027  18.303   0.276
 2715W        W12408   9.852   0.282  13.828
 2716W        W12409   0.758  12.945  10.906
 2717W        W12410   2.190  12.961   3.675
 2718W        W12411  11.323   8.094   0.277
 2719W        W12412  10.363   5.126   2.179
 2720W        W12413   2.664  18.823  11.873
 2721W        W12414  10.349  16.358  14.294
 2722W        W12415   1.244  10.990   2.701
 2723W        W12416   9.867  14.437  11.411
 2724W        W12417  10.830   8.577   4.604
 2725W        W12418   4.588   8.542   0.729
 2726W        W12419   7.946   9.035  12.845
 2727W        W12420   0.742  17.822  10.907
 2728W        W12421   9.388  13.911   1.705
 2729W        W12422   2.180   4.671   3.659
 2730W        W12423   6.004  16.342  11.876
 2731W        W12424   8.895  15.867  14.300
 2732W        W12425  11.305  14.413  10.906
 2733W        W12426   6.517  18.306  10.887
 2734W        W12427   3.120   5.170   2.681
 2735W        W12428   3.156  19.317   3.162
 2736W        W12429   4.568   7.117  13.793
 2737W        W12430  10.818  15.870   2.185
 2738W        W12431   2.668  12.975   2.681
 2739W        W12432   8.894   6.098   0.277
 2740W        W12433   0.264   2.203   4.141
 2741W        W12434   9.405  19.789   0.730
 2742W        W12435   7.966   6.138   0.262
 2743W        W12436   7.926  12.942   1.723
 2744W        W12437   7.483   6.618   2.707
 2745W        W12438   8.928  13.937  12.861
 2746W        W12439   9.365  19.302  10.894
 2747W        W12440   4.602  18.808   2.690
 2748W        W12441   8.898   1.262   3.180
 2749W        W12442   6.995   9.068   3.170
 2750W        W12443   1.723  19.778   2.187
 2751W        W12444   3.634   9.547   0.256
 2752W        W12445   1.231  18.300   0.769
 2753W        W12446   1.713   6.145  13.799
 2754W        W12447  11.318   3.182  13.819
 2755W        W12448   4.089   9.028   3.643
 2756W        W12449   0.264  17.334  13.818
 2757W        W12450   1.681   6.107   3.646
 2758W        W12451   8.432  12.966   1.735
 2759W        W12452   9.843  14.394   4.601
 2760W        W12453   4.573   2.698   1.730
 2761W        W12454   5.543   1.712   0.734
 2762W        W12455   6.002   6.102  13.816
 2763W        W12456   2.160  17.811   2.683
 2764W        W12457   1.244  11.974   3.186
 2765W        W12458   0.758  12.450  14.295
 2766W        W12459   9.370  18.313  14.764
 2767W        W12460   4.116   6.129  12.380
 2768W        W12461   6.991   5.169  12.835
 2769W        W12462   9.381   7.569   3.658
 2770W        W12463   0.247  13.951   2.702
 2771W        W12464   9.403   0.264   1.228
 2772W        W12465  11.761  17.840  14.775
 2773W        W12466   6.995   6.130  11.886
 2774W        W12467  11.314  19.765   4.621
 2775W        W12468  10.334  14.916  10.919
 2776W        W12469   5.533  12.967   4.152
 2777W        W12470   6.980  14.430   0.290
 2778W        W12471   3.141   9.533   0.246
 2779W        W12472   3.168   2.717  13.836
 2780W        W12473   7.479  13.456  14.775
 2781W        W12474   1.243   0.276   1.709
 2782W        W12475  10.323   3.665   1.697
 2783W        W12476   8.891  10.492   3.643
 2784W        W12477   1.717  11.969  14.302
 2785W        W12478   5.046   2.240  14.290
 2786W        W12479   7.470   4.666   0.264
 2787W        W12480   1.233  11.473   3.165
 2788W        W12481   6.993  13.421   4.144
 2789W        W12482   3.126  10.044   2.209
 2790W        W12483   3.616  15.885  11.865
 2791W        W12484   2.657   6.604  12.831
 2792W        W12485   5.547  15.400   1.715
 2793W        W12486  10.820   3.690  13.308
 2794W        W12487   7.453  12.482  14.780
 2795W        W12488   1.704   7.596  12.358
 2796W        W12489   1.690   3.693  13.792
 2797W        W12490   7.932   7.114   2.212
 2798W        W12491   5.526  14.886   1.224
 2799W        W12492  11.312   5.138   2.214
 2800W        W12493   5.084   1.227   1.699
 2801W        W12494   3.646   8.567  13.814
 2802W        W12495   0.260   7.603  13.342
 2803W        W12496   4.081   4.639   1.713
 2804W        W12497   7.936   4.665  10.910
 2805W        W12498   5.047  14.437  12.853
 2806W        W12499   2.671  11.493   4.634
 2807W        W12500  10.809   6.613   3.165
 2808W        W12501   1.222  16.373  12.384
 2809W        W12502   9.855   3.190  13.339
 2810W        W12503   7.960   1.221   1.239
 2811W        W12504  11.804  15.876  12.861
 2812W        W12505   2.177  10.993  13.327
 2813W        W12506   4.121   0.739  13.810
 2814W        W12507  11.769   9.026  12.373
 2815W        W12508   1.222  18.802   1.232
 2816W        W12509  11.770  17.318   2.668
 2817W        W12510  11.774  13.444   1.253
 2818W        W12511  11.306  11.960   1.715
 2819W        W12512   5.072  10.043  12.826
 2820W        W12513  10.332   7.580   3.193
 2821W        W12514   1.214  19.306  11.415
 2822W        W12515   7.464   7.584   2.210
 2823W        W12516   6.974  16.355   2.211
 2824W        W12517   2.673  11.968   1.258
 2825W        W12518   0.271   5.622   0.279
 2826W        W12519   9.866  12.960   0.270
 2827W        W12520  11.769   2.730   0.769
 2828W        W12521   5.058  16.855  13.803
 2829W        W12522   2.189  18.321   3.169
 2830W        W12523   5.053  15.407   4.129
 2831W        W12524   2.670   3.702  11.373
 2832W        W12525   6.007  11.474  12.823
 2833W        W12526  10.364   1.721   1.240
 2834W        W12527   6.033  12.465  14.761
 2835W        W12528   1.727   3.675   0.771
 2836W        W12529  10.342   7.099  10.928
 2837W        W12530  10.327   6.131  14.282
 2838W        W12531   6.484  14.924  11.416
 2839W        W12532   4.111   6.106   2.662
 2840W        W12533   3.147   5.633   1.738
 2841W        W12534  10.839  11.001   1.217
 2842W        W12535   2.177  11.512   0.264
 2843W        W12536   8.413  10.983   4.612
 2844W        W12537   3.154  14.895  12.340
 2845W        W12538   6.013  18.302  11.405
 2846W        W12539   6.022   7.599   4.158
 2847W        W12540   4.120  17.810   4.115
 2848W        W12541   4.607  18.297  14.802
 2849W        W12542   1.717  11.959   0.747
 2850W        W12543  10.834   8.065  11.373
 2851W        W12544  10.830   5.170   4.601
 2852W        W12545   6.041  19.779  12.865
 2853W        W12546   7.006   3.666  13.817
 2854W        W12547   0.724  15.387  13.349
 2855W        W12548  11.298  16.831  11.879
 2856W        W12549   5.045   5.610  14.281
 2857W        W12550   9.879   3.205  12.861
 2858W        W12551   8.413  16.388   0.275
 2859W        W12552  10.843   2.209  11.857
 2860W        W12553  11.797  13.439   0.752
 2861W        W12554   4.580   5.141  12.380
 2862W        W12555   3.603   0.285  10.917
 2863W        W12556   6.524  14.882  13.806
 2864W        W12557   9.850  17.330  10.915
 2865W        W12558   1.723  13.937   0.284
 2866W        W12559   2.198   6.121   2.199
 2867W        W12560   2.182   6.136  13.337
 2868W        W12561   5.063   3.663   2.699
 2869W        W12562  10.332  12.959   0.277
 2870W        W12563  11.303   9.058  11.373
 2871W        W12564   9.385   7.561   0.261
 2872W        W12565   7.465  18.818  13.354
 2873W        W12566   4.567   2.717  13.806
 2874W        W12567   8.926   6.102  14.779
 2875W        W12568   1.219   4.154  12.857
 2876W        W12569   8.428  19.303  14.772
 2877W        W12570   8.418  11.959  14.787
 2878W        W12571   5.058   3.173  13.793
 2879W        W12572   2.656   9.536  14.805
 2880W        W12573   2.653   3.661  12.853
 2881W        W12574   5.529  15.401  13.323
 2882W        W12575   5.540  17.818  11.411
 2883W        W12576   2.653  14.903   2.706
 2884W        W12577  10.847  19.760  11.890
 2885W        W12578   0.765  10.977  12.387
 2886W        W12579   8.884  12.939  13.836
 2887W        W12580   2.189  18.308   4.600
 2888W        W12581   5.048   1.259  11.873
 2889W        W12582   1.704   6.609   3.166
 2890W        W12583   3.121   0.264   4.118
 2891W        W12584  10.347  17.823  13.335
 2892W        W12585   8.902  16.870  13.832
 2893W        W12586   0.758   3.664   2.670
 2894W        W12587   6.009  17.347  10.932
 2895W        W12588  10.330   1.263  11.395
 2896W        W12589  11.806   3.696  11.416
 2897W        W12590   5.557   1.245  11.380
 2898W        W12591   4.093  10.011  11.399
 2899W        W12592   9.383   4.162  13.810
 2900W        W12593   2.202  15.392  14.786
 2901W        W12594   5.549   9.531  12.859
 2902W        W12595   7.934  16.372  12.350
 2903W        W12596   2.672   6.104   1.725
 2904W        W12597   8.400   7.107   4.607
 2905W        W12598   8.889  17.852  11.885
 2906W        W12599   2.204   8.056   2.186
 2907W        W12600   6.996  19.306  14.795
 2908W        W12601   0.259   8.567   2.193
 2909W        W12602   9.385   8.580   3.146
 2910W        W12603  10.331  12.463   1.210
 2911W        W12604   3.619  14.439   4.610
 2912W        W12605   6.509  12.975  11.413
 2913W        W12606   5.556  16.862  14.320
 2914W        W12607   6.990   6.115  13.802
 2915W        W12608   3.164   8.581   2.674
 2916W        W12609   7.966   6.116   4.607
 2917W        W12610   9.396   6.146   3.186
 2918W        W12611   3.122   7.088   0.252
 2919W        W12612   2.657   9.051   4.151
 2920W        W12613   6.485  12.450   3.183
 2921W        W12614   0.750   4.663  11.886
 2922W        W12615   9.383   7.608   0.766
 2923W        W12616  10.826   3.660   1.716
 2924W        W12617   7.007   5.641  11.866
 2925W        W12618   7.007   1.267   2.179
 2926W        W12619   5.082  14.923   4.644
 2927W        W12620   2.678   9.035  12.362
 2928W        W12621   3.166  16.348   1.238
 2929W        W12622   3.132  10.028  13.331
 2930W        W12623   0.724   5.149   4.115
 2931W        W12624   6.481   1.233   4.620
 2932W        W12625   9.380   8.077   0.740
 2933W        W12626   8.903  13.913  11.381
 2934W        W12627   9.877   2.714  14.781
 2935W        W12628  11.290   8.557  13.347
 2936W        W12629   7.456  12.483   4.643
 2937W        W12630  11.315   2.197   4.644
 2938W        W12631   2.162   2.717   3.645
 2939W        W12632   9.881   7.600   3.652
 2940W        W12633   6.492  15.374   1.220
 2941W        W12634   7.943  17.844  12.352
 2942W        W12635  10.816  16.381  14.311
 2943W        W12636   3.153  11.952   4.124
 2944W        W12637   4.109   9.027  13.347
 2945W        W12638   6.012  18.334   3.653
 2946W        W12639   8.410  17.318  12.340
 2947W        W12640   4.592  17.351  14.300
 2948W        W12641   2.673  17.363  13.830
 2949W        W12642   7.936  10.521   3.173
 2950W        W12643   9.865  18.816  11.387
 2951W        W12644   5.049  12.449   1.227
 2952W        W12645  11.776   8.553   2.697
 2953W        W12646   5.046  18.293   0.751
 2954W        W12647   9.873   2.731   0.275
 2955W        W12648   2.199   6.141   1.734
 2956W        W12649   1.710   3.659   1.257
 2957W        W12650   5.535   8.581   3.173
 2958W        W12651   1.240   4.186  11.398
 2959W        W12652   7.464   1.719  14.782
 2960W        W12653   2.184  15.414   4.623
 2961W        W12654   4.107   6.593  12.358
 2962W        W12655   2.181   9.553   4.132
 2963W        W12656   4.603  12.937  14.768
 2964W        W12657  10.845  13.915   4.627
 2965W        W12658   5.076   2.243   0.268
 2966W        W12659   1.699  10.009   1.246
 2967W        W12660   6.032   5.134  12.860
 2968W        W12661   6.524  17.851  12.347
 2969W        W12662  10.805  19.281   0.761
 2970W        W12663  11.803   1.240   2.706
 2971W        W12664   3.642  14.913   4.613
 2972W        W12665   2.192  11.019  14.300
 2973W        W12666  11.764  11.993   3.633
 2974W        W12667   6.516   2.701  13.838
 2975W        W12668   7.936   5.122   2.180
 2976W        W12669   5.565   4.156  14.282
 2977W        W12670   8.416   5.133  11.409
 2978W        W12671   6.508  18.312   1.233
 2979W        W12672   2.188  14.436  13.806
 2980W        W12673   4.108   3.209   4.150
 2981W        W12674   6.520   6.115  14.767
 2982W        W12675   6.516   1.265  14.277
 2983W        W12676   7.930   6.142   3.178
 2984W        W12677   5.540  12.960   2.179
 2985W        W12678   3.626  10.498   4.633
 2986W        W12679   0.761   9.556  12.374
 2987W        W12680   6.498  11.487  11.377
 2988W        W12681   4.597  19.305  13.340
 2989W        W12682   3.143  14.417   0.260
 2990W        W12683   7.441  11.506  14.307
 2991W        W12684   9.376  15.377  14.795
 2992W        W12685   7.466   9.036   1.700
 2993W        W12686   8.438   6.596  11.902
 2994W        W12687   3.164  15.859  13.794
 2995W        W12688  10.811   3.683   4.627
 2996W        W12689   8.401   0.775   2.677
 2997W        W12690   2.658   0.775   1.715
 2998W        W12691   1.218   6.146   1.220
 2999W        W12692   7.959  10.019   2.696
 3000W        W12693  10.830  16.349   3.158
 3001W        W12694   6.012   3.212  11.866
 3002W        W12695   8.410   8.076  13.330
 3003W        W12696   5.543  14.888  10.905
 3004W        W12697   5.541  10.028   0.288
 3005W        W12698   5.045  17.842   3.165
 3006W        W12699  10.814  11.004   2.186
 3007W        W12700   9.864   4.181  14.291
 3008W        W12701   4.603  13.908   1.719
 3009W        W12702  11.804   2.195   3.149
 3010W        W12703  10.330   9.533  12.360
 3011W        W12704   9.861   4.671  14.284
 3012W        W12705   6.000   4.650  14.275
 3013W        W12706   2.668  17.817   3.173
 3014W        W12707   5.058  17.838   4.641
 3015W        W12708  10.842  19.763   4.638
 3016W        W12709  10.834  13.926   4.137
 3017W        W12710   7.922  13.452   2.694
 3018W        W12711   5.553   5.148  11.886
 3019W        W12712   0.740   5.620   1.722
 3020W        W12713   6.521  19.766  12.824
 3021W        W12714   9.377  19.296  12.356
 3022W        W12715   9.885  13.439   4.125
 3023W        W12716   8.892   3.187   0.769
 3024W        W12717   2.642  17.357  11.387
 3025W        W12718   5.537   1.249   3.644
 3026W        W12719   6.023  11.014   3.169
 3027W        W12720  11.803   4.169  11.878
 3028W        W12721   8.436   7.589   3.152
 3029W        W12722   9.851   4.660  14.788
 3030W        W12723   7.936  10.021  13.800
 3031W        W12724   1.234  18.341  11.894
 3032W        W12725   1.221   0.253   3.644
 3033W        W12726  10.804  17.344   4.118
 3034W        W12727   6.008  13.461   1.214
 3035W        W12728   4.084  14.430  14.789
 3036W        W12729   6.495  13.904  12.853
 3037W        W12730   4.599   6.106   2.186
 3038W        W12731   9.382  14.421  14.780
 3039W        W12732   0.751  15.388   2.196
 3040W        W12733   6.962  15.884  11.859
 3041W        W12734  11.301  16.830  13.803
 3042W        W12735   5.557   3.662   4.637
 3043W        W12736   8.915   3.177  14.305
 3044W        W12737   4.112  18.296  10.902
 3045W        W12738  11.768   3.675  13.832
 3046W        W12739   7.476   1.251  12.384
 3047W        W12740   0.278  14.430   1.236
 3048W        W12741   4.574  18.828  12.836
 3049W        W12742   5.084  11.485  12.856
 3050W        W12743   2.663  19.273  11.389
 3051W        W12744  10.321  10.006  13.816
 3052W        W12745   0.280   0.261   2.666
 3053W        W12746   5.539   4.185   2.214
 3054W        W12747   7.444   6.621  10.888
 3055W        W12748   1.688   8.071   4.126
 3056W        W12749   8.440  17.330   4.624
 3057W        W12750   6.046   3.688  12.862
 3058W        W12751   3.122  15.378   3.146
 3059W        W12752   5.560  19.759   0.737
 3060W        W12753   1.699  15.875  14.770
 3061W        W12754   4.127  13.919   1.737
 3062W        W12755   6.483   9.066   1.731
 3063W        W12756   1.715   8.569   4.146
 3064W        W12757   1.240  10.988  12.838
 3065W        W12758   6.015  11.483   2.193
 3066W        W12759  11.312   2.221   4.134
 3067W        W12760   3.138   4.188   3.161
 3068W        W12761   2.653  10.489  12.843
 3069W        W12762   2.670   5.629   1.736
 3070W        W12763   7.967  17.810  12.825
 3071W        W12764   2.666   0.778  13.352
 3072W        W12765   4.595   7.073  10.930
 3073W        W12766   9.885   2.216  10.889
 3074W        W12767   4.106  16.378   3.665
 3075W        W12768   4.562   2.715   1.248
 3076W        W12769   4.599   2.690  14.781
 3077W        W12770   6.991   6.594  13.796
 3078W        W12771   7.964   2.714   0.763
 3079W        W12772   0.259  19.761   1.241
 3080W        W12773  10.808   5.620   3.656
 3081W        W12774   6.009   6.594   1.694
 3082W        W12775   7.484   6.116  11.897
 3083W        W12776   0.271  14.407   4.632
 3084W        W12777   4.096  12.455  13.325
 3085W        W12778   7.963  11.961   1.742
 3086W        W12779   5.560   3.219  11.871
 3087W        W12780   9.369  12.973   4.140
 3088W        W12781   6.990   5.619   3.664
 3089W        W12782  10.359  13.416   3.169
 3090W        W12783  11.323   2.705   1.254
 3091W        W12784   4.573   4.156   2.219
 3092W        W12785   1.219  13.436   3.673
 3093W        W12786   0.247  19.313  12.869
 3094W        W12787   1.217  10.535  12.367
 3095W        W12788   7.921  18.809   0.268
 3096W        W12789   7.477  18.802   0.265
 3097W        W12790   6.009   1.753   0.250
 3098W        W12791   1.694  13.922   3.170
 3099W        W12792   2.192   2.220  12.839
 3100W        W12793  10.808   4.665   3.147
 3101W        W12794   2.195   0.253   2.688
 3102W        W12795  11.321   3.671   2.197
 3103W        W12796   4.085   1.753   2.215
 3104W        W12797   6.988  16.374   4.133
 3105W        W12798  10.835   4.170   1.733
 3106W        W12799   4.568  11.494   1.251
 3107W        W12800   6.040   7.089  10.930
 3108W        W12801   9.401   0.259   3.666
 3109W        W12802   6.498   5.132  12.347
 3110W        W12803  11.795   1.248   4.147
 3111W        W12804   9.389  19.784  14.279
 3112W        W12805   3.631  10.993  14.786
 3113W        W12806   1.690   0.274  10.935
 3114W        W12807   9.365  19.310  11.414
 3115W        W12808   5.048  16.356  11.419
 3116W        W12809   4.567   4.645   3.145
 3117W        W12810   3.125  14.907   2.199
 3118W        W12811   8.424  14.916   4.641
 3119W        W12812   6.509  14.424  10.896
 3120W        W12813  10.833  10.983  14.299
 3121W        W12814   8.892  14.411   3.645
 3122W        W12815  10.357  13.462   1.212
 3123W        W12816   7.923  12.948  13.838
 3124W        W12817   9.883  13.948  10.916
 3125W        W12818  10.839  15.871  13.321
 3126W        W12819  11.311  16.351   3.163
 3127W        W12820   6.503  18.784  12.858
 3128W        W12821   8.414  16.386   3.180
 3129W        W12822   5.549  16.875  12.345
 3130W        W12823  11.774  12.930  14.291
 3131W        W12824   5.066  11.013   0.763
 3132W        W12825  11.790   5.622   0.278
 3133W        W12826   0.243  18.317  11.418
 3134W        W12827   8.409   2.722   3.192
 3135W        W12828   8.884   2.214  10.890
 3136W        W12829  10.335  19.768  11.400
 3137W        W12830  11.290  11.508   4.114
 3138W        W12831   9.881  12.462   4.134
 3139W        W12832   4.595   1.716   0.765
 3140W        W12833   8.433   7.570  12.860
 3141W        W12834  10.328   1.264   0.252
 3142W        W12835   0.275  16.856  11.379
 3143W        W12836   4.089   0.744   2.223
 3144W        W12837  11.282  19.767  12.827
 3145W        W12838   5.056  11.000  12.377
 3146W        W12839   7.949  17.347   3.180
 3147W        W12840  11.767   3.695   2.691
 3148W        W12841   8.400  12.451  12.362
 3149W        W12842   4.086  15.860   1.235
 3150W        W12843   5.088  11.996   3.160
 3151W        W12844   8.438   9.045   3.181
 3152W        W12845   3.141   7.100  13.836
 3153W        W12846   8.419  12.470  14.285
 3154W        W12847  10.363  10.986  14.768
 3155W        W12848   4.570   5.123  14.284
 3156W        W12849   5.563  14.909  12.357
 3157W        W12850  11.770   0.779   2.221
 3158W        W12851   2.673   8.552  12.844
 3159W        W12852   6.041   2.702  11.880
 3160W        W12853   1.240  15.862  13.827
 3161W        W12854   4.572  18.781   4.601
 3162W        W12855  11.802   2.731   4.621
 3163W        W12856   9.846  19.309   2.223
 3164W        W12857   1.207  11.013   0.740
 3165W        W12858   8.895  15.885  10.907
 3166W        W12859   4.568   8.539   1.257
 3167W        W12860   8.429   8.556   2.190
 3168W        W12861   2.180   9.548  12.848
 3169W        W12862   7.962  15.871   0.261
 3170W        W12863   6.003  16.367   2.214
 3171W        W12864   0.244  10.535   4.140
 3172W        W12865  10.846  13.417  13.346
 3173W        W12866   6.497   4.645   3.175
 3174W        W12867   6.497   5.154   1.239
 3175W        W12868  11.313  18.309   2.206
 3176W        W12869   7.007  11.508  13.791
 3177W        W12870   9.886   1.751   4.139
 3178W        W12871   4.572   6.592   2.197
 3179W        W12872   3.160   2.727   1.736
 3180W        W12873   3.604  19.284  11.896
 3181W        W12874   7.968  10.012   1.220
 3182W        W12875   5.084  15.895   4.601
 3183W        W12876   3.152  12.456  14.780
 3184W        W12877   8.409   6.588   4.152
 3185W        W12878   8.435  16.376  12.350
 3186W        W12879   2.191  18.297  13.822
 3187W        W12880  10.844  12.445  10.904
 3188W        W12881   1.241   3.682  10.909
 3189W        W12882   0.241   0.749  14.803
 3190W        W12883   6.974  17.817   4.149
 3191W        W12884   7.444   2.718   0.761
 3192W        W12885   2.642   9.061   3.657
 3193W        W12886   9.862   4.658  13.330
 3194W        W12887   9.397   8.097   3.631
 3195W        W12888   6.984  12.938   3.149
 3196W        W12889   3.600  11.973  14.309
 3197W        W12890  11.281  12.449   3.666
 3198W        W12891  11.786   7.091   3.187
 3199W        W12892   1.720   2.227   0.732
 3200W        W12893   1.247  15.866   2.696
 3201W        W12894   4.605  19.288  14.280
 3202W        W12895   7.939   8.539  11.412
 3203W        W12896   7.483   7.102   0.768
 3204W        W12897   6.041   0.283  11.375
 3205W        W12898   9.376  12.971   2.204
 3206W        W12899  11.298   2.238  13.318
 3207W        W12900   5.043   8.576   4.139
 3208W        W12901  11.296   7.082   0.257
 3209W        W12902   5.059   8.567  13.338
 3210W        W12903  10.837  14.436  12.849
 3211W        W12904   0.729   8.561  13.318
 3212W        W12905   2.192   3.175  10.909
 3213W        W12906   5.048  14.878   3.181
 3214W        W12907   7.001   9.523   1.700
 3215W        W12908   7.003  11.972   3.164
 3216W        W12909   9.370  10.023  13.811
 3217W        W12910   5.052  14.428   0.729
 3218W        W12911   0.247   2.202   2.683
 3219W        W12912   5.040  19.768  14.286
 3220W        W12913   2.191   8.097   2.703
 3221W        W12914   8.436   5.127   2.665
 3222W        W12915   1.684   0.252   3.657
 3223W        W12916   6.489  19.766   1.222
 3224W        W12917  11.299   2.720   4.629
 3225W        W12918  11.304  14.429  12.373
 3226W        W12919   6.003  11.958   2.685
 3227W        W12920   2.183  14.915   4.142
 3228W        W12921   1.721  13.419  13.820
 3229W        W12922   3.154   6.145  12.859
 3230W        W12923   4.606   6.627  13.815
 3231W        W12924   5.521  10.526  12.346
 3232W        W12925   0.254   3.217   4.140
 3233W        W12926  10.804   6.107   3.150
 3234W        W12927   7.004  11.481   4.624
 3235W        W12928   4.101  10.980   0.764
 3236W        W12929   3.159   9.526   4.114
 3237W        W12930   1.726   2.239  14.762
 3238W        W12931  10.347   5.625  12.347
 3239W        W12932   6.006  11.023   0.276
 3240W        W12933   5.567   3.706  12.376
 3241W        W12934   4.100   6.121   2.196
 3242W        W12935   9.882   9.516  13.829
 3243W        W12936   6.979  13.433   2.666
 3244W        W12937   6.491   1.248   2.214
 3245W        W12938   6.962  10.985   0.283
 3246W        W12939   2.651   5.656   0.262
 3247W        W12940   2.170  18.313  13.352
 3248W        W12941   6.040   8.579   1.732
 3249W        W12942   0.242  14.893  10.923
 3250W        W12943   9.391  12.953  11.403
 3251W        W12944   0.283   3.173  12.360
 3252W        W12945  10.340   4.669  10.922
 3253W        W12946   6.027   5.639  11.408
 3254W        W12947   5.045  17.356  11.404
 3255W        W12948   3.135   0.777   4.118
 3256W        W12949   3.606  12.944   4.641
 3257W        W12950   4.126  12.972   4.147
 3258W        W12951   6.971   6.590  11.379
 3259W        W12952   4.584  10.034  10.899
 3260W        W12953   3.166   9.069   4.623
 3261W        W12954   3.138  17.327  13.799
 3262W        W12955   3.160  15.396  12.387
 3263W        W12956   9.374  12.967  13.827
 3264W        W12957   3.158  11.498   0.278
 3265W        W12958   3.126  15.413   1.237
 3266W        W12959   4.605   5.654  14.303
 3267W        W12960  10.341   8.076  14.763
 3268W        W12961   4.123   0.743  14.804
 3269W        W12962   4.100  19.759   1.699
 3270W        W12963   1.708  13.419   0.772
 3271W        W12964   3.636   5.149   0.756
 3272W        W12965   4.093   5.146  14.319
 3273W        W12966   9.378  11.477   3.162
 3274W        W12967   5.549  18.334   4.631
 3275W        W12968   1.712   0.738   4.148
 3276W        W12969   3.610   0.273  13.339
 3277W        W12970   8.427  12.963  11.379
 3278W        W12971   7.007  10.508   0.728
 3279W        W12972  11.317  13.931   2.670
 3280W        W12973   8.438   4.652  10.905
 3281W        W12974   5.547  16.846   0.727
 3282W        W12975   5.525   0.291   4.115
 3283W        W12976   4.603  10.037   4.620
 3284W        W12977   4.117  16.353   2.667
 3285W        W12978   3.618  17.815   4.614
 3286W        W12979   4.583   4.669   1.240
 3287W        W12980   2.162   5.653   1.255
 3288W        W12981  10.804   0.778  12.854
 3289W        W12982   2.655   6.626  10.935
 3290W        W12983   4.595  18.795  11.871
 3291W        W12984   7.483   8.069   3.156
 3292W        W12985  10.341  10.501   1.740
 3293W        W12986   0.749  12.478  14.793
 3294W        W12987  10.340  14.391   2.213
 3295W        W12988   9.858   0.285  13.350
 3296W        W12989   4.122  19.775  10.934
 3297W        W12990   1.232  14.399   2.198
 3298W        W12991   3.641   3.203   2.694
 3299W        W12992   0.241  12.487  14.303
 3300W        W12993  11.804  15.405  12.353
 3301W        W12994   6.018  17.323   1.723
 3302W        W12995   0.751   6.623  14.781
 3303W        W12996   2.670   0.257   1.242
 3304W        W12997  10.348  17.319  10.914
 3305W        W12998   6.518   7.598   2.706
 3306W        W12999   5.066  15.874   2.661
 3307W        W13000   4.082  15.901  13.331
 3308W        W13001   7.968  11.509  14.797
 3309W        W13002   3.164   0.750  14.784
 3310W        W13003   2.686   7.114   0.774
 3311W        W13004   1.217   0.252  10.922
 3312W        W13005   3.632   6.123  14.800
 3313W        W13006   1.206   9.521  14.293
 3314W        W13007   6.500   5.656  10.912
 3315W        W13008  11.311   4.679  10.892
 3316W        W13009   8.432  13.452   1.247
 3317W        W13010   7.955  11.965   3.663
 3318W        W13011   6.989  17.351  11.899
 3319W        W13012   4.092  18.307   1.733
 3320W        W13013  11.305   0.256   0.285
 3321W        W13014  10.342  13.435   3.652
 3322W        W13015   4.110   9.540   1.712
 3323W        W13016   8.910  15.888  11.418
 3324W        W13017  10.338  12.972   3.668
 3325W        W13018  11.763   4.660  12.368
 3326W        W13019   5.062   2.728   1.734
 3327W        W13020   2.666  15.889   0.737
 3328W        W13021  11.796   5.626   2.698
 3329W        W13022   1.722   1.733  11.417
 3330W        W13023   0.258   4.640   3.637
 3331W        W13024   8.892  16.839  14.288
 3332W        W13025   1.237  15.896   0.267
 3333W        W13026   1.692  15.399  12.830
 3334W        W13027   7.445   0.780  13.807
 3335W        W13028   0.242  12.476   0.764
 3336W        W13029   2.664   6.606  14.276
 3337W        W13030   8.422   0.756   3.152
 3338W        W13031   7.466   0.276  11.379
 3339W        W13032   7.961   2.213  13.794
 3340W        W13033   9.865   6.628   4.142
 3341W        W13034   0.729  15.403   2.694
 3342W        W13035   4.602  19.279   4.116
 3343W        W13036   4.099   3.673   2.679
 3344W        W13037   4.122   2.718   0.741
 3345W        W13038   4.590   4.652  14.781
 3346W        W13039   2.659   6.614  11.895
 3347W        W13040   3.163   6.125  14.301
 3348W        W13041   7.465  19.301   2.192
 3349W        W13042   0.754  10.026  12.382
 3350W        W13043   4.581  18.294  11.900
 3351W        W13044   7.959  13.449   0.759
 3352W        W13045  10.833   0.271  14.787
 3353W        W13046   3.134   6.098   4.631
 3354W        W13047   4.101  16.375   4.606
 3355W        W13048   3.602   4.161   0.758
 3356W        W13049   2.679  10.519   1.734
 3357W        W13050   5.565  16.357   4.135
 3358W        W13051   7.947  15.889   4.635
 3359W        W13052   6.964  17.349   0.768
 3360W        W13053   0.743  13.947   1.719
 3361W        W13054   0.766   6.099  11.859
 3362W        W13055   8.911   5.129  14.275
 3363W        W13056   3.637   0.269   4.116
 3364W        W13057   7.480  11.495   2.193
 3365W        W13058   0.254   7.594  14.296
 3366W        W13059  10.342   4.650   3.180
 3367W        W13060   5.545  16.385   2.194
 3368W        W13061   8.419   5.619   3.165
 3369W        W13062   2.163  10.991   2.668
 3370W        W13063   8.407  12.000  13.331
 3371W        W13064   7.441   0.757   1.722
 3372W        W13065   9.360  17.812   0.259
 3373W        W13066   5.071  15.395  13.337
 3374W        W13067   0.761  17.319  14.296
 3375W        W13068   8.412  15.383  14.302
 3376W        W13069   2.186  18.322   3.651
 3377W        W13070   1.225  13.923  12.361
 3378W        W13071   8.424   5.620   2.679
 3379W        W13072   9.850  13.931  14.311
 3380W        W13073   9.400  18.318   0.741
 3381W        W13074  11.784   9.031  13.837
 3382W        W13075  11.313  18.783   3.185
 3383W        W13076   2.655  14.404   3.675
 3384W        W13077  11.773   9.067  14.785
 3385W        W13078   2.685   2.207  13.820
 3386W        W13079   4.588  14.418   4.151
 3387W        W13080   8.924   0.275   3.630
 3388W        W13081   3.633  14.421  10.897
 3389W        W13082   1.211   1.729   4.148
 3390W        W13083   6.966  18.784   4.607
 3391W        W13084   7.939  12.471  13.793
 3392W        W13085   4.600  18.336  13.832
 3393W        W13086  11.789  14.886  13.794
 3394W        W13087   6.499   3.178   0.739
 3395W        W13088   5.550  11.964  10.925
 3396W        W13089   9.853  19.291  12.383
 3397W        W13090   8.897   7.121   4.614
 3398W        W13091   9.852   6.099  14.762
 3399W        W13092   1.245   4.175   3.669
 3400W        W13093   1.244   8.057   3.180
 3401W        W13094  11.311   8.580  11.882
 3402W        W13095   4.600  18.819  13.817
 3403W        W13096   6.967  17.820  11.393
 3404W        W13097   0.758  12.967   2.700
 3405W        W13098   3.645   3.685   4.616
 3406W        W13099   6.965   0.753  14.298
 3407W        W13100   3.613   7.119  12.351
 3408W        W13101   5.546   4.177   4.629
 3409W        W13102   9.882  19.301   1.237
 3410W        W13103   7.953   8.061  14.801
 3411W        W13104   5.533   4.639   4.612
 3412W        W13105   1.723   0.266   0.770
 3413W        W13106  10.335   5.657   3.658
 3414W        W13107   3.639  11.013  10.926
 3415W        W13108   1.244   3.707   4.119
 3416W        W13109   9.364  10.042   4.161
 3417W        W13110   5.531  10.039   2.200
 3418W        W13111   3.161  10.045  14.320
 3419W        W13112   7.471  11.975   2.188
 3420W        W13113   3.635  12.453  13.827
 3421W        W13114   1.222  14.393  12.852
 3422W        W13115  11.314  17.838  13.827
 3423W        W13116   6.520  18.300   4.628
 3424W        W13117   2.199  17.827   0.284
 3425W        W13118   1.227   6.601   0.276
 3426W        W13119   1.702  16.344  10.925
 3427W        W13120  10.338   7.075  14.281
 3428W        W13121   7.453  14.410  14.785
 3429W        W13122   7.463   1.718  13.350
 3430W        W13123   6.983  13.447  12.844
 3431W        W13124   9.388   4.157   0.273
 3432W        W13125   0.266   4.152   4.641
 3433W        W13126  10.839   7.562  12.846
 3434W        W13127   0.284   2.707   3.193
 3435W        W13128  10.344   8.561   0.758
 3436W        W13129   9.858  11.984   1.210
 3437W        W13130  10.832   0.734   3.181
 3438W        W13131   1.219  11.995   1.243
 3439W        W13132  11.790   2.715  14.290
 3440W        W13133   3.152   0.743   1.733
 3441W        W13134   7.449  13.435  11.398
 3442W        W13135   7.456  18.825   1.244
 3443W        W13136   2.178  17.839  11.903
 3444W        W13137   2.654   4.159  13.831
 3445W        W13138   2.651   1.709   4.621
 3446W        W13139   2.179   7.604  11.883
 3447W        W13140   7.475  16.853   1.211
 3448W        W13141   6.993  17.810  13.334
 3449W        W13142   3.614   2.699  13.803
 3450W        W13143  10.832  17.848   0.746
 3451W        W13144  10.844  12.939   2.664
 3452W        W13145  11.775   8.547  14.766
 3453W        W13146   4.126   2.721   1.232
 3454W        W13147  10.341   2.685   1.738
 3455W        W13148   2.649   8.552  13.800
 3456W        W13149   2.185   9.026   3.162
 3457W        W13150   1.692   5.633   1.713
 3458W        W13151   0.257   0.747   1.704
 3459W        W13152   9.364  18.788  14.798
 3460W        W13153   5.527   5.126  11.394
 3461W        W13154  11.289  16.843   3.646
 3462W        W13155   8.915   6.121   1.210
 3463W        W13156   7.461  13.941  14.291
 3464W        W13157   6.004   2.706   2.698
 3465W        W13158   3.123   6.606  10.902
 3466W        W13159   5.537   7.083   4.604
 3467W        W13160   4.588   2.201  11.870
 3468W        W13161  11.791   9.546  10.889
 3469W        W13162   6.978   4.153   1.697
 3470W        W13163   9.381  15.883   3.150
 3471W        W13164  11.310  19.804  13.807
 3472W        W13165  11.294  11.985  14.305
 3473W        W13166   7.933  10.496  11.882
 3474W        W13167   7.484  11.958  13.795
 3475W        W13168   7.464   1.265  10.888
 3476W        W13169   2.676  18.328  11.892
 3477W        W13170   5.551   3.197   0.280
 3478W        W13171   5.087   1.265   2.671
 3479W        W13172   8.445   6.612  14.318
 3480W        W13173   9.405  13.450   2.677
 3481W        W13174   9.873  19.284  11.409
 3482W        W13175   2.196   4.155   2.662
 3483W        W13176   0.731  14.911  10.895
 3484W        W13177   1.684  16.875   0.751
 3485W        W13178   8.441  14.400  12.378
 3486W        W13179  10.826  13.931   0.737
 3487W        W13180   1.714   5.163   3.147
 3488W        W13181   8.920  14.404  11.389
 3489W        W13182   1.235  19.309  12.866
 3490W        W13183   2.185   1.237  12.369
 3491W        W13184   2.669   9.534   3.183
 3492W        W13185   9.854   4.648   3.154
 3493W        W13186   3.636  14.430  12.354
 3494W        W13187   7.485  16.837   0.769
 3495W        W13188   7.942   7.121  13.314
 3496W        W13189  11.317  10.507  13.314
 3497W        W13190   2.676  10.040  13.311
 3498W        W13191  10.804  17.320  11.902
 3499W        W13192   7.964  16.343  13.351
 3500W        W13193   5.069  16.371  12.357
 3501W        W13194   0.278   9.026   1.736
 3502W        W13195   3.608   7.084   0.749
 3503W        W13196   8.914   4.147   0.284
 3504W        W13197   4.564  12.452   4.119
 3505W        W13198   4.126  14.912   4.639
 3506W        W13199   0.750   6.630   1.252
 3507W        W13200   4.581  19.773  12.344
 3508W        W13201   4.582   5.648  13.333
 3509W        W13202   8.422   1.262   4.635
 3510W        W13203  11.312  12.454   3.187
 3511W        W13204   9.360  18.327   1.235
 3512W        W13205   7.920  15.370  14.314
 3513W        W13206   1.720   4.188   3.639
 3514W        W13207   1.682   9.522  11.874
 3515W        W13208   2.199  18.829   2.679
 3516W        W13209   8.912   3.196   1.255
 3517W        W13210   6.046   1.239   3.169
 3518W        W13211   4.123  19.276   1.707
 3519W        W13212   4.568   0.250  13.322
 3520W        W13213   7.441   5.161   3.149
 3521W        W13214   6.013  14.399   0.267
 3522W        W13215   3.135  12.936   1.218
 3523W        W13216   2.676   8.097  11.860
 3524W        W13217   6.522  11.975  10.920
 3525W        W13218   1.232   5.164  14.289
 3526W        W13219  10.346  13.421   4.118
 3527W        W13220   3.120   2.724   3.653
 3528W        W13221   1.232  12.945  13.325
 3529W        W13222  11.302   1.226   1.238
 3530W        W13223   1.218   3.704   0.279
 3531W        W13224   2.651  15.385   4.629
 3532W        W13225  11.797   3.694  11.897
 3533W        W13226   6.022  18.820   2.183
 3534W        W13227  10.330   1.752   4.603
 3535W        W13228  11.805  12.943  11.858
 3536W        W13229   9.885  16.353   4.154
 3537W        W13230  10.348  17.361   1.224
 3538W        W13231   1.714   7.120  14.291
 3539W        W13232   5.069  16.349   0.736
 3540W        W13233   2.666   4.191   4.138
 3541W        W13234   3.164   9.523   1.705
 3542W        W13235   8.887   9.550   1.732
 3543W        W13236   5.551   4.650   2.186
 3544W        W13237   9.842  11.997   3.648
 3545W        W13238   5.530   1.751   2.673
 3546W        W13239   1.724   5.637   2.672
 3547W        W13240   0.286   8.078  14.286
 3548W        W13241  11.804   4.643  13.329
 3549W        W13242  10.825  10.032  12.375
 3550W        W13243  10.844   8.079  12.859
 3551W        W13244   3.158  11.023   2.209
 3552W        W13245   7.485  11.980   0.249
 3553W        W13246   6.001  15.413   3.182
 3554W        W13247  10.808  10.522  14.299
 3555W        W13248   0.767   1.755   0.748
 3556W        W13249   9.881   2.230   3.637
 3557W        W13250   9.386  12.452  14.805
 3558W        W13251   5.047  18.798   1.737
 3559W        W13252   2.192   3.662  13.811
 3560W        W13253   2.166   5.149  12.860
 3561W        W13254   7.487   1.227   1.710
 3562W        W13255   6.993  12.460  10.926
 3563W        W13256   2.164  17.848   1.213
 3564W        W13257   2.684   6.140  12.835
 3565W        W13258   4.097  16.357  13.804
 3566W        W13259   7.442   6.142   0.734
 3567W        W13260  10.343   8.058  12.382
 3568W        W13261   3.149   8.051   0.252
 3569W        W13262   4.128  13.446  10.892
 3570W        W13263   9.370   2.243   4.143
 3571W        W13264   8.924   6.603   2.691
 3572W        W13265   3.623   6.633   2.180
 3573W        W13266   3.144  17.852   1.248
 3574W        W13267   0.738   8.066   4.119
 3575W        W13268   0.241  15.881   3.665
 3576W        W13269   2.161  10.018   0.772
 3577W        W13270   0.746   9.059   3.167
 3578W        W13271   8.890   7.090  11.889
 3579W        W13272   9.879  11.008  11.412
 3580W        W13273   0.747   8.065  12.826
 3581W        W13274  10.353   9.028  14.794
 3582W        W13275   3.636   0.763   1.237
 3583W        W13276  10.340  16.351   0.254
 3584W        W13277   4.123  19.298  12.375
 3585W        W13278   0.282   8.544   2.678
 3586W        W13279   4.088   4.186  14.305
 3587W        W13280   7.929  19.800  11.387
 3588W        W13281  11.285  17.326   0.246
 3589W        W13282   0.763  18.819  13.801
 3590W        W13283   5.545  11.489  11.393
 3591W        W13284   8.905  14.436   3.158
 3592W        W13285   6.969   4.151  11.866
 3593W        W13286   6.977  14.912   3.155
 3594W        W13287   7.930  19.272  13.321
 3595W        W13288   3.618  19.300   0.753
 3596W        W13289   0.765   2.683   0.728
 3597W        W13290   8.412  17.330   1.708
 3598W        W13291   1.216   3.204  11.877
 3599W        W13292   7.469  12.484   0.764
 3600W        W13293   5.087   6.120   4.636
 3601W        W13294   3.145  13.938   1.258
 3602W        W13295   1.233   9.535  12.836
 3603W        W13296   0.266   2.210  12.350
 3604W        W13297   5.075   1.715  11.886
 3605W        W13298   4.603  10.994   0.740
 3606W        W13299   4.605   2.701   3.151
 3607W        W13300  10.352   9.560   2.216
 3608W        W13301   6.028  13.945  10.933
 3609W        W13302  10.343   3.187   0.259
 3610W        W13303  10.357   6.613  14.800
 3611W        W13304   8.434  16.839   0.765
 3612W        W13305   7.925   8.537  13.327
 3613W        W13306   7.460   1.735   3.637
 3614W        W13307  11.300  18.335   2.708
 3615W        W13308   7.939  18.313   4.632
 3616W        W13309   8.436   1.748   1.244
 3617W        W13310   5.563  13.432   3.668
 3618W        W13311   4.117  15.880  11.413
 3619W        W13312   4.087   9.538  11.887
 3620W        W13313  10.333   8.548   4.156
 3621W        W13314   8.899  11.986   3.638
 3622W        W13315  10.818   2.709   2.709
 3623W        W13316   5.533  17.365  14.320
 3624W        W13317   4.570   9.551   4.135
 3625W        W13318   1.686  10.012   1.707
 3626W        W13319   6.997  10.046  14.313
 3627W        W13320  10.802  18.795   4.609
 3628W        W13321   7.924   5.625   2.179
 3629W        W13322   6.499  16.865  14.758
 3630W        W13323   0.768   2.222   3.636
 3631W        W13324   7.459  10.529  12.382
 3632W        W13325   4.562   7.605  14.275
 3633W        W13326   7.966   6.598   1.253
 3634W        W13327   3.622  19.315   4.150
 3635W        W13328   6.508  15.873   4.132
 3636W        W13329   9.877   8.537  11.386
 3637W        W13330   8.423   5.630   4.146
 3638W        W13331   2.195  14.908   3.164
 3639W        W13332  10.322  17.363  14.316
 3640W        W13333   2.189  19.315   0.271
 3641W        W13334  11.285   4.677   4.604
 3642W        W13335   9.849   1.223  10.931
 3643W        W13336   6.030  13.928   2.683
 3644W        W13337   2.686   1.246  12.861
 3645W        W13338   8.423  19.288   0.264
 3646W        W13339   4.596  12.461   0.287
 3647W        W13340  11.796   4.650  11.401
 3648W        W13341   3.610  17.825  12.340
 3649W        W13342   3.605   8.568  14.787
 3650W        W13343   5.041   7.582   3.654
 3651W        W13344   9.406  18.783  13.809
 3652W        W13345   7.964  12.942  12.857
 3653W        W13346   6.984  16.360   0.280
 3654W        W13347   5.556  13.456   3.174
 3655W        W13348   3.630  12.477   0.277
 3656W        W13349   3.125   5.650  11.859
 3657W        W13350   9.369  11.983  14.799
 3658W        W13351   7.452  14.902   3.191
 3659W        W13352   6.034   5.655  14.794
 3660W        W13353   9.401  10.014  11.400
 3661W        W13354   8.402   6.624  12.348
 3662W        W13355   5.527   1.711   1.226
 3663W        W13356   1.685  13.935   1.228
 3664W        W13357   8.927  13.905   4.129
 3665W        W13358   2.172  19.294  11.380
 3666W        W13359  10.821  17.809  14.279
 3667W        W13360   8.441  10.995   2.680
 3668W        W13361   9.841  17.326   1.695
 3669W        W13362   6.513  10.003  10.892
 3670W        W13363   2.681  10.040   4.633
 3671W        W13364   8.417  14.883  12.831
 3672W        W13365  11.762  10.027   2.708
 3673W        W13366   3.619  14.396  11.884
 3674W        W13367  10.363   7.584  14.784
 3675W        W13368   6.011   0.289   0.735
 3676W        W13369   1.238  11.993  11.898
 3677W        W13370  11.281   8.069   0.734
 3678W        W13371  10.347  17.339  12.846
 3679W        W13372   9.382  16.844  14.806
 3680W        W13373   0.767  18.306  13.323
 3681W        W13374   2.192  16.354  11.373
 3682W        W13375   9.866   3.680   1.704
 3683W        W13376   0.263   2.710   0.265
 3684W        W13377   0.754   9.060   0.733
 3685W        W13378   8.446  19.790   0.735
 3686W        W13379   6.501  18.794   4.137
 3687W        W13380   0.277  13.460  13.345
 3688W        W13381   2.658  12.442   4.632
 3689W        W13382   5.551   2.709  12.845
 3690W        W13383   3.615  16.831  12.386
 3691W        W13384   7.474  11.502  10.930
 3692W        W13385   4.097   7.114  11.865
 3693W        W13386   0.265  19.804  13.818
 3694W        W13387   5.061  11.958   1.733
 3695W        W13388   9.853   8.088   0.289
 3696W        W13389   9.375   8.553   2.197
 3697W        W13390  11.793  15.868  13.310
 3698W        W13391  11.323   0.261   0.747
 3699W        W13392   5.070  12.482   3.192
 3700W        W13393   2.203  12.478   3.182
 3701W        W13394  11.294  12.453  12.345
 3702W        W13395   1.222  12.936   1.714
 3703W        W13396   5.542   4.159  11.886
 3704W        W13397   7.487   5.146  12.363
 3705W        W13398  11.786  16.857  13.321
 3706W        W13399   5.547  17.346  11.883
 3707W        W13400   3.144   5.163   3.659
 3708W        W13401   8.420  14.398  14.765
 3709W        W13402   0.245   7.074  13.815
 3710W        W13403   9.396  19.802  13.826
 3711W        W13404   8.922  18.293   1.224
 3712W        W13405   0.754   8.579   3.634
 3713W        W13406   1.707  12.964  12.835
 3714W        W13407  10.362   1.710   4.138
 3715W        W13408  11.297   6.614  11.386
 3716W        W13409   1.700   6.113  14.786
 3717W        W13410   7.922   9.051   3.630
 3718W        W13411   1.240   2.234  11.889
 3719W        W13412   3.153  16.387   2.703
 3720W        W13413   7.453  10.522  10.915
 3721W        W13414   4.107  11.011  12.387
 3722W        W13415   4.113   0.266   3.160
 3723W        W13416   2.164   4.635   3.151
 3724W        W13417   5.528   3.186   4.148
 3725W        W13418   3.607  16.875  12.863
 3726W        W13419   4.584  16.349   2.207
 3727W        W13420   0.243  10.519  11.377
 3728W        W13421   2.161  10.514   2.705
 3729W        W13422  11.770  19.795  13.836
 3730W        W13423   2.681  19.781  11.889
 3731W        W13424   8.883   6.603   4.599
 3732W        W13425   5.064   3.690  12.368
 3733W        W13426   1.218   6.592   2.214
 3734W        W13427   6.960   2.693  10.909
 3735W        W13428   3.636  15.381  12.825
 3736W        W13429   6.986   1.249   4.154
 3737W        W13430   2.169  19.303   4.624
 3738W        W13431   4.127   9.058   3.185
 3739W        W13432   6.516  11.975  14.778
 3740W        W13433   9.370   5.625  13.804
 3741W        W13434   1.728  11.467   0.257
 3742W        W13435   0.255   3.690  12.838
 3743W        W13436  10.802   9.526   0.259
 3744W        W13437   6.983   6.119  11.395
 3745W        W13438   2.175  19.777  11.409
 3746W        W13439   8.435   2.727   4.114
 3747W        W13440   1.212   8.051  12.365
 3748W        W13441   9.395   4.168  12.869
 3749W        W13442   9.861   2.242   2.696
 3750W        W13443   4.582  10.533   0.274
 3751W        W13444   1.244   8.545  11.402
 3752W        W13445   7.443  13.913   3.663
 3753W        W13446   7.459   5.657   1.725
 3754W        W13447   7.446   8.564   0.276
 3755W        W13448   9.398   2.215   3.643
 3756W        W13449   2.206  15.891   2.206
 3757W        W13450   6.983  18.298   0.731
 3758W        W13451   1.727   0.260  13.837
 3759W        W13452  10.330   9.059   4.138
 3760W        W13453   8.894   0.750   1.723
 3761W        W13454   0.765  14.914   0.752
 3762W        W13455   8.903  14.900  12.850
 3763W        W13456   2.686   1.726  12.830
 3764W        W13457   3.630  11.979   0.760
 3765W        W13458   5.529   5.126   2.203
 3766W        W13459   0.724  17.347  14.767
 3767W        W13460   0.758  10.024  10.919
 3768W        W13461   6.528  18.818   3.646
 3769W        W13462   9.847   4.668  12.861
 3770W        W13463   5.526   4.159   1.212
 3771W        W13464  10.801  19.312   3.178
 3772W        W13465   6.040   9.543  12.351
 3773W        W13466  11.802  17.811   0.764
 3774W        W13467  10.358  10.026   1.257
 3775W        W13468   6.032  16.386  14.314
 3776W        W13469   3.628   5.128  10.929
 3777W        W13470   9.879  10.526   2.187
 3778W        W13471   0.276  14.886   3.175
 3779W        W13472   0.748   1.233  11.896
 3780W        W13473   6.988   3.680   4.156
 3781W        W13474   8.406  10.000   1.731
 3782W        W13475   0.280  18.322   2.198
 3783W        W13476  10.334   2.237   1.242
 3784W        W13477   0.758   9.033   0.249
 3785W        W13478   3.612   6.100  13.348
 3786W        W13479   4.093   6.137  11.412
 3787W        W13480   7.005   0.748  10.905
 3788W        W13481   6.033  14.878   0.272
 3789W        W13482   3.605  13.444   4.161
 3790W        W13483   3.160  15.405  14.802
 3791W        W13484   7.920  16.831   3.173
 3792W        W13485   3.146  10.004   4.128
 3793W        W13486   7.476   1.724  12.832
 3794W        W13487   0.758   6.589  11.868
 3795W        W13488   1.684  11.483   2.675
 3796W        W13489   7.941   6.590  13.828
 3797W        W13490   0.246  11.008  14.792
 3798W        W13491   3.159   5.621   2.204
 3799W        W13492   6.002  13.943  13.826
 3800W        W13493   6.040  18.818  13.807
 3801W        W13494   0.264  19.783   1.697
 3802W        W13495   6.993  10.530  12.377
 3803W        W13496   3.623  10.045  10.907
 3804W        W13497   4.112  12.455   3.647
 3805W        W13498   6.992   1.755   4.618
 3806W        W13499  11.762   1.710  11.375
 3807W        W13500   7.933   4.677   2.707
 3808W        W13501  11.770   4.667   1.733
 3809W        W13502   5.562   9.040   0.768
 3810W        W13503   2.663   1.261   4.599
 3811W        W13504   8.415  10.502  12.339
 3812W        W13505   0.749   2.211  14.764
 3813W        W13506  11.313  19.282   1.241
 3814W        W13507   8.881   8.541  10.919
 3815W        W13508   6.962   9.560   1.223
 3816W        W13509   5.529  14.426  13.320
 3817W        W13510   7.467  19.293  12.373
 3818W        W13511   6.039  15.388  11.412
 3819W        W13512  10.813   0.246   2.190
 3820W        W13513   6.961  12.485  14.279
 3821W        W13514   3.144   8.558   0.267
 3822W        W13515   7.480   3.704   1.709
 3823W        W13516   0.252   8.549  13.812
 3824W        W13517   2.687  11.477   4.129
 3825W        W13518   1.240   4.656   3.631
 3826W        W13519   1.682  17.319   0.245
 3827W        W13520   3.135  15.366   2.705
 3828W        W13521   1.691   7.080   3.647
 3829W        W13522   8.446  17.833   4.638
 3830W        W13523   1.235   9.518   0.256
 3831W        W13524  11.296  17.361  12.851
 3832W        W13525   6.038   6.101   3.184
 3833W        W13526   0.243   3.174   0.727
 3834W        W13527   3.610  11.471   2.707
 3835W        W13528   1.702   1.242  14.774
 3836W        W13529   1.235   0.284   4.627
 3837W        W13530   1.213   3.679   3.652
 3838W        W13531  11.318   7.074   1.253
 3839W        W13532   6.991   3.663   3.174
 3840W        W13533   0.735  17.338   4.146
 3841W        W13534   5.076   2.699  12.860
 3842W        W13535   5.055   3.682  12.828
 3843W        W13536   6.508  11.008  12.367
 3844W        W13537  11.774  15.395   0.742
 3845W        W13538  11.288   0.272  11.410
 3846W        W13539  11.764  13.905   2.699
 3847W        W13540   2.178   5.649  12.869
 3848W        W13541   5.065   3.211   4.114
 3849W        W13542   0.762   9.030   1.249
 3850W        W13543   7.475   7.597  12.845
 3851W        W13544  10.330   4.640  13.814
 3852W        W13545  10.332   6.100  14.803
 3853W        W13546   4.587   6.614  13.310
 3854W        W13547   6.514  10.507  14.786
 3855W        W13548   4.578   6.623  12.828
 3856W        W13549   7.931  18.327  10.889
 3857W        W13550  10.356  10.503  14.286
 3858W        W13551   6.965  13.937   0.746
 3859W        W13552   8.910   6.630   1.226
 3860W        W13553   7.938   7.578  12.351
 3861W        W13554   6.039  11.476  10.889
 3862W        W13555   6.990  13.444  14.762
 3863W        W13556   1.221   6.103  12.365
 3864W        W13557   4.104   9.057   2.223
 3865W        W13558   4.585   6.612  11.372
 3866W        W13559   2.655  11.954  13.354
 3867W        W13560   6.505   4.160   0.729
 3868W        W13561   6.962  15.862  13.348
 3869W        W13562   6.015  19.781   2.193
 3870W        W13563   6.965  16.377   1.234
 3871W        W13564   5.532   5.626  12.365
 3872W        W13565   6.495   9.033   1.213
 3873W        W13566   1.244  11.986  12.868
 3874W        W13567   6.034  11.994  11.416
 3875W        W13568   8.894   2.209   4.607
 3876W        W13569  11.762  11.506   1.239
 3877W        W13570  10.826  14.910  11.376
 3878W        W13571   6.501  14.418  11.884
 3879W        W13572   0.736   4.148   2.694
 3880W        W13573   5.073  16.381   2.219
 3881W        W13574   5.524   3.184   0.727
 3882W        W13575   6.492  11.496   3.666
 3883W        W13576   1.700  10.000   2.186
 3884W        W13577   0.761  16.352   3.172
 3885W        W13578   6.514   2.717  11.898
 3886W        W13579   6.972   8.063  14.295
 3887W        W13580   4.582   7.121   2.688
 3888W        W13581  10.321  12.447   1.742
 3889W        W13582   3.160  14.895  13.345
 3890W        W13583   8.400   2.209   0.265
 3891W        W13584   5.086   8.554   1.244
 3892W        W13585   7.448  17.837  11.383
 3893W        W13586   7.480  12.451   3.155
 3894W        W13587   8.888   3.669   3.653
 3895W        W13588   1.208   5.651  11.864
 3896W        W13589  10.351  11.512   0.747
 3897W        W13590   1.212   4.177   4.121
 3898W        W13591   2.172   6.130   3.184
 3899W        W13592   5.046   7.592   3.149
 3900W        W13593   7.929   3.199  11.382
 3901W        W13594   6.986   9.059  12.830
 3902W        W13595   7.933   8.546  11.877
 3903W        W13596  10.366   3.661   3.152
 3904W        W13597  11.322  15.865   3.657
 3905W        W13598   2.208  17.363  13.311
 3906W        W13599   7.952  14.418  12.352
 3907W        W13600   7.007  19.773   3.173
 3908W        W13601  11.795   9.541   0.248
 3909W        W13602  10.325   8.083  11.409
 3910W        W13603  10.351   3.703   4.628
 3911W        W13604  10.814   6.109   2.199
 3912W        W13605  10.332   6.614   3.638
 3913W        W13606   0.270   1.732   4.134
 3914W        W13607   2.658  14.393  14.301
 3915W        W13608   6.517   2.211  13.795
 3916W        W13609   7.488  16.380  13.805
 3917W        W13610   7.948   3.215  12.362
 3918W        W13611   4.564  19.770  13.320
 3919W        W13612   6.012  10.035   3.185
 3920W        W13613   3.156   1.710   4.142
 3921W        W13614   2.165  17.845   3.166
 3922W        W13615   3.635  16.855  14.781
 3923W        W13616   3.163   8.563   2.179
 3924W        W13617   4.091  11.477  11.894
 3925W        W13618   3.126  10.019   3.152
 3926W        W13619   1.204   9.522   2.197
 3927W        W13620  10.814  16.344   0.764
 3928W        W13621  10.343   2.238   4.159
 3929W        W13622   9.850   2.210   2.202
 3930W        W13623   3.153  10.508   2.182
 3931W        W13624   7.456   9.057   2.696
 3932W        W13625   3.148  14.406  13.342
 3933W        W13626   5.565   0.263   2.677
 3934W        W13627   1.686   6.610   4.149
 3935W        W13628   7.930  10.982   4.612
 3936W        W13629   6.030   6.603   2.216
 3937W        W13630   9.881  16.355  12.376
 3938W        W13631   3.625  14.879  14.317
 3939W        W13632   6.987  12.483   2.680
 3940W        W13633   2.641   7.601   4.123
 3941W        W13634   5.058   2.721  10.935
 3942W        W13635   0.754  12.466   1.718
 3943W        W13636   8.429   4.658  11.869
 3944W        W13637  11.312   4.149   4.621
 3945W        W13638  11.316  14.408  11.396
 3946W        W13639   6.499   0.277   3.635
 3947W        W13640  10.801   0.274   0.741
 3948W        W13641   2.688   7.577  14.795
 3949W        W13642   2.192  18.794   1.255
 3950W        W13643   5.561   6.608   2.693
 3951W        W13644   7.965   1.265  11.399
 3952W        W13645   5.559   7.599   3.148
 3953W        W13646   0.761  12.484  13.795
 3954W        W13647   7.964  14.433   3.647
 3955W        W13648   9.856   8.083   3.191
 3956W        W13649   4.099  13.912  11.856
 3957W        W13650  10.807  13.419   1.718
 3958W        W13651   5.047  12.946   1.234
 3959W        W13652   3.135  10.978  12.830
 3960W        W13653   7.001   8.546   1.735
 3961W        W13654   3.127  17.342   4.636
 3962W        W13655   9.842  18.339  10.899
 3963W        W13656   9.847  10.986  13.791
 3964W        W13657   9.855  18.804  13.334
 3965W        W13658   4.571  17.351  12.846
 3966W        W13659   2.686  10.997  12.349
 3967W        W13660   2.202  17.363  11.410
 3968W        W13661   9.871  12.968   4.135
 3969W        W13662   1.210  12.936  13.790
 3970W        W13663   3.606  10.527  14.275
 3971W        W13664  11.794   1.715   4.636
 3972W        W13665   7.446  11.015   4.625
 3973W        W13666   9.367   1.721  11.411
 3974W        W13667   6.038  17.813   3.639
 3975W        W13668   9.881  15.878   4.158
 3976W        W13669   0.724  10.041   3.635
 3977W        W13670   4.587   0.245   4.644
 3978W        W13671   7.924   7.589   2.215
 3979W        W13672  10.839   1.727  14.285
 3980W        W13673   2.658   8.097   0.264
 3981W        W13674  11.785  10.510   3.659
 3982W        W13675   9.382   1.729  14.773
 3983W        W13676   6.527   0.288   2.685
 3984W        W13677   8.881   8.569   3.186
 3985W        W13678  11.297   2.228   3.656
 3986W        W13679   8.404   3.704  13.340
 3987W        W13680   4.098  17.347  11.396
 3988W        W13681   4.092  10.994   1.230
 3989W        W13682   5.056   0.766   2.216
 3990W        W13683   3.636  10.491  11.890
 3991W        W13684   0.280  19.269   3.677
 3992W        W13685  10.833   1.731  12.350
 3993W        W13686  10.331   3.685   0.737
 3994W        W13687   2.681   6.616   1.738
 3995W        W13688  11.291  17.809   1.211
 3996W        W13689   1.206  14.421   3.645
 3997W        W13690   3.124   3.666  12.371
 3998W        W13691  10.353   4.681   4.639
 3999W        W13692   4.117  14.419  13.818
 4000W        W13693   2.173  12.941   2.689
 4001W        W13694   1.241  11.967  14.804
 4002W        W13695   9.874  19.302   4.114
 4003W        W13696   0.285  12.446   1.221
 4004W        W13697   9.378   6.109   1.728
 4005W        W13698  10.360   5.654  14.310
 4006W        W13699  11.779   6.145   2.207
 4007W        W13700   7.472   3.191  12.826
 4008W        W13701   9.404   2.717  13.338
 4009W        W13702   1.713   8.562  13.325
 4010W        W13703   2.201  11.996   3.632
 4011W        W13704   5.550   0.253  10.922
 4012W        W13705   7.471   1.721   4.160
 4013W        W13706   2.170   6.136   2.695
 4014W        W13707   8.898   1.226   4.636
 4015W        W13708   0.755  15.860  11.880
 4016W        W13709   5.537   2.731   1.232
 4017W        W13710   2.647  10.037  13.806
 4018W        W13711   8.895  15.405  12.851
 4019W        W13712   1.697  18.330  10.891
 4020W        W13713   1.244  15.406   1.243
 4021W        W13714   4.116  13.904   4.131
 4022W        W13715   8.438  11.467   3.177
 4023W        W13716   7.465  18.310   3.636
 4024W        W13717   9.886  19.769  13.819
 4025W        W13718   4.099   7.602   4.627
 4026W        W13719   6.039  12.484   1.221
 4027W        W13720   7.921   1.257  14.300
 4028W        W13721   1.211  10.504   0.744
 4029W        W13722   0.722   6.589  11.382
 4030W        W13723   3.624   2.196   3.153
 4031W        W13724   3.144   5.130   4.122
 4032W        W13725   1.220  11.500   0.748
 4033W        W13726   1.224   7.572  13.821
 4034W        W13727   9.377   6.145   0.282
 4035W        W13728   1.726  19.792  13.818
 4036W        W13729   1.217   9.515   1.715
 4037W        W13730   1.698   2.707  11.867
 4038W        W13731   1.689  15.373  12.367
 4039W        W13732   7.469  17.340   1.725
 4040W        W13733   2.670   3.173  14.798
 4041W        W13734   8.414   1.710  13.821
 4042W        W13735   7.922   2.698  12.843
 4043W        W13736   4.599  18.295  14.309
 4044W        W13737   8.925  12.443   1.708
 4045W        W13738  10.836  11.471   0.290
 4046W        W13739  10.345  14.398  11.863
 4047W        W13740   7.006  13.915   4.627
 4048W        W13741   1.217  13.942  13.342
 4049W        W13742   1.246  16.871   3.667
 4050W        W13743   7.449   1.751  11.397
 4051W        W13744   5.072   5.138  10.895
 4052W        W13745   4.124   0.290  11.373
 4053W        W13746   6.492  10.530  11.900
 4054W        W13747   8.927  17.329  11.888
 4055W        W13748   5.540   9.528   4.642
 4056W        W13749   9.380   2.241  13.836
 4057W        W13750  11.313  18.800   3.635
 4058W        W13751   8.430  14.394  13.345
 4059W        W13752   3.162   0.265  14.761
 4060W        W13753   5.528   7.597   1.710
 4061W        W13754   5.043  15.404   4.604
 4062W        W13755   5.077   7.097  11.399
 4063W        W13756   7.960   9.560   1.229
 4064W        W13757   5.530   3.174  11.390
 4065W        W13758   0.740  15.859   3.185
 4066W        W13759   9.869  10.492   2.688
 4067W        W13760   3.619   9.032   4.155
 4068W        W13761   7.488   4.153   0.254
 4069W        W13762   5.064  16.838   4.148
 4070W        W13763   9.365  19.281  14.312
 4071W        W13764   3.614   9.036  12.376
 4072W        W13765  11.316  11.475  13.334
 4073W        W13766   1.692   2.709   4.118
 4074W        W13767   5.060   0.751  13.805
 4075W        W13768   2.643  11.012   4.624
 4076W        W13769  11.788  16.362  14.798
 4077W        W13770   7.968   8.559   3.641
 4078W        W13771   6.503   7.566  12.837
 4079W        W13772   0.759   1.737  14.317
 4080W        W13773   4.582  16.374   0.273
 4081W        W13774   9.361  10.529   1.695
 4082W        W13775  10.844   8.064  11.888
 4083W        W13776   4.584   4.167   1.216
 4084W        W13777   9.381  17.822   3.638
 4085W        W13778   2.658  10.988   4.135
 4086W        W13779   8.428  17.805  11.417
 4087W        W13780  10.818   6.126   0.772
 4088W        W13781   0.268   9.036  12.825
 4089W        W13782   6.989  15.411  12.342
 4090W        W13783   3.158  10.530   4.150
 4091W        W13784   1.247  10.032   2.703
 4092W        W13785  10.361  18.332   0.747
 4093W        W13786   3.633  15.396   2.662
 4094W        W13787   1.724  19.769  12.830
 4095W        W13788   9.846   3.676   2.704
 4096W        W13789  11.772  13.445   0.280
 4097W        W13790   0.269   1.231   2.679
 4098W        W13791   5.067   3.682  13.346
 4099W        W13792   7.458   2.707  11.901
 4100W        W13793   8.433  19.303   3.661
 4101W        W13794   0.284  10.001   0.281
 4102W        W13795   5.540  17.812  13.320
 4103W        W13796   5.050   5.657  11.415
 4104W        W13797   5.522   8.082   2.673
 4105W        W13798   4.603  17.330  14.788
 4106W        W13799   1.710   3.207  12.838
 4107W        W13800   5.523  15.369   2.686
 4108W        W13801   9.373  15.397  13.808
 4109W        W13802  11.808  11.995  11.863
 4110W        W13803   1.685  12.450   0.729
 4111W        W13804   2.186   2.712   0.743
 4112W        W13805   2.652  17.327  10.900
 4113W        W13806   4.602   4.654  11.897
 4114W        W13807   8.903   2.226  12.377
 4115W        W13808   9.854   1.253  11.375
 4116W        W13809   1.682  17.336  11.412
 4117W        W13810   9.879   5.635   2.190
 4118W        W13811  11.295  11.493   2.673
 4119W        W13812   2.172  16.372   3.182
 4120W        W13813   3.612   7.604   3.672
 4121W        W13814   9.867  13.921  13.334
 4122W        W13815   4.101   5.634   3.632
 4123W        W13816   9.386   0.288   3.186
 4124W        W13817   3.633  19.764   2.702
 4125W        W13818   8.440   8.578  14.276
 4126W        W13819   2.194  15.408   4.144
 4127W        W13820  11.787  19.278   4.151
 4128W        W13821   1.243   8.559  13.806
 4129W        W13822   9.846  14.912   0.270
 4130W        W13823   9.397   1.263   5.611
 4131W        W13824   7.949   1.252  11.870
 4132W        W13825  10.827  10.523   1.726
 4133W        W13826   2.191  12.481  14.319
 4134W        W13827   9.403  13.936   4.151
 4135W        W13828   7.948  18.814   2.190
 4136W        W13829   3.608  16.352  12.359
 4137W        W13830   9.372  13.904  12.361
 4138W        W13831   4.113  19.314  14.777
 4139W        W13832   2.175  18.828  12.357
 4140W        W13833   9.846   6.633  14.780
 4141W        W13834   6.025  11.960   3.663
 4142W        W13835   3.144  17.366  12.349
 4143W        W13836   8.426  12.474   4.597
 4144W        W13837   3.152   1.737   3.658
 4145W        W13838   9.403  17.829   3.152
 4146W        W13839   2.181  16.844   2.702
 4147W        W13840   6.961   4.677  13.316
 4148W        W13841   4.084  11.954   2.704
 4149W        W13842   2.178  12.481   4.616
 4150W        W13843   6.506   6.110  13.355
 4151W        W13844   4.599   6.597   0.251
 4152W        W13845   6.002   1.754   0.754
 4153W        W13846   2.643   1.735   1.737
 4154W        W13847   7.935  13.917   3.183
 4155W        W13848   6.046  19.776  11.390
 4156W        W13849   0.735   2.725  13.805
 4157W        W13850   8.924   4.156  11.392
 4158W        W13851  11.285   9.032   2.695
 4159W        W13852   8.912   5.163  11.407
 4160W        W13853  11.286   5.163  12.341
 4161W        W13854   5.526  19.275  11.879
 4162W        W13855   1.228   6.105  10.933
 4163W        W13856  10.802  13.428   2.211
 4164W        W13857   6.991   0.766  13.827
 4165W        W13858   8.886   8.059  12.356
 4166W        W13859   8.915  19.288  11.866
 4167W        W13860   8.418   2.701  13.818
 4168W        W13861   4.590  13.927  12.857
 4169W        W13862   7.923   7.098   4.623
 4170W        W13863   5.560  10.510   1.250
 4171W        W13864   8.882   5.161  10.931
 4172W        W13865   2.200   2.222   1.735
 4173W        W13866   1.203  19.778   1.248
 4174W        W13867  11.322   0.750   3.163
 4175W        W13868   6.039  18.297  10.917
 4176W        W13869   3.634  18.809   2.677
 4177W        W13870   9.854   5.626  11.389
 4178W        W13871  11.319   6.132  13.342
 4179W        W13872   9.868  12.947  13.337
 4180W        W13873   9.862  12.467  11.882
 4181W        W13874   7.949   7.568  13.342
 4182W        W13875   4.583  15.894   2.186
 4183W        W13876  11.796   0.291  12.844
 4184W        W13877   2.678   4.676   3.664
 4185W        W13878   8.446   7.087  10.912
 4186W        W13879   0.748  16.863   4.155
 4187W        W13880   9.373  10.994   2.203
 4188W        W13881   6.002   9.044   2.194
 4189W        W13882   0.728  17.338   1.720
 4190W        W13883   2.185  10.524  14.788
 4191W        W13884   6.505  16.378  13.314
 4192W        W13885   1.696   2.241   2.201
 4193W        W13886   6.501   6.600  13.804
 4194W        W13887   0.285   5.129  10.910
 4195W        W13888   3.614   1.233  10.932
 4196W        W13889   4.087   0.280   4.117
 4197W        W13890   9.885  15.893   1.726
 4198W        W13891  10.342  15.866  12.871
 4199W        W13892   6.997  12.467  14.802
 4200W        W13893   6.504  19.788   4.132
 4201W        W13894   6.991   6.137   4.118
 4202W        W13895   3.622   4.651   4.153
 4203W        W13896   3.633   8.553   2.682
 4204W        W13897   6.497  11.512  14.292
 4205W        W13898   8.408  16.376  10.908
 4206W        W13899   0.730  11.502   4.643
 4207W        W13900   1.236  13.923   2.672
 4208W        W13901   3.619   6.135  12.855
 4209W        W13902   4.571  11.512  10.906
 4210W        W13903   6.960  12.943   4.117
 4211W        W13904   9.842   5.163   0.758
 4212W        W13905   4.120   6.592  13.335
 4213W        W13906   3.159  17.851  14.290
 4214W        W13907   7.452  18.308   1.722
 4215W        W13908   3.612  13.948  10.922
 4216W        W13909   3.134  16.369   3.671
 4217W        W13910   6.980   0.751  13.330
 4218W        W13911   9.389  10.997  10.911
 4219W        W13912   0.266   9.055  10.922
 4220W        W13913   7.468   5.643  11.871
 4221W        W13914   5.545   4.663   3.659
 4222W        W13915  10.845  10.991   0.258
 4223W        W13916   2.683   6.616   2.664
 4224W        W13917   3.638   1.708   3.178
 4225W        W13918   2.183   3.665   1.723
 4226W        W13919  10.321   3.696  11.397
 4227W        W13920   4.087  15.402  14.786
 4228W        W13921  11.768  13.440   4.138
 4229W        W13922   1.701  15.864  11.416
 4230W        W13923   4.099   2.729  13.309
 4231W        W13924   6.975   8.086   0.754
 4232W        W13925  11.313   7.593  14.309
 4233W        W13926   6.044   9.553  14.304
 4234W        W13927  10.830   4.670   4.131
 4235W        W13928   1.200   5.128  11.415
 4236W        W13929   6.987  10.526  13.316
 4237W        W13930   6.006  19.313   4.608
 4238W        W13931   6.044  17.808  14.288
 4239W        W13932   8.891  14.410   2.185
 4240W        W13933   9.405  19.800  10.929
 4241W        W13934   7.966   1.254   3.644
 4242W        W13935   3.602  10.531  12.854
 4243W        W13936   5.531   9.559  10.917
 4244W        W13937  11.764   8.550  12.856
 4245W        W13938   4.109  17.365   3.672
 4246W        W13939   1.208   3.174   0.762
 4247W        W13940  10.839   1.244   3.157
 4248W        W13941   8.407  13.917   4.640
 4249W        W13942   1.702   0.775  12.381
 4250W        W13943   2.665  12.935  12.367
 4251W        W13944   1.718  18.815   2.206
 4252W        W13945   0.721  18.330  11.387
 4253W        W13946   3.618  18.318   3.187
 4254W        W13947   1.716   2.711   0.740
 4255W        W13948   4.093  15.869  14.763
 4256W        W13949   4.567   9.542   2.182
 4257W        W13950   5.526  17.847   4.638
 4258W        W13951   1.202  11.006   4.639
 4259W        W13952   6.514   6.605  12.869
 4260W        W13953   2.661   2.690   2.700
 4261W        W13954   0.760   6.117   3.664
 4262W        W13955   9.382   6.617   0.265
 4263W        W13956   3.641   2.729  14.773
 4264W        W13957   2.185   2.683  12.385
 4265W        W13958   5.556  17.320   4.157
 4266W        W13959  11.280   8.577   2.683
 4267W        W13960   8.443  11.505  10.912
 4268W        W13961  11.776  11.000   0.245
 4269W        W13962   6.511   3.661  14.764
 4270W        W13963   6.974   7.589   4.600
 4271W        W13964   5.060  18.828  12.343
 4272W        W13965   3.646   0.751  10.888
 4273W        W13966   8.404   8.082   4.137
 4274W        W13967   4.090  17.817   0.260
 4275W        W13968   6.993   2.231  13.343
 4276W        W13969   2.176  18.315   2.678
 4277W        W13970   6.039  11.969  14.300
 4278W        W13971   6.018   0.736   0.752
 4279W        W13972   6.981   0.280   3.652
 4280W        W13973   2.178  14.879   4.608
 4281W        W13974   7.006  17.333  12.344
 4282W        W13975  10.848  12.487  13.823
 4283W        W13976   5.553   5.624   2.197
 4284W        W13977   7.957  13.938  12.826
 4285W        W13978   9.363   7.583   3.183
 4286W        W13979   9.374   1.742   3.644
 4287W        W13980   9.873  12.465  13.798
 4288W        W13981   6.017  19.787   1.237
 4289W        W13982  11.774  14.890   2.678
 4290W        W13983   2.688   9.539   1.255
 4291W        W13984  11.773   5.612   2.216
 4292W        W13985  11.310   8.547   3.185
 4293W        W13986   2.187   7.607   0.752
 4294W        W13987  11.306  16.385   1.721
 4295W        W13988  10.832   0.780  13.317
 4296W        W13989   5.081  19.291   0.252
 4297W        W13990   2.200   7.075  14.300
 4298W        W13991   5.545  10.018  14.275
 4299W        W13992   9.884   0.291   2.218
 4300W        W13993   0.249   4.184   2.692
 4301W        W13994   8.447   8.062  13.804
 4302W        W13995   9.389  15.368  12.378
 4303W        W13996   3.640   6.631   1.231
 4304W        W13997   6.040   1.249   4.617
 4305W        W13998   6.984  15.875   1.698
 4306W        W13999   0.263  15.860  12.861
 4307W        W14000   0.256  16.844   2.206
 4308W        W14001   6.009  19.316   2.693
 4309W        W14002   4.105   4.664   0.244
 4310W        W14003   9.373  15.884  12.867
 4311W        W14004   8.926   4.188  11.891
 4312W        W14005   7.948  17.351   3.671
 4313W        W14006   4.126   3.680  14.277
 4314W        W14007   4.580   1.231  12.835
 4315W        W14008   4.590   1.717   2.689
 4316W        W14009   4.604  10.039   1.228
 4317W        W14010  11.774   7.083  12.856
 4318W        W14011   3.155   3.674   0.262
 4319W        W14012   8.927   5.616   3.666
 4320W        W14013   6.986  14.429   2.701
 4321W        W14014   2.200  13.458  10.914
 4322W        W14015  10.354   9.542  13.317
 4323W        W14016   9.399  17.827  11.896
 4324W        W14017   1.205   3.679   4.641
 4325W        W14018   0.270  18.322  14.312
 4326W        W14019   9.872   4.641   2.216
 4327W        W14020  10.364   3.670   3.672
 4328W        W14021   9.879   0.738  12.364
 4329W        W14022  11.293  17.332   2.178
 4330W        W14023   0.249  16.390  12.842
 4331W        W14024   6.044  15.857   4.619
 4332W        W14025   1.244  16.873  13.838
 4333W        W14026  10.336   9.035   4.613
 4334W        W14027   3.129   9.042  12.838
 4335W        W14028   4.603  14.433   1.719
 4336W        W14029  10.816  18.801  13.333
 4337W        W14030   7.476   9.558  13.350
 4338W        W14031  11.322   1.245  14.802
 4339W        W14032  10.843   3.208   0.750
 4340W        W14033   0.734  11.478  10.930
 4341W        W14034   9.878  18.307  11.386
 4342W        W14035   0.260   3.178  11.372
 4343W        W14036   4.602   8.549  11.418
 4344W        W14037  10.344   6.109  12.350
 4345W        W14038   6.981  14.423  11.862
 4346W        W14039   7.444   7.108   4.632
 4347W        W14040   9.374   6.108   1.238
 4348W        W14041  10.838   3.686  12.849
 4349W        W14042   2.202  12.935   1.252
 4350W        W14043  11.303   2.730   0.279
 4351W        W14044  10.804  15.412  10.919
 4352W        W14045   2.683   1.742   2.677
 4353W        W14046  10.826   4.168  14.314
 4354W        W14047   5.048  10.983   4.640
 4355W        W14048   5.068  18.809   2.204
 4356W        W14049   6.003   6.606   4.143
 4357W        W14050   3.167   4.637  13.838
 4358W        W14051   3.605   3.676  14.768
 4359W        W14052   4.106  14.416  13.313
 4360W        W14053   1.724  15.869  13.333
 4361W        W14054  11.806  10.024  14.790
 4362W        W14055   5.532   2.711   2.180
 4363W        W14056   4.585   1.728   1.256
 4364W        W14057   5.538  18.304   0.762
 4365W        W14058   1.203  12.965  14.805
 4366W        W14059  10.814  19.278  10.891
 4367W        W14060   9.873  17.350  13.352
 4368W        W14061   1.685   8.051  12.362
 4369W        W14062  11.285   0.254   4.143
 4370W        W14063   7.962   9.547   3.670
 4371W        W14064   9.883   5.136  13.793
 4372W        W14065   7.002   4.647  11.375
 4373W        W14066   8.441  10.491   1.702
 4374W        W14067   0.258  16.344   3.665
 4375W        W14068   5.066   9.558   4.602
 4376W        W14069   6.969   9.520  14.760
 4377W        W14070  11.774  18.327   2.700
 4378W        W14071   0.260   5.139  13.313
 4379W        W14072  10.820  10.013   0.739
 4380W        W14073   5.557   5.620  13.318
 4381W        W14074   6.521   3.676  14.311
 4382W        W14075   6.979  11.983   4.139
 4383W        W14076   3.162  14.412   0.754
 4384W        W14077   0.251  17.845   3.647
 4385W        W14078   2.168  10.979   0.282
 4386W        W14079   2.646  19.279   3.643
 4387W        W14080   0.282  18.812   1.725
 4388W        W14081  11.768  14.896   4.136
 4389W        W14082   2.661   9.035  13.809
 4390W        W14083   8.917  16.384   0.288
 4391W        W14084   3.636  10.506   3.634
 4392W        W14085   4.595   9.047  14.776
 4393W        W14086   5.063   1.733   0.752
 4394W        W14087   4.596   3.663   1.712
 4395W        W14088   9.373   4.188   1.710
 4396W        W14089   6.497  11.970   0.288
 4397W        W14090   7.444   7.075   3.173
 4398W        W14091   2.172  10.030  12.372
 4399W        W14092   1.696  19.290   1.708
 4400W        W14093   7.922  14.905   4.130
 4401W        W14094  11.801  13.462  11.875
 4402W        W14095   9.399   1.718  12.367
 4403W        W14096   6.028  10.037  14.295
 4404W        W14097   1.701  15.857  14.322
 4405W        W14098   9.857  16.852   1.703
 4406W        W14099  11.312   1.708   1.230
 4407W        W14100  10.806  10.996  14.770
 4408W        W14101   3.156   4.171   4.634
 4409W        W14102   6.978  19.305   0.770
 4410W        W14103   5.043  18.318  11.893
 4411W        W14104   2.655   7.104   3.147
 4412W        W14105   2.183   8.068  14.279
 4413W        W14106   6.991   5.654   1.695
 4414W        W14107   2.202  12.941   0.266
 4415W        W14108   6.490  15.902  11.403
 4416W        W14109   7.938   1.737   0.275
 4417W        W14110   9.395  16.346  11.398
 4418W        W14111   5.537  16.355  12.356
 4419W        W14112   6.481   7.089   4.620
 4420W        W14113   9.868   7.599   3.173
 4421W        W14114  10.344   4.638  12.853
 4422W        W14115   2.677   2.689   3.664
 4423W        W14116   9.381  14.420  13.324
 4424W        W14117   8.412   4.187   0.759
 4425W        W14118   0.731   1.253  12.835
 4426W        W14119  11.779   6.137  12.378
 4427W        W14120   0.746  19.777  11.399
 4428W        W14121   8.887   6.615   0.247
 4429W        W14122   5.529  10.995  13.807
 4430W        W14123   5.530   8.558  14.798
 4431W        W14124   6.969  11.972   4.605
 4432W        W14125   8.415  14.408  11.418
 4433W        W14126   6.487  12.479   1.226
 4434W        W14127  10.847   3.699  11.892
 4435W        W14128   6.976  10.034  10.933
 4436W        W14129   5.534  16.872   3.148
 4437W        W14130   9.874   7.089   0.750
 4438W        W14131   9.859   9.060   2.672
 4439W        W14132   7.447  12.936   0.774
 4440W        W14133   6.990   2.730  11.373
 4441W        W14134   7.926   9.047   2.219
 4442W        W14135  11.309  11.995  12.865
 4443W        W14136   7.935  13.912  10.901
 4444W        W14137   2.660  14.429   1.704
 4445W        W14138   8.445   5.638  10.908
 4446W        W14139   0.259  15.881  12.368
 4447W        W14140   0.246   6.610  10.894
 4448W        W14141   8.884  14.894   3.158
 4449W        W14142   4.080  16.347   1.718
 4450W        W14143   8.919   0.280   0.260
 4451W        W14144  10.360  11.003   4.617
 4452W        W14145   9.368   1.229   1.701
 4453W        W14146   5.537   7.100  14.280
 4454W        W14147   2.161  19.299   1.238
 4455W        W14148   6.045   1.268  10.904
 4456W        W14149   2.174   3.175   2.210
 4457W        W14150  11.791   9.051  11.384
 4458W        W14151   2.643   9.558  13.811
 4459W        W14152  11.309  16.375  10.892
 4460W        W14153   2.164   4.169   3.648
 4461W        W14154   1.695   7.094  12.849
 4462W        W14155   0.735  14.916   0.286
 4463W        W14156   5.084   1.264   0.761
 4464W        W14157   6.517   2.198   4.126
 4465W        W14158   1.208  16.359   0.284
 4466W        W14159   3.122  12.482  11.893
 4467W        W14160   3.138   7.579  10.902
 4468W        W14161   1.695   8.072  11.412
 4469W        W14162   9.848   0.285  14.288
 4470W        W14163   2.688  11.485   3.675
 4471W        W14164   1.697  15.870  12.345
 4472W        W14165   1.717  12.946  10.904
 4473W        W14166   5.047   8.547   1.696
 4474W        W14167   2.682  12.459  13.348
 4475W        W14168   2.165  15.885   4.124
 4476W        W14169   5.547  17.852  14.799
 4477W        W14170   2.185   0.260  10.916
 4478W        W14171   9.367  17.358   3.155
 4479W        W14172   6.511   4.671  13.331
 4480W        W14173   7.966   8.584   2.697
 4481W        W14174   5.556   9.038   2.223
 4482W        W14175   5.086   2.720  11.388
 4483W        W14176   7.934   2.199   3.662
 4484W        W14177   1.216  14.891  11.373
 4485W        W14178  10.807  11.982   4.624
 4486W        W14179   7.963   0.748  11.866
 4487W        W14180   0.285   0.734   2.678
 4488W        W14181  10.352   0.287   0.262
 4489W        W14182   7.455  11.962  13.341
 4490W        W14183   5.075   2.243   0.749
 4491W        W14184   0.263   6.122   0.268
 4492W        W14185   2.646   1.268  11.891
 4493W        W14186   4.588  13.453  14.276
 4494W        W14187   9.877  10.001   0.271
 4495W        W14188  11.315   1.225   3.637
 4496W        W14189   3.147   6.098   4.121
 4497W        W14190   7.945  15.864  13.325
 4498W        W14191   6.021   9.026  11.859
 4499W        W14192   5.088   1.731   3.155
 4500W        W14193   1.721  14.925  12.869
 4501W        W14194   8.917   0.753  11.383
 4502W        W14195   7.941   9.513  14.307
 4503W        W14196   4.566   9.066   1.731
 4504W        W14197  10.818   5.652  12.341
 4505W        W14198  10.843  14.415  13.817
 4506W        W14199   9.864   1.247   3.173
 4507W        W14200   7.002  13.923   4.141
 4508W        W14201   7.450   0.266   3.641
 4509W        W14202   6.026   9.041  14.311
 4510W        W14203   0.241  10.048  13.818
 4511W        W14204   8.888  17.357   4.135
 4512W        W14205   6.029  17.330   0.745
 4513W        W14206   9.869   8.548   1.734
 4514W        W14207   0.255   6.098  12.343
 4515W        W14208  11.306   0.262   4.605
 4516W        W14209   4.578  16.849  14.760
 4517W        W14210   5.532  11.951  11.857
 4518W        W14211   9.853  16.846   2.195
 4519W        W14212   2.201   5.166  11.401
 4520W        W14213   1.683   9.041   2.203
 4521W        W14214   6.038  11.966   1.704
 4522W        W14215   2.660   4.682   1.233
 4523W        W14216  10.818  12.975  14.310
 4524W        W14217   8.425   1.239  12.863
 4525W        W14218   0.730   1.736  13.832
 4526W        W14219  10.833  17.362   4.608
 4527W        W14220   2.686  13.941  10.898
 4528W        W14221   4.563   6.107  11.897
 4529W        W14222   6.496  18.810  14.301
 4530W        W14223   9.399   3.213   3.643
 4531W        W14224   6.988   5.611  12.375
 4532W        W14225   3.147  14.395  12.871
 4533W        W14226   4.084   6.131   1.715
 4534W        W14227   6.971  13.455  14.307
 4535W        W14228   1.223   9.533  14.793
 4536W        W14229   5.083   9.525   0.750
 4537W        W14230   5.526  13.420   2.181
 4538W        W14231   0.726  12.927  13.320
 4539W        W14232   5.520   6.103   3.173
 4540W        W14233   3.124   8.053   3.184
 4541W        W14234   0.287  10.984   1.734
 4542W        W14235   4.120  10.982   2.181
 4543W        W14236   2.172   4.166   2.178
 4544W        W14237   3.130  19.804   0.753
 4545W        W14238   4.572   8.585  13.811
 4546W        W14239   4.093  18.828   1.731
 4547W        W14240   8.922   0.245   3.181
 4548W        W14241   3.135   6.101  14.792
 4549W        W14242   1.226   2.211  10.925
 4550W        W14243  10.346   7.603   0.247
 4551W        W14244   5.079  17.831   0.243
 4552W        W14245   7.481   2.684  12.861
 4553W        W14246   3.640   0.267   3.178
 4554W        W14247  11.780   2.207   0.248
 4555W        W14248   7.447  15.374   3.665
 4556W        W14249   6.978  18.320   1.228
 4557W        W14250   9.861  11.977  11.867
 4558W        W14251   9.881  15.367   3.176
 4559W        W14252   8.437  12.927   3.657
 4560W        W14253   9.854   8.543  12.383
 4561W        W14254   3.125  16.837   4.630
 4562W        W14255   3.148  13.461   0.745
 4563W        W14256   6.501   9.518   4.157
 4564W        W14257   7.922  16.834  13.337
 4565W        W14258   0.751  11.004  14.781
 4566W        W14259   6.964  16.843   3.147
 4567W        W14260   7.003  13.930  14.290
 4568W        W14261   6.485   6.609   1.216
 4569W        W14262  10.847  12.463   2.680
 4570W        W14263   1.688   8.055   3.156
 4571W        W14264   8.909   2.223   3.632
 4572W        W14265   0.746   2.203   1.725
 4573W        W14266   9.405  15.886  11.385
 4574W        W14267   7.473  19.783   2.682
 4575W        W14268   0.755  19.283  11.392
 4576W        W14269   7.965   9.524   1.700
 4577W        W14270   6.011  12.949   1.237
 4578W        W14271   4.090   2.196   1.733
 4579W        W14272   2.207   6.621   1.256
 4580W        W14273   7.468  11.964  11.406
 4581W        W14274   4.084   1.747  11.385
 4582W        W14275   7.951  11.470   0.275
 4583W        W14276   2.197   2.715   1.703
 4584W        W14277   0.260   1.750  12.358
 4585W        W14278   6.480   0.773   4.642
 4586W        W14279  10.362   6.632   0.745
 4587W        W14280   0.241   1.220  11.881
 4588W        W14281  10.322   1.225  13.832
 4589W        W14282   6.500  13.932  14.789
 4590W        W14283   3.141  18.336   3.653
 4591W        W14284   7.933  11.507   3.186
 4592W        W14285   7.956  16.349   0.274
 4593W        W14286   2.179  19.764  14.299
 4594W        W14287   6.026   0.248   2.692
 4595W        W14288  10.823  17.339  12.382
 4596W        W14289   7.950  19.770   4.623
 4597W        W14290   9.393  18.823   3.648
 4598W        W14291   9.379   9.055   1.252
 4599W        W14292   1.217  10.494   3.675
 4600W        W14293   8.915  12.450  11.888
 4601W        W14294  11.303  15.385   1.253
 4602W        W14295   8.402  14.399  13.801
 4603W        W14296  10.837  11.984   0.252
 4604W        W14297   3.626   4.188  13.353
 4605W        W14298   8.897   1.745  14.291
 4606W        W14299   0.287   1.735   1.235
 4607W        W14300   0.743  19.785   1.219
 4608W        W14301  10.823   1.753   1.248
 4609W        W14302   6.027   1.228  12.373
 4610W        W14303   6.512   0.250  11.871
 4611W        W14304   0.285  18.793   3.151
 4612W        W14305  11.782  17.851  13.349
 4613W        W14306   6.499  17.812  13.823
 4614W        W14307   0.282   2.699  11.874
 4615W        W14308   2.679   1.265  14.304
 4616W        W14309   9.397   8.584   2.674
 4617W        W14310  11.794  18.805   4.614
 4618W        W14311   2.679  19.778   5.118
 4619W        W14312   0.249   8.080   2.664
 4620W        W14313   8.900   0.289  12.359
 4621W        W14314   2.666   1.240   0.288
 4622W        W14315   5.041  10.534   0.245
 4623W        W14316   6.485   1.240  14.789
 4624W        W14317   4.587   9.026  10.897
 4625W        W14318   6.995   1.257   3.174
 4626W        W14319   1.682   5.652  13.325
 4627W        W14320  11.309  17.813   2.675
 4628W        W14321   5.524   8.075  12.840
 4629W        W14322  10.813  17.809  11.378
 4630W        W14323   0.267  12.443   4.633
 4631W        W14324   8.918  11.005   1.734
 4632W        W14325   9.388   0.752   0.749
 4633W        W14326   9.372   1.713  10.924
 4634W        W14327   9.389  10.497  12.360
 4635W        W14328   8.430   4.164  14.803
 4636W        W14329   1.244  13.930   0.260
 4637W        W14330   1.242  10.996  11.377
 4638W        W14331   5.566  18.326   0.276
 4639W        W14332   5.070  15.407   3.183
 4640W        W14333   6.003   1.726  13.327
 4641W        W14334   4.561  14.428   0.275
 4642W        W14335  10.364  11.956  11.888
 4643W        W14336   1.247  18.825  13.793
 4644W        W14337   8.893   7.105   2.681
 4645W        W14338  11.314  17.345   1.231
 4646W        W14339  11.808   9.035  10.928
 4647W        W14340   6.023  13.444  11.869
 4648W        W14341   6.962  16.370  14.288
 4649W        W14342   3.610  13.905  14.794
 4650W        W14343   4.088  14.419  10.897
 4651W        W14344  10.814   3.179   0.258
 4652W        W14345   0.762  15.386   0.249
 4653W        W14346   3.156  10.041  11.868
 4654W        W14347  11.766   6.631  12.383
 4655W        W14348   9.860  19.286   0.256
 4656W        W14349  10.828  14.904  10.924
 4657W        W14350   0.283   3.704  11.902
 4658W        W14351   3.138   3.218  13.342
 4659W        W14352   4.594   1.732   0.248
 4660W        W14353   6.018   6.594  12.868
 4661W        W14354  11.286  18.309   1.232
 4662W        W14355  11.763  16.342  11.889
 4663W        W14356  11.312   7.105   4.122
 4664W        W14357   9.884   1.259   4.598
 4665W        W14358   3.615  10.035   2.207
 4666W        W14359  10.328  10.503  13.796
 4667W        W14360   4.086   6.630   0.742
 4668W        W14361   7.966  12.481   0.278
 4669W        W14362   7.468   5.622   4.621
 4670W        W14363   3.620  10.507   1.236
 4671W        W14364   8.899  17.850  14.769
 4672W        W14365   3.127   5.124  10.898
 4673W        W14366   5.057   3.203   3.192
 4674W        W14367   5.059  15.890  13.803
 4675W        W14368   2.199   3.199   0.270
 4676W        W14369   5.086  17.359   2.207
 4677W        W14370   1.714   0.289   1.701
 4678W        W14371   4.584   7.574   4.115
 4679W        W14372   0.258   0.255  14.768
 4680W        W14373   7.959  10.495   0.259
 4681W        W14374   6.047   5.653   4.606
 4682W        W14375   0.261  11.484  11.415
 4683W        W14376   9.865  10.535  11.900
 4684W        W14377   4.606   8.551  14.763
 4685W        W14378  11.771   2.727  12.342
 4686W        W14379   9.408   7.076  14.794
 4687W        W14380   0.269   9.535   2.681
 4688W        W14381   7.474   9.537  11.395
 4689W        W14382   4.598   4.666   2.665
 4690W        W14383   2.683   3.173   1.225
 4691W        W14384   6.484   6.116  11.863
 4692W        W14385   7.466   0.255   2.690
 4693W        W14386   7.959  10.495  14.287
 4694W        W14387   0.745  10.013  14.290
 4695W        W14388   1.207  12.460   1.713
 4696W        W14389   3.124   6.594  14.767
 4697W        W14390   1.727   4.669   1.702
 4698W        W14391   9.881  18.333   4.140
 4699W        W14392  10.320  15.862   4.119
 4700W        W14393   6.030  13.431  11.374
 4701W        W14394   1.224  15.381  10.926
 4702W        W14395   4.579   4.147  12.832
 4703W        W14396   6.524  12.477   4.612
 4704W        W14397  10.817   8.091   3.156
 4705W        W14398  10.844  15.899   1.255
 4706W        W14399   0.281   1.720  10.912
 4707W        W14400   1.246   8.548   1.722
 4708W        W14401   3.158  10.519  11.412
 4709W        W14402   5.058   4.677   3.150
 4710W        W14403   5.085   0.268   1.210
 4711W        W14404   4.103  12.461  11.894
 4712W        W14405  11.804   7.116   2.209
 4713W        W14406   6.497  15.376  12.347
 4714W        W14407   2.167   4.190  14.304
 4715W        W14408   8.444  19.286   4.601
 4716W        W14409   1.692   0.763  10.911
 4717W        W14410   3.127   3.180  11.870
 4718W        W14411   6.481   7.604   3.672
 4719W        W14412  10.842   9.058  10.898
 4720W        W14413   0.744  15.884  10.921
 4721W        W14414   1.232   8.570  10.907
 4722W        W14415   3.608  14.915  14.801
 4723W        W14416  11.314  18.338  11.866
 4724W        W14417   4.115  17.819  14.306
 4725W        W14418  11.786   0.266   4.637
 4726W        W14419   2.653  17.825  12.377
 4727W        W14420   6.046  19.292  14.284
 4728W        W14421   3.627   1.730  12.824
 4729W        W14422  10.829  15.411  11.885
 4730W        W14423   3.161  16.848   1.256
 4731W        W14424   7.925   0.780  12.366
 4732W        W14425   1.236   7.578  12.366
 4733W        W14426   4.575  18.793   3.164
 4734W        W14427   9.402   3.674   4.161
 4735W        W14428   4.085  12.973   3.173
 4736W        W14429   8.898  18.810   1.712
 4737W        W14430   2.198   7.101   1.714
 4738W        W14431  10.846   2.218   2.199
 4739W        W14432  10.326  11.471  14.311
 4740W        W14433   4.116  13.425   3.166
 4741W        W14434   5.079  16.342  13.791
 4742W        W14435   7.483   5.129   1.213
 4743W        W14436   0.283   9.064   3.150
 4744W        W14437   2.681   7.105   1.722
 4745W        W14438   4.565   7.565   2.199
 4746W        W14439   6.042   1.258  11.871
 4747W        W14440   6.506  13.907  11.378
 4748W        W14441   0.744  19.795   2.686
 4749W        W14442   2.674  18.794  11.374
 4750W        W14443   4.597  11.003  13.353
 4751W        W14444  11.281  10.039   0.727
 4752W        W14445  11.795  12.974   0.742
 4753W        W14446   4.121   6.125  12.841
 4754W        W14447  11.319  15.378  11.871
 4755W        W14448  11.798   2.689   1.255
 4756W        W14449   8.905  18.813  13.344
 4757W        W14450  10.819   7.572   2.182
 4758W        W14451   9.406   0.763  12.853
 4759W        W14452   9.372   4.678  10.896
 4760W        W14453   2.640  14.917   4.124
 4761W        W14454  11.303  16.382   0.274
 4762W        W14455   0.247   3.208   2.205
 4763W        W14456   4.587   1.235   0.252
 4764W        W14457   3.646   1.264  12.860
 4765W        W14458   2.653   2.726   1.732
 4766W        W14459  11.768  19.292  13.837
 4767W        W14460   2.659  10.980   3.186
 4768W        W14461   7.474   6.612   3.158
 4769W        W14462  11.286  13.930   1.712
 4770W        W14463   4.125  12.468  11.406
 4771W        W14464   5.074   3.671  14.314
 4772W        W14465   9.886   9.067   0.278
 4773W        W14466  11.777   0.734   2.672
 4774W        W14467   6.504   8.579  10.896
 4775W        W14468   8.409  17.348  12.833
 4776W        W14469   2.183  17.825   4.631
 4777W        W14470   9.364   4.670  12.867
 4778W        W14471   6.494  12.962  11.883
 4779W        W14472   7.007  15.380  14.315
 4780W        W14473   5.061  14.430  11.867
 4781W        W14474   6.986  10.508   1.728
 4782W        W14475   1.721   7.102   3.175
 4783W        W14476   3.123   7.609   1.236
 4784W        W14477   4.118  15.863  13.822
 4785W        W14478   0.263  16.351   4.634
 4786W        W14479   1.710  19.283   2.194
 4787W        W14480   4.566   4.163  10.931
 4788W        W14481   1.215  14.895   0.261
 4789W        W14482   4.126   3.704  11.383
 4790W        W14483   7.927  13.449  12.387
 4791W        W14484   2.654   0.763   3.646
 4792W        W14485   7.966  14.409  14.285
 4793W        W14486  11.283   1.239  11.885
 4794W        W14487  11.803   0.285  14.293
 4795W        W14488   3.126  19.766  12.354
 4796W        W14489   9.367  11.010  11.416
 4797W        W14490  10.843  18.816  11.418
 4798W        W14491   9.383   1.263   4.625
 4799W        W14492   4.585   4.183   3.656
 4800W        W14493   2.204  13.440   2.209
 4801W        W14494   2.194   4.653   2.195
 4802W        W14495   0.764  11.018  13.323
 4803W        W14496  10.801  15.872  14.287
 4804W        W14497  10.332   9.056   3.662
 4805W        W14498   6.489  12.928   3.176
 4806W        W14499   5.527  19.776   0.279
 4807W        W14500   7.939  11.952  14.289
 4808W        W14501   3.167  18.820   2.209
 4809W        W14502   1.693   3.176  13.316
 4810W        W14503   1.228   6.608  14.285
 4811W        W14504   8.916  10.036   3.171
 4812W        W14505   7.938  19.802  14.792
 4813W        W14506   3.620  19.797  14.782
 4814W        W14507   8.916  14.880   4.137
 4815W        W14508   7.452  14.429  12.372
 4816W        W14509   7.922  11.005   2.210
 4817W        W14510   2.665   7.563  12.386
 4818W        W14511   3.145   4.180   0.247
 4819W        W14512   6.484   4.680   0.750
 4820W        W14513   7.925  18.333  13.350
 4821W        W14514   1.224  10.997  12.368
 4822W        W14515   1.711  12.459  13.807
 4823W        W14516   1.230   0.751   3.175
 4824W        W14517   2.199   6.596   4.152
 4825W        W14518   6.506   9.525   0.253
 4826W        W14519   5.528  12.464   4.135
 4827W        W14520   0.748  10.000   1.234
 4828W        W14521   6.033  14.907  10.922
 4829W        W14522   6.960   8.055  10.895
 4830W        W14523   9.376   6.627  14.321
 4831W        W14524  10.326   1.728  13.338
 4832W        W14525   9.381  18.325   4.152
 4833W        W14526  11.765   4.188   0.276
 4834W        W14527   1.203  14.919  13.332
 4835W        W14528   6.986  16.831   2.222
 4836W        W14529   7.965   6.611   1.709
 4837W        W14530   8.909  16.344   1.237
 4838W        W14531   8.420   0.768  14.295
 4839W        W14532   3.145  10.041   1.224
 4840W        W14533   1.710  10.037  13.827
 4841W        W14534   5.538   6.139   4.136
 4842W        W14535   6.013  15.399   1.728
 4843W        W14536   2.669   6.587   0.740
 4844W        W14537   3.627  14.887  13.353
 4845W        W14538   4.566   0.762   0.757
 4846W        W14539   2.655  12.465  11.402
 4847W        W14540  11.793  17.326  13.832
 4848W        W14541   8.888  14.396  12.845
 4849W        W14542   2.175  11.953  13.791
 4850W        W14543   5.056   9.037  14.321
 4851W        W14544   3.633   6.600   4.614
 4852W        W14545   9.367   9.047   1.697
 4853W        W14546   0.286   8.090   1.717
 4854W        W14547   5.560  17.336   1.730
 4855W        W14548   2.662   7.567   2.214
 4856W        W14549  10.838  18.825  12.823
 4857W        W14550   1.720  18.305   4.605
 4858W        W14551  11.804   6.599   3.642
 4859W        W14552   6.520   4.165  11.900
 4860W        W14553  10.806   5.141  10.916
 4861W        W14554   2.673  17.818   1.714
 4862W        W14555  11.313   7.114  10.910
 4863W        W14556   4.115   6.612   3.160
 4864W        W14557  10.825  19.757  14.303
 4865W        W14558  11.790  10.038  10.913
 4866W        W14559   8.886  18.330   4.609
 4867W        W14560   4.124   9.552  13.829
 4868W        W14561   1.223   9.520  13.814
 4869W        W14562   2.178  10.036   3.146
 4870W        W14563   1.689  16.349   2.665
 4871W        W14564   1.236  10.002   0.252
 4872W        W14565   3.154  16.864  14.302
 4873W        W14566   6.518  19.289  12.852
 4874W        W14567   9.847   0.246   1.717
 4875W        W14568   0.759   2.713  12.364
 4876W        W14569   7.442  14.403  11.858
 4877W        W14570   5.542   0.738   3.167
 4878W        W14571   1.222   9.065   3.185
 4879W        W14572   2.682   9.524  11.385
 4880W        W14573   5.568   0.283   0.760
 4881W        W14574   3.640  12.477   0.751
 4882W        W14575   9.405   5.136  10.903
 4883W        W14576   0.733   0.735  12.842
 4884W        W14577   6.039  13.913   1.708
 4885W        W14578   2.192  17.841  12.339
 4886W        W14579   2.196  14.421   2.690
 4887W        W14580   8.418   4.178  11.886
 4888W        W14581   5.554   0.246   1.253
 4889W        W14582   0.243  18.321   3.674
 4890W        W14583   6.977   5.647  14.278
 4891W        W14584   3.607  11.966  11.862
 4892W        W14585   3.140   1.250   3.148
 4893W        W14586   8.891   1.723   3.638
 4894W        W14587   0.278  16.352  13.820
 4895W        W14588   0.751   4.176  14.760
 4896W        W14589   4.576  18.783   1.712
 4897W        W14590   6.968  10.037  12.339
 4898W        W14591  10.328   0.249  11.393
 4899W        W14592   3.644  11.990  12.363
 4900W        W14593   7.956   8.074  12.371
 4901W        W14594   0.734   8.552   1.237
 4902W        W14595   5.084  14.899   0.760
 4903W        W14596   4.095  18.827   2.197
 4904W        W14597  10.320   2.721  14.299
 4905W        W14598   8.446  16.357   0.739
 4906W        W14599   6.508   8.539   2.201
 4907W        W14600  11.787   5.616  13.799
 4908W        W14601   0.283  11.979  13.354
 4909W        W14602  11.304   9.537  13.812
 4910W        W14603   3.639  17.829  10.920
 4911W        W14604   8.416   2.197  11.856
 4912W        W14605   7.957   8.546  12.824
 4913W        W14606   8.912   8.071  13.839
 4914W        W14607  10.817  12.459   0.726
 4915W        W14608   6.962  14.402   2.212
 4916W        W14609   1.237  11.493  11.414
 4917W        W14610   0.730   2.208   0.766
 4918W        W14611   4.569   4.177  14.791
 4919W        W14612   7.941  13.909  14.305
 4920W        W14613   5.080  14.909   4.145
 4921W        W14614   8.417  17.808  12.356
 4922W        W14615   9.883  15.860   0.766
 4923W        W14616  11.768   6.603  13.802
 4924W        W14617   8.903  10.509  11.396
 4925W        W14618   0.745   6.118  14.292
 4926W        W14619   9.394   4.670  11.875
 4927W        W14620   6.994  16.863  14.800
 4928W        W14621   2.199  13.450   0.749
 4929W        W14622   3.124  19.311   1.729
 4930W        W14623   4.111   5.649  12.838
 4931W        W14624  11.788   3.178   1.713
 4932W        W14625   7.955  18.827  12.843
 4933W        W14626  10.349   8.084  14.296
 4934W        W14627   2.657   9.546  10.930
 4935W        W14628   5.529  11.501  13.329
 4936W        W14629   3.125  15.881  12.856
 4937W        W14630   0.264   0.277   1.255
 4938W        W14631  11.302  11.014   0.256
 4939W        W14632   6.513   9.046  11.409
 4940W        W14633   2.206   4.674   4.159
 4941W        W14634   2.670   6.133   4.604
 4942W        W14635   9.362   9.030   3.640
 4943W        W14636  11.764  17.816   3.675
 4944W        W14637   7.443   3.216  13.800
 4945W        W14638   2.685  15.902  13.349
 4946W        W14639   7.450  18.815  11.901
 4947W        W14640   7.455  19.297   3.169
 4948W        W14641   3.152  16.380   0.254
 4949W        W14642  11.763   0.263   0.284
 4950W        W14643   4.115   5.159   3.640
 4951W        W14644   9.874  11.956   4.140
 4952W        W14645   6.973   4.662   2.675
 4953W        W14646   1.685   8.567  14.765
 4954W        W14647   2.647   3.214  14.303
 4955W        W14648   5.560   6.621  14.307
 4956W        W14649   5.557   1.731  10.911
 4957W        W14650  10.845  12.951  11.867
 4958W        W14651  11.794  12.473   1.248
 4959W        W14652   1.216  15.369  14.801
 4960W        W14653   6.004  15.368  10.890
 4961W        W14654   9.853  14.906  13.337
 4962W        W14655   0.735   8.049   2.208
 4963W        W14656   8.916  16.385  13.327
 4964W        W14657   6.978   1.225   1.214
 4965W        W14658   2.668  16.366   0.745
 4966W        W14659   2.656   9.541   4.605
 4967W        W14660   1.704  18.785   2.690
 4968W        W14661   0.278   2.205  13.333
 4969W        W14662  11.281   3.194  10.930
 4970W        W14663   1.689   4.658   2.186
 4971W        W14664  11.770   1.225   1.257
 4972W        W14665   7.928  14.907   2.223
 4973W        W14666   0.261   3.677   2.684
 4974W        W14667   6.962   3.663  10.917
 4975W        W14668   1.695  10.015   4.602
 4976W        W14669   6.985  19.311   3.635
 4977W        W14670   6.023   3.175   0.751
 4978W        W14671   2.161   0.245   3.184
 4979W        W14672  10.803  14.427  14.304
 4980W        W14673   1.227  14.421   1.711
 4981W        W14674   8.432   3.216   3.649
 4982W        W14675   1.216   0.279  13.792
 4983W        W14676   7.469   0.260  10.894
 4984W        W14677   4.120  14.923   3.172
 4985W        W14678   7.944   9.037  11.373
 4986W        W14679   8.410   3.680  12.347
 4987W        W14680   6.521   9.059  10.892
 4988W        W14681  10.811   2.196   0.748
 4989W        W14682  10.833   7.086  14.298
 4990W        W14683   8.406   5.164  13.792
 4991W        W14684   9.394  15.371   0.752
 4992W        W14685   4.606   5.625   2.683
 4993W        W14686   4.589   6.609   3.658
 4994W        W14687  10.817  15.860   1.739
 4995W        W14688   6.996  16.852  13.310
 4996W        W14689   8.442  15.873   1.717
 4997W        W14690   2.173  19.793   3.163
 4998W        W14691   6.523   0.268   2.178
 4999W        W14692   2.663  13.910   3.670
 5000W        W14693  11.284   4.646  14.312
 5001W        W14694   7.943  15.400   1.258
 5002W        W14695   4.101   4.654   2.188
 5003W        W14696  10.340  13.458  14.800
 5004W        W14697  11.288  15.900   0.265
 5005W        W14698   0.260  13.928  11.861
 5006W        W14699   6.482  18.827  11.418
 5007W        W14700   0.262   8.068   1.253
 5008W        W14701   2.164  17.322  14.317
 5009W        W14702   2.669  15.899  13.798
 5010W        W14703   8.423   6.128  12.347
 5011W        W14704   5.044   7.110  14.311
 5012W        W14705   7.929   8.094  10.898
 5013W        W14706   9.389   5.636   2.207
 5014W        W14707   8.404   7.111  14.783
 5015W        W14708   4.585   6.599  10.908
 5016W        W14709   8.435   0.748  14.792
 5017W        W14710  11.327   7.093  14.782
 5018W        W14711   1.236  14.397  14.283
 5019W        W14712   4.109  19.274   1.236
 5020W        W14713   6.524   1.244  12.863
 5021W        W14714   0.757  11.974  11.406
 5022W        W14715   3.607   6.128   2.183
 5023W        W14716   8.896   1.257   4.134
 5024W        W14717   5.047  14.887   2.198
 5025W        W14718   6.046  12.463   4.140
 5026W        W14719   8.418  14.922  14.795
 5027W        W14720   0.767  16.356  14.797
 5028W        W14721   6.031   1.256   0.771
 5029W        W14722   8.421   9.551   0.757
 5030W        W14723  11.787  14.421   2.692
 5031W        W14724   0.279   5.623  14.782
 5032W        W14725   6.495   3.202   2.701
 5033W        W14726   4.601   4.672  10.909
 5034W        W14727   1.248   0.747   3.647
 5035W        W14728  11.774   3.202   1.249
 5036W        W14729   5.050  18.823  11.866
 5037W        W14730   6.514  10.987   1.705
 5038W        W14731  10.803   6.126   4.142
 5039W        W14732   6.491   7.106  14.776
 5040W        W14733   0.764   7.586   3.644
 5041W        W14734   7.479  10.535   0.260
 5042W        W14735  11.304   8.552   2.183
 5043W        W14736   4.596   3.690  14.304
 5044W        W14737   4.590   9.538  10.913
 5045W        W14738   1.208   8.053  14.788
 5046W        W14739   8.415  17.848   3.148
 5047W        W14740  10.824  18.334  10.892
 5048W        W14741  11.792  16.372  13.341
 5049W        W14742   8.898  14.411   4.147
 5050W        W14743   6.998  17.365   2.205
 5051W        W14744   4.585   4.177   2.670
 5052W        W14745   7.466   7.074  11.863
 5053W        W14746   2.673  16.865  14.801
 5054W        W14747   6.987  19.771  13.801
 5055W        W14748   7.003  19.300  13.791
 5056W        W14749  11.328   9.057   3.171
 5057W        W14750   3.647  16.835   3.189
 5058W        W14751   1.204   9.040   1.738
 5059W        W14752   7.939   3.700   2.181
 5060W        W14753  10.338  19.762   3.640
 5061W        W14754   8.403   2.714  12.339
 5062W        W14755   1.692  19.795  10.892
 5063W        W14756   2.649  13.912  14.801
 5064W        W14757   6.976   2.205  14.288
 5065W        W14758   4.087  10.042  13.323
 5066W        W14759   7.955   5.162  12.354
 5067W        W14760   5.044   0.750  14.281
 5068W        W14761   1.726  13.949   2.212
 5069W        W14762   9.852  15.397  14.298
 5070W        W14763   1.688   0.267  12.831
 5071W        W14764   9.843  19.303   3.674
 5072W        W14765   2.686  15.407   0.243
 5073W        W14766   9.872  10.507   3.156
 5074W        W14767  11.284  19.790   1.728
 5075W        W14768   5.537   8.557  11.388
 5076W        W14769   6.503  19.774  13.354
 5077W        W14770   6.508  13.914  12.359
 5078W        W14771   7.927  17.837   1.732
 5079W        W14772   3.646   8.060  13.349
 5080W        W14773   3.608  14.915  11.374
 5081W        W14774   2.675  15.411   2.706
 5082W        W14775   9.372  16.352   2.199
 5083W        W14776   4.100  11.975  12.346
 5084W        W14777   8.447  18.311   3.182
 5085W        W14778   1.710  17.363   0.732
 5086W        W14779   6.008  14.426   1.700
 5087W        W14780   4.116   2.724  13.805
 5088W        W14781   4.111   2.718  10.934
 5089W        W14782   3.147  14.901  11.879
 5090W        W14783   3.604  16.832  11.873
 5091W        W14784   7.444   3.200   1.213
 5092W        W14785  10.366  14.400   2.684
 5093W        W14786   0.736   3.206  13.815
 5094W        W14787   2.686  12.461  10.892
 5095W        W14788   4.604   5.165   1.222
 5096W        W14789   0.762  15.374   1.229
 5097W        W14790   8.446  19.805  14.297
 5098W        W14791   0.245   6.106  10.917
 5099W        W14792  11.321  17.837   4.151
 5100W        W14793  11.785  19.777   4.161
 5101W        W14794   5.531  15.367   0.287
 5102W        W14795   0.257   7.597  13.821
 5103W        W14796   6.499   4.663   0.288
 5104W        W14797   8.430   5.632  13.338
 5105W        W14798   6.526   2.208   0.762
 5106W        W14799   2.686   9.525  11.887
 5107W        W14800   6.525  17.820  10.888
 5108W        W14801   1.697   4.639   2.699
 5109W        W14802  10.842   7.568  11.405
 5110W        W14803   0.266   7.116   1.720
 5111W        W14804   6.488   4.157  12.340
 5112W        W14805   4.118   0.288   1.739
 5113W        W14806   2.650   5.124  12.841
 5114W        W14807  10.338  11.988   1.731
 5115W        W14808   7.929   1.739   4.121
 5116W        W14809   2.686  13.933   3.155
 5117W        W14810   0.274   5.648   1.707
 5118W        W14811  11.786  14.879  11.897
 5119W        W14812   2.684   7.117  11.871
 5120W        W14813   2.665   7.588   1.707
 5121W        W14814   9.857   5.140   0.253
 5122W        W14815   6.022   1.252   1.706
 5123W        W14816   5.055  19.276   2.689
 5124W        W14817   6.025  15.391  14.773
 5125W        W14818   2.170  18.295  11.876
 5126W        W14819   1.680   3.669   4.134
 5127W        W14820   6.976   2.238   0.768
 5128W        W14821   7.967  14.417   1.741
 5129W        W14822   6.987  16.836  12.385
 5130W        W14823   1.714  14.904  14.293
 5131W        W14824   6.023   0.258  14.769
 5132W        W14825   9.392  17.346  11.381
 5133W        W14826   9.862  13.449  13.308
 5134W        W14827   6.480   1.225  12.356
 5135W        W14828   7.443   2.709   2.222
 5136W        W14829   9.847  18.814   1.216
 5137W        W14830   6.026   4.183  13.807
 5138W        W14831   5.566  17.321   3.148
 5139W        W14832   8.880   2.719   3.160
 5140W        W14833   4.605  11.504  12.857
 5141W        W14834   5.537  13.904   4.620
 5142W        W14835   8.894   5.622   0.275
 5143W        W14836   5.076  11.474   3.659
 5144W        W14837   2.655  15.865  12.841
 5145W        W14838  10.807  16.346   0.282
 5146W        W14839   2.167   1.755  14.281
 5147W        W14840   8.901  11.510  12.837
 5148W        W14841   0.280   9.049  14.789
 5149W        W14842   9.367   9.530   0.761
 5150W        W14843  11.288   4.180   4.128
 5151W        W14844   4.563  15.865   3.157
 5152W        W14845  10.835  16.844  11.894
 5153W        W14846  10.846  17.836  13.802
 5154W        W14847   6.996  18.815  12.866
 5155W        W14848  11.788  12.934  12.860
 5156W        W14849   0.752  10.489   3.630
 5157W        W14850   5.555  18.783   3.163
 5158W        W14851   0.730   1.230   3.156
 5159W        W14852   3.167  15.409   3.638
 5160W        W14853   8.445   6.104  13.317
 5161W        W14854   9.369   7.120   4.622
 5162W        W14855   8.906  18.801  13.820
 5163W        W14856   1.697  18.322  11.387
 5164W        W14857   7.934   6.610   0.259
 5165W        W14858   2.670   4.173  11.902
 5166W        W14859   5.066   1.234  12.855
 5167W        W14860   4.128   0.764  12.849
 5168W        W14861  11.805  15.407  11.879
 5169W        W14862   2.177  15.881  14.776
 5170W        W14863   0.279   1.726  12.862
 5171W        W14864   1.705   8.562   1.231
 5172W        W14865   5.538  17.834   4.154
 5173W        W14866   8.419   8.582   3.663
 5174W        W14867   5.532  18.302   2.663
 5175W        W14868   3.130  12.951   3.672
 5176W        W14869   8.422   1.252   3.662
 5177W        W14870  10.351   4.676   1.226
 5178W        W14871   6.504   7.581   0.736
 5179W        W14872   7.473  11.986   0.737
 5180W        W14873   9.881   3.659   4.630
 5181W        W14874   0.260  12.947   0.760
 5182W        W14875   5.565   0.766   1.246
 5183W        W14876   4.607   5.154  11.375
 5184W        W14877   6.519   9.533  11.865
 5185W        W14878   9.399  10.533  10.918
 5186W        W14879   6.023  18.310   2.201
 5187W        W14880   2.681  19.287   4.123
 5188W        W14881  10.803   7.107  12.860
 5189W        W14882   3.121  11.964  13.801
 5190W        W14883   1.694  12.947   3.171
 5191W        W14884   0.767  19.805   1.720
 5192W        W14885   4.080   0.270  10.895
 5193W        W14886   8.422   7.109   3.161
 5194W        W14887   3.133  16.876   2.191
 5195W        W14888   1.243   0.275  11.397
 5196W        W14889   6.983  17.813  11.886
 5197W        W14890   4.117   5.140  11.404
 5198W        W14891   6.513   8.067   2.205
 5199W        W14892   2.163  12.488  10.928
 5200W        W14893   4.573   1.732  12.342
 5201W        W14894   5.085   4.643  13.821
 5202W        W14895   8.433   2.242   4.629
 5203W        W14896   3.121  10.041  14.773
 5204W        W14897  10.811  18.788  14.783
 5205W        W14898   9.387   1.262  12.846
 5206W        W14899  10.846  17.366  12.868
 5207W        W14900   0.736   4.661  13.808
 5208W        W14901   8.422   7.564   2.685
 5209W        W14902   6.027  18.786   1.221
 5210W        W14903   6.522   7.076  12.836
 5211W        W14904   5.040  10.041   1.248
 5212W        W14905   8.439  17.357   0.244
 5213W        W14906   4.090   7.082  13.307
 5214W        W14907   2.670   7.591   1.251
 5215W        W14908  11.767   7.101  13.823
 5216W        W14909   6.020   6.623   3.159
 5217W        W14910   7.960  14.410   4.152
 5218W        W14911   2.648  11.498   3.145
 5219W        W14912   2.201  13.904  14.311
 5220W        W14913  11.317   0.267  12.369
 5221W        W14914   3.122  16.870  11.388
 5222W        W14915   8.444  18.341   4.146
 5223W        W14916  11.322   2.706   4.156
 5224W        W14917  10.323   4.647  13.330
 5225W        W14918   1.716  13.904  10.893
 5226W        W14919   4.101  17.344  14.303
 5227W        W14920   8.421  13.926   2.188
 5228W        W14921   6.527   1.735  11.372
 5229W        W14922   7.955   2.228   0.269
 5230W        W14923   5.061   5.152   0.264
 5231W        W14924   6.990   4.676   3.666
 5232W        W14925   1.711  13.453  10.914
 5233W        W14926   2.164   9.027   2.206
 5234W        W14927  10.820   5.653   4.140
 5235W        W14928   3.612  18.811   1.212
 5236W        W14929   4.578   0.288   4.123
 5237W        W14930   4.085   7.097  14.289
 5238W        W14931  10.326   3.186   1.223
 5239W        W14932  10.842   8.557   2.209
 5240W        W14933   5.563   7.577   0.742
 5241W        W14934   1.237   7.104  13.350
 5242W        W14935   8.912  11.503   0.251
 5243W        W14936   3.628   2.207  12.871
 5244W        W14937   5.549  17.333   2.213
 5245W        W14938  11.793  15.861  11.381
 5246W        W14939  11.295  12.461  10.906
 5247W        W14940   0.750  11.993  12.825
 5248W        W14941   6.999  13.442   2.205
 5249W        W14942  10.846  12.936   1.253
 5250W        W14943   8.428  19.805  13.350
 5251W        W14944   6.042   6.611  14.277
 5252W        W14945   2.640   1.224   1.716
 5253W        W14946   6.513   6.114   0.243
 5254W        W14947  11.789   1.751  12.840
 5255W        W14948   6.025  15.892   3.175
 5256W        W14949   1.246   4.163   1.694
 5257W        W14950   8.421  12.975   4.611
 5258W        W14951   0.725   5.618   3.662
 5259W        W14952   2.186  14.398   4.623
 5260W        W14953   0.242  12.963   1.736
 5261W        W14954  10.355  10.018  14.776
 5262W        W14955   4.581   7.578  12.842
 5263W        W14956  11.312  10.009  12.825
 5264W        W14957   6.006   5.142  11.412
 5265W        W14958  11.777  15.368  12.857
 5266W        W14959   4.566   5.646   1.231
 5267W        W14960   1.693   6.101  10.931
 5268W        W14961   1.710  18.809   4.117
 5269W        W14962   7.445   6.596   4.643
 5270W        W14963   0.751   3.688  14.801
 5271W        W14964   3.614   1.223   0.768
 5272W        W14965   6.987  11.017  13.337
 5273W        W14966   5.075   6.139   2.211
 5274W        W14967   7.950  19.299  10.900
 5275W        W14968   2.668   3.673   2.215
 5276W        W14969  10.836   4.192   2.206
 5277W        W14970   6.997  14.417   1.241
 5278W        W14971  11.770  17.351   0.726
 5279W        W14972   5.549   0.756   4.133
 5280W        W14973   5.059  17.318   3.665
 5281W        W14974   1.695   1.749  11.901
 5282W        W14975  11.786   5.145   3.166
 5283W        W14976   1.682   0.764  14.798
 5284W        W14977   3.623  14.398   2.702
 5285W        W14978   7.926   3.668  11.855
 5286W        W14979   5.078   8.585   3.674
 5287W        W14980   6.046   6.144   4.151
 5288W        W14981  11.775  11.991   1.703
 5289W        W14982   3.133   6.634   4.614
 5290W        W14983   5.058   9.066   4.120
 5291W        W14984  10.346  16.386  13.806
 5292W        W14985   7.944  10.522   3.677
 5293W        W14986   0.276   8.073  14.802
 5294W        W14987   6.997  14.410   4.113
 5295W        W14988  10.366  15.389   3.646
 5296W        W14989   7.472  15.372   3.164
 5297W        W14990   7.454  12.935  11.414
 5298W        W14991   2.655  11.959   0.729
 5299W        W14992   2.662   5.148   3.653
 5300W        W14993  10.802   6.125   4.633
 5301W        W14994   9.378  16.363   3.153
 5302W        W14995   7.481   6.617  13.807
 5303W        W14996   0.272  15.882   1.252
 5304W        W14997   5.084  16.349  11.903
 5305W        W14998   6.495   0.766   3.636
 5306W        W14999  10.829  10.017   2.190
 5307W        W15000   0.277   8.069  13.802
 5308W        W15001   6.041   9.036   2.682
 5309W        W15002   9.861  11.976  13.824
 5310W        W15003   9.398   9.072   2.706
 5311W        W15004   7.442  16.865   4.129
 5312W        W15005   4.105  18.781   0.285
 5313W        W15006   1.226   5.620   0.274
 5314W        W15007   0.733   7.598   4.114
 5315W        W15008   4.569   1.225   4.117
 5316W        W15009   0.766  19.780   4.644
 5317W        W15010   5.534  10.013   3.182
 5318W        W15011   6.503  10.499   0.249
 5319W        W15012   1.718  18.804   3.152
 5320W        W15013   5.540  14.916   0.280
 5321W        W15014  11.797   2.728   2.217
 5322W        W15015   9.380   9.053   0.741
 5323W        W15016   4.115   5.132   4.609
 5324W        W15017  10.350   8.072   0.255
 5325W        W15018   1.684   0.285   1.236
 5326W        W15019   8.401   6.115   4.642
 5327W        W15020   6.995   3.693   4.613
 5328W        W15021   1.245  13.937  11.383
 5329W        W15022   7.475  13.942  14.796
 5330W        W15023   5.051   0.744  12.354
 5331W        W15024   1.211   0.267   0.749
 5332W        W15025   5.544   5.128  13.820
 5333W        W15026   1.229  12.450   3.168
 5334W        W15027   0.277  18.340   4.137
 5335W        W15028   1.216  19.274  10.890
 5336W        W15029   2.188   1.259   1.218
 5337W        W15030   6.968  15.384   3.156
 5338W        W15031   4.585   6.103   3.656
 5339W        W15032   4.114   5.134   1.237
 5340W        W15033   0.247   0.275   4.157
 5341W        W15034   7.482  11.021  11.406
 5342W        W15035   6.519   0.290  13.317
 5343W        W15036   6.516  13.934   1.226
 5344W        W15037   0.755   5.132   4.622
 5345W        W15038   5.556   8.537   1.220
 5346W        W15039   7.482  11.018   0.756
 5347W        W15040  11.775  13.923  14.282
 5348W        W15041   8.419  10.520   3.670
 5349W        W15042   3.150   8.079   0.759
 5350W        W15043   2.166   4.149   4.606
 5351W        W15044   4.097  17.839  13.322
 5352W        W15045   9.396  16.837   0.281
 5353W        W15046   5.548   0.285  12.830
 5354W        W15047   8.918  15.382   3.646
 5355W        W15048   8.434   5.143   1.721
 5356W        W15049  10.802   7.091   4.131
 5357W        W15050  11.768  12.479   4.139
 5358W        W15051   0.286  11.983  11.382
 5359W        W15052   3.606   9.048  13.810
 5360W        W15053   5.542   3.674  14.300
 5361W        W15054   0.735  13.916  11.875
 5362W        W15055   8.434  19.774   1.248
 5363W        W15056   8.899   0.763  13.827
 5364W        W15057   0.736  18.298   4.623
 5365W        W15058   7.934  14.429  10.927
 5366W        W15059   1.222   3.665   1.250
 5367W        W15060   5.083  15.397   0.773
 5368W        W15061   5.082  18.323   2.663
 5369W        W15062   4.107   6.600   1.714
 5370W        W15063   5.536  14.910   3.666
 5371W        W15064   0.281  13.423   3.669
 5372W        W15065   2.668   5.656  14.307
 5373W        W15066   5.563   7.607   3.673
 5374W        W15067   9.398   5.648   2.696
 5375W        W15068   1.225   6.107  12.868
 5376W        W15069   4.576  12.461   3.661
 5377W        W15070  11.297  13.934   4.631
 5378W        W15071  10.842   6.598   0.749
 5379W        W15072   9.875  19.281  14.804
 5380W        W15073   6.971  15.401   2.188
 5381W        W15074   5.065  16.838   1.255
 5382W        W15075   6.515   1.237  13.808
 5383W        W15076  10.825  14.910   3.666
 5384W        W15077   9.853   8.067  11.378
 5385W        W15078   0.272  15.865   1.726
 5386W        W15079   1.696  13.927  11.416
 5387W        W15080   6.978   5.613   2.215
 5388W        W15081   3.615   1.264  13.807
 5389W        W15082   2.168   7.565  10.931
 5390W        W15083  11.784   8.552   3.189
 5391W        W15084   1.216  10.996   1.699
 5392W        W15085   3.126  15.886   1.210
 5393W        W15086   0.736   3.698  14.281
 5394W        W15087  11.298   2.234   0.760
 5395W        W15088   0.762   2.211   3.177
 5396W        W15089   4.561  19.298  11.400
 5397W        W15090   5.072  16.862   2.704
 5398W        W15091   3.617   2.237  12.374
 5399W        W15092  10.326   6.633  13.322
 5400W        W15093   8.404  13.948   2.670
 5401W        W15094   0.281  11.991  11.873
 5402W        W15095  10.804   7.571   1.731
 5403W        W15096   7.450  12.955  13.816
 5404W        W15097   5.533   6.131   2.180
 5405W        W15098   3.622  15.392   3.161
 5406W        W15099   8.432  18.315   3.665
 5407W        W15100  11.314   7.091  14.313
 5408W        W15101   8.901   1.708  13.794
 5409W        W15102   3.612  18.305   3.670
 5410W        W15103   5.053  18.321  13.807
 5411W        W15104   3.645  14.921   3.176
 5412W        W15105   1.200   5.646   2.209
 5413W        W15106   9.876  14.922   4.160
 5414W        W15107   5.534   1.724  12.868
 5415W        W15108   5.049  13.915  12.363
 5416W        W15109   9.375   4.660   0.251
 5417W        W15110   6.018   6.110   1.233
 5418W        W15111   7.951   1.716   3.648
 5419W        W15112   7.954   9.545   3.155
 5420W        W15113   1.212   9.554  12.380
 5421W        W15114   3.133   7.606   3.650
 5422W        W15115   9.846  13.450  10.934
 5423W        W15116   4.605  13.913   3.168
 5424W        W15117   6.484   5.617   3.643
 5425W        W15118   8.408   7.111  13.307
 5426W        W15119   3.142  10.533   3.169
 5427W        W15120   8.439  10.983   0.281
 5428W        W15121   7.482   0.736  10.924
 5429W        W15122   0.752   3.187   1.235
 5430W        W15123   5.548  12.463   4.620
 5431W        W15124   7.452   2.238  14.297
 5432W        W15125   4.110  19.286   0.730
 5433W        W15126   8.922  10.533   0.272
 5434W        W15127   5.538   4.147   0.261
 5435W        W15128   4.109  19.275  14.297
 5436W        W15129   9.386   6.129  14.763
 5437W        W15130   8.435   2.707   0.285
 5438W        W15131   9.366  13.926   4.603
 5439W        W15132   6.033   3.679   0.271
 5440W        W15133   8.918   5.644  12.365
 5441W        W15134   5.538  17.833   1.695
 5442W        W15135   6.016  12.954  13.825
 5443W        W15136   0.259   2.196  14.310
 5444W        W15137  11.315  10.995  12.854
 5445W        W15138   1.709   9.523   0.279
 5446W        W15139   5.060   8.577  14.789
 5447W        W15140   2.176   6.588  14.318
 5448W        W15141   3.133   8.053  14.793
 5449W        W15142  11.790   0.272  12.351
 5450W        W15143   1.212  12.972  10.932
 5451W        W15144   2.683   2.705  12.346
 5452W        W15145   7.938   6.630  10.894
 5453W        W15146   7.449   9.529  12.368
 5454W        W15147   5.525   8.059  14.313
 5455W        W15148   5.077   3.689   3.663
 5456W        W15149   1.714  16.351   1.725
 5457W        W15150   5.537   8.582   2.661
 5458W        W15151   5.534  17.814   3.166
 5459W        W15152   1.200   5.625  10.904
 5460W        W15153  11.804  18.791   2.195
 5461W        W15154   0.242  17.341   2.679
 5462W        W15155   4.590  17.831  13.339
 5463W        W15156   4.577   5.611   4.616
 5464W        W15157   8.408   2.684   2.188
 5465W        W15158   2.175  13.423  12.859
 5466W        W15159   1.682  15.378  11.393
 5467W        W15160   0.768  16.840   1.742
 5468W        W15161   9.385   2.208  14.778
 5469W        W15162   6.963   5.630  12.861
 5470W        W15163   5.051  17.828  13.802
 5471W        W15164   8.891   0.751   2.214
 5472W        W15165   9.362   6.596   2.218
 5473W        W15166   5.560  11.503  14.310
 5474W        W15167   0.764   9.027  13.318
 5475W        W15168   3.641  12.459  11.382
 5476W        W15169   3.147  13.932   2.208
 5477W        W15170  10.348  19.794   2.703
 5478W        W15171   9.843  11.014   0.735
 5479W        W15172   7.933  15.871  12.376
 5480W        W15173   6.500  12.957  12.832
 5481W        W15174   6.487   4.659   2.663
 5482W        W15175   0.723   3.693   1.715
 5483W        W15176   4.597   9.066  13.352
 5484W        W15177  11.287   5.128   1.734
 5485W        W15178   7.479   0.741  13.340
 5486W        W15179   3.624  18.319  14.318
 5487W        W15180   7.483  16.355   1.247
 5488W        W15181   6.038  12.964   2.692
 5489W        W15182   2.174  10.505   3.631
 5490W        W15183   0.268   5.134   0.733
 5491W        W15184  11.765  19.277   3.646
 5492W        W15185   7.923   9.054  14.795
 5493W        W15186   4.101   4.178   1.221
 5494W        W15187  11.764  17.833  12.857
 5495W        W15188   2.650  10.991   2.192
 5496W        W15189   5.528   5.148  10.919
 5497W        W15190  10.337  19.804  13.791
 5498W        W15191  11.769   6.126  11.382
 5499W        W15192   7.484   7.576  14.804
 5500W        W15193   4.574   9.067   4.607
 5501W        W15194  11.285   2.208   3.186
 5502W        W15195   8.440   3.681   3.180
 5503W        W15196   5.081  10.499  10.929
 5504W        W15197   3.616   9.057   3.188
 5505W        W15198   7.935  13.928  12.369
 5506W        W15199  11.316  15.857   3.170
 5507W        W15200   9.382   6.589   0.745
 5508W        W15201   3.619  16.868  14.277
 5509W        W15202   5.532  18.818   2.679
 5510W        W15203   4.106   8.565   2.204
 5511W        W15204  10.845   9.037  12.860
 5512W        W15205   0.263  17.853  14.312
 5513W        W15206  10.328  18.319  10.924
 5514W        W15207  10.823   9.515   2.214
 5515W        W15208   9.877  16.861  14.785
 5516W        W15209  11.765  16.866   0.764
 5517W        W15210   3.603   0.291   1.701
 5518W        W15211   0.241   3.681  13.324
 5519W        W15212   5.560   1.249  14.315
 5520W        W15213   6.001  16.866   0.765
 5521W        W15214   9.880   0.251   4.605
 5522W        W15215   5.556   6.100   0.754
 5523W        W15216   3.145  14.922   0.288
 5524W        W15217   7.930   6.600  11.381
 5525W        W15218   3.156   0.764  11.412
 5526W        W15219   5.532   3.671   1.256
 5527W        W15220   6.006  13.904   2.188
 5528W        W15221   3.610   2.722  12.834
 5529W        W15222   5.555   6.600   4.132
 5530W        W15223  10.333   9.543   2.689
 5531W        W15224   4.081   5.648   4.152
 5532W        W15225   6.028   4.678   3.642
 5533W        W15226   6.995  16.379  13.814
 5534W        W15227   7.966  16.843  12.824
 5535W        W15228   9.389   8.091  12.852
 5536W        W15229   3.643  15.371  11.862
 5537W        W15230  10.831  11.481   1.714
 5538W        W15231   8.899   1.262  13.310
 5539W        W15232  10.832   8.065  13.351
 5540W        W15233   9.404  11.470  11.395
 5541W        W15234  10.832  16.343  10.893
 5542W        W15235  11.786   3.189   3.149
 5543W        W15236   0.259  14.907   0.743
 5544W        W15237   4.126  15.394  10.908
 5545W        W15238   2.683   8.081   1.701
 5546W        W15239   8.437   9.521  13.800
 5547W        W15240   9.407  18.296  11.391
 5548W        W15241   5.066   3.695   3.188
 5549W        W15242   0.742   1.229   2.209
 5550W        W15243   6.989  11.002   3.665
 5551W        W15244   4.596   2.236   0.742
 5552W        W15245   5.550   8.563  10.930
 5553W        W15246   9.860  18.334   4.638
 5554W        W15247   3.617   1.263   3.673
 5555W        W15248   8.908  19.759  14.763
 5556W        W15249   1.207   5.641   0.761
 5557W        W15250   2.176   2.224  11.390
 5558W        W15251   8.882  17.842  13.351
 5559W        W15252   2.658   4.634   4.633
 5560W        W15253   0.250   3.703  12.356
 5561W        W15254  11.761  12.482   3.630
 5562W        W15255   5.052  14.879   1.703
 5563W        W15256   3.610   9.555   2.179
 5564W        W15257   3.623   4.147  11.868
 5565W        W15258   6.969  14.896  13.350
 5566W        W15259   5.086   6.112   2.665
 5567W        W15260   9.374   3.662   3.650
 5568W        W15261   3.130  14.878   2.673
 5569W        W15262   0.271  10.979   2.665
 5570W        W15263   6.482  10.021   2.703
 5571W        W15264   2.167   5.150  13.810
 5572W        W15265   8.919  16.843  11.886
 5573W        W15266   0.281  15.395   0.736
 5574W        W15267   9.407  12.937   3.163
 5575W        W15268   3.640   9.516   1.244
 5576W        W15269  10.807   4.680  13.801
 5577W        W15270   2.185   2.238   3.638
 5578W        W15271   0.274  16.871  14.775
 5579W        W15272   1.723  13.423   3.665
 5580W        W15273   7.443  12.471   3.667
 5581W        W15274   0.283  16.852   0.762
 5582W        W15275   6.481   7.108   2.706
 5583W        W15276   1.245   0.290  14.280
 5584W        W15277   1.234  14.883   3.145
 5585W        W15278   6.981  15.879  14.308
 5586W        W15279   2.642  15.367   3.673
 5587W        W15280   3.161  14.898  10.895
 5588W        W15281   6.485  18.815  13.797
 5589W        W15282  11.784   5.169  14.781
 5590W        W15283  11.323  16.877   3.188
 5591W        W15284   1.214   9.555  11.377
 5592W        W15285   6.001   4.178  13.331
 5593W        W15286  10.359   2.710   3.657
 5594W        W15287   9.400   2.198   2.674
 5595W        W15288   8.893  15.405  13.346
 5596W        W15289   6.523  10.505  12.835
 5597W        W15290   4.110  15.403  13.833
 5598W        W15291  10.835  18.330   1.234
 5599W        W15292   6.020   0.250  13.351
 5600W        W15293   3.122  13.916   2.694
 5601W        W15294   6.526  10.010   3.652
 5602W        W15295   3.619  13.939   4.602
 5603W        W15296   7.447   2.727   1.712
 5604W        W15297   5.542  12.928   2.681
 5605W        W15298   6.025   2.724   4.636
 5606W        W15299   6.992   1.709  11.412
 5607W        W15300   3.646   0.771   3.188
 5608W        W15301   5.058  10.021   2.671
 5609W        W15302   4.100   8.569  13.825
 5610W        W15303   4.116   1.738  13.800
 5611W        W15304   9.849  10.042   3.178
 5612W        W15305   5.087  14.882  11.390
 5613W        W15306   1.712  19.759   2.683
 5614W        W15307   1.246   8.086  11.885
 5615W        W15308   3.604  17.357  12.376
 5616W        W15309   1.713  10.029   3.170
 5617W        W15310   3.643   6.615  14.801
 5618W        W15311   3.628  13.433  14.314
 5619W        W15312   0.251   0.253   1.738
 5620W        W15313   1.233  13.420   3.149
 5621W        W15314   7.941   8.066   3.642
 5622W        W15315   3.600   6.601   2.679
 5623W        W15316   7.479  14.890   2.706
 5624W        W15317  10.363  12.943   4.161
 5625W        W15318   1.217  17.363   4.626
 5626W        W15319   3.158   2.717  13.328
 5627W        W15320   5.560  19.802   2.194
 5628W        W15321  10.360   8.069  13.319
 5629W        W15322   4.602  10.048   0.257
 5630W        W15323   2.197   8.057   0.271
 5631W        W15324   1.691  12.444   4.636
 5632W        W15325   9.364   5.122   0.282
 5633W        W15326   9.882  12.448  14.317
 5634W        W15327   7.955   6.625  14.777
 5635W        W15328   3.615  17.825   3.190
 5636W        W15329   0.768  17.815  13.816
 5637W        W15330   8.428  14.401   2.185
 5638W        W15331   5.087  12.449   4.133
 5639W        W15332   0.270  15.401   4.144
 5640W        W15333   1.717  12.938  13.326
 5641W        W15334   7.966   5.126  10.933
 5642W        W15335   7.924  15.370   0.759
 5643W        W15336   0.755   1.729  11.381
 5644W        W15337   7.922  19.271   2.220
 5645W        W15338   5.067  12.469  10.922
 5646W        W15339   2.207   8.563  13.331
 5647W        W15340   4.586   0.269  10.891
 5648W        W15341   4.126  19.283   4.133
 5649W        W15342   1.224   4.651  14.291
 5650W        W15343   1.212  14.398  14.794
 5651W        W15344   5.049  11.984   4.124
 5652W        W15345   2.669  18.790   4.161
 5653W        W15346   8.447   6.591   2.674
 5654W        W15347  11.796   9.547   1.715
 5655W        W15348   2.206  15.859   4.645
 5656W        W15349  10.833  11.014   3.672
 5657W        W15350   0.270  16.366   2.672
 5658W        W15351   9.862  10.026   2.676
 5659W        W15352   9.876  19.276  14.296
 5660W        W15353   4.110   8.059   3.648
 5661W        W15354   8.446  11.484   0.274
 5662W        W15355   5.062   9.069  11.404
 5663W        W15356  11.292  15.894  11.867
 5664W        W15357  10.835  11.478   2.697
 5665W        W15358  10.362   3.210  11.901
 5666W        W15359   0.750  18.297   2.708
 5667W        W15360   2.193   1.255  13.352
 5668W        W15361   6.508   7.081   2.182
 5669W        W15362   0.735  11.482   3.180
 5670W        W15363   3.625   7.586   0.271
 5671W        W15364   1.239   8.556  12.827
 5672W        W15365   7.478  18.314  11.861
 5673W        W15366  11.761  15.409   4.155
 5674W        W15367   6.989   6.116   0.266
 5675W        W15368   1.213   0.264  14.798
 5676W        W15369  11.793  13.434  11.374
 5677W        W15370   6.045  17.321   2.666
 5678W        W15371   6.962  14.424  14.772
 5679W        W15372   4.096   5.148   2.204
 5680W        W15373   7.943   5.640   3.174
 5681W        W15374   9.397  16.869  13.813
 5682W        W15375   3.612  19.761   0.732
 5683W        W15376   1.699  15.402   4.148
 5684W        W15377   3.606  13.446   2.212
 5685W        W15378   5.054  19.309  11.384
 5686W        W15379   6.527  10.011  11.399
 5687W        W15380  11.781   7.598  14.298
 5688W        W15381   2.649  17.336  14.307
 5689W        W15382   1.694  15.873   2.707
 5690W        W15383   6.963  11.011   2.670
 5691W        W15384   2.195   2.724  11.412
 5692W        W15385   9.380  10.987   4.620
 5693W        W15386  11.282  12.931   2.676
 5694W        W15387   6.007   2.207   0.275
 5695W        W15388   3.616  13.448   2.679
 5696W        W15389  10.832   1.242   3.658
 5697W        W15390   3.608  14.906   4.151
 5698W        W15391   9.869   3.691   0.741
 5699W        W15392   4.598  18.320  10.911
 5700W        W15393  11.286  10.526  14.762
 5701W        W15394   0.283  10.022   4.637
 5702W        W15395   5.040   8.057   1.220
 5703W        W15396   3.601   1.753  12.354
 5704W        W15397   7.932  10.986  12.869
 5705W        W15398   0.765  11.003  11.409
 5706W        W15399   8.886  16.360   1.700
 5707W        W15400   6.967   2.232  14.797
 5708W        W15401   6.498   0.764  11.897
 5709W        W15402   6.030  13.929   1.252
 5710W        W15403   9.393  19.785   0.280
 5711W        W15404   2.654   3.175  12.842
 5712W        W15405   0.759   5.655  13.329
 5713W        W15406   8.419   4.175  11.394
 5714W        W15407  11.281  15.371   1.694
 5715W        W15408   9.402   1.735   3.180
 5716W        W15409  11.309  16.350   4.138
 5717W        W15410  10.328  15.389   4.125
 5718W        W15411   3.156   6.124  11.888
 5719W        W15412  10.340   2.724  13.341
 5720W        W15413   2.682   2.710  14.780
 5721W        W15414   3.622   6.602   3.636
 5722W        W15415   5.085  16.371  14.305
 5723W        W15416   9.885  18.811  12.342
 5724W        W15417   0.255  14.897  11.861
 5725W        W15418   5.551  18.812   0.760
 5726W        W15419   1.710   5.627  14.317
 5727W        W15420   9.376  14.918   2.225
 5728W        W15421   1.222   6.127   1.717
 5729W        W15422   8.908  14.432   1.741
 5730W        W15423  10.335   6.139   3.676
 5731W        W15424   2.678   4.654   2.192
 5732W        W15425   9.862   9.073  12.848
 5733W        W15426   8.881   5.634  11.379
 5734W        W15427   2.176  19.776   3.649
 5735W        W15428   8.420  19.293   1.224
 5736W        W15429   0.741   4.182  13.812
 5737W        W15430   1.224  15.888   1.249
 5738W        W15431   5.558   4.185   1.727
 5739W        W15432   1.203  17.828   1.720
 5740W        W15433   7.451  19.313   3.640
 5741W        W15434   1.688  16.853   2.663
 5742W        W15435   8.416   7.091  12.828
 5743W        W15436   7.952   2.687  13.334
 5744W        W15437   6.040  13.934   4.142
 5745W        W15438   1.219  16.355  12.835
 5746W        W15439   7.937   4.154   2.664
 5747W        W15440   8.910   4.660  14.288
 5748W        W15441   6.966  10.509  10.923
 5749W        W15442   8.406  10.513   2.224
 5750W        W15443   1.210  10.015   4.643
 5751W        W15444  11.305  12.475  14.296
 5752W        W15445  11.296  15.898   1.225
 5753W        W15446   3.150  17.807   1.705
 5754W        W15447   8.420  12.956   0.282
 5755W        W15448   0.743  14.884  13.794
 5756W        W15449   2.189   9.058  12.868
 5757W        W15450   9.385   2.244   2.179
 5758W        W15451   2.180   7.563  13.342
 5759W        W15452   3.123  10.000  13.795
 5760W        W15453   5.546  11.006   0.774
 5761W        W15454   2.640   2.698   4.127
 5762W        W15455   4.111  16.875   3.169
 5763W        W15456   1.706  14.391   3.652
 5764W        W15457   5.058   3.198   0.737
 5765W        W15458   3.639   1.718  10.924
 5766W        W15459  11.323  19.277  11.892
 5767W        W15460   1.689   8.572   0.733
 5768W        W15461   6.510  12.440  12.864
 5769W        W15462   7.947   3.701   4.625
 5770W        W15463   4.603  14.905   1.235
 5771W        W15464   0.246   1.750  11.419
 5772W        W15465   6.012  14.915  14.780
 5773W        W15466   5.047   3.172  14.769
 5774W        W15467   4.587   2.230   0.289
 5775W        W15468   9.404   1.723   2.697
 5776W        W15469   0.723  19.287  11.860
 5777W        W15470   8.881   3.189  12.836
 5778W        W15471   3.125  16.868   4.120
 5779W        W15472   0.252   2.727  10.898
 5780W        W15473   0.726   3.689  12.824
 5781W        W15474  10.350  18.299  12.846
 5782W        W15475   8.402  10.495   3.186
 5783W        W15476   1.712   7.575   2.686
 5784W        W15477   9.862  15.880   0.246
 5785W        W15478   3.619  19.284   3.671
 5786W        W15479   7.471  18.807   3.644
 5787W        W15480   9.398   1.238   3.655
 5788W        W15481  10.333  10.036   3.662
 5789W        W15482   6.511   1.221   1.225
 5790W        W15483   4.093   4.158  14.772
 5791W        W15484  10.812   1.745   2.688
 5792W        W15485   0.281  14.927   0.282
 5793W        W15486   7.478  10.978   2.668
 5794W        W15487   9.388   5.653  11.409
 5795W        W15488   6.028  17.359  12.828
 5796W        W15489   5.074   9.543   2.192
 5797W        W15490  11.779  19.791  11.407
 5798W        W15491   3.167   8.555   1.243
 5799W        W15492   9.876   1.717   2.705
 5800W        W15493   3.159   8.081   1.220
 5801W        W15494   5.055   6.117   4.152
 5802W        W15495   6.495  19.804   2.223
 5803W        W15496   8.439  18.330   0.729
 5804W        W15497   6.000  19.312  12.377
 5805W        W15498   5.052  12.478  12.846
 5806W        W15499   6.013  13.948   4.612
 5807W        W15500   3.151  11.508   2.680
 5808W        W15501   8.412   1.710   0.759
 5809W        W15502   1.242  15.370   0.251
 5810W        W15503   0.267   2.720  11.402
 5811W        W15504   8.897   8.082  10.933
 5812W        W15505   4.593  12.968  14.275
 5813W        W15506  11.768  18.815  13.828
 5814W        W15507   0.764  10.038  13.826
 5815W        W15508   2.167   3.663   0.272
 5816W        W15509   0.265  15.867  14.801
 5817W        W15510   0.274   4.667  12.867
 5818W        W15511   0.748   1.233  12.342
 5819W        W15512   2.201  19.290   0.739
 5820W        W15513   9.365  16.351   0.741
 5821W        W15514  11.323   3.184   4.158
 5822W        W15515   6.482  14.420   3.649
 5823W        W15516   9.859  12.478  13.316
 5824W        W15517   5.563  11.472  11.856
 5825W        W15518   1.209  14.922   1.723
 5826W        W15519   8.918   2.220   3.179
 5827W        W15520   5.526  14.396   1.713
 5828W        W15521   6.980  14.886   4.611
 5829W        W15522  11.310  14.400   0.273
 5830W        W15523  11.768   7.562   0.744
 5831W        W15524   3.142   4.191   3.637
 5832W        W15525  10.346  10.015   3.158
 5833W        W15526   5.550   5.652   1.230
 5834W        W15527   1.235   9.525   1.218
 5835W        W15528   1.243  13.450  14.276
 5836W        W15529   4.106   6.618  11.871
 5837W        W15530   5.056   8.081   1.714
 5838W        W15531   3.151  14.888  14.286
 5839W        W15532   7.944   6.136  12.842
 5840W        W15533  10.830  17.364  14.800
 5841W        W15534   6.521  10.507   2.204
 5842W        W15535   5.538   1.240  10.893
 5843W        W15536   6.518  19.287   4.126
 5844W        W15537   9.381  18.328   3.635
 5845W        W15538   2.660  18.785   3.163
 5846W        W15539  11.768  12.934   2.706
 5847W        W15540   0.242  16.834   1.237
 5848W        W15541   5.566  18.801   2.214
 5849W        W15542   3.601   8.570  12.864
 5850W        W15543   4.126  15.414   0.276
 5851W        W15544  10.357   2.206   1.699
 5852W        W15545   9.400   0.284  12.823
 5853W        W15546   5.534   5.155   4.124
 5854W        W15547   6.507   9.513   3.641
 5855W        W15548   9.393   5.641  11.897
 5856W        W15549   9.869  13.462   3.666
 5857W        W15550   5.049  15.893  14.313
 5858W        W15551   8.925  11.954   1.254
 5859W        W15552   5.086   6.105   3.646
 5860W        W15553  10.816  15.390  13.307
 5861W        W15554   0.261   0.266  11.885
 5862W        W15555  10.834  11.474  12.345
 5863W        W15556   4.104  17.844  13.805
 5864W        W15557   1.221  19.273   0.753
 5865W        W15558   8.439   4.195  12.385
 5866W        W15559   2.188   5.648  13.823
 5867W        W15560   6.032  12.946   2.182
 5868W        W15561   7.961   4.158  10.901
 5869W        W15562   2.647  10.504  10.918
 5870W        W15563   2.661  17.839   0.257
 5871W        W15564   8.915   4.662   1.706
 5872W        W15565  10.835  13.458   4.143
 5873W        W15566  11.314  10.022   1.213
 5874W        W15567  10.842  18.819   1.695
 5875W        W15568   3.606  17.348   4.157
 5876W        W15569   9.859  14.912   3.161
 5877W        W15570   8.417   2.226  12.356
 5878W        W15571   4.582   8.572  14.296
 5879W        W15572   1.697   0.264   2.681
 5880W        W15573   8.417   5.611  11.893
 5881W        W15574  10.357   1.709   2.664
 5882W        W15575   3.151   3.193   0.728
 5883W        W15576  11.805  15.890  14.785
 5884W        W15577   6.978   8.049   3.654
 5885W        W15578  11.288   2.233  14.776
 5886W        W15579   0.286   6.605   0.247
 5887W        W15580   8.914   6.626  14.783
 5888W        W15581  10.324   0.753   4.622
 5889W        W15582   6.521  14.434   2.185
 5890W        W15583   2.161  16.378   2.665
 5891W        W15584   9.851   7.564   2.679
 5892W        W15585   5.546  12.945  12.382
 5893W        W15586   5.535   2.701   2.693
 5894W        W15587   8.889  11.471   4.640
 5895W        W15588   5.526  13.455   1.698
 5896W        W15589   8.915   5.163  12.836
 5897W        W15590   2.641  11.979   4.124
 5898W        W15591   0.730  10.018   0.768
 5899W        W15592   0.251  12.471  14.802
 5900W        W15593   8.881   1.736  14.759
 5901W        W15594  11.801   7.608  13.795
 5902W        W15595   3.610  16.831   0.247
 5903W        W15596   5.562   9.550  14.293
 5904W        W15597   2.196   2.684   2.670
 5905W        W15598   6.514   9.525  12.363
 5906W        W15599   4.573   0.741  13.807
 5907W        W15600   9.391  18.326   2.185
 5908W        W15601  10.322  18.783  11.393
 5909W        W15602   8.439   9.055   4.121
 5910W        W15603   3.148   8.541   4.601
 5911W        W15604   3.136  11.471  14.791
 5912W        W15605   2.673  19.802   4.130
 5913W        W15606   2.186  19.775   2.213
 5914W        W15607   8.898   3.693   0.267
 5915W        W15608  11.767  13.446  13.338
 5916W        W15609  10.346  19.286  13.803
 5917W        W15610   7.479  13.423   3.193
 5918W        W15611   5.069   7.114  12.377
 5919W        W15612   2.199   7.096   1.226
 5920W        W15613   6.028   3.706   3.161
 5921W        W15614  11.771   7.110  14.297
 5922W        W15615   0.270  12.934  14.779
 5923W        W15616   6.005   7.594  12.376
 5924W        W15617   5.524   1.740   3.674
 5925W        W15618  10.336   1.738  13.809
 5926W        W15619   0.260   2.203   0.753
 5927W        W15620   9.372   8.566   4.644
 5928W        W15621   6.520   9.041   3.187
 5929W        W15622   7.476   6.616   1.222
 5930W        W15623   7.445   9.047  10.922
 5931W        W15624   8.403  11.479   0.740
 5932W        W15625   5.539  18.297   2.214
 5933W        W15626  10.357   4.636   0.264
 5934W        W15627  10.813  17.823   2.181
 5935W        W15628   5.083   9.070   0.276
 5936W        W15629   2.206  14.881   1.719
 5937W        W15630   0.740   4.151  13.351
 5938W        W15631   9.853   9.056   4.603
 5939W        W15632   9.876   2.199  12.361
 5940W        W15633   0.736  15.403  12.364
 5941W        W15634   0.260  19.279  13.817
 5942W        W15635   9.363  17.361   1.245
 5943W        W15636   4.106  17.348  13.812
 5944W        W15637  10.337   0.735  12.360
 5945W        W15638   7.942  19.314  14.283
 5946W        W15639   7.471  11.018  14.772
 5947W        W15640   0.280  12.471   3.168
 5948W        W15641   2.652   9.552  13.341
 5949W        W15642   2.678   2.725  14.307
 5950W        W15643   6.995  17.827   1.232
 5951W        W15644   7.457   3.214   1.697
 5952W        W15645   9.882  11.492  11.410
 5953W        W15646   6.045  15.896   4.138
 5954W        W15647  10.324   7.101   1.226
 5955W        W15648  10.817  19.794   2.663
 5956W        W15649  10.802  16.843  12.856
 5957W        W15650   3.607   5.629   4.602
 5958W        W15651  11.793  16.387  12.866
 5959W        W15652   3.639   8.551   1.237
 5960W        W15653   0.757  10.506   2.668
 5961W        W15654   3.160   1.751  11.887
 5962W        W15655   8.907   1.221   3.666
 5963W        W15656   3.648  19.277   2.221
 5964W        W15657   8.433  13.906   4.148
 5965W        W15658   4.102   3.174  10.906
 5966W        W15659  11.790   4.682  14.311
 5967W        W15660   3.613   5.167   0.259
 5968W        W15661  10.815  18.295   3.650
 5969W        W15662   8.896  18.793  12.365
 5970W        W15663   2.641  14.409  11.397
 5971W        W15664   6.522   3.175   2.188
 5972W        W15665   3.621  18.825  12.356
 5973W        W15666   2.641   8.053  13.818
 5974W        W15667   1.220   6.595  14.787
 5975W        W15668   3.135  11.998   2.207
 5976W        W15669   4.574   1.742  11.405
 5977W        W15670   8.886   8.578  11.385
 5978W        W15671   1.701   1.720  14.765
 5979W        W15672   1.728  16.835  13.316
 5980W        W15673   6.504   0.261  12.852
 5981W        W15674   2.189   3.215  13.804
 5982W        W15675   8.927  17.851  14.316
 5983W        W15676  11.304   5.633  14.764
 5984W        W15677   9.378   6.130   0.759
 5985W        W15678  11.290   6.593  12.865
 5986W        W15679  10.820  11.471   3.160
 5987W        W15680   5.540   7.585  11.896
 5988W        W15681   8.410  14.893  11.402
 5989W        W15682   2.192   9.530  11.871
 5990W        W15683   3.144  18.298   1.696
 5991W        W15684   5.072  14.425   4.632
 5992W        W15685   0.725  19.292   1.709
 5993W        W15686   7.450   4.664  12.377
 5994W        W15687   3.638   6.139   1.696
 5995W        W15688   9.870   8.068   3.659
 5996W        W15689   3.639  10.041  13.309
 5997W        W15690  10.847   0.291   1.233
 5998W        W15691  11.769  14.421   2.208
 5999W        W15692   9.884   1.747  14.276
 6000W        W15693   3.603  13.909   2.707
 6001W        W15694   3.637  12.485   4.154
 6002W        W15695   5.530   6.599   2.221
 6003W        W15696   8.436  19.276  12.858
 6004W        W15697   1.680   6.125  12.346
 6005W        W15698   6.509   4.679  13.801
 6006W        W15699   7.954  15.886   3.664
 6007W        W15700   2.175  16.373  14.296
 6008W        W15701   9.869   0.736   0.273
 6009W        W15702   0.249  19.274   0.739
 6010W        W15703   9.385  15.894   4.604
 6011W        W15704   5.082   2.205   2.191
 6012W        W15705  11.304   6.114   4.636
 6013W        W15706   9.846   5.123   3.630
 6014W        W15707   8.916  16.363  14.789
 6015W        W15708   5.050   7.567  13.312
 6016W        W15709   4.103   5.143  13.355
 6017W        W15710  11.320  13.415   3.643
 6018W        W15711   8.891   3.666  14.774
 6019W        W15712   0.245  12.473   4.133
 6020W        W15713   9.373   8.090  11.412
 6021W        W15714  11.306   3.700  12.870
 6022W        W15715  11.295  10.999  14.772
 6023W        W15716   2.201  19.286  11.862
 6024W        W15717   3.610   1.741  14.776
 6025W        W15718  11.767  14.907  14.776
 6026W        W15719   4.581   5.625   2.206
 6027W        W15720   6.045  15.876  10.892
 6028W        W15721   0.766  13.906  12.358
 6029W        W15722   5.542  10.979   2.685
 6030W        W15723   2.662  11.987  14.774
 6031W        W15724   8.918  11.962   4.121
 6032W        W15725   3.642  14.424   1.730
 6033W        W15726  11.308   8.086  11.878
 6034W        W15727  10.841  15.400   4.603
 6035W        W15728   9.405  12.932   2.708
 6036W        W15729   5.541   5.169   0.737
 6037W        W15730   8.443  15.391   4.144
 6038W        W15731   7.476   9.035   4.644
 6039W        W15732  10.334   6.129  13.336
 6040W        W15733   6.521   4.172   3.651
 6041W        W15734   4.126  16.359  14.778
 6042W        W15735   5.529  18.326  14.287
 6043W        W15736   6.005  19.801   0.764
 6044W        W15737   0.737  10.990  12.848
 6045W        W15738  11.306   3.182   3.666
 6046W        W15739  10.356  10.530   2.667
 6047W        W15740   0.753   9.048   4.137
 6048W        W15741   5.546  18.814   1.242
 6049W        W15742   2.659   6.602  12.384
 6050W        W15743   8.402   1.741   2.178
 6051W        W15744  11.792  15.855  14.278
 6052W        W15745   3.629   4.668  14.765
 6053W        W15746   5.074  17.327  12.866
 6054W        W15747   6.034   9.541   4.137
 6055W        W15748   9.376  13.944  11.399
 6056W        W15749   9.380   9.520   2.703
 6057W        W15750   8.435  14.887   4.114
 6058W        W15751   9.845  18.818   3.641
 6059W        W15752   5.074   0.780   3.646
 6060W        W15753   3.123  18.808  11.384
 6061W        W15754   3.128  10.534   0.746
 6062W        W15755   7.935   3.691  12.856
 6063W        W15756   6.965   6.592   1.740
 6064W        W15757   2.641  18.323   0.283
 6065W        W15758   3.643   3.198  14.319
 6066W        W15759   9.382  12.457  11.376
 6067W        W15760   1.242   6.616  13.344
 6068W        W15761  11.305  16.834   2.669
 6069W        W15762   2.678  11.020  14.765
 6070W        W15763   2.650   8.549  12.354
 6071W        W15764   8.918  11.959   3.182
 6072W        W15765   0.721  13.456  11.882
 6073W        W15766   1.713  10.504   2.704
 6074W        W15767   7.446  19.767   4.150
 6075W        W15768  10.814   2.697   1.229
 6076W        W15769   2.200  19.296  12.868
 6077W        W15770   4.118  13.453   1.230
 6078W        W15771   9.407   4.682   1.220
 6079W        W15772   6.527   1.252   1.731
 6080W        W15773   1.692  15.880   2.184
 6081W        W15774   1.220  18.781  11.388
 6082W        W15775   6.981   7.112  13.806
 6083W        W15776   1.723   3.216   0.259
 6084W        W15777   2.178   3.678  14.789
 6085W        W15778   2.682  17.346  14.785
 6086W        W15779   5.051  13.906   4.598
 6087W        W15780   6.996   3.662  14.296
 6088W        W15781   0.252  18.312  12.845
 6089W        W15782   5.540  15.885   2.702
 6090W        W15783   4.585  11.464  13.822
 6091W        W15784  10.349   6.622   4.611
 6092W        W15785   0.282  12.973   2.187
 6093W        W15786   1.698   4.153  10.915
 6094W        W15787   4.574  14.921   0.774
 6095W        W15788   0.262  17.826  13.815
 6096W        W15789   9.380   3.179  12.864
 6097W        W15790   7.965  12.939  10.891
 6098W        W15791   9.402  12.480  13.809
 6099W        W15792   4.593   9.068   3.662
 6100W        W15793   2.193   3.694   0.727
 6101W        W15794   8.890  19.792  14.289
 6102W        W15795   7.440  11.974   2.668
 6103W        W15796  10.348  11.472  11.877
 6104W        W15797   8.423   9.031  14.767
 6105W        W15798   9.393  19.290  11.868
 6106W        W15799   7.949  10.026   2.192
 6107W        W15800  11.769   7.108   2.699
 6108W        W15801   4.572   0.284  11.400
 6109W        W15802   6.961   1.746  10.891
 6110W        W15803   5.051   3.217   0.250
 6111W        W15804  10.844   9.054   2.217
 6112W        W15805   1.706   2.724  14.781
 6113W        W15806   3.611  12.932   4.133
 6114W        W15807   0.276   3.219   0.252
 6115W        W15808   8.439   2.721   2.685
 6116W        W15809   2.167  17.364   1.220
 6117W        W15810   2.161   8.555   4.614
 6118W        W15811   6.984   1.740   2.220
 6119W        W15812   6.513   0.778  10.903
 6120W        W15813   0.265   0.278  13.812
 6121W        W15814   0.723   1.712   1.735
 6122W        W15815   8.899  12.478  14.801
 6123W        W15816   5.072  17.817  11.385
 6124W        W15817   9.859   7.115   2.688
 6125W        W15818   4.592   9.532  14.300
 6126W        W15819   5.056   2.222   4.142
 6127W        W15820   6.004   5.126   1.250
 6128W        W15821  11.287  11.507   4.636
 6129W        W15822   0.748   5.163  11.885
 6130W        W15823   3.647  19.767   3.191
 6131W        W15824   7.926   4.638  11.394
 6132W        W15825   1.220   5.149  10.915
 6133W        W15826   6.002  15.380   1.253
 6134W        W15827   7.474   7.573   4.636
 6135W        W15828  10.354  16.379   3.652
 6136W        W15829  11.303   5.619   1.235
 6137W        W15830  11.297  12.956   3.670
 6138W        W15831   0.284   7.581  12.351
 6139W        W15832   8.888   1.251   0.245
 6140W        W15833   2.181   7.585  14.771
 6141W        W15834  10.327  16.830  12.346
 6142W        W15835  11.319  11.023  11.883
 6143W        W15836   0.744  14.393   3.192
 6144W        W15837   4.604   9.513   3.157
 6145W        W15838   6.505  11.018  10.924
 6146W        W15839   4.095   0.754  10.901
 6147W        W15840  10.843   1.745  13.826
 6148W        W15841   9.376  16.859   4.601
 6149W        W15842   9.871  15.391   2.212
 6150W        W15843   0.734   5.650  10.934
 6151W        W15844   6.017   6.592  13.318
 6152W        W15845  10.815   9.057  12.364
 6153W        W15846   9.382  19.787   5.117
 6154W        W15847   8.420   1.257  10.925
 6155W        W15848   0.282  12.953   0.267
 6156W        W15849   6.504  10.009  12.838
 6157W        W15850   6.023  10.534  14.302
 6158W        W15851   3.632  16.361  10.899
 6159W        W15852   8.904   5.651  14.793
 6160W        W15853   0.261   1.265   1.712
 6161W        W15854   6.039   9.043  10.910
 6162W        W15855  11.286  10.009  13.337
 6163W        W15856   9.888   2.697  12.854
 6164W        W15857   9.397   4.640  12.368
 6165W        W15858   0.733  11.965  13.833
 6166W        W15859   2.176  10.987  12.341
 6167W        W15860   3.602  12.459   3.192
 6168W        W15861   6.498   6.597   1.739
 6169W        W15862   8.432   2.711  14.307
 6170W        W15863   6.026   9.031   3.147
 6171W        W15864   7.449   7.121  12.868
 6172W        W15865   1.209  10.527  13.825
 6173W        W15866   2.652   1.747  11.856
 6174W        W15867   0.751   5.639   1.258
 6175W        W15868   4.109   6.612  13.835
 6176W        W15869   1.682   3.660  14.774
 6177W        W15870   6.489   4.176  12.857
 6178W        W15871  11.327   8.058  14.310
 6179W        W15872   0.729  11.491  11.866
 6180W        W15873   1.708  11.496   4.605
 6181W        W15874   1.232   5.127  12.866
 6182W        W15875  10.339   0.286  13.335
 6183W        W15876   2.679  16.379  13.809
 6184W        W15877  11.323  10.999   2.678
 6185W        W15878   1.238   1.746  14.314
 6186W        W15879   4.083  13.948   3.635
 6187W        W15880   5.048  16.836   0.737
 6188W        W15881  10.349   7.109   3.675
 6189W        W15882   3.617   8.070   4.643
 6190W        W15883   3.615   2.724   1.694
 6191W        W15884  10.356  17.853   0.288
 6192W        W15885   6.519  17.825   3.663
 6193W        W15886   4.572  14.889  10.905
 6194W        W15887   3.625   3.688   2.216
 6195W        W15888   4.586   8.578   0.270
 6196W        W15889   5.078  11.998   1.237
 6197W        W15890   4.585  11.952   3.644
 6198W        W15891  11.288  12.961  10.923
 6199W        W15892   4.109  13.934   2.688
 6200W        W15893   5.069  10.037   2.207
 6201W        W15894   1.208  19.803   2.221
 6202W        W15895  11.298   5.616  12.384
 6203W        W15896   5.553  17.353  13.811
 6204W        W15897   6.966  18.791   0.276
 6205W        W15898   5.560  13.416   0.252
 6206W        W15899  10.368  11.022   4.133
 6207W        W15900  11.797   6.589  12.836
 6208W        W15901   8.897   7.107  12.349
 6209W        W15902   5.564   5.644   3.164
 6210W        W15903   7.450   3.173  13.354
 6211W        W15904   8.404   9.030  13.828
 6212W        W15905   6.998  16.390   3.187
 6213W        W15906   6.483  13.921   2.199
 6214W        W15907   0.273   5.159   3.634
 6215W        W15908   1.699   4.171  13.310
 6216W        W15909   7.933   0.276  11.857
 6217W        W15910   4.084  15.387   2.184
 6218W        W15911   7.455   3.176   3.645
 6219W        W15912   3.625   0.257   3.640
 6220W        W15913  11.768   7.119  11.415
 6221W        W15914   5.520  19.304   2.191
 6222W        W15915   1.220   6.591   4.137
 6223W        W15916   3.631  10.490   2.696
 6224W        W15917   1.703   8.085  13.816
 6225W        W15918   6.485   3.192   1.699
 6226W        W15919   8.437   4.187  13.353
 6227W        W15920   5.549  11.999  11.406
 6228W        W15921   2.177  16.836  12.386
 6229W        W15922   6.978   1.247  13.811
 6230W        W15923   8.441  16.852  10.896
 6231W        W15924   3.632  16.355  13.800
 6232W        W15925   0.768   0.279   1.721
 6233W        W15926   5.523   9.559  13.836
 6234W        W15927   1.219   0.272   4.160
 6235W        W15928   4.600   5.148  11.861
 6236W        W15929   0.243   6.589  13.334
 6237W        W15930  11.763   4.674   3.156
 6238W        W15931   5.549   8.085  13.838
 6239W        W15932   4.124   6.123   4.137
 6240W        W15933   9.874   8.549  13.809
 6241W        W15934   4.605  16.359  10.920
 6242W        W15935   4.592  15.869  11.405
 6243W        W15936   8.437  10.019   3.149
 6244W        W15937   6.971   1.254  12.380
 6245W        W15938   2.204   2.704  14.283
 6246W        W15939   8.886   9.523   0.758
 6247W        W15940   6.493   8.561  11.405
 6248W        W15941  10.328  17.807  12.839
 6249W        W15942   9.396   9.516   3.659
 6250W        W15943   2.677   7.605   0.279
 6251W        W15944  10.357   0.253   3.185
 6252W        W15945   2.664   5.626  13.820
 6253W        W15946   7.954  18.817   3.189
 6254W        W15947  10.361   6.622   4.142
 6255W        W15948  10.811   0.277  14.275
 6256W        W15949   6.016   4.154   4.139
 6257W        W15950   8.922   3.176  11.871
 6258W        W15951   8.921   6.598  12.842
 6259W        W15952   6.497   7.119   3.652
 6260W        W15953   2.666  17.836   2.202
 6261W        W15954   6.989   9.520  13.314
 6262W        W15955   2.680   3.672   0.753
 6263W        W15956   6.008   0.754   2.703
 6264W        W15957   4.107  15.866   3.642
 6265W        W15958   5.083   7.107  12.868
 6266W        W15959   9.391  18.324  12.853
 6267W        W15960   9.378  10.508   3.651
 6268W        W15961   7.451  14.419   4.158
 6269W        W15962   2.674   8.571   2.203
 6270W        W15963   6.028  17.346   0.268
 6271W        W15964   0.763   6.134   3.174
 6272W        W15965  11.286   2.233  13.823
 6273W        W15966  11.774  17.337   4.632
 6274W        W15967   3.138  10.511   2.704
 6275W        W15968   9.381  16.835   1.217
 6276W        W15969   7.465  15.367   0.729
 6277W        W15970   7.470  19.764   4.613
 6278W        W15971   0.247  10.515   1.704
 6279W        W15972   6.979   5.653   0.772
 6280W        W15973   6.031   2.216   2.709
 6281W        W15974   2.657   5.145   0.270
 6282W        W15975   5.070  17.853   4.126
 6283W        W15976   0.749   8.560   4.636
 6284W        W15977   1.704  11.955   2.208
 6285W        W15978   6.984   7.607  10.931
 6286W        W15979   7.965  18.821  14.289
 6287W        W15980   6.009   9.024  12.840
 6288W        W15981  11.318   5.629   0.276
 6289W        W15982  10.836  16.869  13.793
 6290W        W15983   0.722  11.012   0.273
 6291W        W15984   4.116   2.214  14.787
 6292W        W15985   5.566  15.895  14.769
 6293W        W15986   6.986   3.666  12.871
 6294W        W15987   1.712   9.034  10.914
 6295W        W15988   6.046   3.201   3.663
 6296W        W15989   3.612  11.953  13.814
 6297W        W15990   5.044  17.812   2.190
 6298W        W15991   1.245  17.822   2.189
 6299W        W15992  10.345  13.948   4.143
 6300W        W15993   3.149   1.229   3.648
 6301W        W15994   5.044   8.065   0.267
 6302W        W15995   7.948  11.502   4.136
 6303W        W15996   6.022  12.934   4.135
 6304W        W15997   9.886   2.724  10.894
 6305W        W15998  11.808  10.506   4.627
 6306W        W15999  10.350   3.687   2.184
 6307W        W16000   7.479  19.305   1.229
 6308W        W16001  11.288   3.218   3.192
 6309W        W16002   2.174  14.910  12.845
 6310W        W16003   7.007  16.350  11.898
 6311W        W16004   6.519   6.144  10.917
 6312W        W16005   3.617  14.899  11.897
 6313W        W16006   2.193  10.524   1.702
 6314W        W16007   6.037  15.381  14.309
 6315W        W16008   8.912   8.051   4.155
 6316W        W16009  11.281  10.494   1.740
 6317W        W16010  11.799   1.261  11.865
 6318W        W16011   2.681  16.344   1.731
 6319W        W16012  10.834  18.330   2.682
 6320W        W16013   9.857   6.142   2.694
 6321W        W16014   9.397  10.036   2.680
 6322W        W16015  11.779  19.279  11.418
 6323W        W16016   2.199  12.461   2.181
 6324W        W16017   8.424   6.119   3.664
 6325W        W16018   6.034  13.462  12.362
 6326W        W16019   6.028  10.006  14.796
 6327W        W16020   3.614  16.869   3.677
 6328W        W16021   5.059  17.339  14.321
 6329W        W16022   9.378  15.866   3.647
 6330W        W16023   4.097   5.615  14.792
 6331W        W16024  11.298  15.414   2.183
 6332W        W16025  10.325  16.349   2.707
 6333W        W16026   7.936   9.028   2.702
 6334W        W16027   5.083   2.686   1.234
 6335W        W16028   6.008   9.064   1.233
 6336W        W16029   9.364   4.184  11.385
 6337W        W16030   5.084  12.455  12.340
 6338W        W16031   7.445   0.761   4.597
 6339W        W16032   3.629   9.028   1.235
 6340W        W16033   8.884  15.860   0.728
 6341W        W16034   2.682  19.299   1.702
 6342W        W16035   9.858   1.240   4.145
 6343W        W16036   2.671  19.272  12.860
 6344W        W16037   3.616   8.094  13.815
 6345W        W16038   6.495  17.322   3.655
 6346W        W16039   6.967  10.534   0.249
 6347W        W16040   5.547  12.944   3.156
 6348W        W16041   6.507   9.052  14.783
 6349W        W16042  10.356  12.959  14.771
 6350W        W16043   4.091  12.937   2.206
 6351W        W16044   0.764   9.073  11.408
 6352W        W16045   0.750   0.244   0.767
 6353W        W16046   0.269  19.791  14.762
 6354W        W16047   1.719  18.825  13.334
 6355W        W16048   8.881  16.874   2.678
 6356W        W16049   8.430   6.139   0.752
 6357W        W16050   9.842   3.674  13.797
 6358W        W16051   0.250   1.245  13.800
 6359W        W16052   0.287  15.411  12.838
 6360W        W16053   8.428  10.024  14.317
 6361W        W16054   9.366  10.520   3.187
 6362W        W16055   2.659  13.932   4.608
 6363W        W16056   7.462   5.631   0.766
 6364W        W16057   3.643   6.098  12.357
 6365W        W16058   3.620  11.958   2.706
 6366W        W16059   3.140  18.314  13.338
 6367W        W16060   3.148   1.739  12.369
 6368W        W16061   7.945   4.189   4.144
 6369W        W16062   2.199  15.395  11.382
 6370W        W16063   0.256  19.282   3.192
 6371W        W16064   8.898  13.461   2.662
 6372W        W16065   2.668  10.502   4.634
 6373W        W16066   5.522  17.821   2.226
 6374W        W16067   6.001   5.639  12.342
 6375W        W16068   3.614   0.274   0.263
 6376W        W16069   1.696   6.142   2.180
 6377W        W16070  11.783  10.981   1.716
 6378W        W16071   5.071   3.204   2.702
 6379W        W16072   3.630  18.826  14.307
 6380W        W16073   8.425  18.784  13.793
 6381W        W16074   4.599   9.029   4.161
 6382W        W16075   2.194   8.083   3.156
 6383W        W16076   8.422  19.316   4.154
 6384W        W16077   4.081  11.982   0.738
 6385W        W16078   6.503  11.022   2.210
 6386W        W16079   4.125   6.597   2.683
 6387W        W16080  11.806   5.630   3.634
 6388W        W16081   3.137  10.983  11.869
 6389W        W16082  10.345  17.340  12.366
 6390W        W16083   2.174  11.510   4.634
 6391W        W16084   0.283  11.007   4.137
 6392W        W16085   5.054  19.288   3.154
 6393W        W16086  11.766  19.798   2.216
 6394W        W16087  10.352  19.299   1.253
 6395W        W16088   1.683   6.591  13.806
 6396W        W16089   7.472  18.815   2.703
 6397W        W16090   1.239  15.869   4.631
 6398W        W16091   9.875  11.001   4.132
 6399W        W16092   9.884  12.941   0.732
 6400W        W16093   3.643  18.795   1.695
 6401W        W16094   2.641   4.181   2.218
 6402W        W16095   1.201   2.242  11.386
 6403W        W16096   1.241  15.411   4.160
 6404W        W16097   7.482  18.791  14.291
 6405W        W16098  10.845  10.492   0.728
 6406W        W16099   0.764  18.786  12.380
 6407W        W16100  10.332  16.386  10.933
 6408W        W16101  11.763   1.245   0.734
 6409W        W16102   8.922   7.577  11.874
 6410W        W16103   9.386  18.323   0.288
 6411W        W16104   0.264   2.727   1.694
 6412W        W16105  10.841  14.405  13.321
 6413W        W16106   6.048  16.380  10.897
 6414W        W16107   5.081   7.074   3.163
 6415W        W16108   1.690  17.353   3.168
 6416W        W16109   3.145  17.814   4.644
 6417W        W16110   4.107   8.549   0.768
 6418W        W16111   3.129  13.913  14.313
 6419W        W16112   9.407  10.497   4.137
 6420W        W16113   4.085   4.162   4.132
 6421W        W16114   4.091   5.612   4.599
 6422W        W16115   8.406  14.427  14.279
 6423W        W16116   2.182  16.852   0.729
 6424W        W16117  11.795  16.387  13.833
 6425W        W16118   9.881  13.415  13.826
 6426W        W16119   7.487  15.884  14.794
 6427W        W16120   3.618   0.265  11.896
 6428W        W16121   5.065  18.293  10.933
 6429W        W16122  11.777  18.808   3.639
 6430W        W16123   3.139   2.695  12.358
 6431W        W16124   8.415  12.446   3.186
 6432W        W16125   6.011  13.947   0.271
 6433W        W16126   4.100   7.566   4.117
 6434W        W16127   3.615  18.818   4.619
 6435W        W16128   2.178   3.696  13.310
 6436W        W16129   4.111   8.567  14.303
 6437W        W16130   2.206   1.227   2.682
 6438W        W16131   2.173  15.871  14.290
 6439W        W16132   0.263   6.605   0.752
 6440W        W16133   4.593  15.883   2.709
 6441W        W16134  10.815  11.484  14.321
 6442W        W16135   7.945   4.655  13.327
 6443W        W16136   5.546  19.315   1.731
 6444W        W16137   4.105   3.700  10.927
 6445W        W16138   8.407   6.133   1.255
 6446W        W16139   1.228  18.794   0.256
 6447W        W16140   6.984   3.687   1.726
 6448W        W16141  11.763   2.199  11.875
 6449W        W16142   7.473  12.975  10.929
 6450W        W16143   2.171   4.668   1.726
 6451W        W16144   4.081  15.898   0.771
 6452W        W16145   6.514  16.360  14.317
 6453W        W16146   3.141   2.692  12.856
 6454W        W16147   8.430  12.969   2.216
 6455W        W16148   7.942   8.562  10.913
 6456W        W16149   9.363   0.278   0.271
 6457W        W16150   1.681   3.668   2.671
 6458W        W16151   7.475  17.816  11.875
 6459W        W16152   9.866  10.010   1.243
 6460W        W16153   9.882  11.505   3.660
 6461W        W16154   3.641  14.410   1.250
 6462W        W16155   1.218   0.770  12.357
 6463W        W16156   8.884  11.955  11.862
 6464W        W16157   4.593   8.052   1.223
 6465W        W16158   7.960  13.448   3.656
 6466W        W16159   3.608   7.580  11.875
 6467W        W16160   0.765  14.898  11.372
 6468W        W16161   4.570  13.418  12.844
 6469W        W16162   8.447  12.950   1.237
 6470W        W16163   7.459  18.329  12.380
 6471W        W16164  11.794   1.238   3.642
 6472W        W16165   8.442  14.899   0.252
 6473W        W16166   9.862   8.071   2.665
 6474W        W16167  11.300   5.638   0.750
 6475W        W16168   9.380   7.603   2.214
 6476W        W16169   7.001   1.745   0.268
 6477W        W16170   6.042   3.665   3.673
 6478W        W16171  10.349  13.924  12.355
 6479W        W16172   0.260   0.737   4.615
 6480W        W16173   7.463   1.725   4.607
 6481W        W16174   2.647  12.466   0.242
 6482W        W16175  11.327  11.986   4.641
 6483W        W16176   4.118   0.759   1.253
 6484W        W16177  11.316  14.437   4.132
 6485W        W16178   2.643  18.336   1.719
 6486W        W16179   0.722  12.465   3.146
 6487W        W16180  11.318  17.359  13.792
 6488W        W16181  10.333   8.584  11.376
 6489W        W16182   0.747  19.792  12.837
 6490W        W16183   5.544   1.744   0.257
 6491W        W16184   2.185   9.526  13.833
 6492W        W16185   1.204  13.419  12.360
 6493W        W16186   6.506   5.156  11.893
 6494W        W16187   0.724  17.820  11.895
 6495W        W16188   7.947  19.280   1.709
 6496W        W16189   4.103  14.399  12.351
 6497W        W16190   1.700   7.103   0.766
 6498W        W16191   6.989  15.414  13.355
 6499W        W16192   0.281   7.579  10.890
 6500W        W16193   6.019   3.208  13.791
 6501W        W16194   0.725   4.182   0.273
 6502W        W16195   4.085   2.722  12.831
 6503W        W16196   7.966  13.916   0.767
 6504W        W16197   7.945  14.925  12.826
 6505W        W16198   1.230  18.334  14.785
 6506W        W16199   4.586   1.268  12.367
 6507W        W16200   4.589   4.671   4.132
 6508W        W16201   7.470   1.239   2.191
 6509W        W16202   7.942  11.476   1.732
 6510W        W16203   6.511   1.718   4.637
 6511W        W16204   5.526  16.390   1.704
 6512W        W16205   0.252   9.542   1.701
 6513W        W16206  11.318  19.279  13.336
 6514W        W16207   4.122  13.912  14.766
 6515W        W16208   6.038   8.549  12.871
 6516W        W16209  11.783   6.127  14.295
 6517W        W16210   4.083   4.172   4.641
 6518W        W16211   4.591  16.872  13.827
 6519W        W16212   3.148  11.504   3.651
 6520W        W16213   4.593   3.172  13.348
 6521W        W16214  10.323  19.763  12.840
 6522W        W16215  11.310   9.065  14.788
 6523W        W16216   4.574  15.372  13.831
 6524W        W16217   1.204  13.437  11.881
 6525W        W16218   5.055  18.783  12.832
 6526W        W16219   2.187   6.115  10.924
 6527W        W16220  10.331  13.439  13.812
 6528W        W16221   8.881  12.936  11.401
 6529W        W16222  11.763  13.928  11.891
 6530W        W16223   8.406  12.462  11.398
 6531W        W16224   5.543  14.412   0.257
 6532W        W16225   3.637  18.785  12.865
 6533W        W16226   9.860  16.366  11.412
 6534W        W16227   9.880  12.947   2.705
 6535W        W16228  11.301  10.995  14.290
 6536W        W16229  10.801  11.992   3.174
 6537W        W16230   8.439  13.452  11.897
 6538W        W16231   7.457  10.534  13.319
 6539W        W16232   2.685   3.662  13.830
 6540W        W16233   3.639  13.441  10.931
 6541W        W16234  10.355  13.911   1.737
 6542W        W16235  10.324   6.133   2.180
 6543W        W16236   0.721  13.909   2.215
 6544W        W16237   7.006  13.949   1.221
 6545W        W16238   1.237   3.219  14.311
 6546W        W16239   8.919   8.569   4.140
 6547W        W16240   2.640  13.461  10.927
 6548W        W16241   4.591  15.889   1.728
 6549W        W16242   7.963   3.184  12.824
 6550W        W16243   2.193   1.711  11.415
 6551W        W16244   8.928   8.564   3.633
 6552W        W16245   4.122   4.180   2.219
 6553W        W16246   4.126   1.720   1.248
 6554W        W16247   6.998  18.337  14.771
 6555W        W16248   3.633  16.357   0.242
 6556W        W16249   0.737  14.404  10.914
 6557W        W16250   8.902   8.546   1.739
 6558W        W16251   8.900  14.408   1.211
 6559W        W16252   2.208  15.378   1.728
 6560W        W16253   2.176   6.101   1.221
 6561W        W16254   6.505   6.140   4.128
 6562W        W16255   8.915  10.048   1.250
 6563W        W16256   2.643  11.989   3.675
 6564W        W16257   4.125  10.498  14.285
 6565W        W16258   8.408  18.792  12.379
 6566W        W16259   9.845   1.732   0.286
 6567W        W16260   5.523  15.894  12.341
 6568W        W16261  10.847   9.546  12.864
 6569W        W16262   1.710  10.520   0.740
 6570W        W16263   6.005   0.273   4.134
 6571W        W16264   0.251  10.021  12.849
 6572W        W16265   9.883  17.818  11.385
 6573W        W16266   0.752  19.760  10.929
 6574W        W16267   3.155  13.431   1.256
 6575W        W16268   7.938  15.400  10.894
 6576W        W16269   0.732  18.803   2.183
 6577W        W16270   9.848   3.171  10.892
 6578W        W16271   6.981   3.696   2.689
 6579W        W16272   4.608  13.949   2.694
 6580W        W16273   1.213   9.041   3.658
 6581W        W16274   2.642  19.765  10.914
 6582W        W16275   6.516  16.855  13.828
 6583W        W16276   3.120  16.352   3.151
 6584W        W16277   1.229  12.975  12.342
 6585W        W16278  10.845  11.955  10.890
 6586W        W16279   4.083   3.702   0.260
 6587W        W16280   5.061  10.525   2.684
 6588W        W16281   4.113   7.083   2.184
 6589W        W16282   3.129   0.289   0.258
 6590W        W16283   9.390  17.850   1.212
 6591W        W16284   9.372   0.733   1.215
 6592W        W16285   0.756  13.938   4.618
 6593W        W16286  10.847  10.025  12.858
 6594W        W16287   6.988  10.527  14.780
 6595W        W16288  10.821  11.503   4.601
 6596W        W16289   3.124   1.727  13.791
 6597W        W16290   5.076   1.255  14.761
 6598W        W16291   0.241  13.904   0.249
 6599W        W16292  10.838   1.718   3.638
 6600W        W16293   5.062   3.206  10.921
 6601W        W16294   8.424  18.798   4.123
 6602W        W16295  10.802   9.049  11.883
 6603W        W16296   1.719  19.278   4.610
 6604W        W16297   5.061  13.457  10.918
 6605W        W16298   9.866   4.183  12.339
 6606W        W16299   3.147   3.697   1.733
 6607W        W16300   5.079   8.069  12.839
 6608W        W16301  10.348  15.876   3.158
 6609W        W16302   8.914   8.555  11.902
 6610W        W16303   3.604  15.900  12.368
 6611W        W16304   5.533   9.537   0.734
 6612W        W16305   4.586  11.004   3.651
 6613W        W16306   6.000   9.546   2.186
 6614W        W16307  11.311   2.700  12.861
 6615W        W16308   2.679  10.017  11.393
 6616W        W16309   6.502   1.254   3.667
 6617W        W16310   1.235  18.790  12.835
 6618W        W16311   6.039   7.608   3.674
 6619W        W16312   4.571   9.554  13.810
 6620W        W16313  10.325  15.867  11.402
 6621W        W16314   3.140  12.929  13.796
 6622W        W16315   1.722   2.706   4.643
 6623W        W16316   5.086  11.468   0.274
 6624W        W16317   6.989  10.048   4.142
 6625W        W16318   6.982  15.861   2.664
 6626W        W16319   3.627   7.565   1.695
 6627W        W16320   5.549   5.630  10.910
 6628W        W16321  10.358  18.328   4.133
 6629W        W16322   2.666  15.390  12.862
 6630W        W16323   8.437  11.979   3.191
 6631W        W16324   2.664  12.473  14.770
 6632W        W16325   0.742  17.834  14.779
 6633W        W16326   5.052  15.898   4.160
 6634W        W16327   9.848   7.584  13.310
 6635W        W16328   4.102   9.529   2.695
 6636W        W16329   8.435   1.728   4.158
 6637W        W16330   0.280  16.845   3.174
 6638W        W16331   6.507   1.731   4.122
 6639W        W16332   2.202  10.984   1.213
 6640W        W16333  11.793  18.316   1.228
 6641W        W16334  10.349   3.172   0.764
 6642W        W16335   1.697  12.462  12.868
 6643W        W16336  11.784  13.931  13.822
 6644W        W16337   1.246  18.790   2.193
 6645W        W16338   7.006   1.748   1.722
 6646W        W16339   2.662   6.112   3.674
 6647W        W16340   3.133  19.793  11.406
 6648W        W16341   3.642  10.512   4.130
 6649W        W16342   2.164  10.517  12.358
 6650W        W16343   1.704   5.631   3.188
 6651W        W16344   4.114   2.238  11.865
 6652W        W16345   9.848   6.099   1.705
 6653W        W16346   8.890   5.622  13.815
 6654W        W16347   2.672  14.881  10.928
 6655W        W16348   7.445   6.617  11.412
 6656W        W16349   3.131   8.089   3.640
 6657W        W16350  11.766   0.277   1.255
 6658W        W16351   1.205   2.699   3.677
 6659W        W16352   5.070  14.404   1.718
 6660W        W16353   3.605   8.555  10.907
 6661W        W16354   1.211  13.428  13.811
 6662W        W16355   6.501  16.371   2.666
 6663W        W16356   8.422  10.015  12.859
 6664W        W16357   3.642  18.315   0.770
 6665W        W16358   6.486  15.391   3.155
 6666W        W16359   2.651   5.156  14.776
 6667W        W16360   4.603   4.190  14.280
 6668W        W16361   1.691   3.700  14.279
 6669W        W16362   9.391  17.846  10.927
 6670W        W16363   4.605  17.848   3.177
 6671W        W16364  11.793  17.820   1.217
 6672W        W16365   8.924   1.722  10.907
 6673W        W16366   2.172   3.696  12.870
 6674W        W16367   9.376  11.959   1.702
 6675W        W16368   5.086  13.910  10.925
 6676W        W16369   6.973  11.967  12.858
 6677W        W16370   8.905   4.170  12.382
 6678W        W16371   6.505  18.309  14.302
 6679W        W16372   3.609   5.134  14.314
 6680W        W16373  11.300   0.749   2.188
 6681W        W16374   8.427   3.703  14.308
 6682W        W16375   1.236  16.844   3.160
 6683W        W16376   8.927   6.115  11.413
 6684W        W16377   5.561   2.694  13.325
 6685W        W16378   7.945  15.901   1.722
 6686W        W16379   1.225  13.420   1.227
 6687W        W16380   7.922  11.998   2.684
 6688W        W16381   8.447   1.268   0.750
 6689W        W16382   2.171   9.554   3.176
 6690W        W16383  11.780  11.015  10.894
 6691W        W16384   8.410   1.728  11.891
 6692W        W16385   0.252  13.936   1.220
 6693W        W16386   5.546  18.293  11.871
 6694W        W16387   5.536  12.440  13.833
 6695W        W16388   0.761   5.651  14.765
 6696W        W16389   3.127  10.508  14.285
 6697W        W16390   2.164   9.040  10.924
 6698W        W16391   1.720   4.645   4.113
 6699W        W16392   5.526   1.731  11.880
 6700W        W16393   1.724   1.750   4.125
 6701W        W16394   1.726   7.597  14.301
 6702W        W16395  11.803   2.211  14.284
 6703W        W16396   8.924  11.470   3.658
 6704W        W16397  10.340  14.411   3.148
 6705W        W16398   1.704  14.880   4.155
 6706W        W16399   1.244   4.187   2.191
 6707W        W16400   9.367   8.067  13.311
 6708W        W16401   4.086  15.389   3.663
 6709W        W16402   6.497   1.220   0.287
 6710W        W16403  11.793  11.960  10.904
 6711W        W16404   5.539  15.409  13.819
 6712W        W16405   1.209   5.130   3.670
 6713W        W16406   4.572  18.339   2.691
 6714W        W16407  11.322   5.146  11.867
 6715W        W16408   5.543  15.395   4.619
 6716W        W16409   2.643  18.822   4.609
 6717W        W16410   4.579   9.028   0.283
 6718W        W16411   0.729   2.233  11.411
 6719W        W16412   8.882  18.339  14.773
 6720W        W16413   8.408   4.647   2.682
 6721W        W16414   7.958  14.415   3.182
 6722W        W16415   2.176   7.591  13.824
 6723W        W16416   2.664  10.992  13.829
 6724W        W16417   0.263  15.889   2.187
 6725W        W16418   8.424   0.247  11.404
 6726W        W16419   7.966   8.549  14.800
 6727W        W16420   3.613   7.075  11.878
 6728W        W16421   2.193  10.979   4.158
 6729W        W16422   0.244  16.347  11.372
 6730W        W16423   3.153   6.596   2.182
 6731W        W16424   9.365  18.298   4.624
 6732W        W16425  11.303   7.584   3.165
 6733W        W16426   1.229   4.183  14.773
 6734W        W16427   1.715  12.451   4.113
 6735W        W16428   4.082  16.369  11.868
 6736W        W16429   4.100  19.791  14.294
 6737W        W16430   5.550  10.513   0.771
 6738W        W16431  10.355  12.476   4.610
 6739W        W16432   7.930  11.008   4.147
 6740W        W16433   7.451   3.671  11.415
 6741W        W16434   1.695  19.315   0.248
 6742W        W16435  10.835   6.117   1.710
 6743W        W16436   9.879   0.285  14.790
 6744W        W16437  11.771  14.893  12.352
 6745W        W16438   4.570  18.809   0.245
 6746W        W16439   0.264   2.211  12.846
 6747W        W16440   4.081  11.995   3.169
 6748W        W16441  11.325  11.015   1.718
 6749W        W16442   4.592   6.099  12.362
 6750W        W16443   9.852  13.950   4.119
 6751W        W16444  10.344  14.421   0.752
 6752W        W16445   7.470  19.779  11.394
 6753W        W16446   2.172   0.286   0.280
 6754W        W16447   4.120   5.651   2.217
 6755W        W16448   4.572   2.204  12.862
 6756W        W16449   8.899   0.755   5.105
 6757W        W16450   0.259   3.212   1.256
 6758W        W16451   0.264  18.805  11.879
 6759W        W16452   6.507  11.485   4.611
 6760W        W16453   7.953  17.321  12.351
 6761W        W16454   9.396  14.884   1.713
 6762W        W16455   5.546   0.245   3.652
 6763W        W16456   9.843  16.350  14.771
 6764W        W16457   3.625  14.921   0.768
 6765W        W16458   7.965   0.775  10.892
 6766W        W16459  10.343  18.340   1.243
 6767W        W16460   1.219  18.323   2.215
 6768W        W16461   6.975  13.431  13.831
 6769W        W16462   3.162   2.217   2.669
 6770W        W16463   6.002   6.593  10.897
 6771W        W16464   0.262  18.331   4.602
 6772W        W16465   4.563  10.504   3.639
 6773W        W16466   0.276   0.287   0.267
 6774W        W16467   6.024   8.582  11.396
 6775W        W16468   7.959   4.665  14.309
 6776W        W16469   0.241   4.651   3.171
 6777W        W16470   4.592  19.277   2.675
 6778W        W16471  10.814  14.427   2.697
 6779W        W16472  10.352   5.629  11.860
 6780W        W16473   1.706  16.861   2.214
 6781W        W16474   5.549  16.379   0.284
 6782W        W16475   9.376  14.916  12.371
 6783W        W16476   4.596   9.550   4.628
 6784W        W16477   0.721  11.006  13.815
 6785W        W16478   1.690   0.741   0.744
 6786W        W16479   3.147   5.133  12.850
 6787W        W16480  10.362  17.815  11.859
 6788W        W16481   2.165  17.327  13.797
 6789W        W16482   3.153   2.223   2.178
 6790W        W16483   6.518  16.355   0.756
 6791W        W16484   0.746   4.160  11.399
 6792W        W16485   4.587  18.314  12.839
 6793W        W16486   7.924  18.296  13.838
 6794W        W16487   6.012   9.060   4.605
 6795W        W16488   9.857   1.725   4.624
 6796W        W16489   7.001  11.509   3.163
 6797W        W16490   7.485  16.842   0.283
 6798W        W16491   9.403   6.121   3.639
 6799W        W16492   1.223   1.735   0.756
 6800W        W16493   3.601   3.211  12.370
 6801W        W16494   1.209  13.929  14.764
 6802W        W16495  11.804  10.981   2.663
 6803W        W16496   7.923  12.445  11.389
 6804W        W16497   9.371  17.347  14.788
 6805W        W16498   8.917   5.139  14.779
 6806W        W16499   1.204   1.255   4.614
 6807W        W16500   1.691   4.152  11.409
 6808W        W16501  11.293  10.509   3.649
 6809W        W16502   0.754   1.225   0.762
 6810W        W16503   8.925   9.556   2.225
 6811W        W16504   6.037  15.892   3.675
 6812W        W16505   2.183   5.655  11.860
 6813W        W16506   5.541  11.964  14.799
 6814W        W16507   4.122  16.370  13.344
 6815W        W16508   6.992   6.608   2.677
 6816W        W16509   4.088  11.974  13.310
 6817W        W16510   6.017   9.552   3.173
 6818W        W16511   7.964  12.471  11.895
 6819W        W16512  10.833  10.991   4.138
 6820W        W16513   6.519  14.882  14.775
 6821W        W16514   0.268   7.563   3.168
 6822W        W16515   3.602  11.491  11.416
 6823W        W16516   7.460   2.212   3.667
 6824W        W16517   3.643  12.936  12.381
 6825W        W16518   4.576  13.912  14.759
 6826W        W16519   1.724  17.849  12.855
 6827W        W16520   7.940  11.019   3.153
 6828W        W16521   3.135   4.681   2.674
 6829W        W16522  10.824   0.270  11.377
 6830W        W16523   9.408   4.643   3.650
 6831W        W16524   6.017  14.432  10.918
 6832W        W16525   6.503  19.760  14.320
 6833W        W16526   9.387   0.291   4.147
 6834W        W16527   5.549  13.934   3.180
 6835W        W16528   8.445   4.662  14.300
 6836W        W16529   9.883  12.450   4.597
 6837W        W16530   5.050   5.162  13.318
 6838W        W16531   3.155   5.160   2.216
 6839W        W16532   5.557   2.215   4.618
 6840W        W16533   4.110  16.373   0.266
 6841W        W16534   8.901  14.910   0.736
 6842W        W16535   3.626   5.149  12.824
 6843W        W16536   5.084  14.406  13.351
 6844W        W16537   8.427  11.467  13.339
 6845W        W16538   0.251   3.197  14.767
 6846W        W16539  10.844  17.844  11.866
 6847W        W16540  11.793   9.518  13.352
 6848W        W16541  10.321  15.864   0.280
 6849W        W16542   6.491  11.959   4.154
 6850W        W16543   9.845   7.569   0.251
 6851W        W16544   3.636  16.390   4.129
 6852W        W16545  10.322  12.958  12.855
 6853W        W16546   9.845   2.199   3.164
 6854W        W16547   6.499  10.526   2.690
 6855W        W16548   6.963  12.459  13.811
 6856W        W16549   6.984   9.043  13.351
 6857W        W16550   8.420  15.868  13.820
 6858W        W16551   7.958  19.291  12.866
 6859W        W16552   1.709  11.997  10.928
 6860W        W16553  11.317  11.476   3.153
 6861W        W16554   0.244   5.618   3.673
 6862W        W16555   6.988   8.072   3.155
 6863W        W16556   8.432  11.500   2.187
 6864W        W16557   6.013  15.382  12.380
 6865W        W16558  11.772  11.503  14.806
 6866W        W16559   1.681   6.590  13.333
 6867W        W16560   6.979  16.358   3.653
 6868W        W16561   4.117   8.061  14.783
 6869W        W16562  10.836   4.177   0.769
 6870W        W16563  10.837  13.441  12.842
 6871W        W16564   9.390   3.705  10.916
 6872W        W16565   6.027  15.889  12.836
 6873W        W16566   4.590   1.243  14.761
 6874W        W16567   1.724  10.983   0.255
 6875W        W16568  11.319  10.008   4.153
 6876W        W16569   4.586   1.259  11.892
 6877W        W16570   5.067  11.496  13.801
 6878W        W16571  10.825   9.048   2.708
 6879W        W16572  11.291   3.215   2.204
 6880W        W16573   2.669   5.610  11.419
 6881W        W16574   7.966  15.880  12.860
 6882W        W16575   6.498  16.836   3.642
 6883W        W16576   9.863  13.945   3.637
 6884W        W16577   3.127   3.214  12.369
 6885W        W16578   1.214  19.791   4.125
 6886W        W16579   1.221  15.370   3.676
 6887W        W16580  11.328  18.338  12.370
 6888W        W16581   9.878   9.561  12.869
 6889W        W16582   6.961  13.421   1.231
 6890W        W16583   7.966  11.013  13.347
 6891W        W16584   7.451  15.899   4.598
 6892W        W16585  10.368  19.767   4.624
 6893W        W16586   9.407  12.482   2.180
 6894W        W16587  11.309   9.055   4.144
 6895W        W16588   0.748   7.115   1.732
 6896W        W16589   6.526   4.171   4.144
 6897W        W16590   1.721  11.986  11.900
 6898W        W16591   5.528  17.838   2.702
 6899W        W16592   5.538   6.135  13.835
 6900W        W16593   0.750   0.286   0.269
 6901W        W16594   2.653  18.815  12.827
 6902W        W16595   6.487  14.880   4.131
 6903W        W16596   8.922  15.872   3.640
 6904W        W16597  11.782   9.531   3.162
 6905W        W16598   5.537   7.589  12.386
 6906W        W16599   4.106   3.201   0.284
 6907W        W16600   3.162  14.879   0.756
 6908W        W16601   0.254   2.212   3.631
 6909W        W16602   6.983  11.953  13.798
 6910W        W16603   7.957   0.735   2.199
 6911W        W16604  10.841   5.637   3.186
 6912W        W16605   4.096   4.653  12.385
 6913W        W16606   2.669   0.288  14.781
 6914W        W16607   1.710  16.367   0.770
 6915W        W16608  10.341  10.535   3.649
 6916W        W16609   2.197  17.339  12.366
 6917W        W16610   2.652   5.638  12.844
 6918W        W16611   9.366   5.655  14.760
 6919W        W16612  11.783  10.002   4.631
 6920W        W16613   8.925  17.356  10.915
 6921W        W16614   3.123  13.938   4.117
 6922W        W16615   5.532  19.310   3.192
 6923W        W16616   9.394   6.100   4.130
 6924W        W16617   3.638  13.439   4.612
 6925W        W16618   0.734  13.428  13.333
 6926W        W16619   8.902   4.664   2.202
 6927W        W16620   6.502  11.476   3.165
 6928W        W16621   4.127  10.024   0.727
 6929W        W16622   2.671   5.163   1.218
 6930W        W16623   4.563   0.770   0.259
 6931W        W16624   1.219   4.172   1.222
 6932W        W16625   4.090  18.806   1.232
 6933W        W16626   9.848   5.616  10.908
 6934W        W16627  10.362  12.965   1.219
 6935W        W16628   8.415   2.699  14.797
 6936W        W16629   6.519   8.062  11.902
 6937W        W16630   0.753   0.762  13.323
 6938W        W16631   6.505   3.698  12.865
 6939W        W16632   9.400   2.209  10.902
 6940W        W16633   7.961   0.254   3.150
 6941W        W16634   7.949   1.242  13.799
 6942W        W16635   2.685   0.752  14.766
 6943W        W16636   8.422  19.801   3.669
 6944W        W16637   1.205  12.479  13.817
 6945W        W16638   4.570  10.502   4.631
 6946W        W16639   0.263  14.413   1.721
 6947W        W16640   1.247   6.591   1.216
 6948W        W16641  10.822  13.919  14.304
 6949W        W16642   1.694   0.759  14.307
 6950W        W16643   2.675   1.731  10.934
 6951W        W16644   8.923   0.262   2.698
 6952W        W16645   9.396  16.357  11.885
 6953W        W16646   4.561  13.417   4.127
 6954W        W16647   7.474   9.543   2.179
 6955W        W16648  10.332   7.600  12.843
 6956W        W16649   3.164   4.670   4.148
 6957W        W16650  10.354   1.225   3.191
 6958W        W16651   6.037  13.432   3.656
 6959W        W16652   7.455   6.591   0.272
 6960W        W16653   5.082   4.162  13.325
 6961W        W16654  11.298  11.011  12.341
 6962W        W16655   3.604   0.260   1.212
 6963W        W16656   8.412  12.443   2.221
 6964W        W16657   3.601  18.796   3.182
 6965W        W16658   0.725   7.100  12.379
 6966W        W16659   3.611   1.744  11.418
 6967W        W16660   6.962  11.491  10.933
 6968W        W16661   6.962  19.799  11.398
 6969W        W16662   5.551   2.728   4.161
 6970W        W16663   8.917   7.096   1.222
 6971W        W16664  11.805  15.370  11.403
 6972W        W16665   7.475   1.265   1.227
 6973W        W16666   2.204  18.301  10.904
 6974W        W16667   0.244   0.258   0.743
 6975W        W16668   2.675  13.926   1.722
 6976W        W16669  10.846   2.729   0.253
 6977W        W16670   4.606  15.413   2.665
 6978W        W16671   6.004  15.857   2.226
 6979W        W16672   4.111  15.886   4.151
 6980W        W16673   1.237   5.645  13.821
 6981W        W16674   7.478  17.360   2.206
 6982W        W16675   9.361   7.119  12.859
 6983W        W16676   3.124  13.935   3.649
 6984W        W16677  10.820   0.257  13.334
 6985W        W16678   6.024   2.690  14.773
 6986W        W16679  10.332   5.627   1.255
 6987W        W16680   6.964   4.168  13.345
 6988W        W16681   6.979  10.007   2.200
 6989W        W16682   4.097  15.411  12.828
 6990W        W16683   6.503   9.552   0.773
 6991W        W16684   4.121  12.965  12.858
 6992W        W16685   1.226  11.465   3.669
 6993W        W16686   2.663   5.167   4.121
 6994W        W16687   9.856   8.069   2.207
 6995W        W16688   2.206  13.932   1.247
 6996W        W16689   3.612   0.250   2.194
 6997W        W16690   4.580  10.494  11.878
 6998W        W16691   5.070  12.936   2.190
 6999W        W16692   3.635   6.131   4.610
 7000W        W16693   1.247   2.220  12.862
 7001W        W16694   5.555   7.592  14.281
 7002W        W16695   0.751   3.175   2.703
 7003W        W16696   6.013  11.485  13.811
 7004W        W16697  11.772   6.594   1.717
 7005W        W16698   6.493  11.474  13.336
 7006W        W16699   6.039   7.080   3.666
 7007W        W16700   1.685   0.766  12.840
 7008W        W16701   3.623   2.239   0.252
 7009W        W16702  11.774   8.065  14.303
 7010W        W16703  10.347   6.143  13.817
 7011W        W16704   1.201   4.652  12.358
 7012W        W16705   5.071  15.370   2.208
 7013W        W16706   7.966  16.363  11.376
 7014W        W16707   4.081   9.554  12.363
 7015W        W16708   1.219  12.477   3.667
 7016W        W16709   3.621   9.530   4.635
 7017W        W16710   3.122  11.492  12.377
 7018W        W16711   6.510  15.397  13.818
 7019W        W16712   3.167   0.286  10.934
 7020W        W16713   0.721   4.168  14.280
 7021W        W16714  11.767  13.923   1.727
 7022W        W16715   7.468  15.862  10.902
 7023W        W16716  10.809   9.071   4.606
 7024W        W16717   5.055   5.650   0.245
 7025W        W16718   8.915  14.418   0.764
 7026W        W16719   9.368   8.084  11.894
 7027W        W16720   1.215   0.768  13.326
 7028W        W16721  10.845  16.861   1.244
 7029W        W16722   1.710  10.526   0.257
 7030W        W16723   3.613   7.079   4.609
 7031W        W16724   9.872  15.377  10.891
 7032W        W16725   7.486   8.062   0.766
 7033W        W16726   7.464   9.060  13.312
 7034W        W16727   3.145   9.556  10.935
 7035W        W16728   9.855   5.128   3.179
 7036W        W16729   9.863  16.837   2.675
 7037W        W16730   3.151  12.966   4.143
 7038W        W16731  10.822   1.249   2.210
 7039W        W16732   0.754  13.437  14.777
 7040W        W16733   4.103  10.498   3.151
 7041W        W16734   7.469  15.894  11.901
 7042W        W16735   8.421  18.820  13.324
 7043W        W16736  11.323   2.701  13.807
 7044W        W16737   9.378   8.055   1.214
 7045W        W16738   6.013  11.501   1.229
 7046W        W16739  11.794  15.871  12.360
 7047W        W16740  11.293   0.277   2.706
 7048W        W16741   7.454  17.332  12.361
 7049W        W16742   6.977  11.956  12.382
 7050W        W16743  11.802   7.592  14.768
 7051W        W16744  10.351   5.162  12.378
 7052W        W16745   6.489   7.077   1.236
 7053W        W16746   5.066   4.676  12.346
 7054W        W16747   8.917   2.703  14.766
 7055W        W16748   3.125   4.184   1.226
 7056W        W16749   2.654  15.860   4.144
 7057W        W16750   6.511   2.238  10.904
 7058W        W16751   9.847   5.617   0.284
 7059W        W16752   4.086   5.645   1.731
 7060W        W16753   3.637  10.042   1.258
 7061W        W16754   1.247   5.656  14.766
 7062W        W16755   2.687  14.438   0.260
 7063W        W16756   1.726  12.470   3.667
 7064W        W16757   5.543   6.604  13.331
 7065W        W16758   1.246  10.522  10.912
 7066W        W16759  10.808   8.565   0.274
 7067W        W16760   5.542   7.581   4.153
 7068W        W16761   2.167   0.767   3.158
 7069W        W16762   8.896  17.833  12.357
 7070W        W16763  10.848   5.620  14.321
 7071W        W16764   9.847  14.894  11.865
 7072W        W16765   6.980  18.809  13.811
 7073W        W16766   6.979  18.329  13.831
 7074W        W16767   2.171   5.653  11.389
 7075W        W16768   4.082   9.528  10.926
 7076W        W16769   6.048   4.651  13.340
 7077W        W16770   9.847   4.654   0.262
 7078W        W16771   5.549   6.626  11.891
 7079W        W16772   8.892  15.384   2.681
 7080W        W16773   7.005  16.841   4.120
 7081W        W16774   4.592   8.568   2.661
 7082W        W16775  10.816  15.869   4.146
 7083W        W16776   6.505   8.072   0.732
 7084W        W16777   9.372   5.645   4.626
 7085W        W16778   7.474  13.423   1.222
 7086W        W16779   5.534   7.105   1.218
 7087W        W16780   6.013   3.704   4.606
 7088W        W16781   1.221   4.634  11.875
 7089W        W16782   2.200  19.285   4.150
 7090W        W16783  10.325   4.675   4.130
 7091W        W16784   6.009   0.733  14.312
 7092W        W16785   8.426  19.761  14.767
 7093W        W16786   6.520  11.019  11.885
 7094W        W16787   4.576  16.859  11.868
 7095W        W16788   7.934  11.974  11.899
 7096W        W16789   8.911   7.575  11.411
 7097W        W16790   3.149  10.031  12.364
 7098W        W16791  11.282  15.403  10.901
 7099W        W16792   2.684  16.859   1.257
 7100W        W16793   2.661   5.657   2.691
 7101W        W16794   7.445   2.685   2.682
 7102W        W16795   4.124   1.260   1.240
 7103W        W16796  11.310  19.296  10.890
 7104W        W16797   6.970  16.837  14.299
 7105W        W16798  11.305   3.688  10.910
 7106W        W16799   4.573  14.925   4.155
 7107W        W16800   6.525  11.958   2.204
 7108W        W16801   6.996  12.974   0.289
 7109W        W16802   9.874  19.771  11.375
 7110W        W16803   5.537   0.758  14.790
 7111W        W16804   6.042  10.990  12.855
 7112W        W16805  10.322   5.163   3.669
 7113W        W16806   0.728   0.745   2.685
 7114W        W16807  11.313  18.800   0.755
 7115W        W16808   5.086   8.071  10.888
 7116W        W16809   4.560  17.844  14.792
 7117W        W16810   3.154  19.797  13.829
 7118W        W16811  10.323   7.561  11.404
 7119W        W16812   9.407  17.328   4.619
 7120W        W16813   9.880   7.088   3.648
 7121W        W16814   2.207   3.186   3.180
 7122W        W16815   5.055  19.270  12.374
 7123W        W16816  10.341  18.790  13.822
 7124W        W16817   2.191  12.453   0.755
 7125W        W16818   1.721  13.415  12.837
 7126W        W16819   3.603   1.731   4.139
 7127W        W16820   5.076   9.066   2.676
 7128W        W16821   9.854   6.631   2.212
 7129W        W16822   1.702  15.857  11.885
 7130W        W16823   8.917  17.360   3.647
 7131W        W16824   2.180  10.490  11.855
 7132W        W16825  11.303  15.893  11.392
 7133W        W16826   1.240   2.236  13.319
 7134W        W16827  10.846  12.967   4.149
 7135W        W16828   3.614   2.200  14.296
 7136W        W16829  11.784  10.986  11.372
 7137W        W16830   1.212  17.329  11.396
 7138W        W16831   7.947  10.023  11.384
 7139W        W16832   1.719   0.771  13.307
 7140W        W16833   1.240   1.241  12.355
 7141W        W16834   8.432  11.962   2.707
 7142W        W16835  11.282   3.664  14.322
 7143W        W16836   4.121  18.795   3.664
 7144W        W16837   1.690   0.776  11.415
 7145W        W16838   8.923   3.680   2.690
 7146W        W16839   4.095   1.253   2.684
 7147W        W16840   7.486   5.133   2.685
 7148W        W16841   0.748   9.513  11.375
 7149W        W16842   1.248   3.196   1.242
 7150W        W16843   2.195  10.040  14.304
 7151W        W16844   5.535   5.151   1.733
 7152W        W16845   0.729  12.963   0.744
 7153W        W16846   9.399   6.119   2.211
 7154W        W16847   3.606  17.829  11.401
 7155W        W16848  11.307  13.439  10.934
 7156W        W16849  10.823  14.899   4.152
 7157W        W16850   0.726   4.147  12.354
 7158W        W16851   2.658   4.648  14.310
 7159W        W16852   2.686   5.642   0.739
 7160W        W16853  10.348   7.083  13.354
 7161W        W16854   7.952  14.900   0.245
 7162W        W16855   7.967  12.973  11.412
 7163W        W16856   7.487  16.867  13.327
 7164W        W16857   3.129  16.836   1.727
 7165W        W16858   6.031   4.163  11.887
 7166W        W16859   5.078  10.515   1.734
 7167W        W16860   0.747   6.601   0.257
 7168W        W16861   1.208   0.755   2.687
 7169W        W16862   6.986  18.783   3.635
 7170W        W16863   9.365   1.251  11.398
 7171W        W16864   6.497   5.657   3.163
 7172W        W16865   2.644  15.370   4.136
 7173W        W16866   3.144   0.756  10.911
 7174W        W16867   9.373  15.878  11.865
 7175W        W16868   0.253  11.502  14.308
 7176W        W16869   4.592  16.365  12.379
 7177W        W16870   9.842   0.749   2.674
 7178W        W16871   9.372   8.058  13.822
 7179W        W16872  10.847   9.029   0.745
 7180W        W16873   2.649  18.299  14.307
 7181W        W16874   3.609   8.560   3.649
 7182W        W16875   6.044  17.330   1.228
 7183W        W16876   4.594  18.335   3.654
 7184W        W16877   6.517   7.106  13.348
 7185W        W16878   9.386   9.064  11.411
 7186W        W16879  11.280   8.092   2.677
 7187W        W16880   7.008   9.544  10.901
 7188W        W16881   6.019  17.850   0.743
 7189W        W16882   2.668  12.468   3.185
 7190W        W16883   5.063   2.232  12.870
 7191W        W16884   8.927  14.422  14.766
 7192W        W16885   2.197  12.936  12.342
 7193W        W16886   9.881  18.301   0.746
 7194W        W16887  10.812   4.176  10.918
 7195W        W16888   1.219   6.609  12.842
 7196W        W16889   1.239  13.913  12.859
 7197W        W16890   5.539   6.622   0.732
 7198W        W16891   5.552  14.436  12.861
 7199W        W16892   8.905   5.611   1.232
 7200W        W16893   9.852  14.918  13.806
 7201W        W16894   1.725  11.000   2.705
 7202W        W16895   3.165   6.627  12.371
 7203W        W16896   0.271  15.407   4.637
 7204W        W16897   8.891  10.979  13.829
 7205W        W16898   7.479   8.580  12.842
 7206W        W16899   3.637   4.154  13.830
 7207W        W16900   2.194   5.138   4.153
 7208W        W16901   0.285   9.522  12.861
 7209W        W16902   7.483   6.103   4.634
 7210W        W16903   6.966   2.728   4.141
 7211W        W16904   2.662  19.308   1.257
 7212W        W16905   3.122   7.566  11.384
 7213W        W16906   5.051  11.956   4.598
 7214W        W16907   7.446   5.612  10.910
 7215W        W16908  11.806  18.795  14.296
 7216W        W16909   4.573   4.163   1.715
 7217W        W16910   6.491  15.383   2.705
 7218W        W16911   6.483  14.883  10.911
 7219W        W16912  11.805   5.651  14.760
 7220W        W16913   6.503   7.609  14.312
 7221W        W16914   1.212  19.285   3.640
 7222W        W16915  10.327   8.565   0.279
 7223W        W16916   3.152   2.243   0.285
 7224W        W16917  10.812   0.754   2.210
 7225W        W16918   2.183   4.175  11.901
 7226W        W16919   2.652  10.992   3.647
 7227W        W16920  10.807  14.924   2.215
 7228W        W16921   9.375   3.668   0.771
 7229W        W16922   5.080  12.936  10.890
 7230W        W16923   9.881   2.198   1.230
 7231W        W16924   5.067  12.485  11.413
 7232W        W16925   9.392   9.059  13.349
 7233W        W16926   7.466  13.437   3.655
 7234W        W16927   1.234   6.627  11.883
 7235W        W16928   5.079   5.166   4.628
 7236W        W16929   7.485   9.063  11.373
 7237W        W16930   3.162  13.427   3.634
 7238W        W16931   1.241   7.578   4.159
 7239W        W16932  11.788  10.010  11.410
 7240W        W16933   8.886   6.131  14.285
 7241W        W16934   3.133  17.822   3.643
 7242W        W16935   0.247   6.587  14.793
 7243W        W16936   6.002  10.522  12.385
 7244W        W16937   5.057  16.847   3.152
 7245W        W16938   2.172  17.815  14.280
 7246W        W16939   5.555  11.981  14.288
 7247W        W16940   6.490  18.310   0.752
 7248W        W16941   1.204   2.207   4.641
 7249W        W16942   5.531   8.055  11.416
 7250W        W16943   4.574   4.644   0.245
 7251W        W16944   3.647   6.617  12.346
 7252W        W16945   3.626   8.097  11.880
 7253W        W16946   6.505  19.767   1.733
 7254W        W16947  10.332   2.696  13.805
 7255W        W16948   7.932   2.228  10.906
 7256W        W16949   5.060  13.930  14.279
 7257W        W16950   3.141  17.340  11.893
 7258W        W16951   0.260   6.141   1.241
 7259W        W16952   1.714  11.010  14.310
 7260W        W16953   3.144   1.236  11.407
 7261W        W16954   1.723   3.677  12.350
 7262W        W16955  10.352  19.269   2.689
 7263W        W16956   4.598   6.115   4.126
 7264W        W16957   6.986  12.939  12.371
 7265W        W16958  10.812  17.842  12.353
 7266W        W16959   2.654  15.870   4.620
 7267W        W16960  11.773  18.805   0.742
 7268W        W16961   0.739   7.573   1.732
 7269W        W16962   0.271  11.974   4.130
 7270W        W16963   3.643   6.104  10.902
 7271W        W16964  10.326  12.930   4.618
 7272W        W16965  11.793   0.286  14.768
 7273W        W16966   0.747   7.584  10.902
 7274W        W16967   2.659  11.995  12.340
 7275W        W16968   3.142  14.437   2.702
 7276W        W16969   7.443   0.739   4.123
 7277W        W16970   9.874   2.217  12.864
 7278W        W16971   8.434  16.830  14.315
 7279W        W16972   6.518   3.693  13.796
 7280W        W16973   1.201  17.353   2.204
 7281W        W16974   9.366   9.061  11.883
 7282W        W16975   2.208  12.937  12.863
 7283W        W16976  10.321   6.594  10.914
 7284W        W16977   4.112  14.436   2.665
 7285W        W16978   9.871   4.190   2.690
 7286W        W16979   9.405   1.237   5.121
 7287W        W16980  10.349  16.352  11.869
 7288W        W16981   6.026  10.501   1.256
 7289W        W16982   9.883   3.678   0.257
 7290W        W16983   8.906   8.072   2.202
 7291W        W16984   6.990  12.468   3.186
 7292W        W16985   3.622  14.892   2.204
 7293W        W16986   0.725  16.832   0.752
 7294W        W16987   2.163  14.411  11.379
 7295W        W16988   7.444  12.952   1.257
 7296W        W16989   5.535   0.757  12.857
 7297W        W16990  10.333   3.184   3.630
 7298W        W16991   4.119  10.501   2.208
 7299W        W16992   0.279  19.288  14.286
 7300W        W16993   0.752   7.113  14.801
 7301W        W16994   3.145   1.739   4.641
 7302W        W16995   8.444   7.119  11.869
 7303W        W16996   3.159   5.154   3.173
 7304W        W16997   2.185  10.006  14.762
 7305W        W16998  11.761  10.003   3.666
 7306W        W16999  10.843  12.457   3.168
 7307W        W17000   9.366   7.086   2.699
 7308W        W17001   4.117   4.187  12.826
 7309W        W17002   6.993   0.755   4.602
 7310W        W17003   2.167   6.590   2.215
 7311W        W17004   6.513  15.889  12.384
 7312W        W17005   6.527  16.846   2.185
 7313W        W17006   6.027  15.393  11.876
 7314W        W17007   0.747  13.420  14.320
 7315W        W17008   6.999   1.254   2.673
 7316W        W17009   7.937   8.549  13.814
 7317W        W17010   4.579  11.972  14.278
 7318W        W17011   0.736  16.354  14.301
 7319W        W17012   6.991   5.150  13.812
 7320W        W17013   6.003   3.197   1.216
 7321W        W17014   7.920  19.290   3.183
 7322W        W17015   2.173  11.476   4.122
 7323W        W17016   1.702  10.509  10.928
 7324W        W17017   6.998  11.977   2.690
 7325W        W17018   9.375  10.523  14.794
 7326W        W17019   3.641   1.266  11.408
 7327W        W17020   6.492  17.324  12.844
 7328W        W17021  10.338   9.518   0.265
 7329W        W17022   4.089  17.853  12.380
 7330W        W17023   4.101  19.303   2.201
 7331W        W17024   8.426  11.490  12.341
 7332W        W17025   6.503   5.159  12.850
 7333W        W17026   4.098  14.920   3.636
 7334W        W17027   7.941   4.179   3.185
 7335W        W17028   4.094  14.887  10.905
 7336W        W17029  11.289  16.348   0.760
 7337W        W17030   4.586  16.384   2.705
 7338W        W17031  11.281   4.191  12.371
 7339W        W17032  10.335   8.076   4.139
 7340W        W17033  10.336   2.685   1.218
 7341W        W17034   2.673  16.859  12.376
 7342W        W17035   5.538  11.510  14.778
 7343W        W17036   6.978  19.276  11.888
 7344W        W17037   0.286   5.654  12.849
 7345W        W17038   6.480  11.510  12.853
 7346W        W17039   7.452  11.993  12.840
 7347W        W17040  10.809   8.083   4.116
 7348W        W17041   0.763   2.721  11.865
 7349W        W17042   2.191   7.083  13.823
 7350W        W17043   1.713  11.509   1.214
 7351W        W17044  10.848   9.561  10.914
 7352W        W17045  11.790  16.837  12.364
 7353W        W17046   6.518   7.113  11.855
 7354W        W17047   0.756  13.450  11.385
 7355W        W17048   6.014  17.853  13.817
 7356W        W17049   9.403  14.878  14.293
 7357W        W17050   5.528  13.947   1.700
 7358W        W17051   7.456   5.646   4.118
 7359W        W17052  11.762   8.585   1.703
 7360W        W17053   5.077  19.804   1.727
 7361W        W17054   0.274   0.750  11.855
 7362W        W17055   9.853  15.878   2.216
 7363W        W17056   6.485  15.888   2.214
 7364W        W17057   5.078  11.003   4.159
 7365W        W17058   0.244  15.395  14.768
 7366W        W17059   3.608  11.501   0.267
 7367W        W17060   5.066   1.708  13.811
 7368W        W17061   5.557  16.364  11.859
 7369W        W17062   3.131   2.206   4.156
 7370W        W17063   6.497   3.198  14.294
 7371W        W17064   6.523  18.299   2.685
 7372W        W17065   7.939   6.108  11.877
 7373W        W17066   8.897  16.839  11.406
 7374W        W17067   4.124  18.294  12.343
 7375W        W17068   8.414   9.540   3.189
 7376W        W17069   0.258   3.666   2.215
 7377W        W17070   8.900  11.485   4.160
 7378W        W17071   2.675  17.849   4.641
 7379W        W17072   8.880   6.595   3.659
 7380W        W17073   3.136   8.054  12.865
 7381W        W17074   6.994  13.452  11.864
 7382W        W17075   0.248   4.158  14.308
 7383W        W17076   8.402   9.043  10.900
 7384W        W17077   0.744   8.548   0.280
 7385W        W17078   4.091  10.990   3.646
 7386W        W17079   7.450   7.564   3.649
 7387W        W17080   8.884   0.749   1.252
 7388W        W17081   5.073  10.508  14.772
 7389W        W17082   5.080  16.354  14.771
 7390W        W17083   2.164  12.473   4.145
 7391W        W17084   6.999  19.290   2.203
 7392W        W17085   2.683  18.817  12.368
 7393W        W17086  11.298   1.247   2.702
 7394W        W17087   6.490   4.146  14.305
 7395W        W17088   1.690   3.193  12.356
 7396W        W17089   4.084   9.048  10.934
 7397W        W17090   5.076   5.149  13.835
 7398W        W17091   3.619   9.062   1.695
 7399W        W17092   5.564  18.318  11.395
 7400W        W17093   7.925  11.496  12.853
 7401W        W17094   7.951  13.903   2.187
 7402W        W17095   3.615  14.429   2.219
 7403W        W17096   0.276  11.475   0.737
 7404W        W17097   3.634   4.151   1.216
 7405W        W17098   9.380   7.100  10.929
 7406W        W17099   0.728   2.723   0.257
 7407W        W17100  10.830  18.304  13.820
 7408W        W17101   1.246  19.768  12.837
 7409W        W17102  10.802  17.364  13.308
 7410W        W17103  11.311   4.156   1.702
 7411W        W17104  11.790   2.235   3.655
 7412W        W17105   9.856   8.071   1.234
 7413W        W17106   8.902  17.334  12.340
 7414W        W17107   4.118  12.934   1.704
 7415W        W17108  11.796   6.131   2.676
 7416W        W17109   6.985  14.896   0.751
 7417W        W17110   6.489   9.543   2.224
 7418W        W17111  11.303   5.611  14.280
 7419W        W17112   1.232  12.951   4.630
 7420W        W17113   6.522   5.155  11.414
 7421W        W17114   5.042  19.765   2.703
 7422W        W17115   1.686  17.809   4.130
 7423W        W17116   0.768  15.412   3.168
 7424W        W17117   6.519   8.570   0.271
 7425W        W17118   1.214   4.165   3.148
 7426W        W17119   2.167   7.094  12.378
 7427W        W17120   6.002  10.523   4.132
 7428W        W17121   9.866  11.490  13.342
 7429W        W17122  10.810   3.679  11.404
 7430W        W17123   9.857  15.886  11.408
 7431W        W17124   9.882   7.583   0.771
 7432W        W17125   8.916   5.657   4.617
 7433W        W17126   1.243   0.750   4.135
 7434W        W17127   1.229   1.739  11.882
 7435W        W17128   6.497   5.656  12.869
 7436W        W17129  10.824  11.502  10.893
 7437W        W17130   1.236   5.143   1.243
 7438W        W17131   5.062  15.413  14.292
 7439W        W17132   4.569   4.185  12.383
 7440W        W17133   7.961  15.384  11.875
 7441W        W17134   4.088  16.875  14.796
 7442W        W17135   2.177  12.936   3.192
 7443W        W17136   1.232  11.465   2.192
 7444W        W17137   2.663  17.324   4.134
 7445W        W17138   0.245  10.530   0.250
 7446W        W17139   4.560   4.161   4.609
 7447W        W17140   3.609  11.991   3.664
 7448W        W17141   0.729   2.215   4.626
 7449W        W17142  10.813  19.276   2.218
 7450W        W17143   7.000   9.057   4.145
 7451W        W17144   9.360  18.807  11.412
 7452W        W17145   2.204  12.446   1.713
 7453W        W17146   9.843  13.447   3.174
 7454W        W17147   1.710   9.037   4.131
 7455W        W17148   6.966   5.127  14.791
 7456W        W17149   7.461  18.820  12.868
 7457W        W17150   4.581  10.009  11.375
 7458W        W17151   0.753   1.750   2.670
 7459W        W17152  10.339   1.264   1.727
 7460W        W17153   8.419   9.041  12.365
 7461W        W17154   7.468  18.829   3.187
 7462W        W17155   9.858   8.552   2.686
 7463W        W17156   9.407  12.475   0.270
 7464W        W17157   1.700   4.679   1.258
 7465W        W17158   3.162   6.594   3.180
 7466W        W17159   3.625   4.192  12.381
 7467W        W17160   9.370   0.771   2.216
 7468W        W17161  10.355  10.991  12.850
 7469W        W17162   9.388  11.489   1.734
 7470W        W17163   9.848  13.934  12.827
 7471W        W17164   2.665  17.833   0.744
 7472W        W17165   2.186   5.171   3.660
 7473W        W17166   6.994   7.589   3.180
 7474W        W17167   6.522  16.347   2.209
 7475W        W17168   2.170   7.590  12.346
 7476W        W17169   4.599  10.992   1.258
 7477W        W17170   8.914   9.517   2.701
 7478W        W17171   6.499  11.990  13.347
 7479W        W17172   3.635   2.240  14.796
 7480W        W17173   8.900  19.299  12.360
 7481W        W17174   3.137   9.057  14.775
 7482W        W17175   8.405   6.126   2.682
 7483W        W17176   9.390   9.515  11.857
 7484W        W17177   3.605   1.242   2.181
 7485W        W17178   5.553   3.674   0.734
 7486W        W17179   4.116  16.390   2.180
 7487W        W17180   3.153  14.885   1.700
 7488W        W17181   9.841   4.665  12.358
 7489W        W17182   8.909  16.390  12.376
 7490W        W17183   5.525   0.771  11.397
 7491W        W17184   3.610  15.367   4.614
 7492W        W17185   5.049   5.149   1.741
 7493W        W17186   7.452  17.805   1.720
 7494W        W17187   9.845   9.027   3.636
 7495W        W17188   0.274  14.392   3.180
 7496W        W17189   2.658   8.579   4.624
 7497W        W17190  11.771  13.942   3.189
 7498W        W17191   2.207   1.237  13.808
 7499W        W17192  11.773  11.470  14.277
 7500W        W17193   5.566   4.643   0.269
 7501W        W17194  11.296   7.108   0.761
 7502W        W17195   6.965   1.752  12.849
 7503W        W17196  11.301   6.605   2.217
 7504W        W17197  11.327   4.182   2.681
 7505W        W17198   5.044   0.258   0.735
 7506W        W17199   6.017   3.210   4.130
 7507W        W17200   3.631   4.663  13.323
 7508W        W17201   8.439   8.062   2.225
 7509W        W17202   5.556   3.676  14.777
 7510W        W17203   5.525  12.482  14.784
 7511W        W17204   8.439   1.743  14.805
 7512W        W17205   2.670  12.482  12.852
 7513W        W17206   3.158  16.850  10.930
 7514W        W17207   3.126   1.267   4.628
 7515W        W17208   4.127  13.925   4.637
 7516W        W17209   0.754   7.564  14.793
 7517W        W17210   2.204  19.784  14.793
 7518W        W17211   4.583  17.320   0.244
 7519W        W17212   6.980  15.890  12.857
 7520W        W17213   4.092   6.130   1.234
 7521W        W17214   7.965  10.530   2.701
 7522W        W17215   7.483   0.732  14.789
 7523W        W17216   3.154   0.248  12.863
 7524W        W17217   8.415   9.061   1.211
 7525W        W17218   5.567  19.776   2.697
 7526W        W17219   5.525   0.274   4.625
 7527W        W17220   0.280  15.886  13.830
 7528W        W17221   6.978   7.597  12.848
 7529W        W17222  10.361   4.648   0.726
 7530W        W17223   5.042  15.387   1.218
 7531W        W17224   0.255   2.227  11.417
 7532W        W17225   8.911   9.064   0.749
 7533W        W17226   3.167   7.086  12.348
 7534W        W17227   6.972   1.719  14.278
 7535W        W17228   4.569   6.143   3.158
 7536W        W17229   3.643  12.965  14.806
 7537W        W17230   7.951   5.641  14.790
 7538W        W17231   2.684  13.443   3.657
 7539W        W17232   9.384  18.330  11.890
 7540W        W17233   5.061  14.883  11.858
 7541W        W17234   0.271  19.789   2.665
 7542W        W17235   4.565   3.693  11.857
 7543W        W17236   8.439  17.354   4.160
 7544W        W17237   2.181   6.604   2.696
 7545W        W17238  10.350  18.788   1.223
 7546W        W17239   2.177   7.595   0.282
 7547W        W17240   8.902  11.993   2.184
 7548W        W17241  11.306  18.320   1.707
 7549W        W17242   2.177  11.956   4.604
 7550W        W17243   5.567  19.313   0.761
 7551W        W17244   2.667   4.178   4.611
 7552W        W17245   8.438  10.027   0.732
 7553W        W17246   4.118  12.967  10.888
 7554W        W17247   9.851  11.478   1.728
 7555W        W17248   2.683   1.753  12.366
 7556W        W17249   6.017  10.529  13.337
 7557W        W17250  11.765  13.441  10.930
 7558W        W17251  10.826   4.666   1.694
 7559W        W17252   3.159  19.761  14.322
 7560W        W17253   2.195  14.435   4.154
 7561W        W17254   2.194  11.982  11.874
 7562W        W17255   8.900   0.759   2.679
 7563W        W17256   2.674   6.609   1.227
 7564W        W17257   6.981  10.982   0.770
 7565W        W17258   7.476   3.196   0.750
 7566W        W17259   5.053  18.829   3.650
 7567W        W17260   5.084   6.119  11.388
 7568W        W17261   6.519  19.282   0.265
 7569W        W17262   5.535   2.205  11.377
 7570W        W17263   0.755  11.015   3.145
 7571W        W17264   0.727   6.588   4.604
 7572W        W17265   8.439   5.658  14.314
 7573W        W17266   2.182   4.638   1.222
 7574W        W17267  10.353  19.280  11.887
 7575W        W17268   1.687  16.343  14.797
 7576W        W17269   5.062   5.658   0.741
 7577W        W17270  11.304  10.500  12.359
 7578W        W17271   5.550  16.367  13.312
 7579W        W17272   9.400  16.854   3.637
 7580W        W17273   6.495  10.035  14.285
 7581W        W17274   9.854   0.760  14.282
 7582W        W17275   9.396  19.307   2.689
 7583W        W17276   7.488   7.112   1.239
 7584W        W17277   9.376  10.026  13.349
 7585W        W17278  11.325  10.008   3.145
 7586W        W17279   0.728  15.374   3.632
 7587W        W17280   1.695   7.586   0.766
 7588W        W17281   3.638   2.217   1.256
 7589W        W17282  11.314  16.864  10.931
 7590W        W17283   6.991  17.322  13.811
 7591W        W17284   1.700   9.550   1.714
 7592W        W17285   6.986  12.483  12.836
 7593W        W17286  10.332  19.271   0.762
 7594W        W17287  11.777   0.250   0.751
 7595W        W17288  10.367   5.650   2.703
 7596W        W17289   8.427   6.627   3.670
 7597W        W17290   6.495   7.087  11.391
 7598W        W17291  10.822  19.764   1.720
 7599W        W17292   4.103   1.265  14.319
 7600W        W17293   5.525   8.075   1.725
 7601W        W17294   2.189   8.081   4.613
 7602W        W17295   6.485  10.524   3.185
 7603W        W17296   7.459  10.032   4.630
 7604W        W17297   0.767  19.785  13.801
 7605W        W17298   1.704   4.650   0.740
 7606W        W17299  11.797   1.259  14.777
 7607W        W17300   2.192  15.401  11.862
 7608W        W17301  10.823  14.397   2.205
 7609W        W17302   2.686  11.986   0.274
 7610W        W17303   6.996  11.983  11.880
 7611W        W17304   4.604  11.003  11.383
 7612W        W17305   5.542  10.506  14.804
 7613W        W17306   5.087   7.594  12.837
 7614W        W17307   2.176   7.105   2.188
 7615W        W17308   4.126  13.906   3.146
 7616W        W17309   6.012  19.294   0.763
 7617W        W17310   0.288  14.919   2.213
 7618W        W17311   5.560  12.949  13.341
 7619W        W17312   8.426  15.897  12.831
 7620W        W17313   2.642  14.433   2.670
 7621W        W17314   2.662   2.207   4.114
 7622W        W17315   3.121  11.963   1.721
 7623W        W17316   6.484  17.352   4.132
 7624W        W17317   4.586   0.286   2.193
 7625W        W17318   8.412  19.777  11.407
 7626W        W17319   8.448   1.243   1.238
 7627W        W17320   7.934   2.238  12.833
 7628W        W17321   1.707  17.849  14.781
 7629W        W17322   7.470   3.660   3.665
 7630W        W17323   2.655  18.312   4.629
 7631W        W17324  10.827  12.440   0.280
 7632W        W17325   8.419   2.199   3.162
 7633W        W17326   8.924  10.987   3.152
 7634W        W17327   8.900   7.577  10.928
 7635W        W17328   1.717  14.912   3.646
 7636W        W17329   6.045   5.163   0.764
 7637W        W17330   0.722  18.319   4.129
 7638W        W17331   2.183  10.000   2.682
 7639W        W17332   8.428  15.869   2.709
 7640W        W17333   2.191   0.249  13.797
 7641W        W17334   1.699   9.541   1.254
 7642W        W17335   3.162  12.466  10.918
 7643W        W17336   8.424  13.455   4.620
 7644W        W17337   7.443   6.602   3.659
 7645W        W17338  10.328  15.882  14.282
 7646W        W17339  10.845   7.092  11.417
 7647W        W17340   5.551   7.116   2.702
 7648W        W17341   0.274   4.637   0.283
 7649W        W17342   4.603   1.756   2.199
 7650W        W17343   2.669  18.296  11.380
 7651W        W17344   8.426  14.907   2.222
 7652W        W17345   8.435  11.017   2.200
 7653W        W17346   9.396  10.986   2.675
 7654W        W17347  10.812   1.246   0.283
 7655W        W17348   8.896   6.603  14.277
 7656W        W17349   3.154   8.560   3.648
 7657W        W17350   5.550   8.563  13.341
 7658W        W17351   4.571  11.505   3.168
 7659W        W17352   1.240  15.888  10.919
 7660W        W17353  11.789  19.803   4.636
 7661W        W17354   4.093  12.457   0.738
 7662W        W17355   3.167  19.284   2.200
 7663W        W17356   5.076   7.596  12.377
 7664W        W17357   3.631   5.138   1.707
 7665W        W17358   1.204  14.410  13.799
 7666W        W17359   0.725  11.465  12.374
 7667W        W17360   7.942   1.751   2.675
 7668W        W17361   2.177   4.160   1.700
 7669W        W17362   9.384  11.975  13.794
 7670W        W17363   6.986   6.142   0.764
 7671W        W17364   7.458  14.900  10.925
 7672W        W17365  10.328  13.426   1.694
 7673W        W17366   4.576   9.530   0.751
 7674W        W17367   0.254   5.648  14.307
 7675W        W17368  10.840   1.220  11.875
 7676W        W17369   6.003   6.620   4.603
 7677W        W17370  11.314   9.535   1.728
 7678W        W17371   8.896   6.125   2.662
 7679W        W17372   4.595   8.070   3.153
 7680W        W17373   4.121  19.305   2.671
 7681W        W17374   1.213   2.225  13.802
 7682W        W17375   5.527  11.959   4.600
 7683W        W17376   2.642   8.569   1.210
 7684W        W17377   2.656   2.698  10.929
 7685W        W17378   6.991  11.996   1.719
 7686W        W17379   6.011   5.651   1.245
 7687W        W17380   2.165   4.180   1.257
 7688W        W17381   3.609   3.180  13.838
 7689W        W17382   9.850   9.548   1.725
 7690W        W17383   2.180  15.900  13.339
 7691W        W17384   1.213   1.738   2.693
 7692W        W17385   9.387  14.423  10.914
 7693W        W17386   6.517  11.468   2.205
 7694W        W17387   4.604  18.801  12.352
 7695W        W17388  10.832  19.283   0.279
 7696W        W17389   4.583   3.194  11.865
 7697W        W17390   9.398   1.753   1.256
 7698W        W17391   7.941   7.568   4.627
 7699W        W17392   7.939  19.785  13.330
 7700W        W17393   7.951  10.517   0.734
 7701W        W17394   9.871   3.207  13.818
 7702W        W17395   8.418  19.770   0.273
 7703W        W17396   7.933  15.374  13.326
 7704W        W17397   1.727  16.836   0.250
 7705W        W17398   2.667  17.845   3.649
 7706W        W17399   2.671   0.763  10.923
 7707W        W17400   3.131   2.236  13.817
 7708W        W17401   9.857   2.709  13.812
 7709W        W17402   5.532  15.413   0.745
 7710W        W17403   6.991   3.669   0.280
 7711W        W17404  11.783  19.761   3.168
 7712W        W17405  10.816   8.088   1.712
 7713W        W17406   4.080   5.133  14.762
 7714W        W17407   1.683  14.879  13.836
 7715W        W17408  11.793  13.424   3.662
 7716W        W17409   2.654   6.609  13.307
 7717W        W17410  11.800  14.402  11.390
 7718W        W17411   9.861  15.856   1.240
 7719W        W17412   5.562   5.642   1.730
 7720W        W17413   5.549   2.235   4.145
 7721W        W17414   4.122  19.291   3.641
 7722W        W17415   6.517  18.301  12.356
 7723W        W17416   6.974  12.975  12.840
 7724W        W17417   4.585  17.817  13.796
 7725W        W17418   1.699   9.534  14.316
 7726W        W17419   2.198   1.716  14.799
 7727W        W17420   8.410  16.343  13.804
 7728W        W17421   7.940  10.001  14.799
 7729W        W17422   4.085   4.658  12.842
 7730W        W17423  10.348   3.690  12.354
 7731W        W17424   5.525  10.998  13.349
 7732W        W17425   9.867  19.765  10.890
 7733W        W17426   5.076  16.873  11.381
 7734W        W17427   4.561   0.275   1.713
 7735W        W17428   3.128  12.943   0.243
 7736W        W17429   3.163   9.514  12.842
 7737W        W17430   4.586  11.975  13.319
 7738W        W17431   5.065  10.492   3.148
 7739W        W17432   8.406   7.591   2.216
 7740W        W17433   4.110  15.390   0.758
 7741W        W17434   2.179   2.238   0.751
 7742W        W17435   8.926   9.552   4.623
 7743W        W17436   5.064   3.700  11.858
 7744W        W17437   3.128  11.974  12.358
 7745W        W17438   6.043  14.406   2.700
 7746W        W17439   4.101  10.991  12.867
 7747W        W17440   5.549  10.492   3.632
 7748W        W17441   8.428   1.236  12.349
 7749W        W17442   3.124  12.483   1.722
 7750W        W17443   2.642  18.315   1.241
 7751W        W17444   4.600   1.238   3.178
 7752W        W17445   8.881  12.956   2.696
 7753W        W17446   7.938  10.524   4.605
 7754W        W17447   5.526   3.203   1.255
 7755W        W17448   4.593   6.118  10.891
 7756W        W17449   1.222  10.992  13.805
 7757W        W17450   5.077  18.803  13.797
 7758W        W17451   8.437  17.820   0.267
 7759W        W17452   1.244  18.325  13.310
 7760W        W17453   6.033   4.651  10.912
 7761W        W17454   5.073   0.750  14.779
 7762W        W17455   6.497   8.570  14.763
 7763W        W17456   8.917   6.116   0.756
 7764W        W17457   9.403   2.697   0.739
 7765W        W17458  11.803   8.079  13.334
 7766W        W17459   7.472  10.046  13.343
 7767W        W17460   7.446  14.898  11.376
 7768W        W17461  10.816   8.090  12.384
 7769W        W17462   5.545  17.330  10.888
 7770W        W17463   7.008   9.546  11.856
 7771W        W17464  11.313  12.487  13.796
 7772W        W17465   2.195  15.872  12.824
 7773W        W17466   6.992  15.863   2.219
 7774W        W17467   6.505  10.516  10.896
 7775W        W17468   8.898  15.401  13.822
 7776W        W17469   1.698   9.072   0.262
 7777W        W17470   2.649   0.739   4.147
 7778W        W17471   6.994  13.453   0.266
 7779W        W17472  10.807  13.942  14.775
 7780W        W17473  11.808   1.224   4.634
 7781W        W17474   7.474  10.519   1.708
 7782W        W17475   9.880  16.385   0.244
 7783W        W17476   3.126   1.220  12.351
 7784W        W17477   8.896  18.324  12.864
 7785W        W17478   4.125   3.178   4.638
 7786W        W17479   6.487  11.989   3.168
 7787W        W17480   1.240  17.842  10.933
 7788W        W17481   5.070  18.308  13.346
 7789W        W17482   7.470   9.045  14.800
 7790W        W17483   6.012  19.758  13.803
 7791W        W17484   8.904  13.947  14.758
 7792W        W17485  11.324   1.715   2.225
 7793W        W17486   1.222  16.836  12.384
 7794W        W17487   7.464  15.411   2.183
 7795W        W17488   8.912  16.351   3.642
 7796W        W17489   4.575   2.202   2.680
 7797W        W17490   0.262   6.109   1.742
 7798W        W17491   8.430  14.889   3.154
 7799W        W17492   6.489   8.575   1.718
 7800W        W17493   2.660   9.514  12.362
 7801W        W17494  11.315   8.065  12.862
 7802W        W17495   7.927  11.476  12.346
 7803W        W17496   5.536   1.247   0.762
 7804W        W17497   1.723   9.031  14.794
 7805W        W17498   8.417   3.207   0.272
 7806W        W17499  11.785  16.357   2.684
 7807W        W17500  11.802   0.263  11.901
 7808W        W17501   1.708  19.294  11.383
 7809W        W17502   6.996  14.438  11.393
 7810W        W17503   1.221   8.092  13.345
 7811W        W17504   1.685   4.651   3.645
 7812W        W17505   1.702   5.628  12.359
 7813W        W17506   6.983  18.332   1.698
 7814W        W17507   8.888  16.365   4.141
 7815W        W17508   8.445   5.627  12.851
 7816W        W17509   1.232  11.012   3.178
 7817W        W17510  11.805   7.086  14.791
 7818W        W17511   0.736   5.611  11.416
 7819W        W17512   7.935   8.548   2.210
 7820W        W17513  11.314  11.498  13.822
 7821W        W17514   0.279  12.930  11.403
 7822W        W17515   2.184   1.230  12.837
 7823W        W17516  11.770   8.555   3.671
 7824W        W17517   7.473  11.975   4.127
 7825W        W17518   0.760   7.589   0.727
 7826W        W17519   3.613  19.304  12.831
 7827W        W17520   2.661  16.344  10.904
 7828W        W17521   7.483  16.358   0.765
 7829W        W17522  10.815   3.669   3.633
 7830W        W17523   4.109   5.158   3.185
 7831W        W17524   2.678   1.752   3.178
 7832W        W17525   4.581   8.068   2.193
 7833W        W17526   2.204  16.831   0.281
 7834W        W17527  10.343   8.069   1.697
 7835W        W17528  10.819   0.740   3.673
 7836W        W17529   3.142   6.608  13.341
 7837W        W17530  11.781  10.993  12.841
 7838W        W17531   6.971  10.030  13.808
 7839W        W17532   1.246  11.955  14.295
 7840W        W17533   7.929  18.307   3.670
 7841W        W17534   8.894   1.726   0.262
 7842W        W17535   8.905   3.192  11.392
 7843W        W17536   7.460  17.805   4.117
 7844W        W17537   1.227  17.365  12.371
 7845W        W17538   8.432   9.522   4.641
 7846W        W17539  11.776   0.734  12.372
 7847W        W17540   0.737   1.729   4.139
 7848W        W17541  10.800  11.996   3.669
 7849W        W17542   4.114   4.642  11.895
 7850W        W17543   5.544  12.446  14.322
 7851W        W17544   6.493   6.115   2.202
 7852W        W17545   8.920  19.288   2.681
 7853W        W17546   1.206  14.393  13.327
 7854W        W17547   8.418  10.495   4.606
 7855W        W17548   1.223  13.919  13.818
 7856W        W17549   8.406  13.920  12.363
 7857W        W17550   5.532  10.494   4.152
 7858W        W17551   7.486  19.786   3.185
 7859W        W17552   6.515  12.464   2.687
 7860W        W17553   8.880   2.238  14.766
 7861W        W17554   6.016  16.343   2.662
 7862W        W17555   2.650   4.150  10.928
 7863W        W17556  11.768  16.856  13.794
 7864W        W17557   8.921  14.422  12.349
 7865W        W17558   9.887  16.853  12.862
 7866W        W17559  10.829  15.400  14.796
 7867W        W17560   9.872   9.072   3.188
 7868W        W17561   7.955   9.520   4.142
 7869W        W17562   7.951   1.261   0.757
 7870W        W17563   9.406  13.916   3.176
 7871W        W17564   1.727   7.584   3.635
 7872W        W17565  10.360   5.141   0.263
 7873W        W17566   3.121   2.230  13.350
 7874W        W17567  10.816   7.581   0.280
 7875W        W17568  10.843   5.133   2.670
 7876W        W17569   6.012   6.622   0.769
 7877W        W17570   7.471  18.811  13.799
 7878W        W17571   3.631  14.922  12.343
 7879W        W17572   1.202  13.925   1.241
 7880W        W17573   6.010  12.000   2.212
 7881W        W17574   9.388  14.893   4.643
 7882W        W17575   2.206  15.871   3.666
 7883W        W17576   8.894   2.719   0.770
 7884W        W17577   2.665  14.907   0.759
 7885W        W17578   4.585  11.952   2.214
 7886W        W17579  11.800  19.790   1.240
 7887W        W17580   8.896   3.680   2.205
 7888W        W17581   3.611   7.078   2.216
 7889W        W17582   3.632   2.709   0.756
 7890W        W17583   0.748   2.200  14.282
 7891W        W17584   1.711  13.462  14.790
 7892W        W17585   4.601   6.102   0.279
 7893W        W17586   6.040  17.361  14.301
 7894W        W17587  10.814   8.570  13.310
 7895W        W17588   1.725   5.127  11.895
 7896W        W17589   1.718  17.823  14.311
 7897W        W17590   6.031  12.484   0.286
 7898W        W17591   4.576  17.319   3.161
 7899W        W17592   1.717  18.785  12.379
 7900W        W17593   2.183   6.597   4.641
 7901W        W17594   8.430  15.865  11.387
 7902W        W17595   0.244  16.359  11.873
 7903W        W17596   3.625   4.665  11.414
 7904W        W17597   7.462   0.249  12.370
 7905W        W17598   5.057  11.985   0.281
 7906W        W17599   5.073   6.591  10.903
 7907W        W17600   0.258   1.257   0.760
 7908W        W17601   5.050  18.821   4.140
 7909W        W17602   8.911   5.144   2.182
 7910W        W17603   5.067   4.680   4.629
 7911W        W17604  11.800   0.746   1.220
 7912W        W17605   0.249   5.132   2.705
 7913W        W17606   9.877  12.932  12.853
 7914W        W17607   0.748  17.834  13.326
 7915W        W17608   6.011  18.319  12.348
 7916W        W17609   0.723   7.122   3.654
 7917W        W17610   0.243  16.865  13.339
 7918W        W17611   4.596  16.389  14.785
 7919W        W17612   9.408   1.712  12.828
 7920W        W17613   3.618   3.704  13.836
 7921W        W17614   4.098   9.559   1.216
 7922W        W17615  10.821   4.677  12.834
 7923W        W17616  11.799  10.983   3.654
 7924W        W17617   1.685  15.374   2.206
 7925W        W17618   9.878   6.630   1.221
 7926W        W17619   9.874  11.953  10.897
 7927W        W17620   0.276  10.042  14.284
 7928W        W17621   8.443   7.596  13.324
 7929W        W17622   7.464   3.663  12.364
 7930W        W17623   0.250   5.159  11.384
 7931W        W17624   3.646  19.768   2.188
 7932W        W17625   6.040  10.044  12.857
 7933W        W17626   0.242   3.174   3.172
 7934W        W17627   5.041  14.913   2.670
 7935W        W17628   7.470   6.103   2.213
 7936W        W17629   9.878   4.635   2.677
 7937W        W17630  11.801  13.913  10.934
 7938W        W17631   9.878   1.724   2.184
 7939W        W17632   4.605  12.481   1.723
 7940W        W17633   4.097  18.813  11.373
 7941W        W17634   3.604   7.102  12.862
 7942W        W17635   2.205   8.546   3.648
 7943W        W17636  11.283   2.728  11.408
 7944W        W17637  11.306  17.330  14.787
 7945W        W17638   9.880   2.711   3.172
 7946W        W17639   1.684  16.363  13.830
 7947W        W17640   7.932   3.195   1.721
 7948W        W17641   9.846  17.845   4.127
 7949W        W17642   5.555   0.255   0.275
 7950W        W17643   9.361  10.017   0.752
 7951W        W17644   0.749   9.514  14.768
 7952W        W17645   9.879   7.101   1.722
 7953W        W17646  11.315  17.327   2.666
 7954W        W17647   0.273   3.664   4.157
 7955W        W17648   7.950   4.169  13.315
 7956W        W17649   0.274   6.605   3.669
 7957W        W17650   0.288   0.757   2.191
 7958W        W17651   1.698  12.451  14.299
 7959W        W17652   6.046   7.076   4.605
 7960W        W17653   2.172  11.972  12.824
 7961W        W17654   1.695   1.262   0.768
 7962W        W17655   3.613  12.457  12.846
 7963W        W17656   0.746   2.729  10.895
 7964W        W17657  11.772  12.485  12.824
 7965W        W17658  10.841  14.415  11.395
 7966W        W17659   0.760   3.212  13.328
 7967W        W17660  10.838   7.105  12.351
 7968W        W17661  10.847   8.553   2.708
 7969W        W17662   3.629   9.530  13.801
 7970W        W17663   6.513  12.439  14.780
 7971W        W17664   3.159   1.243  11.865
 7972W        W17665   5.064   6.627   2.674
 7973W        W17666   6.018   2.240  13.316
 7974W        W17667   7.455  15.370  13.327
 7975W        W17668   7.967   5.160   0.742
 7976W        W17669   5.059  14.398   1.221
 7977W        W17670   4.600  19.759  11.878
 7978W        W17671   6.026  13.441  13.835
 7979W        W17672   5.069  10.037  11.418
 7980W        W17673   4.097  14.396   4.607
 7981W        W17674   6.483  19.287   0.751
 7982W        W17675   7.483  17.336  14.800
 7983W        W17676   0.723   2.224  13.335
 7984W        W17677   3.604  18.789  13.823
 7985W        W17678   6.001  11.978  14.768
 7986W        W17679   4.588   7.604  14.803
 7987W        W17680   6.989   7.098  10.921
 7988W        W17681   8.405   4.660   0.747
 7989W        W17682   6.482   7.091  14.311
 7990W        W17683   3.156   3.673   4.634
 7991W        W17684   2.189   3.675  12.345
 7992W        W17685   4.600   2.731  11.390
 7993W        W17686   0.747  16.380   0.276
 7994W        W17687  11.799  18.300   2.219
 7995W        W17688   6.503  19.282  14.281
 7996W        W17689   7.465   3.201  14.789
 7997W        W17690  10.334   0.275   2.708
 7998W        W17691   1.214  18.319  11.390
 7999W        W17692  11.767  19.295   2.692
 8000W        W17693   9.370  11.502   0.273
 8001W        W17694   4.586  14.879  11.859
 8002W        W17695   6.485  12.455  11.386
 8003W        W17696   3.163  11.965   0.286
 8004W        W17697  11.290   5.123   3.648
 8005W        W17698   3.643   8.539  11.868
 8006W        W17699   4.116   1.734   1.729
 8007W        W17700   1.714  15.398   4.620
 8008W        W17701   5.535   3.184  14.308
 8009W        W17702   2.688   1.240  12.360
 8010W        W17703  11.309  15.387   3.633
 8011W        W17704   1.241   5.645   1.737
 8012W        W17705   7.928   9.530  13.798
 8013W        W17706   8.447  11.975   1.237
 8014W        W17707   8.902  19.804   3.633
 8015W        W17708   4.560   3.665   4.623
 8016W        W17709   4.119   7.579   0.266
 8017W        W17710   4.088  15.898  14.317
 8018W        W17711   8.893   1.226   1.719
 8019W        W17712  10.818   3.667   2.674
 8020W        W17713   3.134   6.628   0.281
 8021W        W17714   6.042  12.455   1.716
 8022W        W17715   8.927  16.849   4.129
 8023W        W17716   8.405   8.560  12.839
 8024W        W17717   8.889   1.231  12.375
 8025W        W17718   0.267   5.610  13.333
 8026W        W17719  10.816   1.234  14.322
 8027W        W17720  10.322  15.390  14.277
 8028W        W17721   7.479   4.678  11.393
 8029W        W17722  11.312   5.649   2.211
 8030W        W17723   8.921  10.522   2.701
 8031W        W17724  10.352  17.322   0.758
 8032W        W17725   9.864   3.680  13.316
 8033W        W17726   2.170   8.068   0.759
 8034W        W17727   9.846  17.322   2.695
 8035W        W17728  11.787  10.532  11.401
 8036W        W17729  10.835  10.016   2.699
 8037W        W17730   3.166  12.945   4.622
 8038W        W17731   6.023   4.652   2.666
 8039W        W17732   2.662  14.412   3.178
 8040W        W17733   6.980   0.292  13.347
 8041W        W17734   5.538   2.728   3.656
 8042W        W17735   4.575  14.920  11.397
 8043W        W17736   0.728  13.438   1.697
 8044W        W17737   0.720   8.548  13.833
 8045W        W17738   4.095   9.064  14.292
 8046W        W17739   9.386   5.136   1.230
 8047W        W17740   6.518  11.493   0.275
 8048W        W17741   7.921   0.743   1.251
 8049W        W17742   0.285   5.134   4.142
 8050W        W17743   5.059  11.963  14.320
 8051W        W17744   3.163  13.907  10.901
 8052W        W17745   0.275  11.975   4.627
 8053W        W17746  11.321   7.605  10.908
 8054W        W17747   3.638   7.563   0.730
 8055W        W17748   3.607   5.619  13.800
 8056W        W17749  11.768  16.848  10.898
 8057W        W17750  10.363   0.779  14.304
 8058W        W17751   1.224  14.436   3.174
 8059W        W17752  10.804   6.114   2.680
 8060W        W17753  11.802   3.692   0.728
 8061W        W17754   3.162   9.037   1.257
 8062W        W17755   2.204   8.581   0.747
 8063W        W17756   5.553   9.058  14.306
 8064W        W17757   8.885  17.829   3.668
 8065W        W17758   7.475   4.661  10.932
 8066W        W17759   1.236  13.940   4.609
 8067W        W17760   6.506   0.774  14.792
 8068W        W17761   8.909  10.497   4.630
 8069W        W17762   8.890   4.647  14.768
 8070W        W17763   2.672  14.926  12.832
 8071W        W17764  11.303  12.449   4.155
 8072W        W17765   1.700  18.823  14.805
 8073W        W17766   2.163  13.941  10.898
 8074W        W17767   3.150  13.416   4.633
 8075W        W17768  11.785   2.684   3.181
 8076W        W17769  10.805  19.781   0.277
 8077W        W17770   1.215  11.972   0.758
 8078W        W17771  10.342   1.712  12.862
 8079W        W17772   6.982  10.990   3.180
 8080W        W17773   9.853   1.225  13.317
 8081W        W17774   5.085  15.414   2.706
 8082W        W17775   4.604  10.997  14.763
 8083W        W17776   4.112  14.889   1.249
 8084W        W17777   9.856  10.020  14.316
 8085W        W17778   5.047   3.665   0.251
 8086W        W17779   6.004   9.537   0.737
 8087W        W17780  10.821  16.385   1.221
 8088W        W17781   5.557  19.790   4.152
 8089W        W17782   8.403   9.526   0.271
 8090W        W17783   2.166   7.586   3.149
 8091W        W17784   3.166  17.335   1.696
 8092W        W17785   7.006   3.207   0.761
 8093W        W17786   2.682   4.682  11.874
 8094W        W17787   5.521   8.540  14.286
 8095W        W17788   8.915  11.969  12.851
 8096W        W17789   5.059   1.250  13.815
 8097W        W17790   1.682   9.516  13.804
 8098W        W17791   1.690  15.400   0.762
 8099W        W17792   3.149   7.593  13.348
 8100W        W17793   0.733  12.949   3.158
 8101W        W17794   7.444  13.450  12.829
 8102W        W17795   6.509   1.735  11.861
 8103W        W17796   4.106   2.212   2.681
 8104W        W17797   4.093  15.390   4.122
 8105W        W17798   1.725  11.016  10.901
 8106W        W17799   7.005   9.549   3.184
 8107W        W17800   4.087  10.523  11.373
 8108W        W17801   0.763   0.249   3.676
 8109W        W17802  10.823  15.883   2.697
 8110W        W17803   4.584   7.104  11.374
 8111W        W17804   8.405   7.570  12.367
 8112W        W17805   9.361   7.111  13.808
 8113W        W17806   6.520   0.737   2.663
 8114W        W17807   8.443  18.335  10.928
 8115W        W17808   2.662  16.871  11.407
 8116W        W17809   6.017  18.816   1.694
 8117W        W17810   7.453   7.080  13.332
 8118W        W17811   9.391   1.237   1.252
 8119W        W17812   6.984   1.717   1.235
 8120W        W17813  10.825   7.596   3.648
 8121W        W17814   9.876   4.188   2.179
 8122W        W17815   8.419  10.489  11.414
 8123W        W17816   6.962  11.977  10.910
 8124W        W17817   3.648   7.081   4.130
 8125W        W17818  10.806  15.375  13.832
 8126W        W17819   4.087  19.283   3.183
 8127W        W17820   5.078  19.766   4.609
 8128W        W17821   2.660  16.367   4.635
 8129W        W17822   1.692  15.894   0.272
 8130W        W17823   3.130  14.423  12.343
 8131W        W17824   3.615  14.406   0.755
 8132W        W17825   9.368  10.044   2.189
 8133W        W17826   5.084  12.458   3.664
 8134W        W17827   6.996  16.849   2.668
 8135W        W17828   3.121  18.294  14.806
 8136W        W17829   8.404  11.964  12.341
 8137W        W17830   3.123  18.785   0.737
 8138W        W17831   0.736  14.902  12.383
 8139W        W17832   9.371   9.534   1.225
 8140W        W17833  10.347   4.149   1.225
 8141W        W17834   4.108  18.822  13.802
 8142W        W17835  10.814   2.215   1.738
 8143W        W17836  11.281  19.270  14.804
 8144W        W17837   7.478  15.897  12.831
 8145W        W17838   9.366  18.829  12.382
 8146W        W17839  11.309  13.933  14.765
 8147W        W17840   8.899  17.331   0.248
 8148W        W17841   3.137  11.509   1.716
 8149W        W17842   8.911  18.339  11.889
 8150W        W17843   5.082   1.221   3.657
 8151W        W17844   6.517  14.886   2.190
 8152W        W17845   6.030   2.713   0.733
 8153W        W17846  10.809   5.159  11.409
 8154W        W17847   3.614  14.925  10.930
 8155W        W17848  10.343   7.609   2.669
 8156W        W17849   7.483   0.749   0.252
 8157W        W17850   8.904  11.996  12.379
 8158W        W17851   4.109  18.795   2.687
 8159W        W17852   9.841  16.876   3.650
 8160W        W17853  10.356  10.992   2.194
 8161W        W17854   2.182  15.375   2.224
 8162W        W17855   1.695  18.330   1.240
 8163W        W17856   9.853  13.423   2.702
 8164W        W17857   7.959   5.157  11.893
 8165W        W17858  10.823  13.431   2.688
 8166W        W17859   2.675  17.835  14.291
 8167W        W17860   3.620  10.034  13.831
 8168W        W17861   3.157   3.678  10.904
 8169W        W17862   3.134  17.811  11.388
 8170W        W17863   3.122   2.690   3.169
 8171W        W17864   5.053  10.988  13.834
 8172W        W17865   1.241  15.870  12.840
 8173W        W17866   3.145   0.253   1.253
 8174W        W17867   9.851   5.620  12.837
 8175W        W17868  11.763  19.283   0.264
 8176W        W17869   0.728   9.026  12.830
 8177W        W17870   7.955  12.457   4.154
 8178W        W17871   4.597   4.637  12.840
 8179W        W17872   9.395  18.807   2.701
 8180W        W17873   6.038   9.537  13.338
 8181W        W17874   0.252   7.596   0.269
 8182W        W17875   9.406   6.622   3.151
 8183W        W17876  11.303   2.687   1.720
 8184W        W17877   8.896   3.187   0.270
 8185W        W17878   8.431  19.300   1.697
 8186W        W17879   6.044  16.877  12.365
 8187W        W17880   4.576  15.384   3.648
 8188W        W17881   1.715  11.479   4.149
 8189W        W17882   1.716  17.366  14.282
 8190W        W17883   5.536   4.180   3.179
 8191W        W17884   8.410   2.219  13.333
 8192W        W17885   9.366   0.757  14.767
 8193W        W17886   0.727  19.296   0.263
 8194W        W17887   4.103  16.343   1.234
 8195W        W17888   4.605  13.909   1.246
 8196W        W17889  10.323   1.717  11.385
 8197W        W17890   1.211  10.035  11.399
 8198W        W17891   6.009  18.819  11.895
 8199W        W17892   2.168  19.277  12.375
 8200W        W17893   1.226   6.124  13.323
 8201W        W17894   0.749  16.357   3.677
 8202W        W17895  10.338   5.140  13.308
 8203W        W17896   8.433   3.218   1.721
 8204W        W17897  10.364   2.730  11.400
 8205W        W17898   7.942  13.452   4.150
 8206W        W17899   6.987   7.570   1.219
 8207W        W17900   7.486   8.081   4.137
 8208W        W17901   4.091  18.295   0.736
 8209W        W17902   8.894  18.811   2.223
 8210W        W17903   9.402  10.048   4.605
 8211W        W17904  10.357  10.507   4.627
 8212W        W17905  10.845  19.312   1.210
 8213W        W17906   7.480   1.739   0.246
 8214W        W17907  10.846  17.347   2.663
 8215W        W17908   9.887   6.616  11.383
 8216W        W17909   5.043   0.743   3.187
 8217W        W17910   3.164   3.182   0.283
 8218W        W17911  10.322   0.283  12.359
 8219W        W17912   2.192  15.888   1.720
 8220W        W17913   8.890   1.224  10.902
 8221W        W17914   6.010  12.467   3.163
 8222W        W17915   3.620  13.937  12.345
 8223W        W17916   7.954  14.884   3.670
 8224W        W17917   0.750  17.358   3.180
 8225W        W17918   3.131   5.137   1.230
 8226W        W17919   5.558  19.271  11.411
 8227W        W17920   1.217  14.916  12.869
 8228W        W17921   3.610   5.619  11.383
 8229W        W17922   8.443  17.334  14.284
 8230W        W17923  11.300  14.919  11.384
 8231W        W17924   9.858  16.848   1.215
 8232W        W17925   7.947   9.555  12.842
 8233W        W17926   7.921   4.178  11.412
 8234W        W17927   8.421   2.209   4.132
 8235W        W17928  10.835   1.735   3.177
 8236W        W17929   6.004  14.419  11.386
 8237W        W17930   5.076  19.797   4.128
 8238W        W17931   2.652  18.786   2.682
 8239W        W17932   1.222   4.647  12.866
 8240W        W17933   4.105  11.991   3.669
 8241W        W17934   5.077   6.593   1.256
 8242W        W17935   1.703  19.277   2.683
 8243W        W17936  11.793  16.863   4.120
 8244W        W17937   9.373  14.903  11.375
 8245W        W17938   3.615   9.526  14.782
 8246W        W17939   5.529   1.729   4.140
 8247W        W17940   7.920  18.307   2.192
 8248W        W17941  11.326   2.224  12.381
 8249W        W17942   8.431   2.214   1.231
 8250W        W17943   3.154   3.191  13.800
 8251W        W17944   0.767  10.522  13.344
 8252W        W17945   5.088  11.977  10.898
 8253W        W17946   5.547   9.053   1.236
 8254W        W17947  11.313   6.620   2.708
 8255W        W17948  10.341   6.099   0.766
 8256W        W17949   8.426   8.579   1.740
 8257W        W17950   5.553  19.775  11.380
 8258W        W17951   7.957   0.780  11.395
 8259W        W17952   3.632  16.342  14.297
 8260W        W17953   5.071   8.551   0.774
 8261W        W17954   9.401   7.105  14.309
 8262W        W17955   5.546   6.617   3.173
 8263W        W17956   9.395   5.625   0.250
 8264W        W17957   9.876   4.664   4.117
 8265W        W17958   0.748  14.436  11.385
 8266W        W17959   5.548   3.213  12.341
 8267W        W17960   2.160   6.600  13.325
 8268W        W17961  11.308   9.538   2.205
 8269W        W17962   6.487   0.757   1.728
 8270W        W17963  11.325  10.522  11.858
 8271W        W17964   5.560  10.029  14.764
 8272W        W17965   0.260  11.974  13.822
 8273W        W17966   9.856  15.875   3.159
 8274W        W17967  10.340  17.815   3.171
 8275W        W17968   8.428  12.450  11.900
 8276W        W17969   1.709  16.346   2.200
 8277W        W17970   2.200   6.626   3.637
 8278W        W17971   2.163   9.043   3.665
 8279W        W17972   6.520  10.036   1.702
 8280W        W17973   6.982   8.545   0.733
 8281W        W17974   3.613  13.424  12.347
 8282W        W17975  11.295  13.444  12.358
 8283W        W17976   7.938  10.020  12.840
 8284W        W17977  10.342   8.561   2.181
 8285W        W17978   3.121  19.768  11.900
 8286W        W17979   5.086   1.712  14.298
 8287W        W17980   2.179   4.668   4.607
 8288W        W17981   4.084  13.443  13.836
 8289W        W17982   0.758   1.266  13.816
 8290W        W17983  11.288  19.786   0.751
 8291W        W17984   4.584   2.721   4.642
 8292W        W17985   8.406  11.010  12.833
 8293W        W17986   1.722   3.690  10.893
 8294W        W17987   1.205  10.504  12.852
 8295W        W17988   4.108  11.984   1.724
 8296W        W17989  10.800  19.272  13.833
 8297W        W17990   2.675   9.534  14.309
 8298W        W17991   4.103   3.181   1.738
 8299W        W17992   0.244   3.216  11.861
 8300W        W17993  11.281   3.692  12.353
 8301W        W17994   6.513  18.802  11.888
 8302W        W17995   4.566   9.039  11.410
 8303W        W17996  10.334   9.539   3.154
 8304W        W17997   6.497   4.173  13.333
 8305W        W17998   5.559  10.502  14.318
 8306W        W17999   8.411  18.799   3.635
 8307W        W18000   9.402   7.574  14.318
 8308W        W18001   0.247  14.916   2.692
 8309W        W18002   1.228   9.062   0.759
 8310W        W18003   9.846  12.947  11.413
 8311W        W18004   0.754   2.199   2.192
 8312W        W18005   7.481   3.664   2.206
 8313W        W18006   2.678   8.080  13.335
 8314W        W18007   9.375   8.067   4.122
 8315W        W18008   5.557   6.619   0.271
 8316W        W18009   3.158  18.814   3.645
 8317W        W18010   0.272   4.672  11.391
 8318W        W18011  10.842   6.595   1.248
 8319W        W18012   2.679  11.999   1.725
 8320W        W18013   3.638   0.768   1.721
 8321W        W18014   0.249  19.302  12.350
 8322W        W18015   8.899   1.221  14.764
 8323W        W18016   3.153   8.092  11.888
 8324W        W18017   0.262  10.531  11.903
 8325W        W18018   5.538  19.297  12.341
 8326W        W18019   4.127   2.690   0.281
 8327W        W18020   5.082   2.729  13.351
 8328W        W18021   8.406   5.643  12.387
 8329W        W18022   6.483  17.329   3.151
 8330W        W18023   6.484   7.574  13.792
 8331W        W18024   3.125  15.412  13.800
 8332W        W18025   0.255  13.944  12.841
 8333W        W18026   9.884   0.763  13.346
 8334W        W18027   7.928  13.920   4.636
 8335W        W18028   1.692  12.477  11.885
 8336W        W18029   9.868  17.853  12.385
 8337W        W18030   9.858   8.065  14.767
 8338W        W18031   0.252   8.065   0.765
 8339W        W18032   2.170  17.828  13.323
 8340W        W18033  11.307  11.996  11.374
 8341W        W18034   2.663  12.944   0.753
 8342W        W18035   0.285   2.719  12.861
 8343W        W18036   4.569   2.714  14.284
 8344W        W18037   5.528  16.380  14.776
 8345W        W18038   7.959  11.494   3.631
 8346W        W18039   9.842  10.983   0.252
 8347W        W18040   0.240   3.689  14.281
 8348W        W18041   5.530   7.568   0.259
 8349W        W18042  11.299  18.814   4.599
 8350W        W18043  11.304  18.804  10.890
 8351W        W18044   6.493   6.630   4.141
 8352W        W18045  10.812  11.974   1.219
 8353W        W18046   1.225  18.797   3.662
 8354W        W18047   1.233   5.647   3.659
 8355W        W18048   8.882  14.897   0.255
 8356W        W18049   8.429  11.474  11.407
 8357W        W18050   7.950   2.689  11.863
 8358W        W18051   0.283  19.288   4.630
 8359W        W18052   1.700  14.420   4.148
 8360W        W18053   8.921  15.861  11.869
 8361W        W18054   7.008  12.945   2.693
 8362W        W18055   0.246   5.154   3.175
 8363W        W18056   3.610  11.024   4.627
 8364W        W18057   7.470  11.499  13.801
 8365W        W18058   7.456  13.928   1.739
 8366W        W18059   8.926  10.989   1.213
 8367W        W18060   0.734   6.607   3.148
 8368W        W18061  10.363  13.446  11.386
 8369W        W18062   5.529   0.761   0.752
 8370W        W18063   1.246  13.905  10.908
 8371W        W18064   7.965  10.499  10.920
 8372W        W18065   1.224   2.730   1.696
 8373W        W18066   9.404   6.103  12.828
 8374W        W18067   6.495  16.369   3.149
 8375W        W18068   8.888   9.553  13.335
 8376W        W18069   9.360   4.680  11.403
 8377W        W18070   6.497   9.546  13.831
 8378W        W18071   8.415  18.293   2.217
 8379W        W18072   6.489   2.204   2.670
 8380W        W18073   0.728   2.709   3.149
 8381W        W18074   2.648   9.514   0.285
 8382W        W18075   7.485   2.226  12.359
 8383W        W18076   7.951   9.072  13.810
 8384W        W18077  10.818   2.688  11.414
 8385W        W18078   9.845   8.555  10.910
 8386W        W18079   8.905   5.157   2.701
 8387W        W18080  10.822   8.552   3.663
 8388W        W18081   3.130  15.402   1.696
 8389W        W18082   5.042  15.888   1.729
 8390W        W18083   2.176  14.416   0.283
 8391W        W18084   3.153  18.816   2.680
 8392W        W18085   6.496   2.710   2.671
 8393W        W18086  11.781  17.815  10.903
 8394W        W18087   7.964   4.635   0.277
 8395W        W18088  11.763   9.056   1.213
 8396W        W18089  10.835   8.061   2.221
 8397W        W18090   5.544   4.660   0.756
 8398W        W18091   3.142  12.941  10.898
 8399W        W18092   5.051   1.242   0.290
 8400W        W18093   2.683   8.052   5.085
 8401W        W18094   7.003   4.192   3.657
 8402W        W18095   2.673   8.544  11.410
 8403W        W18096  11.309   4.188  12.825
 8404W        W18097   7.448  16.876   3.637
 8405W        W18098   8.891  19.764   1.230
 8406W        W18099   0.264  11.012  10.926
 8407W        W18100   3.144  13.935  12.364
 8408W        W18101   4.124   8.068   1.721
 8409W        W18102  10.351  14.907  11.865
 8410W        W18103  10.363  15.402  12.367
 8411W        W18104   7.474   3.697  11.860
 8412W        W18105   5.562  11.495   1.710
 8413W        W18106   8.926   6.129   3.633
 8414W        W18107   3.154  13.422   3.183
 8415W        W18108   6.044  10.027   4.122
 8416W        W18109   4.601   3.695   2.211
 8417W        W18110   8.914   5.134   3.193
 8418W        W18111   5.055   0.268   4.139
 8419W        W18112   6.510   7.564   1.252
 8420W        W18113  10.826  13.904   2.699
 8421W        W18114  10.338   1.718   3.150
 8422W        W18115   4.115  10.030   4.115
 8423W        W18116   7.477   9.039  11.858
 8424W        W18117  11.293  15.383  11.385
 8425W        W18118  10.341   7.576  12.385
 8426W        W18119   3.126  10.495  10.900
 8427W        W18120   3.150   6.609  11.373
 8428W        W18121   8.909  13.443  11.884
 8429W        W18122   9.376   7.103  13.328
 8430W        W18123   0.762   3.215   3.192
 8431W        W18124   3.159   2.232  12.835
 8432W        W18125   7.936   0.747  13.831
 8433W        W18126   2.202  16.370   3.640
 8434W        W18127   0.766   6.100  13.354
 8435W        W18128   6.969  19.794  10.890
 8436W        W18129   9.391   3.195  13.349
 8437W        W18130   0.759  17.332  13.834
 8438W        W18131   7.453  10.522   3.643
 8439W        W18132   7.925  19.313   1.243
 8440W        W18133   8.418  12.934  10.927
 8441W        W18134   3.619   9.045  11.393
 8442W        W18135   8.913  19.277   1.234
 8443W        W18136   6.982   7.114  12.856
 8444W        W18137   2.659  16.830   3.644
 8445W        W18138   3.608   9.558  12.358
 8446W        W18139  10.817  10.525  11.871
 8447W        W18140   8.880   8.546   0.731
 8448W        W18141   5.071  16.345   3.635
 8449W        W18142   8.890   6.587   4.160
 8450W        W18143   4.586   5.134   2.196
 8451W        W18144   4.092   3.183  12.834
 8452W        W18145   7.925   6.144  13.793
 8453W        W18146   2.200   9.067   4.604
 8454W        W18147   6.483  14.902  13.319
 8455W        W18148   5.525   6.122  10.895
 8456W        W18149   9.888   1.727   1.730
 8457W        W18150   3.126  10.034  11.376
 8458W        W18151   8.405   7.088   0.290
 8459W        W18152  10.815   7.079  11.874
 8460W        W18153   5.066  11.505  11.867
 8461W        W18154  11.769  12.930  10.906
 8462W        W18155  11.799   4.640  14.762
 8463W        W18156   6.043   8.551   3.634
 8464W        W18157   7.936   2.235  14.771
 8465W        W18158  10.352   4.147  12.859
 8466W        W18159   7.962   9.038   4.151
 8467W        W18160   1.692  18.816  10.909
 8468W        W18161   8.904   4.155   3.637
 8469W        W18162  10.330   4.648   2.179
 8470W        W18163   6.984  19.759  13.326
 8471W        W18164   9.364  19.789   4.621
 8472W        W18165   4.127   1.721   0.743
 8473W        W18166   2.183   5.165   2.691
 8474W        W18167   2.191  11.023   2.219
 8475W        W18168   7.486   5.129  11.396
 8476W        W18169   1.720  17.359  12.850
 8477W        W18170   5.051   1.749   4.599
 8478W        W18171   2.207  17.835   1.723
 8479W        W18172   4.579   6.605  11.868
 8480W        W18173   0.254  12.966  10.924
 8481W        W18174   4.577  12.935  13.818
 8482W        W18175   9.877  11.957  11.401
 8483W        W18176   8.891  17.341   1.241
 8484W        W18177   2.176  10.527  13.798
 8485W        W18178   9.874   9.548   2.202
 8486W        W18179  11.284   9.028  12.836
 8487W        W18180   4.576   8.561  12.842
 8488W        W18181   2.661  17.847   4.160
 8489W        W18182  11.284  11.468  12.831
 8490W        W18183   7.474   5.631   1.252
 8491W        W18184   3.625  11.001  14.285
 8492W        W18185  10.845   5.161   0.745
 8493W        W18186  11.284   8.077  13.335
 8494W        W18187   6.022  11.952   0.751
 8495W        W18188  10.811  16.368  11.403
 8496W        W18189  10.324   3.679  14.771
 8497W        W18190   6.513  14.913   4.625
 8498W        W18191   9.880   1.720  12.859
 8499W        W18192   1.724  15.887   3.650
 8500W        W18193   3.140   2.238   1.729
 8501W        W18194   2.647  15.408  13.823
 8502W        W18195  11.324   7.586   0.272
 8503W        W18196   0.252   7.563   2.210
 8504W        W18197   7.000   6.588   2.188
 8505W        W18198  10.329   0.291   3.634
 8506W        W18199  11.323  16.856  14.281
 8507W        W18200   9.386  16.355  13.822
 8508W        W18201   5.565   6.130   4.609
 8509W        W18202   7.926   5.123  11.411
 8510W        W18203  10.351  11.990  13.795
 8511W        W18204  10.347   5.647  12.828
 8512W        W18205   8.900  18.792  11.856
 8513W        W18206   0.282   7.121   0.286
 8514W        W18207   4.117  15.387   1.250
 8515W        W18208   1.684   7.077  13.838
 8516W        W18209   3.634   2.701  11.859
 8517W        W18210   5.084  10.017   3.161
 8518W        W18211   9.865   9.558  12.345
 8519W        W18212   6.968   0.756  12.375
 8520W        W18213   7.936  11.510  13.351
 8521W        W18214   9.884  17.358   4.147
 8522W        W18215   5.087   0.770   2.667
 8523W        W18216   9.402   4.677   2.699
 8524W        W18217  10.824   4.673  12.377
 8525W        W18218   6.047  14.898  13.808
 8526W        W18219   9.845   8.545  12.836
 8527W        W18220  11.308   6.129  11.371
 8528W        W18221   7.476  13.938   1.244
 8529W        W18222  10.843   4.157   3.169
 8530W        W18223   2.649   0.292   4.607
 8531W        W18224   6.030  13.951  14.777
 8532W        W18225  10.800  12.936  14.795
 8533W        W18226  10.353   6.133   3.154
 8534W        W18227   4.101   7.599  11.389
 8535W        W18228   3.132  19.314   0.280
 8536W        W18229   2.190   8.538  12.361
 8537W        W18230   3.639   5.639   4.159
 8538W        W18231   6.036   3.214   0.272
 8539W        W18232   9.885  16.832  11.380
 8540W        W18233   6.995   2.689   3.655
 8541W        W18234   1.723  11.508  12.835
 8542W        W18235   0.255  12.463   3.649
 8543W        W18236   5.533   0.751   4.631
 8544W        W18237   5.042  12.944  13.795
 8545W        W18238  10.802  14.901   0.750
 8546W        W18239   4.565   2.684  13.338
 8547W        W18240   2.180  12.967  10.923
 8548W        W18241   0.723   7.081   4.139
 8549W        W18242   8.420  17.843  10.893
 8550W        W18243   2.686   4.653  12.373
 8551W        W18244   6.512  16.865  11.375
 8552W        W18245   8.882  15.894   1.696
 8553W        W18246   8.415   3.206   2.699
 8554W        W18247   1.700   0.753  13.792
 8555W        W18248   9.850   7.562  10.897
 8556W        W18249   1.685  10.006  11.416
 8557W        W18250   5.087   6.606  13.345
 8558W        W18251   2.179   9.516   0.261
 8559W        W18252   1.230   4.166   2.699
 8560W        W18253  11.796   0.766   4.146
 8561W        W18254   2.169   0.288   4.629
 8562W        W18255   2.648  19.781   1.242
 8563W        W18256   6.038   2.695  12.853
 8564W        W18257   9.867   5.143   4.118
 8565W        W18258   1.237   2.233   2.708
 8566W        W18259   2.168  12.975   2.200
 8567W        W18260   2.181  16.367   0.256
 8568W        W18261   2.195   7.584   1.699
 8569W        W18262   0.262   9.534  11.891
 8570W        W18263  11.800  18.304  13.324
 8571W        W18264   8.905   5.616   2.200
 8572W        W18265   0.244   4.187   3.659
 8573W        W18266   8.433  17.361   3.148
 8574W        W18267   6.989   0.754  12.864
 8575W        W18268   5.083   1.239  14.320
 8576W        W18269  10.830   7.077   3.155
 8577W        W18270   1.722  16.348  12.385
 8578W        W18271   4.571  14.437   2.702
 8579W        W18272  11.322  11.489   0.728
 8580W        W18273   1.728  17.841  11.880
 8581W        W18274   6.511  17.844   0.252
 8582W        W18275  10.808   7.599   2.677
 8583W        W18276   7.455  16.865  12.360
 8584W        W18277   6.485  10.040   4.137
 8585W        W18278   6.979  10.027   3.660
 8586W        W18279   7.448   8.575  13.340
 8587W        W18280   6.001   4.193  12.844
 8588W        W18281   7.960   3.661   0.742
 8589W        W18282   1.221  18.820  14.286
 8590W        W18283   2.679   2.220  14.299
 8591W        W18284   6.971   5.146   1.706
 8592W        W18285   4.588   9.052   2.703
 8593W        W18286  10.323   2.221  12.856
 8594W        W18287   4.568   3.198  14.312
 8595W        W18288  10.324   5.657  13.813
 8596W        W18289  10.812   1.233   1.230
 8597W        W18290  10.362   0.756  13.331
 8598W        W18291   7.922   8.085  13.820
 8599W        W18292   6.490   4.178  11.418
 8600W        W18293   4.097   9.527  13.332
 8601W        W18294   8.893  17.843   1.740
 8602W        W18295   4.573   1.738  10.921
 8603W        W18296   8.408  10.511   0.259
 8604W        W18297  10.808   6.129  11.391
 8605W        W18298   0.253  11.018  11.411
 8606W        W18299   3.127  19.791   2.671
 8607W        W18300   1.710   1.251   1.694
 8608W        W18301  10.819  12.943  12.837
 8609W        W18302   4.109   2.727   4.632
 8610W        W18303   9.368  14.419   1.735
 8611W        W18304   6.510  18.339   2.187
 8612W        W18305   3.639  17.324   2.196
 8613W        W18306   0.248  11.020  12.374
 8614W        W18307  11.770   8.054   4.152
 8615W        W18308   1.210   3.210   4.156
 8616W        W18309   7.479   7.572  13.814
 8617W        W18310  10.823   0.764   1.246
 8618W        W18311  11.772  13.920   0.251
 8619W        W18312   9.393   6.102  14.305
 8620W        W18313   9.377   7.100  11.857
 8621W        W18314   0.736  10.493   2.206
 8622W        W18315   7.470  14.428  13.803
 8623W        W18316   9.384  16.864   1.741
 8624W        W18317   2.664   0.749   2.696
 8625W        W18318   4.598  18.337   4.127
 8626W        W18319   6.014   1.752   1.219
 8627W        W18320   0.723  15.896   2.694
 8628W        W18321   4.606   4.651   3.636
 8629W        W18322   7.004   4.634   2.186
 8630W        W18323   2.161  16.383  14.768
 8631W        W18324   2.204  16.380   0.731
 8632W        W18325   5.535  15.404   3.146
 8633W        W18326  11.804  12.974   1.709
 8634W        W18327   7.481   2.714  10.897
 8635W        W18328  10.358   6.634   1.734
 8636W        W18329   0.273   5.143  12.867
 8637W        W18330   1.688  17.324  12.362
 8638W        W18331   3.611  17.364  13.821
 8639W        W18332   6.961  17.807   2.205
 8640W        W18333   5.061   5.644   3.637
 8641W        W18334  10.366   5.159   3.180
 8642W        W18335   5.069   6.631   3.170
 8643W        W18336   9.886  11.983  13.332
 8644W        W18337   6.508  10.017  11.892
 8645W        W18338  11.794  11.960   0.729
 8646W        W18339   4.111  10.043   1.258
 8647W        W18340   5.052  10.030  13.806
 8648W        W18341  11.795   2.694   0.282
 8649W        W18342   5.564  16.838   2.190
 8650W        W18343   1.225  12.949   2.213
 8651W        W18344   9.391  11.955   0.279
 8652W        W18345   1.246  13.936   2.222
 8653W        W18346   3.637  18.332   4.117
 8654W        W18347  11.327  10.490   4.602
 8655W        W18348   7.473  19.788  10.925
 8656W        W18349   2.177   6.126  14.758
 8657W        W18350   0.750   4.651  13.341
 8658W        W18351   1.247  12.935  14.293
 8659W        W18352   6.048   5.143   4.610
 8660W        W18353  10.816   1.242   4.640
 8661W        W18354   9.855  17.352  11.892
 8662W        W18355   1.710  19.799   3.633
 8663W        W18356   8.911  10.027   5.114
 8664W        W18357   5.072   0.747  13.315
 8665W        W18358   7.478  10.036   1.235
 8666W        W18359   6.038   3.690  12.368
 8667W        W18360   5.564   7.117  13.820
 8668W        W18361   3.141   5.160   0.258
 8669W        W18362   5.055  14.911  10.888
 8670W        W18363   0.747  11.473  13.349
 8671W        W18364   3.124   8.051   5.098
 8672W        W18365   4.123  17.350   0.263
 8673W        W18366  11.318   9.530  14.288
 8674W        W18367   8.405  10.031  13.325
 8675W        W18368   9.854  11.958   2.198
 8676W        W18369   7.449   9.555   1.250
 8677W        W18370   3.641  13.429  14.775
 8678W        W18371   6.009   6.598  11.381
 8679W        W18372   6.033   1.226  14.298
 8680W        W18373   4.094   9.068   1.211
 8681W        W18374  10.807  18.816  11.874
 8682W        W18375   6.482   8.547   0.742
 8683W        W18376   1.234   8.089   1.702
 8684W        W18377   6.040   3.216  14.763
 8685W        W18378   1.217  13.418  11.408
 8686W        W18379   4.080  12.932   0.278
 8687W        W18380   7.954  12.949  14.793
 8688W        W18381   2.169   0.257  12.362
 8689W        W18382   2.653  19.788   3.180
 8690W        W18383   6.000   5.122   1.719
 8691W        W18384  10.840   6.619  10.905
 8692W        W18385   3.157  16.378  13.824
 8693W        W18386   2.663   8.070  12.838
 8694W        W18387   4.570   9.060   1.229
 8695W        W18388   2.176  13.418  13.336
 8696W        W18389   2.162   5.611   3.666
 8697W        W18390   2.169   5.648   2.677
 8698W        W18391   7.961  14.920  10.898
 8699W        W18392  11.285  13.940  11.373
 8700W        W18393   7.943  17.323   0.755
 8701W        W18394  10.366   8.065  12.832
 8702W        W18395   7.452  18.331  13.797
 8703W        W18396   4.104   8.564   3.157
 8704W        W18397   2.669   0.734  14.304
 8705W        W18398   2.194   5.648   0.737
 8706W        W18399   1.712  14.903   2.686
 8707W        W18400   3.150  11.499  11.899
 8708W        W18401   7.480   4.183   1.729
 8709W        W18402  10.330   7.574   4.121
 8710W        W18403   1.700  11.961  14.791
 8711W        W18404   2.652  13.436  11.883
 8712W        W18405   8.926   5.646   4.116
 8713W        W18406   8.430   4.682  11.402
 8714W        W18407   5.541   3.204   1.724
 8715W        W18408   0.725  15.854  12.845
 8716W        W18409   8.437  11.013  10.927
 8717W        W18410  11.801  17.829  13.814
 8718W        W18411  11.771   5.625  11.416
 8719W        W18412   1.206   0.732   1.695
 8720W        W18413  10.821   8.074  13.831
 8721W        W18414  10.812   9.038   4.113
 8722W        W18415   4.088  12.469  12.354
 8723W        W18416  10.826   7.089   1.718
 8724W        W18417   6.994  17.351   2.680
 8725W        W18418   2.683   7.085   4.146
 8726W        W18419   6.003  18.790  13.351
 8727W        W18420  10.845  18.340   0.270
 8728W        W18421   4.102   6.112   4.602
 8729W        W18422   4.109   0.745   0.733
 8730W        W18423   4.571  16.858   2.693
 8731W        W18424   4.106   7.081   0.247
 8732W        W18425   8.432   0.284  14.796
 8733W        W18426   1.218  14.397  11.382
 8734W        W18427   2.206  13.449  11.867
 8735W        W18428   0.761  12.446   1.256
 8736W        W18429   5.527   4.681  13.345
 8737W        W18430   0.269   8.549   1.212
 8738W        W18431   3.617   6.146   1.237
 8739W        W18432   9.840  14.422   2.694
 8740W        W18433   4.099  17.823  11.407
 8741W        W18434   8.913  15.400   1.244
 8742W        W18435   9.887  10.531   3.638
 8743W        W18436   0.283   2.719  12.374
 8744W        W18437   6.492   3.179  12.372
 8745W        W18438  10.830  14.923   4.638
 8746W        W18439   6.513  10.026  14.764
 8747W        W18440  11.776   3.677   4.152
 8748W        W18441   0.241  12.476  13.343
 8749W        W18442   6.010  18.791  12.858
 8750W        W18443   8.423   4.669  12.383
 8751W        W18444   6.527   3.695  12.340
 8752W        W18445   9.848   9.543  13.307
 8753W        W18446  11.324   7.083   3.175
 8754W        W18447   4.602   1.236   2.210
 8755W        W18448   1.716  18.308   0.738
 8756W        W18449  11.311  11.981  10.918
 8757W        W18450   0.250  14.926  12.363
 8758W        W18451   7.939  10.007   3.147
 8759W        W18452   4.095   7.570  10.909
 8760W        W18453   4.096  17.820   0.745
 8761W        W18454   6.524   9.049  13.354
 8762W        W18455   3.618   2.732  14.307
 8763W        W18456   6.007   5.139  10.923
 8764W        W18457   0.735   2.731  12.830
 8765W        W18458   6.005  10.997   1.249
 8766W        W18459   8.899   9.535  13.828
 8767W        W18460   5.068   0.271  11.891
 8768W        W18461   5.055  14.909  14.780
 8769W        W18462  10.323   4.174  10.911
 8770W        W18463   6.045   1.711   3.672
 8771W        W18464   7.956  10.018   4.152
 8772W        W18465   9.362   2.697  12.379
 8773W        W18466   9.884  13.903  12.359
 8774W        W18467  10.341  11.985  14.306
 8775W        W18468   6.010  11.473   3.642
 8776W        W18469   1.719  18.801   1.227
 8777W        W18470   5.047  13.949  11.892
 8778W        W18471   6.027  19.287  12.834
 8779W        W18472   7.484   1.225  13.347
 8780W        W18473   0.763   4.653   2.213
 8781W        W18474   6.039  16.851   0.280
 8782W        W18475  11.282   7.077  11.388
 8783W        W18476   6.999   8.093  12.855
 8784W        W18477   8.889  11.952  11.399
 8785W        W18478   5.563  18.320  12.346
 8786W        W18479   1.204   6.620  13.835
 8787W        W18480   0.268  15.384   3.170
 8788W        W18481   7.457   7.576   4.116
 8789W        W18482   8.887   8.058  12.861
 8790W        W18483   1.684   5.126  13.819
 8791W        W18484   9.395   8.078   4.629
 8792W        W18485  10.840   4.672   3.656
 8793W        W18486   4.094   9.535   4.601
 8794W        W18487   2.174  19.276   2.692
 8795W        W18488   7.002  14.913  13.794
 8796W        W18489   7.478  12.444   2.699
 8797W        W18490  10.841  12.440   4.609
 8798W        W18491  10.327   2.214   0.272
 8799W        W18492   8.923   8.064  11.881
 8800W        W18493   1.237   2.229   4.160
 8801W        W18494  11.316  11.496  14.797
 8802W        W18495  11.312  14.923   1.701
 8803W        W18496   7.007  19.288   3.167
 8804W        W18497   6.972   0.741   2.225
 8805W        W18498   0.274  14.429  10.890
 8806W        W18499   1.241  12.457  14.286
 8807W        W18500   0.285   8.545   4.116
 8808W        W18501   6.976   7.580  14.791
 8809W        W18502   7.457  18.325   0.254
 8810W        W18503   6.521   9.067   2.682
 8811W        W18504   7.949   4.151   3.652
 8812W        W18505   4.083  14.425   0.254
 8813W        W18506   6.526  10.987  12.852
 8814W        W18507   2.661  15.863   3.167
 8815W        W18508   6.028   7.609  12.857
 8816W        W18509   1.681  19.284   3.153
 8817W        W18510  10.356   0.747   3.154
 8818W        W18511   0.748  14.923   3.166
 8819W        W18512   6.008   2.212   0.759
 8820W        W18513   1.232   5.141   0.269
 8821W        W18514   8.440   5.633  13.795
 8822W        W18515   7.946  17.326   4.145
 8823W        W18516   5.082  19.763  13.814
 8824W        W18517   8.421   7.100   0.773
 8825W        W18518   6.991   3.202  11.386
 8826W        W18519   0.246  11.019   2.209
 8827W        W18520   0.260  13.438  14.293
 8828W        W18521   5.074  15.875   0.248
 8829W        W18522  10.811   5.651  14.765
 8830W        W18523  10.357   3.668   0.255
 8831W        W18524   4.567  13.430   3.190
 8832W        W18525   8.881   0.284  13.836
 8833W        W18526  11.324   1.222   0.754
 8834W        W18527  10.821   5.655  11.391
 8835W        W18528   7.921   5.631  13.821
 8836W        W18529   7.465  15.857   3.669
 8837W        W18530   7.958  18.781  13.799
 8838W        W18531   0.241  19.269  14.770
 8839W        W18532   7.468   2.693   0.284
 8840W        W18533   8.917   9.025  14.800
 8841W        W18534   5.061  11.981  12.868
 8842W        W18535   1.212   5.158  13.344
 8843W        W18536   8.915   0.255   4.643
 8844W        W18537   7.007  10.008  14.791
 8845W        W18538   7.449   7.074   4.133
 8846W        W18539   1.206  12.463   4.625
 8847W        W18540  10.813   6.620   2.709
 8848W        W18541   3.154  18.338  12.855
 8849W        W18542  11.291  13.431   1.739
 8850W        W18543   4.589  17.831  11.379
 8851W        W18544   7.937  12.481  12.830
 8852W        W18545   5.541  16.848   1.699
 8853W        W18546   3.613  10.021  12.345
 8854W        W18547   4.578   7.583  13.837
 8855W        W18548   8.435   0.254   0.747
 8856W        W18549   4.560  11.016   4.622
 8857W        W18550   1.708   1.235   1.212
 8858W        W18551   2.200  10.496  14.317
 8859W        W18552   7.457  18.320  14.301
 8860W        W18553   6.526  14.913   2.672
 8861W        W18554   3.640   8.063  10.916
 8862W        W18555   1.231   5.127   1.706
 8863W        W18556   6.516  17.847  13.313
 8864W        W18557  11.284   9.532  11.902
 8865W        W18558   2.173  10.515  11.409
 8866W        W18559  11.793   6.604   4.636
 8867W        W18560   5.081   4.638   1.711
 8868W        W18561  11.761   0.779  10.909
 8869W        W18562  11.294   1.755  11.890
 8870W        W18563  10.338  15.399  10.897
 8871W        W18564   6.486  10.526   4.123
 8872W        W18565   6.048  18.802   0.764
 8873W        W18566   3.168  11.958   3.662
 8874W        W18567   2.651   6.140  14.307
 8875W        W18568   0.748   7.092  11.408
 8876W        W18569   1.233  16.367   3.657
 8877W        W18570   4.090   1.250  12.838
 8878W        W18571  11.302   7.115  13.317
 8879W        W18572   5.062  15.377  14.758
 8880W        W18573   7.454   9.540  10.901
 8881W        W18574   0.724   9.552   0.275
 8882W        W18575   9.363   1.736   1.711
 8883W        W18576   0.255  13.436   3.151
 8884W        W18577   7.960   2.240   3.153
 8885W        W18578   2.165   2.709  14.789
 8886W        W18579   4.090  13.925  12.387
 8887W        W18580   4.091   7.076  14.800
 8888W        W18581   4.575  19.798   1.739
 8889W        W18582  11.311   5.126  14.277
 8890W        W18583   7.461  13.946   4.608
 8891W        W18584   3.127  17.328  11.416
 8892W        W18585  10.334   3.203   1.714
 8893W        W18586  11.793  12.463   4.619
 8894W        W18587  10.817  13.439  10.921
 8895W        W18588  10.362  15.375  13.831
 8896W        W18589   7.448  17.319   0.270
 8897W        W18590   6.012   9.523  11.372
 8898W        W18591   8.425   6.104  11.895
 8899W        W18592   5.529  17.319   3.635
 8900W        W18593   1.239   4.153  12.367
 8901W        W18594  10.806  15.410   0.261
 8902W        W18595   3.626   2.238   4.127
 8903W        W18596   0.259   1.712   1.708
 8904W        W18597  11.288  12.952  12.854
 8905W        W18598   1.721  10.500  14.770
 8906W        W18599   1.695   4.663  14.764
 8907W        W18600   1.723  12.930  11.394
 8908W        W18601   7.487   5.633   0.265
 8909W        W18602   7.942  17.351  11.881
 8910W        W18603   7.958  14.884  13.809
 8911W        W18604   3.618   5.629  14.304
 8912W        W18605   8.926   0.282  14.302
 8913W        W18606   0.261  13.443   4.634
 8914W        W18607   4.109   1.222   2.180
 8915W        W18608   6.964  15.888  14.775
 8916W        W18609   6.024   6.104   2.685
 8917W        W18610   4.594  18.791   0.753
 8918W        W18611   4.118   9.551  14.300
 8919W        W18612   2.204   8.547   3.183
 8920W        W18613   5.537   4.162  12.841
 8921W        W18614   0.751   8.562  14.321
 8922W        W18615   8.895  15.863  12.850
 8923W        W18616   3.156   3.695  11.879
 8924W        W18617   8.420   6.611   3.180
 8925W        W18618   3.640  11.477  13.812
 8926W        W18619   8.407  11.984  11.870
 8927W        W18620   3.641   1.239   1.705
 8928W        W18621   6.999  12.939  14.796
 8929W        W18622   8.921   1.221   1.249
 8930W        W18623   7.463  18.328   0.771
 8931W        W18624   6.520   7.594  13.328
 8932W        W18625   5.553  12.481  12.823
 8933W        W18626   5.087  10.001   0.763
 8934W        W18627   6.030  19.773  10.927
 8935W        W18628   0.243   8.073  13.333
 8936W        W18629   3.633   3.219  13.352
 8937W        W18630   5.526  17.329   0.279
 8938W        W18631  10.843  13.443  12.370
 8939W        W18632   7.964   6.117   0.756
 8940W        W18633   3.611  19.308   3.193
 8941W        W18634   1.228  18.811  13.339
 8942W        W18635  11.800   6.127  13.319
 8943W        W18636   7.482   4.635   2.674
 8944W        W18637   1.704  11.995   2.665
 8945W        W18638  10.335   9.073  12.862
 8946W        W18639  11.794  11.975  14.293
 8947W        W18640   8.404   6.138   1.703
 8948W        W18641   7.452   7.100  11.379
 8949W        W18642   4.087   4.673  14.773
 8950W        W18643   6.034  13.420   4.626
 8951W        W18644   9.381  19.770   1.235
 8952W        W18645   6.030  12.472  11.392
 8953W        W18646   8.418  16.384  11.863
 8954W        W18647   2.681   7.567  10.932
 8955W        W18648   7.928   2.719   3.642
 8956W        W18649   3.137  18.306   2.681
 8957W        W18650   7.945  11.010  14.759
 8958W        W18651   8.902  10.004  13.332
 8959W        W18652   6.978  18.306   4.143
 8960W        W18653   6.972   8.573  14.314
 8961W        W18654   5.057   0.286  14.802
 8962W        W18655   6.482  10.517  12.339
 8963W        W18656   3.122   6.617  12.839
 8964W        W18657   5.550   1.233  13.311
 8965W        W18658   6.523   8.558  13.836
 8966W        W18659   4.122  12.972  13.314
 8967W        W18660   1.715  12.456   3.184
 8968W        W18661   0.262  18.312  10.913
 8969W        W18662   4.108   8.553  13.352
 8970W        W18663   0.728   1.711   3.179
 8971W        W18664  11.797  13.944   4.631
 8972W        W18665   6.999  10.031   2.703
 8973W        W18666   9.383   3.670  12.373
 8974W        W18667   7.955  16.849  12.363
 8975W        W18668   3.140  11.013   2.687
 8976W        W18669   2.207  18.312   0.260
 8977W        W18670   7.477   0.260   3.175
 8978W        W18671   1.714  15.400   0.269
 8979W        W18672   2.187   0.262  11.872
 8980W        W18673   0.253  12.927   3.660
 8981W        W18674   1.712   7.597   3.169
 8982W        W18675   4.595   4.157   4.161
 8983W        W18676   8.408  14.910  11.857
 8984W        W18677  11.295  14.402   1.235
 8985W        W18678   7.453  10.009   0.246
 8986W        W18679   1.707  11.014   3.669
 8987W        W18680   8.908  17.831   4.614
 8988W        W18681  10.321  11.003   2.664
 8989W        W18682   7.461  18.818   0.769
 8990W        W18683   7.004   3.659  12.356
 8991W        W18684   2.178  17.843   4.149
 8992W        W18685   1.711   6.141  12.857
 8993W        W18686   3.160  11.015  13.810
 8994W        W18687   1.709   1.721  14.301
 8995W        W18688   7.946   5.132   2.663
 8996W        W18689   9.871   8.090  12.344
 8997W        W18690   7.487  16.374   0.288
 8998W        W18691   2.643   3.688   3.185
 8999W        W18692   8.884  14.912   2.671
 9000W        W18693   3.613   8.052   0.259
 9001W        W18694   2.663  14.888  12.380
 9002W        W18695   5.550  14.897  11.388
 9003W        W18696  11.298   2.706  10.888
 9004W        W18697  11.782   7.111  12.342
 9005W        W18698   7.444  16.355   2.208
 9006W        W18699   3.605  19.311  13.313
 9007W        W18700   1.231   9.557   3.657
 9008W        W18701   8.445  14.437   1.228
 9009W        W18702   2.161  11.016  14.796
 9010W        W18703   2.665  14.427   2.218
 9011W        W18704   6.484   5.156   4.123
 9012W        W18705  10.353  11.992   2.672
 9013W        W18706   0.764  11.996   4.138
 9014W        W18707   8.923   9.544  12.341
 9015W        W18708   1.234   6.146   0.754
 9016W        W18709   2.664   0.286  11.856
 9017W        W18710   7.932   5.617  13.334
 9018W        W18711   0.284   7.116  14.775
 9019W        W18712   6.978   2.709   0.769
 9020W        W18713   5.059  16.365  12.832
 9021W        W18714   4.582  15.887  13.334
 9022W        W18715  11.299  12.458  14.772
 9023W        W18716  10.356   7.098   2.666
 9024W        W18717   2.169   8.566  10.918
 9025W        W18718  10.343  14.422  11.403
 9026W        W18719   0.284   0.760   3.665
 9027W        W18720   2.190  11.024   0.753
 9028W        W18721   6.518  12.479  11.883
 9029W        W18722   5.080  17.852   3.676
 9030W        W18723   0.264  17.328   2.192
 9031W        W18724   2.181   1.731   2.677
 9032W        W18725   6.970   8.575   4.156
 9033W        W18726   9.867   9.536  10.901
 9034W        W18727   0.760  12.485  12.384
 9035W        W18728   7.465  13.948  11.856
 9036W        W18729  10.346  13.903  11.381
 9037W        W18730   4.587  13.921  13.340
 9038W        W18731   3.124   3.673   2.691
 9039W        W18732   4.573  10.523   1.698
 9040W        W18733   0.731  14.879  13.347
 9041W        W18734   6.501  13.452   4.143
 9042W        W18735   4.119   0.247  11.855
 9043W        W18736  11.310   5.658   4.635
 9044W        W18737   4.128   8.065   3.150
 9045W        W18738   8.416  19.282  14.300
 9046W        W18739  10.350  14.925   2.663
 9047W        W18740   2.687   0.287  11.387
 9048W        W18741   1.682   6.114   0.280
 9049W        W18742   0.262  15.867  10.926
 9050W        W18743   0.750   5.147  12.842
 9051W        W18744   4.567  10.025  11.856
 9052W        W18745  10.324  10.498   1.231
 9053W        W18746   0.737   7.097  14.279
 9054W        W18747  11.764  12.461  13.325
 9055W        W18748   7.479  15.374  14.311
 9056W        W18749   3.601   6.119   0.248
 9057W        W18750  10.339   7.104  11.890
 9058W        W18751   8.422  17.827  14.783
 9059W        W18752  11.308  16.385  13.328
 9060W        W18753   6.041   8.075  14.787
 9061W        W18754   8.409  15.368   1.221
 9062W        W18755   9.842   4.183  13.792
 9063W        W18756   6.026  16.349   4.152
 9064W        W18757  11.785  18.297   3.633
 9065W        W18758   1.219  18.311   2.704
 9066W        W18759   1.235  17.352   3.655
 9067W        W18760  11.783   1.731   4.120
 9068W        W18761   3.609  19.284  11.376
 9069W        W18762   9.881   9.522  14.296
 9070W        W18763   0.273  14.417   0.764
 9071W        W18764   2.645  11.981   2.182
 9072W        W18765  10.839   7.595   4.141
 9073W        W18766  10.362  18.798  14.274
 9074W        W18767   8.898   9.030   3.182
 9075W        W18768   8.895  17.843   1.220
 9076W        W18769   5.565   5.638  14.301
 9077W        W18770   6.020  18.787   3.642
 9078W        W18771   3.636   2.721   4.629
 9079W        W18772   7.449  15.881  14.292
 9080W        W18773   7.468  16.830  12.855
 9081W        W18774  10.811   1.740   0.750
 9082W        W18775   0.285  11.966   3.643
 9083W        W18776   6.975  13.915  13.345
 9084W        W18777   6.003   4.683  14.792
 9085W        W18778   3.636   2.726   3.669
 9086W        W18779   5.542  14.914  14.788
 9087W        W18780   2.196   6.614  11.893
 9088W        W18781   0.256  12.446   1.718
 9089W        W18782   5.057  15.860  12.382
 9090W        W18783  10.354  18.315   3.191
 9091W        W18784   3.614  16.839   4.616
 9092W        W18785   1.681  10.006  14.292
 9093W        W18786   3.125  16.365   2.198
 9094W        W18787   1.702  10.981   4.616
 9095W        W18788   4.561  12.950  10.915
 9096W        W18789   5.077   9.034   2.219
 9097W        W18790  11.795  12.471  10.896
 9098W        W18791  11.320   5.652  11.878
 9099W        W18792   8.897  13.445   4.638
 9100W        W18793   7.477   3.180   4.147
 9101W        W18794   6.017   0.750   4.119
 9102W        W18795   8.921   4.187   3.158
 9103W        W18796   1.246  11.970  11.415
 9104W        W18797   3.611   5.624  11.883
 9105W        W18798   9.388  17.335   1.698
 9106W        W18799  10.321  11.468  13.350
 9107W        W18800   7.950   1.266   2.221
 9108W        W18801   1.227   2.233   1.253
 9109W        W18802   2.172   8.571   4.151
 9110W        W18803   9.848   4.157   0.278
 9111W        W18804   4.095  13.909   0.248
 9112W        W18805   7.465   5.637  11.388
 9113W        W18806   9.855   2.694   3.650
 9114W        W18807   0.283   9.056  12.374
 9115W        W18808   2.173  12.958   0.754
 9116W        W18809   8.411  19.299   2.224
 9117W        W18810   7.448  12.463  11.406
 9118W        W18811   2.192  18.813   0.763
 9119W        W18812   4.573   8.540   3.640
 9120W        W18813   6.524   6.111   4.637
 9121W        W18814  11.795   9.028   1.700
 9122W        W18815  10.323  10.025  14.282
 9123W        W18816   8.423  16.384   3.634
 9124W        W18817   6.482  13.947   0.248
 9125W        W18818   9.867   9.072  13.337
 9126W        W18819  11.760  15.888   0.755
 9127W        W18820   5.527   5.158  13.326
 9128W        W18821  11.806  11.464   2.188
 9129W        W18822   6.014  19.773  14.277
 9130W        W18823   7.443  14.392   3.651
 9131W        W18824   2.649  14.895  13.309
 9132W        W18825   6.980  15.367  13.795
 9133W        W18826   9.371  14.415   0.267
 9134W        W18827   8.443  10.522   2.693
 9135W        W18828   2.656  15.895   1.250
 9136W        W18829   2.676   0.272  13.323
 9137W        W18830   0.753   5.130   1.229
 9138W        W18831   5.062   4.657  14.294
 9139W        W18832   1.203  11.496   4.141
 9140W        W18833   6.504  15.888  14.800
 9141W        W18834   6.964   6.107  10.920
 9142W        W18835   1.723  19.290   0.758
 9143W        W18836   3.164   8.069   2.192
 9144W        W18837  10.809  16.837   4.615
 9145W        W18838   9.394   0.771  10.918
 9146W        W18839   5.083  13.914  12.823
 9147W        W18840  11.780   7.078   0.254
 9148W        W18841  10.334   9.056  11.388
 9149W        W18842   9.877  11.491  13.833
 9150W        W18843   6.040   9.064  13.811
 9151W        W18844  11.296  13.420   2.205
 9152W        W18845   9.385   2.724   1.231
 9153W        W18846   2.197  10.526   2.197
 9154W        W18847   3.613  11.954   1.238
 9155W        W18848   7.935  11.980   0.287
 9156W        W18849   9.874   5.657   4.131
 9157W        W18850   6.502  14.393  13.826
 9158W        W18851   5.072  16.859  14.286
 9159W        W18852   6.492   0.275  14.802
 9160W        W18853   1.724  11.484  12.367
 9161W        W18854   6.019  19.764   0.289
 9162W        W18855   8.418   5.621   1.237
 9163W        W18856   9.857  10.520  14.296
 9164W        W18857   1.245   6.622  12.368
 9165W        W18858   1.245   5.656   1.241
 9166W        W18859   0.266   5.129   4.603
 9167W        W18860   8.921  17.322   2.185
 9168W        W18861  11.312   9.031  13.325
 9169W        W18862   4.580   6.128  14.320
 9170W        W18863   6.001  10.036  12.366
 9171W        W18864   3.602  10.534  14.806
 9172W        W18865   1.701   5.617   0.748
 9173W        W18866   6.517   5.637  12.385
 9174W        W18867   6.520  13.908   3.649
 9175W        W18868  10.805  14.906   1.741
 9176W        W18869  11.305  10.985  11.382
 9177W        W18870   7.934  10.037  13.354
 9178W        W18871   7.965  12.459   2.216
 9179W        W18872   8.924  12.485  10.898
 9180W        W18873   4.122   0.772  11.383
 9181W        W18874   1.703  14.420   2.706
 9182W        W18875   7.941  12.935   3.162
 9183W        W18876   7.440  11.473  12.834
 9184W        W18877   1.705  17.320  14.785
 9185W        W18878   0.267   9.526   1.234
 9186W        W18879   7.448   3.681   0.257
 9187W        W18880   1.702  15.889   4.134
 9188W        W18881  10.817   1.723  11.900
 9189W        W18882   6.023  13.921   3.640
 9190W        W18883   0.733   5.170   0.754
 9191W        W18884   4.577   0.747   3.158
 9192W        W18885   8.910   2.687  12.833
 9193W        W18886  11.320   6.132   4.156
 9194W        W18887   8.420  15.377  11.860
 9195W        W18888   3.146  10.991   0.734
 9196W        W18889   6.021  14.927   0.747
 9197W        W18890   7.943   8.554   1.218
 9198W        W18891   3.133   8.582  13.821
 9199W        W18892   7.958  12.959   2.706
 9200W        W18893  11.327   6.586   3.168
 9201W        W18894   6.507   1.237  10.902
 9202W        W18895   0.276  16.870   0.258
 9203W        W18896   2.663  18.789   3.677
 9204W        W18897   4.106  17.835  14.784
 9205W        W18898  10.322  16.844   1.737
 9206W        W18899  11.774  15.900   2.663
 9207W        W18900  10.800   8.541   0.729
 9208W        W18901   6.977   4.153  14.791
 9209W        W18902   8.424   8.058   3.671
 9210W        W18903   2.194   0.778  11.378
 9211W        W18904   0.751   9.517  13.809
 9212W        W18905   9.881   6.626  13.315
 9213W        W18906   6.023   1.731   4.124
 9214W        W18907   8.426   9.533   2.182
 9215W        W18908   0.265  14.400   0.260
 9216W        W18909   5.529  11.983  13.812
 9217W        W18910   6.525  19.801  11.396
 9218W        W18911   8.424  18.815   4.605
 9219W        W18912   6.034  16.383  13.322
 9220W        W18913   7.954   1.752  12.844
 9221W        W18914   0.262   3.684  11.417
 9222W        W18915   5.049  18.335  12.855
 9223W        W18916   3.627  18.782   0.770
 9224W        W18917   1.223   7.104  12.843
 9225W        W18918   4.562  13.447   1.232
 9226W        W18919   3.130   3.205   4.114
 9227W        W18920  10.344  15.878  12.362
 9228W        W18921   6.027  13.453   2.687
 9229W        W18922   0.743   3.701   3.173
 9230W        W18923   8.903  11.971  10.908
 9231W        W18924  10.367  17.811   4.135
 9232W        W18925  11.310  15.412  12.364
 9233W        W18926   0.766   4.644   4.643
 9234W        W18927   7.484   8.063   1.738
 9235W        W18928   1.226  11.504   1.736
 9236W        W18929  11.789   9.550  12.374
 9237W        W18930   1.228  10.508   1.714
 9238W        W18931   6.009   7.565  13.353
 9239W        W18932   7.487   1.726   1.253
 9240W        W18933   4.583   5.166  14.780
 9241W        W18934   2.686  14.880  14.314
 9242W        W18935  11.287   5.653   2.679
 9243W        W18936   9.864   2.731  11.865
 9244W        W18937   7.465  18.319   4.645
 9245W        W18938  11.805  19.763   0.254
 9246W        W18939  10.337  15.387   3.169
 9247W        W18940   1.682  14.910   3.187
 9248W        W18941   3.645   1.745   0.748
 9249W        W18942   9.843  12.478   0.247
 9250W        W18943   3.140  14.404  14.781
 9251W        W18944   7.463  17.820   2.219
 9252W        W18945   5.069  12.939  13.319
 9253W        W18946   4.128   3.699  11.882
 9254W        W18947   0.272   9.514  14.767
 9255W        W18948   4.575   1.744   4.155
 9256W        W18949   1.239   1.249  13.818
 9257W        W18950   2.181   2.683   1.236
 9258W        W18951   4.590  12.000  11.898
 9259W        W18952   8.442  12.974   3.187
 9260W        W18953   0.760  15.902  11.391
 9261W        W18954   6.996   9.046  10.924
 9262W        W18955   8.880  11.507   2.702
 9263W        W18956   2.202   1.260   4.616
 9264W        W18957   6.482  15.404  12.854
 9265W        W18958   4.100  12.969  13.813
 9266W        W18959   4.598  16.877   2.180
 9267W        W18960   3.154  17.826  12.834
 9268W        W18961  10.345  14.904  12.354
 9269W        W18962   8.413   3.707   4.159
 9270W        W18963   0.727   2.195  12.870
 9271W        W18964   7.942  19.290  12.344
 9272W        W18965   8.922  13.933   0.760
 9273W        W18966  11.326  19.296   0.733
 9274W        W18967  11.768  12.968  13.342
 9275W        W18968   5.529  16.872  10.893
 9276W        W18969   6.490  14.420   3.157
 9277W        W18970   9.858  16.382  13.315
 9278W        W18971   0.257   5.158  13.806
 9279W        W18972   7.000   6.133   1.230
 9280W        W18973  11.327  19.281   0.246
 9281W        W18974   6.014  12.928   1.708
 9282W        W18975   2.656  12.465  11.866
 9283W        W18976   2.683  10.039   0.747
 9284W        W18977   9.880   8.561  13.311
 9285W        W18978   1.693   3.686   2.212
 9286W        W18979   8.412  15.385  11.387
 9287W        W18980   6.502   8.057   1.246
 9288W        W18981   5.566   7.102   3.148
 9289W        W18982   7.933   0.246   2.217
 9290W        W18983  10.342  12.974  11.401
 9291W        W18984   9.384  12.464   3.677
 9292W        W18985   7.931  15.407   3.658
 9293W        W18986   1.228  10.504  13.352
 9294W        W18987   8.438  17.322  13.343
 9295W        W18988   6.484   1.721   0.764
 9296W        W18989   9.398  13.425   2.191
 9297W        W18990   3.135   7.092   1.248
 9298W        W18991   2.177   1.234   2.187
 9299W        W18992   2.657   1.241  13.331
 9300W        W18993   2.662  15.401  10.891
 9301W        W18994  10.360  13.924  14.788
 9302W        W18995   1.201  12.487  10.908
 9303W        W18996   9.853   0.279   3.149
 9304W        W18997  11.287   8.072   1.708
 9305W        W18998  10.320  10.004  11.378
 9306W        W18999   8.925  15.886   4.143
 9307W        W19000   8.402  16.833   1.248
 9308W        W19001   4.086   5.641  13.831
 9309W        W19002   8.917  16.864   1.709
 9310W        W19003  11.771   6.587  14.777
 9311W        W19004   6.527  17.351   4.608
 9312W        W19005   2.203   3.184   1.219
 9313W        W19006   3.633   3.197  11.884
 9314W        W19007   8.432   2.210   2.204
 9315W        W19008   3.604  19.297   1.232
 9316W        W19009  10.836  19.785   2.187
 9317W        W19010   2.662  19.293  10.927
 9318W        W19011  11.778  11.476   3.179
 9319W        W19012   6.028   4.193   0.254
 9320W        W19013  10.352  18.310  12.340
 9321W        W19014   8.911   3.705   3.148
 9322W        W19015   3.156  19.280   4.641
 9323W        W19016   0.248   3.183  13.818
 9324W        W19017   9.888   6.099  13.833
 9325W        W19018   1.682   7.080  12.340
 9326W        W19019   6.002  11.014  13.338
 9327W        W19020   4.573  10.035  13.342
 9328W        W19021   5.050  10.492  13.819
 9329W        W19022   6.976   9.071  11.889
 9330W        W19023  11.783  13.913   0.768
 9331W        W19024   0.268  11.013   1.253
 9332W        W19025   2.170  12.967  13.338
 9333W        W19026   3.628  13.455   1.258
 9334W        W19027   8.421  12.440   1.254
 9335W        W19028   0.734  10.532  11.880
 9336W        W19029   3.632  13.931   0.747
 9337W        W19030   6.977  11.002  14.286
 9338W        W19031   6.523  12.942   4.630
 9339W        W19032   3.604   5.656  12.825
 9340W        W19033   3.622  18.326   1.224
 9341W        W19034   4.092  19.801   2.675
 9342W        W19035  10.364  19.304   2.210
 9343W        W19036  11.781   1.752   3.179
 9344W        W19037   1.697   6.597  14.316
 9345W        W19038   2.186   2.703  11.864
 9346W        W19039   5.554   2.698  10.918
 9347W        W19040  10.827   3.687  12.340
 9348W        W19041   8.882  14.910   3.663
 9349W        W19042   0.746   9.040  14.759
 9350W        W19043   3.616  15.382  13.322
 9351W        W19044  10.815   0.274   3.186
 9352W        W19045   9.386  12.441  12.831
 9353W        W19046   4.598  15.382   1.243
 9354W        W19047   5.061  10.491   3.636
 9355W        W19048  11.315  18.301   3.659
 9356W        W19049   5.047  11.980  13.350
 9357W        W19050   0.734  14.392  11.902
 9358W        W19051   9.377  14.921   0.245
 9359W        W19052   9.862   3.177   2.181
 9360W        W19053   9.375  13.459  13.834
 9361W        W19054  10.355   1.228   0.756
 9362W        W19055   3.157   2.197   3.661
 9363W        W19056   7.929   0.253   3.662
 9364W        W19057   9.865   6.589  14.310
 9365W        W19058   2.201  13.443   4.154
 9366W        W19059   8.905  11.992   2.702
 9367W        W19060   4.123   8.054   0.772
 9368W        W19061  10.846  17.343   1.251
 9369W        W19062   2.642  19.764   0.751
 9370W        W19063   1.705   5.622   3.630
 9371W        W19064   5.560  11.506   4.602
 9372W        W19065   0.767  13.945  10.927
 9373W        W19066   2.678   8.079   2.662
 9374W        W19067  10.341   4.149   0.248
 9375W        W19068   3.627  12.948  11.890
 9376W        W19069  10.845  11.961  11.880
 9377W        W19070   5.041   5.650  12.842
 9378W        W19071  10.344  10.977  12.385
 9379W        W19072   1.683  14.405   1.701
 9380W        W19073   9.400  11.481  13.344
 9381W        W19074   0.752   0.284  14.320
 9382W        W19075   8.916   6.629  12.366
 9383W        W19076   6.970  15.873  12.364
 9384W        W19077   5.539   3.697  13.327
 9385W        W19078   7.933  15.876  14.316
 9386W        W19079   1.218  17.838   3.162
 9387W        W19080   2.680   4.149  12.830
 9388W        W19081   2.160   5.128  13.332
 9389W        W19082   3.146   4.663  11.380
 9390W        W19083   4.106  16.875  11.873
 9391W        W19084   6.981  10.530   2.211
 9392W        W19085   7.961  17.334  11.413
 9393W        W19086   6.033  15.898   0.273
 9394W        W19087   8.881   0.280   1.728
 9395W        W19088   1.725   9.561  10.913
 9396W        W19089  11.798   9.050   4.636
 9397W        W19090   6.981   4.635   1.254
 9398W        W19091   2.200   8.555   2.709
 9399W        W19092   6.520   7.096   3.166
 9400W        W19093   7.942  18.322   2.702
 9401W        W19094   9.376   3.678   1.245
 9402W        W19095   1.238   8.582  11.870
 9403W        W19096   3.139   1.243   1.256
 9404W        W19097   6.980  11.021   4.614
 9405W        W19098   5.521   2.228  13.335
 9406W        W19099   0.255  11.965   0.738
 9407W        W19100   2.202  10.026   2.218
 9408W        W19101   1.234   2.725  14.797
 9409W        W19102  10.335   5.612  14.766
 9410W        W19103   9.863   5.162   1.233
 9411W        W19104   3.133  19.290  11.866
 9412W        W19105   5.563  10.995   3.676
 9413W        W19106   6.021   5.632  10.911
 9414W        W19107   6.520   7.585   3.146
 9415W        W19108   3.632  16.362  12.834
 9416W        W19109   2.161   1.726   3.656
 9417W        W19110   2.160  12.970  13.835
 9418W        W19111   4.598  11.979  12.855
 9419W        W19112  11.299   9.549   0.269
 9420W        W19113   2.202  16.354   4.150
 9421W        W19114  11.303   9.536   4.139
 9422W        W19115   8.401   0.738  12.341
 9423W        W19116  11.308  18.341   0.256
 9424W        W19117   6.978  15.408   4.149
 9425W        W19118   2.650  16.346  12.356
 9426W        W19119   8.410   2.719   1.695
 9427W        W19120   4.127   3.173  14.313
 9428W        W19121   0.250  18.298  12.347
 9429W        W19122   2.174   9.541  13.344
 9430W        W19123   6.979   7.601  13.808
 9431W        W19124   7.453  17.324   2.703
 9432W        W19125   6.489  14.436  12.365
 9433W        W19126   3.635   9.025  10.922
 9434W        W19127   5.521   3.691   3.146
 9435W        W19128   2.650   3.198  11.869
 9436W        W19129   0.726   8.073   1.702
 9437W        W19130   7.966   5.647   1.729
 9438W        W19131   9.885   4.164  14.785
 9439W        W19132   2.659  16.871   4.156
 9440W        W19133   8.421   3.211   4.115
 9441W        W19134  11.284  17.843  14.789
 9442W        W19135   2.659   7.119   1.229
 9443W        W19136   4.080   8.081  12.385
 9444W        W19137   7.441   3.683  12.870
 9445W        W19138   8.419  11.973  14.309
 9446W        W19139  10.803  11.469   2.195
 9447W        W19140   8.908  18.334  13.819
 9448W        W19141   6.036   2.241  12.826
 9449W        W19142  10.822  12.445  12.360
 9450W        W19143   9.369  10.015   3.176
 9451W        W19144   5.522  19.300   2.669
 9452W        W19145   7.474   0.279  13.835
 9453W        W19146  11.326   5.151   0.244
 9454W        W19147   3.138  12.970  12.851
 9455W        W19148   1.218   7.584  11.897
 9456W        W19149   1.727  11.484   3.663
 9457W        W19150   4.591  10.012   3.189
 9458W        W19151   5.052  14.420   2.665
 9459W        W19152   1.707   7.076  14.785
 9460W        W19153   4.586   7.561   3.650
 9461W        W19154   3.629  14.925   3.631
 9462W        W19155  11.803   4.167  10.916
 9463W        W19156   2.684  10.528   2.218
 9464W        W19157   2.199  18.801  14.286
 9465W        W19158   4.089   7.088   4.158
 9466W        W19159   2.654  16.842   0.250
 9467W        W19160   2.203   5.127   1.237
 9468W        W19161   2.170  13.439  14.784
 9469W        W19162  11.764  10.506  12.340
 9470W        W19163   1.204   6.112  14.321
 9471W        W19164   2.682   3.684   4.127
 9472W        W19165   6.506   9.061  11.873
 9473W        W19166   6.519   8.079  12.833
 9474W        W19167   2.687   5.156   2.687
 9475W        W19168   9.405  13.458   1.698
 9476W        W19169   7.004  15.407  11.897
 9477W        W19170   9.864  10.491  12.846
 9478W        W19171   6.033  15.868   1.249
 9479W        W19172   9.856  11.016   2.210
 9480W        W19173   6.994   0.287   2.666
 9481W        W19174  11.287   5.130   0.752
 9482W        W19175  11.298   1.714  12.838
 9483W        W19176   7.952  19.285   2.695
 9484W        W19177   0.254   5.131   1.252
 9485W        W19178   6.018   6.592   1.229
 9486W        W19179   0.257   1.246  12.366
 9487W        W19180   0.250  19.279  10.900
 9488W        W19181   7.473  16.388  12.826
 9489W        W19182   8.412   4.151   1.711
 9490W        W19183   1.205  19.795   0.270
 9491W        W19184   0.287   4.180  13.316
 9492W        W19185   9.393  17.831  11.415
 9493W        W19186   8.429  13.431   3.163
 9494W        W19187   9.864  10.005  10.917
 9495W        W19188   2.198  13.946   0.259
 9496W        W19189   7.463  16.878  13.819
 9497W        W19190   6.521  15.378   0.749
 9498W        W19191   8.408  10.990  11.885
 9499W        W19192   5.058  16.871  10.920
 9500W        W19193   3.630   3.207   4.115
 9501W        W19194   6.486  17.339  11.397
 9502W        W19195   6.986  12.474   4.601
 9503W        W19196   8.914  15.396   1.699
 9504W        W19197   0.259  12.474   2.679
 9505W        W19198   2.207  11.484  14.280
 9506W        W19199  11.311   4.178  13.794
 9507W        W19200   7.952  11.977  14.793
 9508W        W19201   8.906   3.676   4.612
 9509W        W19202  11.296   8.082   3.663
 9510W        W19203   9.364   3.192   2.688
 9511W        W19204   5.540  10.536  10.917
 9512W        W19205   6.020  13.904  11.900
 9513W        W19206   8.403  15.380   0.242
 9514W        W19207   0.262  15.864   3.174
 9515W        W19208   3.648   0.259  14.789
 9516W        W19209   9.392  18.785  14.278
 9517W        W19210   2.661  15.887   3.658
 9518W        W19211   2.193  19.802   1.225
 9519W        W19212   4.127   1.260  11.870
 9520W        W19213   7.465  15.390   2.695
 9521W        W19214   8.417   0.274   3.675
 9522W        W19215  11.301   3.699   0.737
 9523W        W19216   9.865   7.096   2.188
 9524W        W19217  10.823  17.812  10.899
 9525W        W19218   8.888   2.215   0.769
 9526W        W19219   4.569  19.780   0.257
 9527W        W19220   1.725  14.407   2.207
 9528W        W19221  10.814  16.377   1.738
 9529W        W19222   0.752  13.923   0.283
 9530W        W19223   6.528   6.608  10.924
 9531W        W19224   2.175   3.197   0.754
 9532W        W19225   5.540   9.033  12.372
 9533W        W19226   8.922  13.463  14.303
 9534W        W19227  10.342  19.285   3.169
 9535W        W19228   9.879  18.783   0.283
 9536W        W19229   6.002   0.737  11.864
 9537W        W19230   8.914   7.105   3.171
 9538W        W19231  10.825   3.705   4.139
 9539W        W19232  11.303   5.158  13.318
 9540W        W19233   4.567  17.338   1.721
 9541W        W19234  10.354   1.248  12.830
 9542W        W19235   6.992  15.373   3.676
 9543W        W19236   0.756   8.075   1.256
 9544W        W19237   6.987   3.679  11.872
 9545W        W19238   1.707   0.757   1.213
 9546W        W19239   2.168  17.337   3.182
 9547W        W19240   9.385  19.799  13.320
 9548W        W19241   9.385   0.756  13.339
 9549W        W19242   7.945  10.011  14.291
 9550W        W19243  11.289   4.637   2.224
 9551W        W19244   6.962   1.713   3.648
 9552W        W19245   3.626   6.615  13.833
 9553W        W19246   6.961   3.670  14.758
 9554W        W19247   2.665  10.023   1.219
 9555W        W19248  10.323  19.288   4.132
 9556W        W19249   9.859  10.995   1.706
 9557W        W19250  10.335  18.787  12.353
 9558W        W19251   0.734   8.558  12.839
 9559W        W19252   6.018  17.833  12.365
 9560W        W19253   2.160   7.121   0.290
 9561W        W19254   6.505   0.753  13.796
 9562W        W19255   4.101  10.034   1.704
 9563W        W19256  11.766   1.732  11.866
 9564W        W19257   1.698  13.457  12.355
 9565W        W19258   5.531   7.610   2.226
 9566W        W19259   9.395  18.820   0.755
 9567W        W19260   9.392   7.606  11.858
 9568W        W19261   9.366   8.564   1.728
 9569W        W19262   1.706   0.250   2.214
 9570W        W19263   6.493  13.428   3.162
 9571W        W19264   0.754  10.519   4.600
 9572W        W19265  11.774  14.420  14.790
 9573W        W19266   3.618  12.942  11.388
 9574W        W19267  10.845   4.664  14.295
 9575W        W19268  10.332   0.743   0.277
 9576W        W19269  11.285  10.520   4.135
 9577W        W19270   8.911   3.689   1.252
 9578W        W19271   9.876  11.023   3.179
 9579W        W19272   7.465  19.770  13.820
 9580W        W19273   6.006  14.893  14.301
 9581W        W19274   4.583   8.060   0.263
 9582W        W19275  10.846  14.399   1.216
 9583W        W19276   7.477  15.873   2.700
 9584W        W19277   7.451   8.072  13.346
 9585W        W19278   6.527   8.067  13.826
 9586W        W19279   6.496  13.925   2.666
 9587W        W19280   8.409  14.922   3.658
 9588W        W19281   3.612   5.142   4.629
 9589W        W19282   0.241   4.647   4.607
 9590W        W19283   7.481  10.040  12.352
 9591W        W19284   5.566   9.058  10.896
 9592W        W19285  10.840  13.433  11.871
 9593W        W19286   1.248   5.150  11.877
 9594W        W19287  11.323   6.607  11.880
 9595W        W19288  10.814  13.908  10.929
 9596W        W19289   4.099  14.908  13.325
 9597W        W19290   6.015  19.306   3.180
 9598W        W19291   6.498  16.843  12.845
 9599W        W19292   8.414  18.786  10.934
 9600W        W19293   8.431  14.411   3.145
 9601W        W19294  11.282   4.668  14.803
 9602W        W19295  11.288   4.147  14.783
 9603W        W19296   3.620   1.221   4.117
 9604W        W19297   5.539  16.843  14.768
 9605W        W19298   4.114   0.733  12.382
 9606W        W19299   2.683  12.947   1.257
 9607W        W19300   5.056   4.167   1.724
 9608W        W19301   0.753  18.310   3.166
 9609W        W19302  11.785   6.108   1.239
 9610W        W19303   0.285  14.909  11.397
 9611W        W19304   7.922  16.840   0.264
 9612W        W19305   9.849   3.178  12.384
 9613W        W19306   8.923  13.433  12.353
 9614W        W19307   3.120   7.079  11.895
 9615W        W19308   7.458  17.807  12.835
 9616W        W19309   5.562   6.592  10.906
 9617W        W19310   8.406  13.430  12.361
 9618W        W19311   9.382  11.009  14.760
 9619W        W19312   2.166   6.143  13.794
 9620W        W19313   9.364   6.601  11.412
 9621W        W19314  11.315   1.224  13.308
 9622W        W19315   4.107  18.827  14.298
 9623W        W19316   5.087   8.073   4.135
 9624W        W19317   6.515  13.942  13.812
 9625W        W19318   3.167  16.352  14.322
 9626W        W19319   0.264   8.579  11.393
 9627W        W19320  10.327  10.492  14.795
 9628W        W19321   3.138   3.691  13.810
 9629W        W19322   0.286  14.423  14.296
 9630W        W19323   8.445  18.340  14.303
 9631W        W19324   6.502   1.721  14.316
 9632W        W19325   7.483   1.743   2.217
 9633W        W19326   5.531  14.922  13.323
 9634W        W19327   8.885   5.161  13.328
 9635W        W19328   4.081  13.445  11.412
 9636W        W19329   2.662  18.815   2.216
 9637W        W19330   0.753   8.061   3.631
 9638W        W19331   7.006   0.738   1.252
 9639W        W19332   6.501  13.438  14.781
 9640W        W19333   8.442  10.517  12.863
 9641W        W19334   9.876  11.024   2.680
 9642W        W19335   3.638  13.920  11.385
 9643W        W19336   3.148  10.990   1.695
 9644W        W19337  10.844   2.723   3.177
 9645W        W19338   9.383   2.209  14.288
 9646W        W19339  11.288  17.849  14.293
 9647W        W19340   9.385  19.283   4.147
 9648W        W19341   6.030   7.120   1.738
 9649W        W19342   0.277   1.229   3.629
 9650W        W19343   8.915   4.164   4.153
 9651W        W19344   6.002   2.222   4.640
 9652W        W19345   1.233  11.965  10.928
 9653W        W19346   4.564   8.569  10.909
 9654W        W19347   8.418   6.613   1.215
 9655W        W19348  11.794   9.035   0.768
 9656W        W19349  11.327   9.549   4.613
 9657W        W19350  11.297   5.614   4.148
 9658W        W19351  11.315  10.508  13.825
 9659W        W19352  11.787   1.266  14.314
 9660W        W19353  10.337   2.242  14.307
 9661W        W19354   6.480  17.332  11.900
 9662W        W19355   6.500  15.901   0.756
 9663W        W19356   7.472  12.959   2.210
 9664W        W19357   8.436  19.772   4.620
 9665W        W19358   4.589  19.788   0.745
 9666W        W19359   8.907   9.043  12.387
 9667W        W19360   6.497  10.977   1.215
 9668W        W19361  11.770   6.596  13.340
 9669W        W19362   6.025   0.291  10.917
 9670W        W19363   5.551  13.452  12.367
 9671W        W19364   3.167  11.001   4.645
 9672W        W19365   0.241  17.830   0.749
 9673W        W19366   2.673   0.748  11.890
 9674W        W19367   6.497  13.424  11.412
 9675W        W19368   2.193  14.880   1.225
 9676W        W19369   9.381   1.736  11.861
 9677W        W19370   5.559  12.964   0.270
 9678W        W19371  10.362  13.462   4.599
 9679W        W19372   1.211   1.224   3.157
 9680W        W19373   6.993  11.962  11.418
 9681W        W19374   0.273   2.699   1.229
 9682W        W19375   5.077   1.744   1.708
 9683W        W19376   3.635  10.047  12.861
 9684W        W19377   9.883  15.891  14.764
 9685W        W19378   0.276   2.725   3.673
 9686W        W19379   7.469   4.153  13.348
 9687W        W19380   3.144  16.840  14.792
 9688W        W19381  11.762  14.394   1.210
 9689W        W19382  10.339  10.994  11.405
 9690W        W19383   8.902   7.605   2.686
 9691W        W19384   4.576   0.265  14.772
 9692W        W19385   9.848   8.074   1.708
 9693W        W19386   2.682   4.678  12.835
 9694W        W19387   0.278   9.044   0.263
 9695W        W19388   7.955  15.874   2.698
 9696W        W19389   7.480  11.485   0.247
 9697W        W19390   6.512   5.151  14.318
 9698W        W19391   6.976   2.228  13.821
 9699W        W19392   4.606  12.465  12.836
 9700W        W19393  11.773  12.479   3.187
 9701W        W19394  11.763  10.505   2.668
 9702W        W19395   0.758  12.947  12.851
 9703W        W19396   7.460   5.132  14.308
 9704W        W19397   0.727  13.453   2.204
 9705W        W19398   7.482  16.379  12.355
 9706W        W19399   3.146   4.661  14.776
 9707W        W19400   7.465  10.022  10.896
 9708W        W19401  11.801  10.005  12.356
 9709W        W19402   1.226   6.139  11.894
 9710W        W19403   1.715  16.360   0.271
 9711W        W19404   3.164   9.037   4.129
 9712W        W19405   0.276  10.032  13.348
 9713W        W19406  11.301   2.729   2.221
 9714W        W19407   7.961  12.462   3.649
 9715W        W19408   0.257   7.578  14.772
 9716W        W19409   0.256  12.968  13.813
 9717W        W19410   4.570   7.101   0.758
 9718W        W19411   0.757  14.890  14.277
 9719W        W19412   0.733   3.204  12.823
 9720W        W19413   5.070   2.715  14.310
 9721W        W19414   4.598  12.961   2.673
 9722W        W19415   0.759   9.056  14.311
 9723W        W19416   8.889   6.602   3.182
 9724W        W19417   2.650   1.752  14.804
 9725W        W19418   5.069  12.440  14.794
 9726W        W19419   4.118   4.680   4.150
 9727W        W19420   9.870   0.735  13.814
 9728W        W19421   9.372  14.418   4.643
 9729W        W19422   8.893   7.089  10.911
 9730W        W19423   5.522   4.151   4.144
 9731W        W19424   4.603  12.468  14.316
 9732W        W19425   9.856  10.039   0.735
 9733W        W19426   7.469  19.796  11.864
 9734W        W19427   5.063   9.547   3.159
 9735W        W19428   5.083  13.933   4.117
 9736W        W19429  10.837   2.705  12.847
 9737W        W19430   4.599   6.132  12.863
 9738W        W19431   2.660   2.239  12.832
 9739W        W19432   1.200  14.908  10.887
 9740W        W19433   0.726  14.439  14.762
 9741W        W19434   5.533   8.086   2.220
 9742W        W19435   9.398   1.742   4.626
 9743W        W19436   3.625  19.308   0.258
 9744W        W19437   0.274  17.318   3.667
 9745W        W19438   3.611  19.783  13.815
 9746W        W19439   3.640  12.941   1.739
 9747W        W19440   5.046  10.997   3.182
 9748W        W19441   4.561  10.524  11.385
 9749W        W19442   0.276  16.346  14.314
 9750W        W19443   6.020   9.557   2.701
 9751W        W19444   7.456  13.435   0.243
 9752W        W19445   2.183   0.745   0.741
 9753W        W19446  10.817   4.164   1.253
 9754W        W19447   3.647  17.334  14.760
 9755W        W19448   4.093   3.665   0.744
 9756W        W19449   2.167  14.428  12.373
 9757W        W19450   1.205  17.848  11.883
 9758W        W19451   1.725   9.040   1.723
 9759W        W19452   5.073  16.845   2.186
 9760W        W19453   5.078  10.525   4.599
 9761W        W19454   0.739   0.763   1.703
 9762W        W19455   5.046  15.399  11.874
 9763W        W19456   7.942   7.118  11.396
 9764W        W19457   7.937   0.255  12.854
 9765W        W19458   1.722  13.923  13.827
 9766W        W19459   7.454   4.663   0.756
 9767W        W19460   8.882   3.173   3.166
 9768W        W19461   6.962  11.006   5.117
 9769W        W19462   1.202   5.648   3.160
 9770W        W19463   4.595   4.173  13.799
 9771W        W19464   6.984  13.463  11.415
 9772W        W19465   6.516   8.581  12.371
 9773W        W19466   6.985   6.607  12.859
 9774W        W19467   2.175   3.182   2.664
 9775W        W19468   7.004   2.712  13.803
 9776W        W19469   5.063   9.561  10.913
 9777W        W19470   4.578   7.120  14.277
 9778W        W19471   3.152  15.367   0.285
 9779W        W19472   6.012   7.074  11.875
 9780W        W19473   7.469  15.393  12.860
 9781W        W19474   8.902   8.094   3.193
 9782W        W19475   8.900   7.084   1.703
 9783W        W19476   3.602   1.249  11.878
 9784W        W19477   5.074  19.797  12.349
 9785W        W19478   6.493  10.520  11.404
 9786W        W19479   7.477   8.054   0.286
 9787W        W19480   9.886  13.419  14.285
 9788W        W19481   1.698   7.576   4.120
 9789W        W19482   6.499   6.139   2.696
 9790W        W19483   6.022  16.875   1.228
 9791W        W19484   4.086   6.624  14.764
 9792W        W19485   0.749  18.825   4.645
 9793W        W19486   7.454  10.504   2.214
 9794W        W19487   6.980  10.505   3.673
 9795W        W19488   8.909   1.244   2.185
 9796W        W19489   7.940   0.744  14.806
 9797W        W19490   6.979   8.539   0.287
 9798W        W19491   4.572   9.547  12.379
 9799W        W19492   2.178  11.997   1.249
 9800W        W19493   4.112   4.668  13.331
 9801W        W19494  11.790   6.113   0.774
 9802W        W19495   2.181   4.195  13.318
 9803W        W19496   5.538   8.573   1.729
 9804W        W19497   8.429   2.235  12.828
 9805W        W19498  10.845  17.813  12.852
 9806W        W19499  11.293   6.598   0.758
 9807W        W19500   1.223  19.787  10.890
 9808W        W19501   4.089  11.018  13.818
 9809W        W19502  10.347  18.798  10.903
 9810W        W19503   6.996  12.951   3.662
 9811W        W19504   9.883  11.023  14.288
 9812W        W19505   5.043  11.482   0.755
 9813W        W19506   7.944  11.001   0.736
 9814W        W19507  11.318   2.238  14.293
 9815W        W19508  10.801   6.623   4.641
 9816W        W19509   1.215  15.882  11.375
 9817W        W19510   1.713  10.010  11.886
 9818W        W19511   8.420   1.733  14.301
 9819W        W19512   3.634   0.773  13.326
 9820W        W19513   3.146   3.190   3.638
 9821W        W19514   1.681  19.796   1.726
 9822W        W19515  10.367   9.527   4.630
 9823W        W19516   7.004   1.225  12.857
 9824W        W19517   4.115  15.895  11.888
 9825W        W19518   8.412   9.033   0.734
 9826W        W19519  11.319   6.604   4.128
 9827W        W19520   4.602   0.747   2.186
 9828W        W19521   5.548  14.910   2.205
 9829W        W19522   9.851   8.560   4.160
 9830W        W19523   4.100  11.481  12.841
 9831W        W19524   4.567  19.293   3.165
 9832W        W19525   9.848  16.345   3.171
 9833W        W19526   1.245   2.695   3.155
 9834W        W19527   0.752  18.814  14.762
 9835W        W19528   8.889  19.778  11.419
 9836W        W19529   4.105  15.881   4.637
 9837W        W19530  10.362  17.333  14.785
 9838W        W19531   9.887   4.165   0.764
 9839W        W19532   7.471  11.983   3.166
 9840W        W19533   0.740  16.867  14.805
 9841W        W19534   7.456   2.689   3.648
 9842W        W19535   9.887   8.071   0.730
 9843W        W19536   7.925   6.589  12.856
 9844W        W19537   0.762  13.415   3.638
 9845W        W19538  11.320  11.995   2.684
 9846W        W19539  11.311   6.604   1.243
 9847W        W19540   0.721  14.902   3.659
 9848W        W19541   3.630  15.369   0.736
 9849W        W19542   5.549   3.680   4.154
 9850W        W19543   7.940  16.839  11.867
 9851W        W19544   8.895  17.339  14.299
 9852W        W19545   7.447  16.855   2.195
 9853W        W19546   0.241   2.697  13.355
 9854W        W19547   7.479   0.244   1.235
 9855W        W19548   5.546  18.298   3.189
 9856W        W19549   3.128   1.232   2.708
 9857W        W19550   9.841  14.894   0.755
 9858W        W19551   8.414  17.330  10.916
 9859W        W19552  11.317  13.926   3.632
 9860W        W19553   6.021  11.966  12.370
 9861W        W19554   8.435  10.530   0.752
 9862W        W19555   8.422   4.180  14.321
 9863W        W19556   9.402   0.776  12.381
 9864W        W19557   3.159   1.710   2.666
 9865W        W19558   6.516   1.724  12.841
 9866W        W19559   1.689  11.998   4.129
 9867W        W19560   5.059   4.191  12.380
 9868W        W19561   3.143  12.949   1.709
 9869W        W19562   1.720  12.962  13.795
 9870W        W19563  10.354  15.874  11.899
 9871W        W19564  10.340  17.845  14.789
 9872W        W19565   8.904   2.207  12.826
 9873W        W19566   0.274   4.185  12.378
 9874W        W19567   0.267  15.407  11.875
 9875W        W19568   6.983   5.629   1.233
 9876W        W19569   5.082   7.082   0.746
 9877W        W19570   8.882   4.174  10.905
 9878W        W19571   3.165  17.357  12.836
 9879W        W19572   8.890  15.410   0.273
 9880W        W19573   2.195  13.912   2.672
 9881W        W19574   6.986   8.066   4.633
 9882W        W19575   4.596   1.233   1.222
 9883W        W19576   2.204  16.848  12.823
 9884W        W19577   5.053   7.565   4.618
 9885W        W19578   3.614  11.968  11.415
 9886W        W19579   2.674   8.080  11.389
 9887W        W19580   2.165   6.587   0.741
 9888W        W19581   9.846   8.540   1.254
 9889W        W19582   0.725   2.197   1.244
 9890W        W19583   8.438   4.637   3.171
 9891W        W19584   3.601   2.716  10.934
 9892W        W19585   4.563   3.696   2.663
 9893W        W19586   9.371   0.736   1.738
 9894W        W19587   0.241   3.690   3.668
 9895W        W19588   5.567   2.203   3.159
 9896W        W19589   8.925   8.070   2.691
 9897W        W19590   1.683  15.864   4.611
 9898W        W19591   1.724   0.775   3.157
 9899W        W19592   9.855  15.882  10.906
 9900W        W19593   8.429  10.980   3.643
 9901W        W19594   5.548   0.248  11.378
 9902W        W19595   8.927   1.729  11.388
 9903W        W19596   8.924  13.416  11.381
 9904W        W19597   3.162   5.145   4.635
 9905W        W19598  10.826  16.870  12.343
 9906W        W19599   6.528  19.307   3.636
 9907W        W19600   6.044   0.748  12.350
 9908W        W19601   8.446  13.462  14.782
 9909W        W19602  11.311   9.532   3.178
 9910W        W19603   9.376  18.824   4.149
 9911W        W19604   7.459   1.252   0.772
 9912W        W19605   0.731   3.215   4.130
 9913W        W19606   8.888  10.033   1.702
 9914W        W19607  10.812   9.517  12.357
 9915W        W19608   5.060  15.385  10.905
 9916W        W19609   6.047   8.554   0.732
 9917W        W19610  11.770   1.250  12.355
 9918W        W19611  11.805   8.550  13.331
 9919W        W19612   6.012   4.153  10.893
 9920W        W19613  10.326   3.197  14.290
 9921W        W19614   1.726  10.012   0.754
 9922W        W19615   5.047   3.678   4.641
 9923W        W19616   3.636   7.593   2.690
 9924W        W19617  11.290  14.892  10.914
 9925W        W19618   0.741   1.748  13.313
 9926W        W19619   2.168  17.363   2.178
 9927W        W19620   2.669   5.645   3.156
 9928W        W19621   7.447  17.837  10.926
 9929W        W19622   7.938   5.122  12.840
 9930W        W19623   2.168  13.905  12.857
 9931W        W19624   1.694  13.934  14.797
 9932W        W19625   8.411  17.353   3.639
 9933W        W19626   4.114  15.874  12.344
 9934W        W19627   1.708  14.428  14.767
 9935W        W19628   1.245   3.701   2.196
 9936W        W19629   6.041   5.141  13.355
 9937W        W19630  11.778   0.741  13.804
 9938W        W19631   2.165  10.504  10.919
 9939W        W19632   3.619  12.481   1.257
 9940W        W19633  10.362   2.694  10.915
 9941W        W19634   7.484  18.309  10.929
 9942W        W19635   3.130  13.939   3.183
 9943W        W19636   9.874   5.616   2.664
 9944W        W19637  10.844   0.263  13.826
 9945W        W19638   6.978   1.249   0.755
 9946W        W19639  10.823   5.135  13.826
 9947W        W19640   2.672  12.970  13.329
 9948W        W19641   4.097   9.546   3.634
 9949W        W19642  10.828   6.633  11.860
 9950W        W19643   1.715   3.664   0.245
 9951W        W19644   7.000  11.957  13.339
 9952W        W19645   2.191   0.779  12.351
 9953W        W19646   4.084   8.570   1.706
 9954W        W19647   7.004   0.761  11.892
 9955W        W19648   3.632   5.125  13.350
 9956W        W19649   8.921   8.555  13.801
 9957W        W19650   0.759   9.520   4.600
 9958W        W19651   7.923   9.538  12.372
 9959W        W19652  10.366  10.516  11.417
 9960W        W19653  10.815  15.899  12.832
 9961W        W19654   0.266   9.044  13.311
 9962W        W19655   8.441  14.404  10.916
 9963W        W19656   5.063   7.595  14.283
 9964W        W19657   8.911   2.688   4.124
 9965W        W19658   3.613  11.466  14.801
 9966W        W19659   0.748   5.619   2.224
 9967W        W19660   4.115  14.903  11.864
 9968W        W19661  11.300   1.748   2.672
 9969W        W19662   3.644  18.806  14.794
 9970W        W19663   9.379  16.866  14.303
 9971W        W19664   3.631   4.661   1.733
 9972W        W19665  10.342  15.890  13.329
 9973W        W19666   5.521   4.175   2.669
 9974W        W19667   4.082  15.398  11.405
 9975W        W19668  11.776   8.571  13.803
 9976W        W19669   1.682   1.257   2.224
 9977W        W19670   9.387   6.119   4.626
 9978W        W19671   2.676   6.632   0.266
 9979W        W19672  10.836  17.847   1.727
 9980W        W19673   9.888   1.228  13.819
 9981W        W19674  11.802  16.377   2.217
 9982W        W19675   0.259   5.655   2.219
 9983W        W19676   9.886   4.180  13.308
 9984W        W19677   6.019  18.294  14.299
 9985W        W19678   8.906   2.695  11.860
 9986W        W19679   0.273  15.854   0.760
 9987W        W19680   7.963  18.817  13.353
 9988W        W19681   6.494  19.761  10.891
 9989W        W19682   2.185  11.987  13.329
 9990W        W19683   3.606  12.469  14.788
 9991W        W19684   2.640   4.643  10.914
 9992W        W19685   2.646   3.677  10.896
 9993W        W19686   6.517   2.222  11.869
 9994W        W19687  11.777  19.779  14.766
 9995W        W19688   1.218  12.934   4.113
 9996W        W19689   3.155   2.723  10.904
 9997W        W19690   6.011   8.068  11.877
 9998W        W19691   7.481  19.778   0.254
 9999W        W19692   7.959  17.320  14.806
10000W        W19693  10.324  16.367   0.735
10001W        W19694  10.813   8.095  10.929
10002W        W19695   9.397  17.325   2.662
10003W        W19696   8.439  16.845   4.114
10004W        W19697   6.961   4.635  10.899
10005W        W19698  11.765   1.235   2.217
10006W        W19699   8.423  10.029  11.873
10007W        W19700   4.592  10.985  14.320
10008W        W19701   0.730  19.292  14.797
10009W        W19702   6.025  19.272  13.314
10010W        W19703   4.577  13.942   0.260
10011W        W19704   8.883  17.321  11.417
10012W        W19705   3.628  17.358   1.708
10013W        W19706   4.118  12.965   3.656
10014W        W19707   6.036  10.016   1.706
10015W        W19708   5.533  13.910   3.646
10016W        W19709   7.466   1.729  12.360
10017W        W19710   7.959  19.769  14.291
10018W        W19711  10.822  11.486   1.226
10019W        W19712  11.773   4.681   0.243
10020W        W19713   4.115  19.276  13.333
10021W        W19714   4.602   2.204   2.187
10022W        W19715  11.778   4.185   1.698
10023W        W19716   3.132  18.339  14.286
10024W        W19717   5.556   7.116   0.272
10025W        W19718   3.601  14.417  13.341
10026W        W19719   1.704   4.168   4.129
10027W        W19720   5.064  11.490  10.900
10028W        W19721   3.131   3.177  10.913
10029W        W19722   1.727   4.662  11.902
10030W        W19723   6.044  17.334   4.137
10031W        W19724   4.582   6.616   1.231
10032W        W19725   4.124  10.036   2.192
10033W        W19726   3.624   1.253   4.630
10034W        W19727   6.988  14.914   0.258
10035W        W19728   5.558  12.467   2.199
10036W        W19729  11.312  15.398  14.762
10037W        W19730   6.999  19.799  11.866
10038W        W19731  11.284  19.801   1.245
10039W        W19732  11.788   4.662  13.804
10040W        W19733   6.012   4.635   2.220
10041W        W19734   2.176  14.880   3.663
10042W        W19735   6.998  19.282   4.616
10043W        W19736   3.606  11.964   2.188
10044W        W19737   5.544  14.920  12.852
10045W        W19738   4.604  11.997   0.245
10046W        W19739   6.969   0.284  13.795
10047W        W19740   7.934  10.048   0.774
10048W        W19741   1.697  14.406  14.313
10049W        W19742   5.546  14.424  14.303
10050W        W19743   6.516   0.776   0.767
10051W        W19744   8.431   3.216  12.870
10052W        W19745   9.869   1.235   1.249
10053W        W19746   8.416  17.348   1.257
10054W        W19747  11.304  11.505  11.407
10055W        W19748  10.807  16.372   4.135
10056W        W19749   5.549   8.058  10.925
10057W        W19750   7.005   2.706  14.785
10058W        W19751   3.614   0.759  14.796
10059W        W19752   5.083   7.565   4.131
10060W        W19753  10.833  11.497   4.151
10061W        W19754   4.576   5.151  13.328
10062W        W19755   5.050   1.256   4.149
10063W        W19756   7.482  19.801   0.767
10064W        W19757  11.788  10.499  13.328
10065W        W19758   9.392  19.786   3.172
10066W        W19759   5.066  17.342   0.726
10067W        W19760   4.582   5.143   3.157
10068W        W19761   5.047   9.544  12.379
10069W        W19762   5.566   9.049   0.246
10070W        W19763  11.281   4.672   1.706
10071W        W19764   8.424  13.461  10.915
10072W        W19765   9.405   4.657   3.156
10073W        W19766  11.786  14.436   0.769
10074W        W19767   2.203   0.764  10.902
10075W        W19768  11.299  11.466  14.297
10076W        W19769   5.553   2.688   0.246
10077W        W19770   6.032   1.727   4.617
10078W        W19771   6.037   0.738   3.145
10079W        W19772  11.298   7.581  12.345
10080W        W19773   0.241   9.047  13.837
10081W        W19774   3.630  13.906   3.164
10082W        W19775   3.635   2.235  13.816
10083W        W19776   1.696  16.356   4.636
10084W        W19777  11.792  10.993  13.311
10085W        W19778   1.205  13.431   4.626
10086W        W19779   9.852   8.544  14.781
10087W        W19780   7.477   9.560  13.835
10088W        W19781   7.442   0.284   4.617
10089W        W19782   4.095   8.060  12.866
10090W        W19783   8.886  14.892  12.375
10091W        W19784   3.124  14.904   4.637
10092W        W19785   6.004   0.753  11.390
10093W        W19786  10.323  11.993   3.147
10094W        W19787   1.681   4.676  13.807
10095W        W19788   5.061  13.905  13.313
10096W        W19789   7.458  17.347  12.829
10097W        W19790   9.389   8.539   0.252
10098W        W19791   4.580   7.076  12.857
10099W        W19792   8.904   2.241   2.704
10100W        W19793   9.887  17.828   2.190
10101W        W19794   8.915  14.408   2.676
10102W        W19795   0.723  15.374  13.833
10103W        W19796  11.286   1.720  12.370
10104W        W19797   2.177   8.050  13.315
10105W        W19798   8.904   7.077   0.727
10106W        W19799   5.538  18.811  11.381
10107W        W19800   6.002  10.527   1.704
10108W        W19801   2.662   1.726  11.376
10109W        W19802   1.690   7.088   4.123
10110W        W19803  10.332   2.226   0.736
10111W        W19804   3.162  10.993  11.396
10112W        W19805  10.806   7.609  14.805
10113W        W19806   2.182   7.075  14.793
10114W        W19807  10.326   5.617   0.756
10115W        W19808   7.460   6.143   1.249
10116W        W19809   1.224  11.466   0.288
10117W        W19810  10.837  14.432   4.635
10118W        W19811   1.697  15.372  11.866
10119W        W19812   4.113   0.747   1.702
10120W        W19813  10.330  19.780   0.265
10121W        W19814   6.483  14.906   1.731
10122W        W19815  10.831   9.536   3.169
10123W        W19816   0.286  14.426  13.354
10124W        W19817   5.056  11.974   3.670
10125W        W19818  11.763  18.299  14.768
10126W        W19819  10.323  11.992  11.401
10127W        W19820   1.726  18.324   3.670
10128W        W19821   5.085   9.554  12.855
10129W        W19822   9.374  10.033   1.231
10130W        W19823   8.446  10.040   2.185
10131W        W19824   4.110  17.339  12.347
10132W        W19825   3.134  11.975   2.681
10133W        W19826   4.106   1.736  13.307
10134W        W19827   4.108  17.827  12.857
10135W        W19828   9.876  10.993  11.877
10136W        W19829   6.523  13.443  12.351
10137W        W19830   2.682  19.760  14.311
10138W        W19831   5.563   8.556  11.858
10139W        W19832   8.927  17.821   2.191
10140W        W19833   3.150   7.592   1.696
10141W        W19834   8.905   7.567  12.350
10142W        W19835   0.750   0.775   0.266
10143W        W19836   9.367   3.203  13.797
10144W        W19837   1.234   8.558  14.285
10145W        W19838   2.655   2.729   1.247
10146W        W19839   7.959   3.192   4.126
10147W        W19840   6.025   7.107   1.212
10148W        W19841   7.455  11.997   1.736
10149W        W19842   3.610   7.595  12.839
10150W        W19843   1.239   0.257   1.243
10151W        W19844   6.963  17.365  11.389
10152W        W19845   8.920   6.591   2.180
10153W        W19846   3.144  11.988  12.844
10154W        W19847   9.362   7.577  14.781
10155W        W19848   7.942   4.634  12.379
10156W        W19849   2.184  17.334  10.922
10157W        W19850   8.883  10.497  14.801
10158W        W19851   6.002  10.000   2.671
10159W        W19852   7.478  18.787   1.723
10160W        W19853   0.740  10.002   2.188
10161W        W19854   1.221   8.085  13.803
10162W        W19855  10.841   7.085   4.614
10163W        W19856   2.206  18.782  10.904
10164W        W19857   2.645   6.606   4.604
10165W        W19858   2.188  15.390   3.634
10166W        W19859   7.945   0.254  10.888
10167W        W19860   7.478   4.165   1.223
10168W        W19861   3.161   4.654  13.346
10169W        W19862  10.819  16.874   2.682
10170W        W19863   3.142   0.245   1.715
10171W        W19864  11.315  19.281   4.155
10172W        W19865   9.395   7.591  13.314
10173W        W19866   7.007   2.699   2.186
10174W        W19867   4.101  18.811  12.339
10175W        W19868  10.813   6.622  13.330
10176W        W19869   4.563   1.733  12.849
10177W        W19870   8.899  16.388   2.226
10178W        W19871   7.948   3.186   1.246
10179W        W19872   9.364  12.970  14.317
10180W        W19873  10.359   1.223   4.636
10181W        W19874   2.170  10.018  12.853
10182W        W19875   6.044  19.781   4.155
10183W        W19876  11.326   4.676  13.798
10184W        W19877   1.725   5.154  10.930
10185W        W19878   8.401   3.211  10.920
10186W        W19879   2.200   5.658  10.907
10187W        W19880   4.102   4.182   2.693
10188W        W19881   0.735  11.988   3.156
10189W        W19882  11.766  10.039  12.842
10190W        W19883   1.204  10.989   3.651
10191W        W19884   1.229  12.950   3.182
10192W        W19885   6.981   4.680  11.868
10193W        W19886   8.406  10.498  13.317
10194W        W19887   2.678  16.837  11.901
10195W        W19888  11.781  11.961  12.867
10196W        W19889   7.953   3.705  13.318
10197W        W19890   1.710  13.931  14.295
10198W        W19891   1.723   4.193  12.380
10199W        W19892   5.539   1.242  12.861
10200W        W19893  11.785   3.676  14.286
10201W        W19894   2.176  18.827  14.797
10202W        W19895   7.935  13.929  13.792
10203W        W19896   9.391   5.145   3.168
10204W        W19897   6.971  17.844  10.896
10205W        W19898   0.734  12.475   0.271
10206W        W19899   4.571  18.325  12.381
10207W        W19900   0.743   8.554  12.375
10208W        W19901   1.214  16.836   0.255
10209W        W19902   5.524  11.986   1.708
10210W        W19903   9.857  11.472  14.790
10211W        W19904   7.924  13.443  11.404
10212W        W19905  10.807  10.006  13.827
10213W        W19906   2.678  13.944  12.362
10214W        W19907   3.120   9.045   3.169
10215W        W19908   9.364   0.745   4.122
10216W        W19909   1.716   0.771  11.864
10217W        W19910   0.749  18.784  12.825
10218W        W19911   1.726   2.202   0.273
10219W        W19912  11.299   6.600   4.607
10220W        W19913   6.985  10.984   2.207
10221W        W19914   2.676   3.215   2.690
10222W        W19915   4.084  19.803   0.739
10223W        W19916  10.329   0.756   2.690
10224W        W19917   6.490   0.767   2.208
10225W        W19918   3.604   8.070   3.633
10226W        W19919   8.908   8.583   0.275
10227W        W19920   7.487  13.946  11.401
10228W        W19921  11.325  16.357  11.867
10229W        W19922   3.149   3.173   1.217
10230W        W19923   8.424  16.371  13.344
10231W        W19924   3.637  10.980   1.711
10232W        W19925   0.244   7.075  11.378
10233W        W19926  10.840  18.809  12.379
10234W        W19927   3.609   3.181  14.806
10235W        W19928   6.508   3.178  11.873
10236W        W19929   6.982   9.066   2.698
10237W        W19930   4.584  11.496  11.383
10238W        W19931   4.122  18.822   4.135
10239W        W19932   6.511  19.802  11.879
10240W        W19933  11.767   9.051   2.701
10241W        W19934   4.600   1.239   4.624
10242W        W19935   4.565   8.060  12.340
10243W        W19936   6.038   2.696  13.803
10244W        W19937   6.017  12.928  13.319
10245W        W19938   3.603   2.197  11.864
10246W        W19939   2.200  13.456   3.159
10247W        W19940   9.406   9.544   4.125
10248W        W19941   9.854   5.649  14.792
10249W        W19942  10.336   2.721   2.211
10250W        W19943   2.170  13.452  14.278
10251W        W19944   2.189  18.823   1.732
10252W        W19945   6.497   8.089   4.135
10253W        W19946   3.129   1.225   2.209
10254W        W19947   3.125  14.416   2.194
10255W        W19948   2.183   5.644   0.246
10256W        W19949   1.200  19.763  14.308
10257W        W19950   6.046   9.543  14.788
10258W        W19951   2.644   0.288  10.929
10259W        W19952   4.605  17.843   1.225
10260W        W19953   1.714  15.867   3.191
10261W        W19954   1.719   7.581   1.704
10262W        W19955  11.296   4.179   2.183
10263W        W19956  10.823   0.760  11.866
10264W        W19957   3.163  16.362   0.730
10265W        W19958   9.846   7.079   1.239
10266W        W19959  10.353   5.130  10.914
10267W        W19960  10.341   6.133   1.722
10268W        W19961   8.406   8.564   1.236
10269W        W19962   6.486  17.351  13.810
10270W        W19963   1.702   5.635   1.233
10271W        W19964   9.372  19.270   3.641
10272W        W19965   3.157  17.842  14.802
10273W        W19966   5.532   6.110   0.273
10274W        W19967   7.949   9.530   2.201
10275W        W19968   4.100   0.750   3.638
10276W        W19969   1.707   1.752   1.732
10277W        W19970  11.287   9.519   3.635
10278W        W19971   9.883   5.642   4.626
10279W        W19972   1.695  16.855  11.388
10280W        W19973   6.028   0.268  13.801
10281W        W19974   5.075   7.121   2.701
10282W        W19975   5.533   3.180  14.794
10283W        W19976   4.579   6.138  13.335
10284W        W19977   4.601   9.536   1.734
10285W        W19978   0.257  17.360  12.383
10286W        W19979   1.222  15.856   3.676
10287W        W19980   8.918  19.305  14.771
10288W        W19981   1.718  19.805  11.386
10289W        W19982   2.191  11.506   2.194
10290W        W19983   7.451   8.086   2.203
10291W        W19984   1.245  13.432   1.717
10292W        W19985   9.852  13.420   1.741
10293W        W19986   7.457   0.261  13.310
10294W        W19987   7.444   7.605   0.738
10295W        W19988  10.329  14.902   4.599
10296W        W19989   1.708   8.085  10.924
10297W        W19990   7.456  11.465  14.759
10298W        W19991   3.618   8.078   2.199
10299W        W19992   4.585  11.004  13.836
10300W        W19993   0.283   0.779  12.358
10301W        W19994   5.055  13.906   0.733
10302W        W19995   3.644   6.102   2.710
10303W        W19996   4.089   5.652  13.319
10304W        W19997   4.122   0.249  12.852
10305W        W19998   5.046  14.885   0.268
10306W        W19999  10.802   2.713  14.768
10307W        W20000  11.778   2.717   2.695
10308W        W20001   3.636  10.991   1.249
10309W        W20002   6.991   4.641  13.796
10310W        W20003   6.023  14.400   1.257
10311W        W20004  10.818  16.841  13.314
10312W        W20005   6.036   1.222  12.863
10313W        W20006   0.747   6.118   2.667
10314W        W20007   9.845  14.398   2.212
10315W        W20008   1.708  12.452  12.386
10316W        W20009   0.746  12.951   2.183
10317W        W20010   1.205   3.171  11.415
10318W        W20011  10.336  19.778   1.703
10319W        W20012   1.718   2.241  13.814
10320W        W20013   0.727  11.489   1.732
10321W        W20014  11.780  15.399   2.182
10322W        W20015   8.405   3.206  14.764
10323W        W20016   5.525  15.369  12.386
10324W        W20017   7.960  15.866   2.198
10325W        W20018   9.361   3.700   1.720
10326W        W20019  11.286  15.408  13.803
10327W        W20020   4.090   8.557  12.383
10328W        W20021   1.700   2.232  12.352
10329W        W20022   6.035  14.912   3.647
10330W        W20023   7.484   1.252  12.827
10331W        W20024  11.301  17.326   4.615
10332W        W20025   3.643  11.488  13.328
10333W        W20026   4.120  18.324  11.885
10334W        W20027   8.413  15.900   0.277
10335W        W20028   7.008  11.962  14.799
10336W        W20029   5.526   0.738   0.282
10337W        W20030  10.324   7.074  14.784
10338W        W20031   4.116   3.195   0.757
10339W        W20032   0.245  10.987   3.630
10340W        W20033   8.425  18.824   2.179
10341W        W20034   4.097  16.871   0.745
10342W        W20035   5.086  18.825   3.167
10343W        W20036   7.950   6.628   0.768
10344W        W20037   1.681   9.031  13.831
10345W        W20038   3.150   6.601  13.802
10346W        W20039  10.335   9.559  14.793
10347W        W20040   8.401   9.521   2.700
10348W        W20041   6.024  10.528   2.206
10349W        W20042   8.894  10.011   0.752
10350W        W20043   7.453  14.409   0.730
10351W        W20044   0.256  11.999  12.383
10352W        W20045   7.947   0.257   2.703
10353W        W20046  11.294   9.528   2.682
10354W        W20047  10.362   4.188   1.742
10355W        W20048   2.647   9.031   4.625
10356W        W20049   1.235  15.890  14.773
10357W        W20050   3.127   3.678  12.867
10358W        W20051   7.956   0.258  13.821
10359W        W20052  10.820   9.516  13.334
10360W        W20053   9.407   5.137   2.188
10361W        W20054   6.040  16.343   3.673
10362W        W20055   9.855  17.815   0.269
10363W        W20056   8.897  17.343   0.759
10364W        W20057   7.952   8.065  14.290
10365W        W20058  11.324  17.353  14.289
10366W        W20059   9.363  15.859  13.313
10367W        W20060   9.847   2.211   0.264
10368W        W20061   3.647  19.308   2.690
10369W        W20062   4.606   7.588  11.856
10370W        W20063   1.719  17.835   4.644
10371W        W20064   1.235  18.822  12.378
10372W        W20065   4.604   0.286  14.296
10373W        W20066   2.652   1.250   2.700
10374W        W20067   6.970   8.541  14.793
10375W        W20068   3.627  16.845  13.338
10376W        W20069   7.949   4.172  14.296
10377W        W20070   4.120  19.275  11.419
10378W        W20071   0.273   4.655   1.694
10379W        W20072   5.075   4.161   3.633
10380W        W20073   2.653   4.680  13.816
10381W        W20074  11.325  12.954   0.751
10382W        W20075   0.756   6.613   3.640
10383W        W20076  10.324  10.019  10.926
10384W        W20077  10.360  12.454  11.406
10385W        W20078   7.962   8.076  11.390
10386W        W20079   4.567  17.345   2.211
10387W        W20080  10.816  18.339   3.192
10388W        W20081   4.585   1.249  13.836
10389W        W20082   6.041   9.042  12.380
10390W        W20083   8.445  12.462   0.265
10391W        W20084  11.807   8.080  12.867
10392W        W20085   6.482   9.547  12.862
10393W        W20086   5.071  11.999   2.193
10394W        W20087   2.664  14.899   3.668
10395W        W20088  10.821  10.536   2.200
10396W        W20089   8.414  15.401   0.727
10397W        W20090   2.163  18.809  11.863
10398W        W20091   5.050   7.589  11.397
10399W        W20092   2.651  15.876  12.345
10400W        W20093   0.765  10.008  11.380
10401W        W20094   0.243  19.305   2.218
10402W        W20095   3.644  17.332   4.614
10403W        W20096   0.766   4.156   3.176
10404W        W20097   5.080  11.981  11.397
10405W        W20098   6.492  15.861  11.891
10406W        W20099   0.720   8.547  10.912
10407W        W20100   1.696  11.010   1.257
10408W        W20101   5.055   7.568   1.252
10409W        W20102   4.589   3.186   2.690
10410W        W20103  11.784  10.498   4.126
10411W        W20104  11.293  13.453  14.289
10412W        W20105   4.605  17.852  12.837
10413W        W20106   3.637   7.118   1.241
10414W        W20107   6.007  16.364  12.374
10415W        W20108   4.123   1.738  11.896
10416W        W20109   2.175  18.313   1.736
10417W        W20110   4.592   5.170   0.728
10418W        W20111   8.447   6.633   1.715
10419W        W20112   4.583   3.700   0.256
10420W        W20113  11.291   8.541  12.376
10421W        W20114   2.643  13.438  11.413
10422W        W20115   5.067  18.316   0.257
10423W        W20116   4.608   9.515  14.779
10424W        W20117   6.998  15.394   0.281
10425W        W20118  11.796  19.783  11.889
10426W        W20119   7.930  16.343   1.249
10427W        W20120   6.497  11.490  14.783
10428W        W20121   9.869  11.977   3.156
10429W        W20122   5.537  10.980   4.598
10430W        W20123  10.332  11.494   1.238
10431W        W20124   6.993   7.104   0.290
10432W        W20125   4.110   1.738   4.602
10433W        W20126   4.578  15.373  13.334
10434W        W20127   8.404  17.817  13.331
10435W        W20128   4.594   3.699   3.147
10436W        W20129   0.757   7.092   3.169
10437W        W20130   9.842   1.234   2.699
10438W        W20131  10.802   2.212  13.799
10439W        W20132   0.763  14.897  11.865
10440W        W20133   8.442   8.065  14.791
10441W        W20134   8.433  18.302  13.826
10442W        W20135  11.284   3.664   3.168
10443W        W20136   9.866   2.199   0.732
10444W        W20137  10.832  12.454  11.874
10445W        W20138  10.365  17.815   2.696
10446W        W20139   7.962  11.471  14.295
10447W        W20140   0.241  12.969   2.688
10448W        W20141   0.284   2.696   4.146
10449W        W20142   4.090   2.718  14.799
10450W        W20143   6.035   2.231  14.758
10451W        W20144   2.680  19.768  12.363
10452W        W20145   7.952  13.457   1.727
10453W        W20146   5.058   7.076   2.183
10454W        W20147   0.735   3.676   3.677
10455W        W20148   5.552  18.339  14.762
10456W        W20149   7.967  10.511  12.827
10457W        W20150   3.128  18.340   2.218
10458W        W20151   4.581   0.260  12.824
10459W        W20152   3.164   3.175   2.709
10460W        W20153   4.588  15.385  11.877
10461W        W20154   3.134   7.568  12.343
10462W        W20155  11.803  11.951  13.331
10463W        W20156  11.319  15.900   4.131
10464W        W20157   0.755  15.889   4.633
10465W        W20158  10.819  14.885  14.771
10466W        W20159   8.448  12.971  12.834
10467W        W20160   2.177  12.448   2.676
10468W        W20161   3.146  16.381  11.887
10469W        W20162  11.292   4.155  11.372
10470W        W20163   0.261   8.552  13.341
10471W        W20164  11.322  19.297  13.792
10472W        W20165   6.973  12.484   3.634
10473W        W20166   6.967  14.409  10.908
10474W        W20167   9.400  14.903  14.788
10475W        W20168   6.488  12.479   0.265
10476W        W20169   7.929   6.111   4.157
10477W        W20170   6.012  12.444  13.826
10478W        W20171   6.526   8.553   1.246
10479W        W20172  11.799  16.839   4.598
10480W        W20173   3.131  10.994  12.358
10481W        W20174   7.443  18.305   4.126
10482W        W20175   5.566  18.802  13.803
10483W        W20176   5.534   1.253   0.289
10484W        W20177   8.904   2.716   2.679
10485W        W20178   8.906   1.750  11.899
10486W        W20179  10.842  14.415   0.765
10487W        W20180  11.316  13.452  11.884
10488W        W20181   0.754  10.981   3.672
10489W        W20182   7.966  13.416   4.625
10490W        W20183  11.300  16.869  12.387
10491W        W20184   6.005  13.911  14.296
10492W        W20185   1.219  17.853   0.250
10493W        W20186   5.086  18.307   3.166
10494W        W20187   4.123   5.131   2.689
10495W        W20188   7.943  14.439   0.286
10496W        W20189   1.235   7.108   0.729
10497W        W20190  10.325  14.409  14.304
10498W        W20191   8.901   7.589   1.709
10499W        W20192  11.783   0.747  14.764
10500W        W20193   9.865  13.437   1.216
10501W        W20194   7.481   3.210   2.685
10502W        W20195   6.008   4.194  14.787
10503W        W20196   9.371  16.383  13.338
10504W        W20197   6.519   9.026   3.649
10505W        W20198   8.920   9.056   2.187
10506W        W20199   6.513  11.953   0.761
10507W        W20200  11.801  17.324   1.214
10508W        W20201   0.248  13.462   4.157
10509W        W20202  11.784   5.630  12.358
10510W        W20203   2.683   3.694   3.671
10511W        W20204   5.056  16.390   0.288
10512W        W20205   5.086  19.312  12.861
10513W        W20206   0.286  11.498   1.246
10514W        W20207   9.883   5.647   3.660
10515W        W20208   5.561  13.926  13.347
10516W        W20209   4.601  17.341   4.136
10517W        W20210   8.894  19.785   3.178
10518W        W20211  10.330   7.576   1.706
10519W        W20212   3.163  12.959  14.306
10520W        W20213  11.770  10.996   0.760
10521W        W20214   2.206   9.067  14.770
10522W        W20215   7.002  18.321   2.676
10523W        W20216  10.819   1.721   1.721
10524W        W20217   0.751  10.987  10.919
10525W        W20218  11.303  10.040   5.100
10526W        W20219   1.687   7.588   0.282
10527W        W20220   1.703  13.428  14.307
10528W        W20221  11.320  10.032  13.811
10529W        W20222   9.384   3.675   0.243
10530W        W20223   3.634  19.796  12.867
10531W        W20224   0.759   4.186   1.721
10532W        W20225  11.792   4.193   4.122
10533W        W20226   6.033  11.953   1.223
10534W        W20227   7.967  14.926  11.878
10535W        W20228   5.567  14.390   2.692
10536W        W20229   9.860  15.370   4.121
10537W        W20230   7.465  16.836  11.390
10538W        W20231  11.288  10.516  14.278
10539W        W20232   9.400   1.736   4.141
10540W        W20233  11.288   3.218  13.350
10541W        W20234  11.322   7.112  12.371
10542W        W20235   8.433   5.142  11.872
10543W        W20236   8.413   6.629  12.824
10544W        W20237   6.507   5.155   0.288
10545W        W20238   3.626   1.234   3.180
10546W        W20239  10.342   6.591   0.268
10547W        W20240   5.057   0.274  14.311
10548W        W20241  10.801   8.552  10.892
10549W        W20242   5.520  10.510  11.868
10550W        W20243   6.987  18.797   1.258
10551W        W20244   4.588  16.846  12.364
10552W        W20245   2.179  13.454   3.638
10553W        W20246   2.648  15.377  14.767
10554W        W20247   6.965  15.395  14.761
10555W        W20248  11.328   8.582   0.754
10556W        W20249   1.202   0.757  11.900
10557W        W20250   4.120   6.139  14.303
10558W        W20251   2.173  13.931   2.206
10559W        W20252  10.342  13.927  13.794
10560W        W20253   4.588   0.262   1.231
10561W        W20254   0.737   2.716  14.805
10562W        W20255   2.173  17.811  11.397
10563W        W20256   6.523  18.813   1.722
10564W        W20257   8.413  17.354   2.666
10565W        W20258   1.246  17.334  13.810
10566W        W20259   9.373   8.060   0.268
10567W        W20260   7.965   1.720  11.395
10568W        W20261  10.815   4.652   0.261
10569W        W20262   6.020   6.105  11.857
10570W        W20263  10.335   7.600  14.299
10571W        W20264   3.155   3.682   3.167
10572W        W20265   3.646  11.500  11.896
10573W        W20266   3.124   0.745  11.878
10574W        W20267   9.842  11.956   4.611
10575W        W20268   2.679   2.218   1.249
10576W        W20269   2.649   0.267   0.770
10577W        W20270   5.077   8.563  13.828
10578W        W20271   4.581  11.470   4.139
10579W        W20272  11.804  12.929  14.804
10580W        W20273   9.361   6.615   4.601
10581W        W20274   2.669  11.010  13.334
10582W        W20275   1.722  12.934   4.598
10583W        W20276  11.313   3.676   4.142
10584W        W20277   7.001  18.332  11.883
10585W        W20278   6.990   8.561  10.901
10586W        W20279   9.367  18.813   1.740
10587W        W20280   4.595  15.376  12.867
10588W        W20281   2.169  18.806  13.327
10589W        W20282   6.032   5.159   4.160
10590W        W20283   6.034  16.361  12.856
10591W        W20284   9.384   6.115  11.410
10592W        W20285  10.814  18.817   3.165
10593W        W20286  11.313  18.828   1.218
10594W        W20287   5.047  10.491   4.158
10595W        W20288   6.021   1.236  14.805
10596W        W20289   8.895  11.021  14.769
10597W        W20290   4.599   1.742  14.321
10598W        W20291   7.446  11.011   3.659
10599W        W20292   6.014  17.833  10.911
10600W        W20293   6.033   0.266  11.883
10601W        W20294   9.849  15.381   0.285
10602W        W20295   1.721  17.845  13.337
10603W        W20296  10.805  17.329   3.167
10604W        W20297   3.624   4.661  11.893
10605W        W20298   9.405   4.166   1.255
10606W        W20299   6.017   3.690  14.292
10607W        W20300   5.041  18.795   0.743
10608W        W20301   6.484  16.856  11.872
10609W        W20302  10.333  11.485   4.121
10610W        W20303   3.606  18.787  11.891
10611W        W20304   2.678   8.082  14.285
10612W        W20305   7.460   6.109   0.253
10613W        W20306   5.554  16.367   3.676
10614W        W20307   1.220   3.671  11.876
10615W        W20308   6.006  11.974   0.273
10616W        W20309   8.900  17.356  13.831
10617W        W20310   5.055   0.743  11.857
10618W        W20311   3.640  10.491  11.396
10619W        W20312   3.140  18.814  14.780
10620W        W20313   1.703   3.187  10.925
10621W        W20314   0.721   9.052  11.866
10622W        W20315   6.008  11.019   1.704
10623W        W20316  10.804   6.127  11.857
10624W        W20317   7.941  11.486   2.181
10625W        W20318  11.798  11.981  14.762
10626W        W20319   6.006  17.347   4.638
10627W        W20320   3.647  17.357  11.898
10628W        W20321  11.782   2.725  11.902
10629W        W20322  10.805  19.792  11.398
10630W        W20323   5.533   9.549   2.192
10631W        W20324   9.870  14.916  11.401
10632W        W20325   3.150  16.871  11.893
10633W        W20326   4.562  14.895  12.362
10634W        W20327   3.612  13.438   0.261
10635W        W20328   1.238   1.723  12.827
10636W        W20329  10.365   6.133  11.412
10637W        W20330   7.007   7.573   0.764
10638W        W20331   4.103  16.876   2.698
10639W        W20332   2.205   4.645  13.805
10640W        W20333   6.493   6.102   3.162
10641W        W20334   3.625  15.875   1.730
10642W        W20335   5.526   3.196  10.895
10643W        W20336   7.947  14.917   2.690
10644W        W20337   8.403   4.159  12.845
10645W        W20338   6.975  17.365   4.131
10646W        W20339   8.438   0.270  14.309
10647W        W20340   7.924   6.133  13.330
10648W        W20341   9.407  11.969   0.774
10649W        W20342  11.286  14.427  13.327
10650W        W20343   3.142  19.311  13.810
10651W        W20344   5.077  11.015  11.890
10652W        W20345   6.990  18.792   3.176
10653W        W20346   0.729   0.777   3.650
10654W        W20347   2.666   2.199  12.355
10655W        W20348   7.458  14.924   1.252
10656W        W20349   9.856   4.645   1.735
10657W        W20350  10.359  11.024   1.257
10658W        W20351   9.385  16.387  14.762
10659W        W20352   8.421  13.951  11.406
10660W        W20353   3.614   6.144  11.379
10661W        W20354   5.552  15.869   1.720
10662W        W20355   4.126   6.117  11.898
10663W        W20356   5.050  14.402   4.123
10664W        W20357   5.056   4.154  11.902
10665W        W20358   8.884   7.565  12.829
10666W        W20359   0.274   5.635  12.359
10667W        W20360   1.205  13.430   2.705
10668W        W20361   4.115  12.940  12.350
10669W        W20362   4.581  15.379  12.344
10670W        W20363   6.511   1.746   1.736
10671W        W20364   4.573   0.762  12.365
10672W        W20365   1.206   7.099   0.249
10673W        W20366   6.995   1.268   0.244
10674W        W20367   7.959   1.237   4.617
10675W        W20368   5.065  18.815  13.325
10676W        W20369   9.844   0.287   1.220
10677W        W20370  11.803   1.267  11.376
10678W        W20371  10.334   6.614  12.347
10679W        W20372   3.636  16.350  11.375
10680W        W20373   9.398  14.427   1.251
10681W        W20374   6.483   0.774   3.193
10682W        W20375   1.236   2.706  13.838
10683W        W20376   2.180   0.751   2.675
10684W        W20377   1.689  14.909   1.727
10685W        W20378  10.806  10.048   0.283
10686W        W20379   7.000   4.149  12.860
10687W        W20380   6.514   3.702   1.704
10688W        W20381  10.365  18.812   0.769
10689W        W20382   0.725  13.423   4.131
10690W        W20383  11.323   3.696   3.634
10691W        W20384   5.068   4.182  10.927
10692W        W20385  10.843  12.961   2.192
10693W        W20386   8.427   5.170  14.282
10694W        W20387   0.764   9.030   4.644
10695W        W20388   0.745   3.218  14.318
10696W        W20389   8.927   1.238  13.796
10697W        W20390   6.512  18.825   2.683
10698W        W20391   9.881  18.825  12.865
10699W        W20392   7.476  14.404   0.286
10700W        W20393   9.876  16.382   2.210
10701W        W20394   9.870   8.566   0.264
10702W        W20395   3.120  13.421  14.768
10703W        W20396  11.312   7.568   2.199
10704W        W20397   9.859  14.889  12.354
10705W        W20398   4.603   9.541   3.633
10706W        W20399   5.530   3.208   2.205
10707W        W20400   2.646  11.500  12.834
10708W        W20401   7.965  18.797  10.904
10709W        W20402  10.326   9.537  10.899
10710W        W20403   6.994  18.801   2.207
10711W        W20404   6.524   4.655  11.401
10712W        W20405   6.999   6.601   0.275
10713W        W20406   9.841  11.482  14.306
10714W        W20407   6.018   2.233  13.817
10715W        W20408  11.322   5.640  12.854
10716W        W20409   7.473   7.112  14.310
10717W        W20410  11.795  14.894  14.322
10718W        W20411   5.535  17.848  11.882
10719W        W20412   0.750  15.404  10.910
10720W        W20413   1.218  16.862  10.909
10721W        W20414   2.644   4.658   0.729
10722W        W20415   5.563  12.948  11.382
10723W        W20416   5.063  12.451  13.811
10724W        W20417   6.517  11.506  13.791
10725W        W20418   2.168  18.793  13.810
10726W        W20419  11.285   8.061   1.219
10727W        W20420   7.956   6.594  11.902
10728W        W20421  11.323   7.563   1.723
10729W        W20422   3.128   4.164   2.202
10730W        W20423   6.999  10.983   4.150
10731W        W20424   0.256   0.775  13.810
10732W        W20425   3.634  11.972  10.901
10733W        W20426  10.343  14.890   1.741
10734W        W20427   8.417   3.683   2.683
10735W        W20428   4.085   3.681   2.191
10736W        W20429  11.289  15.865  10.906
10737W        W20430   1.223  11.021  14.805
10738W        W20431   3.611  11.979   1.706
10739W        W20432   7.457  15.384  10.895
10740W        W20433  10.325  17.348   2.703
10741W        W20434   2.177   0.288  14.768
10742W        W20435   7.922  11.470  11.403
10743W        W20436   0.760  13.927  13.345
10744W        W20437   3.150   5.657   3.185
10745W        W20438   4.097   7.101   1.708
10746W        W20439   0.746   7.108   0.771
10747W        W20440   0.281  18.790   0.248
10748W        W20441  10.322   1.247   4.129
10749W        W20442   7.932   3.694   0.267
10750W        W20443   4.594   7.105   1.212
10751W        W20444  10.334   9.034  10.913
10752W        W20445   4.091   5.645  11.403
10753W        W20446   0.741   9.049  12.343
10754W        W20447   6.028  19.284  14.772
10755W        W20448   1.721  11.491  14.305
10756W        W20449   4.094  18.803  13.314
10757W        W20450   7.459   5.650  12.844
10758W        W20451   9.366   8.584  11.389
10759W        W20452   9.853   9.053   1.694
10760W        W20453  10.356  10.527  12.826
10761W        W20454  10.336  14.395   0.279
10762W        W20455  10.844   8.580   4.141
10763W        W20456   4.105  14.892  14.766
10764W        W20457   7.456   8.054  12.824
10765W        W20458   5.527   8.582  12.383
10766W        W20459  11.296  13.932   4.140
10767W        W20460  11.323   6.121   2.673
10768W        W20461   9.389  14.400  13.818
10769W        W20462   3.135  12.951   2.184
10770W        W20463   9.877  11.506   4.598
10771W        W20464   7.448   7.595   1.708
10772W        W20465   8.432  15.896  14.283
10773W        W20466   4.581  16.356   3.166
10774W        W20467   8.428   9.516  14.303
10775W        W20468   6.018   3.198   4.637
10776W        W20469   1.695   6.634   1.717
10777W        W20470   8.447   1.714   3.147
10778W        W20471   3.625   0.761  11.386
10779W        W20472  10.361  16.358   3.175
10780W        W20473   0.758  14.912   1.238
10781W        W20474   2.644   0.274  14.275
10782W        W20475   9.852  17.360  14.770
10783W        W20476   1.687  13.941  12.826
10784W        W20477   8.893  16.872  12.385
10785W        W20478   7.448  14.893  13.806
10786W        W20479   4.599  14.435  14.792
10787W        W20480   6.973  12.485   0.279
10788W        W20481   3.617   0.737   0.271
10789W        W20482   6.982   8.571   2.673
10790W        W20483   4.117  14.900  11.410
10791W        W20484  10.343  10.986   0.280
10792W        W20485   6.980  19.796   2.684
10793W        W20486   1.234   3.181  14.776
10794W        W20487   3.604   5.164  11.895
10795W        W20488   4.576  14.919   1.707
10796W        W20489   6.025  14.904  11.862
10797W        W20490   6.023  14.438   4.602
10798W        W20491  11.297   1.728  13.312
10799W        W20492  10.811   0.776   0.260
10800W        W20493   1.685  16.839   1.701
10801W        W20494   8.884  14.407   4.597
10802W        W20495  11.789  10.495  14.281
10803W        W20496   1.221  19.794  13.827
10804W        W20497   0.734   4.172   4.137
10805W        W20498   5.075   8.552  14.304
10806W        W20499  10.813   7.101   0.741
10807W        W20500  10.320  14.883  11.375
10808W        W20501   7.944  19.299  14.806
10809W        W20502   4.089  16.350  14.313
10810W        W20503   9.871   4.658  13.805
10811W        W20504   2.174  11.972  14.296
10812W        W20505   8.433  11.952   1.741
10813W        W20506   6.963   3.190  12.823
10814W        W20507  10.334   3.676  10.930
10815W        W20508   6.960   8.082   2.687
10816W        W20509   3.125  18.801   4.155
10817W        W20510   3.645   1.225  12.385
10818W        W20511   7.440   1.230   3.638
10819W        W20512   5.553   1.251   2.181
10820W        W20513   1.689   5.622  12.833
10821W        W20514   0.261  13.931   0.761
10822W        W20515   8.433  15.861  12.385
10823W        W20516  10.355  16.370  12.362
10824W        W20517   3.632  11.999  13.320
10825W        W20518  11.781   7.604  11.903
10826W        W20519   5.087  12.452   0.245
10827W        W20520   8.893  14.900   4.606
10828W        W20521   9.882  12.971   1.735
10829W        W20522   2.659  14.432   1.254
10830W        W20523   4.569   9.529   1.233
10831W        W20524  10.830  10.995  11.380
10832W        W20525   4.126   1.734  10.902
10833W        W20526   9.379  15.884  13.829
10834W        W20527  11.295  16.844   1.738
10835W        W20528   5.534  10.503   2.226
10836W        W20529   5.066  17.819   1.730
10837W        W20530   6.011   0.733   4.632
10838W        W20531   0.285   9.050  11.391
10839W        W20532   3.147   6.145  11.407
10840W        W20533   2.659   4.176  14.317
10841W        W20534  11.317   2.219   0.286
10842W        W20535   6.995   9.066   0.249
10843W        W20536   7.485   6.609   4.151
10844W        W20537   7.925   1.268  10.892
10845W        W20538   9.844   7.605   2.211
10846W        W20539   9.841   6.143  12.850
10847W        W20540   7.920   8.584   4.155
10848W        W20541   4.113  13.946  12.850
10849W        W20542   9.372  19.314  12.835
10850W        W20543   8.410  16.365   1.729
10851W        W20544   0.723  13.439   2.683
10852W        W20545   0.281   4.164  13.825
10853W        W20546   2.667   5.136  11.857
10854W        W20547   2.177   4.671   2.661
10855W        W20548   1.681   1.741  12.824
10856W        W20549   7.469   4.644   2.223
10857W        W20550   3.617   3.204   3.661
10858W        W20551   3.124   9.072  10.908
10859W        W20552   2.190  12.442  13.334
10860W        W20553   6.520  14.888  11.885
10861W        W20554  11.324  15.872   2.690
10862W        W20555   1.706  10.002   3.637
10863W        W20556   6.003   4.168   0.756
10864W        W20557   4.116  10.041  14.297
10865W        W20558  11.301  18.297   0.727
10866W        W20559   8.904   5.126   0.751
10867W        W20560   5.560  11.487   4.125
10868W        W20561  11.316   0.732   4.114
10869W        W20562   2.200  16.359   1.253
10870W        W20563  10.321  12.445   3.168
10871W        W20564   3.133   6.629   0.755
10872W        W20565   5.049   5.658   2.700
10873W        W20566   1.221   5.161   4.158
10874W        W20567   0.242   8.556   0.732
10875W        W20568   8.920   9.031  11.408
10876W        W20569  10.809   0.244  10.909
10877W        W20570   9.406   1.750   0.756
10878W        W20571   6.516  10.509  13.348
10879W        W20572   0.732   4.152   0.774
10880W        W20573   5.551  12.956  11.896
10881W        W20574   1.720   2.724   3.174
10882W        W20575  10.343   4.187   2.203
10883W        W20576  11.323  12.956   4.623
10884W        W20577  11.794   3.703  13.334
10885W        W20578   2.650  11.495  10.897
10886W        W20579   3.613  14.420  14.298
10887W        W20580   5.067   2.731   2.213
10888W        W20581  10.810   9.512   1.704
10889W        W20582   1.231  19.803  11.401
10890W        W20583  11.319  11.961   0.270
10891W        W20584   7.968   3.661   2.687
10892W        W20585   6.963  16.840   1.734
10893W        W20586   6.490   1.243  11.902
10894W        W20587  11.798   5.134  12.360
10895W        W20588   7.452   7.595  11.417
10896W        W20589   0.276   6.137   4.620
10897W        W20590  10.321  19.771  10.928
10898W        W20591   7.948   9.539   2.686
10899W        W20592   6.997  19.760   1.222
10900W        W20593   2.665  19.309  13.827
10901W        W20594   6.976   8.063  14.787
10902W        W20595   3.156  16.388   4.126
10903W        W20596   7.942   0.270  14.771
10904W        W20597   1.683   8.559  10.912
10905W        W20598   9.858   0.270  10.889
10906W        W20599   5.053  10.981   2.691
10907W        W20600   6.492   9.540   4.603
10908W        W20601   3.157  14.898  11.402
10909W        W20602   9.840  10.030  12.869
10910W        W20603   5.528   1.740   3.157
10911W        W20604   3.162  11.967   1.236
10912W        W20605   7.483  15.875   4.141
10913W        W20606   9.853   3.683   3.173
10914W        W20607   2.200   1.729   2.199
10915W        W20608  10.809   4.150  11.384
10916W        W20609   3.603   8.558   0.762
10917W        W20610   2.648   2.223   2.696
10918W        W20611   7.488  12.468  13.830
10919W        W20612   4.087   4.159   0.726
10920W        W20613   0.273   6.606  12.848
10921W        W20614   4.086   8.549   3.650
10922W        W20615  10.836  10.504  12.364
10923W        W20616   8.420  11.484  13.814
10924W        W20617   8.430   0.253  13.833
10925W        W20618  11.773  16.352   3.638
10926W        W20619   8.441   4.184   1.219
10927W        W20620   4.087  13.454   2.703
10928W        W20621   7.456   5.625  14.799
10929W        W20622   0.268  19.295   1.736
10930W        W20623  10.810   1.750   4.609
10931W        W20624   4.098   8.055   4.146
10932W        W20625   0.747   8.094   2.698
10933W        W20626   7.964   8.547  12.353
10934W        W20627   9.850   8.084   4.123
10935W        W20628   0.744   8.547   1.722
10936W        W20629   5.061   7.094  13.822
10937W        W20630   1.711  10.527   3.663
10938W        W20631   2.641   2.714   0.743
10939W        W20632   3.164  10.998  14.771
10940W        W20633   1.203  16.840   1.718
10941W        W20634  10.820   1.744   2.222
10942W        W20635   5.087   4.166  12.852
10943W        W20636   7.478  13.922   2.180
10944W        W20637   4.116  15.901   3.175
10945W        W20638   7.444   0.759  12.826
10946W        W20639   0.256   7.592   0.753
10947W        W20640   2.173   6.139  12.351
10948W        W20641   1.715  13.926   3.664
10949W        W20642   5.567   0.749  12.350
10950W        W20643   2.181  13.441   0.284
10951W        W20644   1.693   1.713   2.668
10952W        W20645   3.613  16.856   2.189
10953W        W20646   3.639  15.868  14.299
10954W        W20647  11.764   4.670   2.668
10955W        W20648   1.247   7.106   1.713
10956W        W20649   3.606   4.188  11.388
10957W        W20650   6.989  16.843   0.732
10958W        W20651   6.001   7.098  12.351
10959W        W20652   0.276  14.392   2.676
10960W        W20653   7.928  19.286   0.268
10961W        W20654   6.990   6.101   2.193
10962W        W20655   0.761   3.206   0.252
10963W        W20656  10.835  11.987   0.772
10964W        W20657   0.260   8.580   3.157
10965W        W20658   0.730  18.797   3.154
10966W        W20659   2.670   7.081  12.846
10967W        W20660   6.491   8.557   3.640
10968W        W20661   0.740   5.630  14.308
10969W        W20662   6.481   5.151   1.718
10970W        W20663   5.536  11.955   4.135
10971W        W20664   8.896   0.757  10.896
10972W        W20665   1.206   2.707   1.229
10973W        W20666  11.310  16.867   4.612
10974W        W20667   2.199   8.073   1.713
10975W        W20668   7.006   7.114   2.219
10976W        W20669   4.086   1.264  14.802
10977W        W20670   1.239   0.762   0.732
10978W        W20671   3.133  16.354  12.354
10979W        W20672   9.403   9.032  13.806
10980W        W20673   6.040  17.342   3.151
10981W        W20674   2.177  19.269  14.322
10982W        W20675   9.373   2.236  12.842
10983W        W20676   2.201  17.844  10.909
10984W        W20677  11.326  16.349   4.640
10985W        W20678   4.585  16.372  13.812
10986W        W20679   4.097  19.773  12.863
10987W        W20680   3.643   1.727   0.270
10988W        W20681   6.009  17.345   2.193
10989W        W20682   1.716  15.871  10.895
10990W        W20683   6.494   3.199  13.834
10991W        W20684   2.164   7.563  11.409
10992W        W20685  11.803  13.925  14.766
10993W        W20686   3.625  10.995   0.243
10994W        W20687   6.518  15.863  10.908
10995W        W20688   9.875  16.876  13.334
10996W        W20689  10.368  12.462  13.826
10997W        W20690   8.416  19.313  11.381
10998W        W20691   8.424  15.375   1.728
10999W        W20692   7.960   1.716  14.784
11000W        W20693   6.501   3.181  10.909
11001W        W20694   4.104  11.017  14.281
11002W        W20695  10.355   4.676   1.700
11003W        W20696   2.197  12.455   3.661
11004W        W20697   6.009  18.824   0.259
11005W        W20698   9.376   7.587   4.630
11006W        W20699   9.880  12.947  13.829
11007W        W20700   6.975   2.242  11.404
11008W        W20701   1.714   8.575  11.862
11009W        W20702   7.472   7.077   2.217
11010W        W20703   5.078  18.341   3.651
11011W        W20704  10.363   9.039   3.173
11012W        W20705   6.016   5.130   2.666
11013W        W20706   9.386   0.289   2.191
11014W        W20707   0.262  19.803  11.388
11015W        W20708   1.213   6.595   1.733
11016W        W20709   0.282  18.304   3.187
11017W        W20710   0.723  10.510  10.901
11018W        W20711   7.955   1.253   0.259
11019W        W20712   4.084   2.725   2.213
11020W        W20713   4.094   7.573   1.258
11021W        W20714   2.181  14.922  14.302
11022W        W20715   6.977  15.884   3.665
11023W        W20716   6.966   3.176  14.276
11024W        W20717   1.707  19.302  12.850
11025W        W20718   8.441  16.852  12.340
11026W        W20719   4.117   0.771   4.133
11027W        W20720   1.242   9.526   2.676
11028W        W20721   7.950   3.175  14.314
11029W        W20722   5.062  14.909  14.282
11030W        W20723   2.670  17.843  10.893
11031W        W20724  11.777   4.181   4.639
11032W        W20725   9.385   7.074   4.130
11033W        W20726   9.376   5.148   3.646
11034W        W20727   4.089   7.581  13.320
11035W        W20728   7.939   0.742  14.298
11036W        W20729  10.815  15.858  14.790
11037W        W20730   6.481  17.842   1.704
11038W        W20731   8.900   4.185  13.335
11039W        W20732   2.182   7.074  11.380
11040W        W20733   1.215   4.166   0.742
11041W        W20734   3.633  15.892   2.678
11042W        W20735   5.069  11.508  11.384
11043W        W20736   4.572  11.012  12.380
11044W        W20737   0.254  16.854   4.155
11045W        W20738  11.315  12.973  11.888
11046W        W20739   0.266   5.611   1.257
11047W        W20740  11.789   8.086  11.412
11048W        W20741   9.380   2.200   0.258
11049W        W20742  11.773   3.189  12.852
11050W        W20743   8.880   5.130   1.226
11051W        W20744   0.723  13.913   0.760
11052W        W20745   7.454   3.213  10.921
11053W        W20746   6.981   7.582   0.256
11054W        W20747   0.748  11.476   2.670
11055W        W20748   5.567  12.935  10.914
11056W        W20749   0.744   7.077   1.240
11057W        W20750   8.426  11.990   3.675
11058W        W20751   3.628  16.850   1.238
11059W        W20752  11.791  18.785  12.851
11060W        W20753   6.963   2.201   3.640
11061W        W20754   0.272   7.607  11.902
11062W        W20755  10.801  14.890  11.875
11063W        W20756   8.438  11.994  11.413
11064W        W20757   7.936  10.506   4.150
11065W        W20758   0.733  16.848   1.211
11066W        W20759   7.938  15.405  11.390
11067W        W20760   4.117  11.973  11.890
11068W        W20761   0.285  13.907   4.156
11069W        W20762   3.141  11.487  11.379
11070W        W20763   2.181  15.378   3.148
11071W        W20764   2.685  18.316   2.691
11072W        W20765   7.947   4.169  11.899
11073W        W20766  11.791   4.154   2.195
11074W        W20767   3.612  12.441   2.183
11075W        W20768   1.212  13.440   0.728
11076W        W20769   3.646   9.069  12.832
11077W        W20770   6.976   8.537  12.342
11078W        W20771   3.131  11.471  12.870
11079W        W20772  10.842  17.359  14.311
11080W        W20773   0.240   3.180  14.282
11081W        W20774  11.303  11.466   1.716
11082W        W20775   2.678  16.869  14.294
11083W        W20776   2.206   1.266   0.252
11084W        W20777   1.217   7.586   3.184
11085W        W20778   7.005   4.646   1.733
11086W        W20779   9.855  12.950   2.182
11087W        W20780   8.915   7.573   1.242
11088W        W20781   8.881  18.826  12.869
11089W        W20782  11.283   5.138  10.897
11090W        W20783   9.844   1.725  14.766
11091W        W20784   7.488   8.553   3.160
11092W        W20785   0.749  14.902   2.202
11093W        W20786   2.642  11.470   1.730
11094W        W20787   2.647  11.497   0.762
11095W        W20788   2.664  13.424  14.788
11096W        W20789  11.764   1.724  13.326
11097W        W20790   7.920  13.922  11.880
11098W        W20791   0.732   3.207   0.771
11099W        W20792   7.964  16.382  11.875
11100W        W20793  11.283  19.771   3.658
11101W        W20794  11.319   1.741   0.263
11102W        W20795   1.716  14.879  13.324
11103W        W20796   8.898  10.003   0.248
11104W        W20797  10.366   8.561  14.283
11105W        W20798   5.076   5.657  13.797
11106W        W20799   5.526  10.987  12.366
11107W        W20800   1.682  15.391   3.647
11108W        W20801  10.350  15.409  13.338
11109W        W20802   1.689   2.214   4.643
11110W        W20803   5.541  19.788  12.351
11111W        W20804  10.334  15.901   2.217
11112W        W20805   8.423   3.195   0.728
11113W        W20806   4.084  18.825   0.737
11114W        W20807   1.720   0.756   2.186
11115W        W20808  10.345   8.085   2.219
11116W        W20809   5.541  13.911   2.698
11117W        W20810   1.713  12.968   3.652
11118W        W20811   0.259  17.343  12.868
11119W        W20812   5.527  14.411   4.159
11120W        W20813   5.525   3.683  10.920
11121W        W20814   7.467   8.574   2.205
11122W        W20815   3.134  11.479   0.732
11123W        W20816   0.247   6.601  11.390
11124W        W20817   0.748   9.560   1.739
11125W        W20818   2.183  17.351  12.870
11126W        W20819   5.543   8.078  13.317
11127W        W20820  11.301  16.354  14.790
11128W        W20821   3.162   4.186  11.393
11129W        W20822   2.677  13.453   4.117
11130W        W20823  11.805  13.926   4.130
11131W        W20824   9.840  13.433   2.225
11132W        W20825   6.977   5.618  10.921
11133W        W20826  10.350   7.101  11.413
11134W        W20827   9.377   8.082   2.694
11135W        W20828   7.946   3.219  13.834
11136W        W20829   3.147   4.657  10.887
11137W        W20830  11.320  18.794   0.269
11138W        W20831  11.316   3.208  10.404
11139W        W20832   2.207   9.554  12.359
11140W        W20833   8.882   6.108  10.933
11141W        W20834   0.756  11.509  14.782
11142W        W20835   8.412   0.779  13.838
11143W        W20836   6.012  12.956   0.264
11144W        W20837   3.130  18.333  12.363
11145W        W20838  11.303  15.886  14.288
11146W        W20839  10.806  13.911   1.736
11147W        W20840   3.601  13.929   3.660
11148W        W20841   6.515   1.730  13.835
11149W        W20842   2.193  14.894  11.377
11150W        W20843  11.793   5.134  13.795
11151W        W20844   0.724  12.467   2.666
11152W        W20845   7.938  18.803  11.882
11153W        W20846   6.523   4.182   4.610
11154W        W20847  11.298   1.723  13.803
11155W        W20848  11.282   6.102   0.264
11156W        W20849   9.384  13.906  13.333
11157W        W20850   8.446   0.275  13.332
11158W        W20851   1.686   4.156  12.828
11159W        W20852   2.676   4.156  13.322
11160W        W20853   9.364  17.346   4.113
11161W        W20854   3.125   0.266  14.319
11162W        W20855   8.910  10.983   3.653
11163W        W20856   7.479   5.162   2.191
11164W        W20857   6.994  14.436   3.662
11165W        W20858   1.695  15.381   1.718
11166W        W20859   1.234  19.277  12.343
11167W        W20860   8.924  15.395   4.135
11168W        W20861   2.645   4.648   4.153
11169W        W20862  11.792   6.619   2.676
11170W        W20863  10.362   0.253  11.856
11171W        W20864   0.256   8.547   3.650
11172W        W20865   3.142   2.220   1.232
11173W        W20866   1.233  19.772   2.679
11174W        W20867   1.706   4.661   0.287
11175W        W20868  11.300   7.562   0.768
11176W        W20869   9.406   3.675  11.902
11177W        W20870   5.561  13.932  11.881
11178W        W20871   5.077   9.056   1.706
11179W        W20872  10.352  17.809   1.211
11180W        W20873   2.656  16.344  12.826
11181W        W20874   1.226  16.830  13.329
11182W        W20875  10.816  13.445   0.255
11183W        W20876   5.559  13.919  14.311
11184W        W20877   5.557  16.378   1.253
11185W        W20878   6.522  17.342   0.737
11186W        W20879   0.767  11.980   2.680
11187W        W20880   5.052  13.415   3.630
11188W        W20881   5.535   3.669   2.686
11189W        W20882   1.230  18.796   2.686
11190W        W20883   0.741   0.284   4.612
11191W        W20884   6.508  14.394   4.629
11192W        W20885   8.919  11.487   0.745
11193W        W20886   7.949   2.206  11.417
11194W        W20887   6.028   8.578   3.184
11195W        W20888   2.646   8.562   1.724
11196W        W20889  11.793  10.006  13.803
11197W        W20890   6.023   3.213   1.705
11198W        W20891   9.406  15.406   0.264
11199W        W20892   1.691   2.689   1.248
11200W        W20893  10.363  11.972  12.823
11201W        W20894   3.133  18.782  10.900
11202W        W20895   1.209   5.142   2.696
11203W        W20896   4.597   6.611   1.729
11204W        W20897   1.701  14.408   0.266
11205W        W20898   0.743   3.665  13.314
11206W        W20899  10.824   5.653   0.740
11207W        W20900  10.340  15.392   0.262
11208W        W20901   9.886  16.388   0.760
11209W        W20902   9.876   3.690   1.241
11210W        W20903   9.378   3.176   4.603
11211W        W20904   7.002  17.327   1.703
11212W        W20905   8.443  11.503  11.880
11213W        W20906   6.016   4.640   4.642
11214W        W20907   4.563   0.736  14.276
11215W        W20908   7.484   7.118  14.802
11216W        W20909   3.143   7.076  10.921
11217W        W20910  11.304   4.657   0.763
11218W        W20911   9.361   8.570  14.279
11219W        W20912  10.843  14.895  13.819
11220W        W20913   6.523   4.653  12.378
11221W        W20914   4.086  11.019   2.670
11222W        W20915   4.119  12.475   1.220
11223W        W20916   0.242  12.478  10.894
11224W        W20917   9.845  13.911   2.205
11225W        W20918   3.606  10.524   0.772
11226W        W20919   4.102  19.292  10.918
11227W        W20920   0.249  13.928   4.608
11228W        W20921   2.189   8.097  12.339
11229W        W20922   5.524   1.735  13.807
11230W        W20923   2.647  17.338   0.245
11231W        W20924   5.555   8.090   0.730
11232W        W20925  10.831  10.499   0.245
11233W        W20926   9.873  16.378  11.867
11234W        W20927   6.516   2.233   1.740
11235W        W20928   7.942  10.980  12.376
11236W        W20929   8.897   2.702  13.803
11237W        W20930   2.669  10.521   0.252
11238W        W20931  10.843  15.394   3.180
11239W        W20932   3.635  18.328  11.386
11240W        W20933   2.681   6.133   2.684
11241W        W20934   9.841  17.833  13.808
11242W        W20935   7.477  14.897  14.321
11243W        W20936   3.161  11.510   4.621
11244W        W20937   6.490   0.756   4.118
11245W        W20938  11.282   2.700   3.669
11246W        W20939   4.117  11.478   4.631
11247W        W20940   4.108  10.043   2.702
11248W        W20941   5.054  16.839  13.329
11249W        W20942   6.961  14.436   4.613
11250W        W20943   2.649  18.821  14.287
11251W        W20944   5.068   1.239   3.150
11252W        W20945   7.941  11.499   2.665
11253W        W20946  10.845  13.920  12.852
11254W        W20947   6.974  14.438  12.836
11255W        W20948  11.311  10.494   3.174
11256W        W20949   0.748  12.930  13.837
11257W        W20950   9.881   1.222   0.758
11258W        W20951   4.582   8.070   4.635
11259W        W20952   4.590  11.954   0.746
11260W        W20953   9.396   9.059  14.796
11261W        W20954   7.005   0.281   3.161
11262W        W20955  11.306   9.517  11.392
11263W        W20956   0.760   1.709   0.288
11264W        W20957   7.000   8.573   4.623
11265W        W20958  10.825   5.629  10.919
11266W        W20959   0.756   1.230   2.669
11267W        W20960  10.342   4.670  14.775
11268W        W20961  10.325  13.923   0.244
11269W        W20962   3.606  14.413  11.417
11270W        W20963   5.082   9.536   2.667
11271W        W20964   7.480  11.990  10.902
11272W        W20965   5.536   5.636   0.279
11273W        W20966   5.549  18.822  12.350
11274W        W20967  10.332   8.564  13.327
11275W        W20968  10.327   7.102  12.357
11276W        W20969   1.693  10.992  13.330
11277W        W20970   8.927   7.582  13.327
11278W        W20971   8.405  15.872   0.727
11279W        W20972   9.881   9.069   1.234
11280W        W20973   6.498   9.544  13.353
11281W        W20974   0.273   8.560  11.876
11282W        W20975   1.727   5.127   2.683
11283W        W20976   6.020   1.256   4.154
11284W        W20977   9.851   7.108  11.396
11285W        W20978   4.587   7.599   0.765
11286W        W20979   9.885  10.996  12.839
11287W        W20980   9.393  15.373   2.686
11288W        W20981   9.379   1.752   0.260
11289W        W20982  10.365  12.474   0.287
11290W        W20983   3.138   8.081  13.307
11291W        W20984   8.899   3.666  11.881
11292W        W20985   4.605  14.899  14.790
11293W        W20986  11.762  11.473   0.266
11294W        W20987   9.367  14.924  10.899
11295W        W20988   4.102  11.476   3.153
11296W        W20989   2.640  13.434   3.168
11297W        W20990  10.326   2.714   0.286
11298W        W20991   3.630  13.445  12.870
11299W        W20992   7.927   4.174  14.764
11300W        W20993   5.061   6.605   0.247
11301W        W20994   5.528   8.093   3.666
11302W        W20995   1.206   0.281   3.160
11303W        W20996   5.073   6.136   1.237
11304W        W20997   9.407  10.034   1.703
11305W        W20998   7.487  17.318  14.310
11306W        W20999   1.714  10.500   1.211
11307W        W21000   3.612   5.158   2.691
11308W        W21001   8.434   5.141  14.783
11309W        W21002  11.799   6.117  14.798
11310W        W21003   7.924   7.091   3.192
11311W        W21004   0.245  13.446  11.901
11312W        W21005   0.759  14.437   4.632
11313W        W21006  11.314   1.234   1.697
11314W        W21007   0.734   5.159   3.193
11315W        W21008   7.459   6.146   3.162
11316W        W21009   9.887   6.110  13.310
11317W        W21010   5.071   7.077  11.871
11318W        W21011   6.517  16.858   1.698
11319W        W21012   7.445  11.484  11.895
11320W        W21013   9.880   6.108   0.255
11321W        W21014   9.848  17.352   0.283
11322W        W21015   7.949  15.405   1.719
11323W        W21016   6.998  19.303   4.155
11324W        W21017   9.394  14.393  11.382
11325W        W21018   6.510  13.906   4.123
11326W        W21019   8.440  19.292   0.740
11327W        W21020   4.113  10.039   0.252
11328W        W21021   2.182  14.881  12.376
11329W        W21022   0.739   4.668  12.341
11330W        W21023   8.446  17.811  12.830
11331W        W21024  11.312  14.924  14.795
11332W        W21025   8.895  19.804  12.367
11333W        W21026   7.465   4.147  14.300
11334W        W21027   0.282  11.983   1.720
11335W        W21028   0.739  14.416   0.737
11336W        W21029   0.747   5.647  12.376
11337W        W21030   8.906   2.216   0.247
11338W        W21031   3.629   3.698   0.288
11339W        W21032  10.336   3.675  13.807
11340W        W21033   3.612  10.034  14.798
11341W        W21034   4.582  12.947  12.384
11342W        W21035   9.861  11.505  10.889
11343W        W21036   9.401  11.479  10.897
11344W        W21037   0.762  12.971  14.802
11345W        W21038   9.859  14.431  13.312
11346W        W21039   3.131  19.296   0.769
11347W        W21040   7.922   0.272  14.276
11348W        W21041  11.780   8.061  14.796
11349W        W21042   7.475   6.608  11.898
11350W        W21043   6.019  15.389   3.671
11351W        W21044   6.961  17.839   2.670
11352W        W21045   5.555  13.453   2.689
11353W        W21046   8.423   7.579  14.767
11354W        W21047   8.904   3.665  13.808
11355W        W21048   6.978  16.856  11.883
11356W        W21049   5.557  10.489  13.342
11357W        W21050   7.476  17.353   4.149
11358W        W21051   1.697   0.257   4.132
11359W        W21052   9.366   7.565   2.670
11360W        W21053  11.297   8.576   3.633
11361W        W21054   6.014   8.094   4.124
11362W        W21055   2.669  19.313   0.248
11363W        W21056  11.786  18.807  11.393
11364W        W21057   8.881  18.326   2.182
11365W        W21058   3.125  14.402   1.214
11366W        W21059   2.658   0.250   4.154
11367W        W21060   3.143  16.362  11.404
11368W        W21061   6.997  19.803   0.285
11369W        W21062   0.276   3.661  10.900
11370W        W21063   8.910   4.649  12.347
11371W        W21064   3.143  17.851  13.332
11372W        W21065  10.816   3.200   2.205
11373W        W21066   6.970   5.169  10.904
11374W        W21067   7.933  12.972   0.736
11375W        W21068   8.922   3.185   2.679
11376W        W21069   8.400  18.794   3.167
11377W        W21070   9.843  12.469   3.676
11378W        W21071   1.208   3.687  13.351
11379W        W21072   5.046   9.037   1.243
11380W        W21073   2.653   4.681  13.317
11381W        W21074   4.082  13.459  13.344
11382W        W21075   0.244   5.163  12.382
11383W        W21076   5.543  15.855  13.342
11384W        W21077   9.408   8.540  13.328
11385W        W21078   7.952  13.905   1.232
11386W        W21079   7.946   3.661   3.175
11387W        W21080   0.280  18.324   2.667
11388W        W21081   7.005   0.247   1.718
11389W        W21082   3.157   6.626   2.687
11390W        W21083   5.086  17.829   1.227
11391W        W21084  10.338  17.843   3.642
11392W        W21085  11.328  18.320  12.865
11393W        W21086  10.829  16.376   2.205
11394W        W21087  11.774   5.138  12.862
11395W        W21088   3.615  16.847   0.735
11396W        W21089   9.403  18.325   3.158
11397W        W21090   7.947   1.710  11.878
11398W        W21091   8.427  14.900   1.729
11399W        W21092   6.527   1.234  11.392
11400W        W21093   8.899  17.325  13.317
11401W        W21094   0.242  17.320  10.915
11402W        W21095   6.979  19.300   2.681
11403W        W21096   7.467  19.293   2.666
11404W        W21097   2.650   8.564   4.122
11405W        W21098   2.650  10.013   0.247
11406W        W21099  11.803  14.438  10.906
11407W        W21100   4.601  16.851  11.397
11408W        W21101   5.080  15.891  13.308
11409W        W21102  11.764   1.711   1.700
11410W        W21103  10.846  13.456  14.769
11411W        W21104   9.853  10.505  13.835
11412W        W21105   0.745  16.872   2.684
11413W        W21106  11.302  14.405   3.648
11414W        W21107   8.910  12.933   1.710
11415W        W21108   7.928  15.862   3.152
11416W        W21109   3.127   9.532  14.792
11417W        W21110   6.013   7.603   2.225
11418W        W21111   5.081   4.654  14.773
11419W        W21112   0.264  10.999  13.832
11420W        W21113   5.532  16.352  10.901
11421W        W21114   8.404  12.482   4.128
11422W        W21115   2.193   3.183   1.727
11423W        W21116   5.546   1.752   2.200
11424W        W21117   6.502   7.106  13.833
11425W        W21118   3.625  19.792  12.377
11426W        W21119  11.287  15.387   3.184
11427W        W21120   1.709   9.538   2.194
11428W        W21121   6.975  11.488  12.843
11429W        W21122   4.606  13.462   0.279
11430W        W21123   1.231  10.034  13.801
11431W        W21124   8.897  17.358   1.726
11432W        W21125   6.512  12.458  12.348
11433W        W21126   0.270  18.333  11.880
11434W        W21127  10.329  15.879  13.824
11435W        W21128   9.847   9.037  14.279
11436W        W21129  10.341  15.861  10.917
11437W        W21130   1.727   5.625  13.837
11438W        W21131   6.996   1.712   4.134
11439W        W21132   1.235  13.450   0.280
11440W        W21133   7.001   6.139  14.278
11441W        W21134   3.633  12.961   3.186
11442W        W21135   8.436  18.812  11.892
11443W        W21136   7.457   1.748   2.671
11444W        W21137   0.261   0.743   4.114
11445W        W21138   6.988   0.251  14.801
11446W        W21139   3.144  17.326   0.767
11447W        W21140  11.799   7.088  13.335
11448W        W21141   1.705  14.886  14.787
11449W        W21142   1.223  10.006   0.770
11450W        W21143   5.071  12.963   4.635
11451W        W21144   3.638  17.331  13.309
11452W        W21145   8.427  10.030  14.803
11453W        W21146   9.866  16.839  14.308
11454W        W21147   6.484  12.928  13.829
11455W        W21148  10.331   2.708   4.141
11456W        W21149   4.580  17.357   0.772
11457W        W21150   2.647   2.731  11.874
11458W        W21151   6.029  17.840   0.258
11459W        W21152  10.825   8.067  14.769
11460W        W21153   5.049   9.550  14.787
11461W        W21154   9.393   7.606  11.409
11462W        W21155  10.832  10.017   1.699
11463W        W21156  11.327  16.876   4.152
11464W        W21157   2.203  16.868   1.248
11465W        W21158   1.220  14.892   2.192
11466W        W21159   7.959   5.610   4.138
11467W        W21160   6.988  18.305   2.203
11468W        W21161   3.140   9.529  14.299
11469W        W21162   1.231  18.295  12.865
11470W        W21163  11.792   9.540   3.665
11471W        W21164   5.562   0.778  13.332
11472W        W21165   7.956  12.442   1.235
11473W        W21166   9.396   5.132  14.767
11474W        W21167   9.877  10.983   1.253
11475W        W21168   5.544  13.914   1.234
11476W        W21169   1.727  10.004  14.799
11477W        W21170   3.152   1.239   0.752
11478W        W21171   6.010   7.569   3.161
11479W        W21172   0.732   5.170   3.660
11480W        W21173   7.483   6.114   1.701
11481W        W21174   1.205  11.474  12.868
11482W        W21175   7.007  10.535   3.168
11483W        W21176   2.662  13.926   0.739
11484W        W21177   6.004   3.206  14.281
11485W        W21178   0.250   0.742  10.903
11486W        W21179  11.313  14.402  14.796
11487W        W21180   7.943  13.448   0.265
11488W        W21181   8.886  11.472  11.390
11489W        W21182   5.084  13.455   2.690
11490W        W21183   9.873   8.085  12.858
11491W        W21184   4.590  11.964  12.363
11492W        W21185   8.920  14.430  14.303
11493W        W21186   1.235  15.887   3.154
11494W        W21187  10.842   4.679   2.180
11495W        W21188   0.258  14.920   4.628
11496W        W21189   3.640  15.382  13.826
11497W        W21190   8.926  12.937   4.117
11498W        W21191   7.485   3.209   0.286
11499W        W21192  10.836   5.640  12.849
11500W        W21193   2.686   9.025  11.402
11501W        W21194   6.507  11.003   0.271
11502W        W21195   2.163  13.419  12.360
11503W        W21196   1.204  12.930  11.893
11504W        W21197   1.229   7.602   2.700
11505W        W21198   5.568   0.255  13.792
11506W        W21199   3.146  13.450  12.838
11507W        W21200   5.530  10.977   2.182
11508W        W21201   8.889  14.901  14.320
11509W        W21202  10.342  17.807  13.818
11510W        W21203   3.604   2.698   2.699
11511W        W21204  10.344  12.949  12.384
11512W        W21205   6.004   4.680   1.245
11513W        W21206  11.295   7.104  13.836
11514W        W21207   5.050   9.553  11.401
11515W        W21208   6.988  14.915  14.799
11516W        W21209   6.489   8.552   2.697
11517W        W21210   3.125  19.281  12.343
11518W        W21211   2.167   0.276   1.729
11519W        W21212  11.324  12.442   2.677
11520W        W21213   4.608   0.780  13.331
11521W        W21214  10.846  19.796   4.138
11522W        W21215  10.803   9.039   1.696
11523W        W21216  11.802   7.082   1.233
11524W        W21217   8.924   0.248  11.864
11525W        W21218   4.604  10.508  12.863
11526W        W21219  10.322   9.522   0.772
11527W        W21220   3.611  16.849   4.151
11528W        W21221  11.285  17.817  10.893
11529W        W21222  10.805  12.928  12.342
11530W        W21223   0.278  19.785   4.142
11531W        W21224   5.537   9.035   3.664
11532W        W21225   1.690  14.906   0.245
11533W        W21226   5.075  10.038   4.621
11534W        W21227   9.385   5.127  12.363
11535W        W21228  11.301  18.809  12.858
11536W        W21229   8.424  16.373   2.686
11537W        W21230  10.802  15.376  12.854
11538W        W21231   8.900   8.089   3.641
11539W        W21232   0.258   0.744  13.336
11540W        W21233   4.103   4.647  14.302
11541W        W21234   8.421   6.119  14.283
11542W        W21235   1.246   5.618  12.347
11543W        W21236   6.985  17.354   1.226
11544W        W21237   0.741   8.578   3.159
11545W        W21238  11.767   0.755  12.842
11546W        W21239   7.928   7.595  10.911
11547W        W21240  10.842   6.588   4.160
11548W        W21241   4.563   2.698  12.371
11549W        W21242   7.448  12.448   0.258
11550W        W21243   3.631  13.945   1.720
11551W        W21244  11.292   8.585  12.870
11552W        W21245   6.006  14.921   1.240
11553W        W21246   3.166  19.306  14.773
11554W        W21247   1.248   7.088  11.414
11555W        W21248   6.010   7.593   1.706
11556W        W21249  11.793  19.284   4.598
11557W        W21250   6.519  10.023  13.339
11558W        W21251   0.728  10.528  14.774
11559W        W21252  11.785  12.472   0.754
11560W        W21253   1.701  19.273   1.211
11561W        W21254   5.080   3.215  11.884
11562W        W21255   5.560  16.854  12.830
11563W        W21256   4.087   0.736   3.148
11564W        W21257   1.704   3.183  11.877
11565W        W21258   5.520   6.128  12.870
11566W        W21259  10.842  11.990  14.776
11567W        W21260   8.414  10.994   4.153
11568W        W21261   3.614  15.896  12.855
11569W        W21262   0.731   9.524   3.164
11570W        W21263   9.407   1.248   0.284
11571W        W21264   4.576  16.854   0.276
11572W        W21265   4.589   5.136   4.141
11573W        W21266   5.562  17.833   1.257
11574W        W21267   1.709   6.617   2.212
11575W        W21268   2.654   6.621  11.406
11576W        W21269   5.087   8.053   0.734
11577W        W21270   7.965   8.542  14.309
11578W        W21271   8.885   0.748   4.126
11579W        W21272   9.394  11.969  12.377
11580W        W21273   9.363   5.637   3.638
11581W        W21274  10.804   7.608  13.813
11582W        W21275   2.188   7.597  14.285
11583W        W21276   0.760   1.221  14.784
11584W        W21277   1.691   6.146  13.307
11585W        W21278   7.933  10.512   1.740
11586W        W21279   7.943  11.958   0.760
11587W        W21280   3.137   1.740  14.772
11588W        W21281  10.327  16.379   4.130
11589W        W21282   1.242   7.595  12.870
11590W        W21283   2.655   2.725  13.827
11591W        W21284   2.650  15.375  11.377
11592W        W21285   5.068   0.753   1.232
11593W        W21286   4.088   1.718   4.145
11594W        W21287   6.976   0.270   2.222
11595W        W21288   5.534   9.552  13.342
11596W        W21289   3.609   8.092   3.182
11597W        W21290   7.447  11.505  11.405
11598W        W21291   9.376  13.440   3.178
11599W        W21292  11.291   4.652  12.827
11600W        W21293   9.376   9.548  13.327
11601W        W21294   7.481  16.386   2.673
11602W        W21295   5.526   7.576  10.895
11603W        W21296   9.858  13.461   0.742
11604W        W21297   1.212   7.091  10.933
11605W        W21298   4.604   3.205   0.753
11606W        W21299   1.695  18.312   1.718
11607W        W21300   2.680   6.108   0.760
11608W        W21301  11.307   3.190  14.786
11609W        W21302   5.537  10.986   1.719
11610W        W21303   3.609   5.166   1.256
11611W        W21304  11.789   7.569   2.180
11612W        W21305   7.953  13.930   0.253
11613W        W21306  10.336  19.301  11.379
11614W        W21307   7.486   9.046  12.367
11615W        W21308   5.541   5.643   0.769
11616W        W21309  11.788  14.927  10.892
11617W        W21310   4.104   7.090   2.693
11618W        W21311   6.030  18.304  13.819
11619W        W21312  10.846  13.939   3.641
11620W        W21313   0.287  13.921  14.792
11621W        W21314   0.723  18.335  10.920
11622W        W21315   2.207   1.237  14.305
11623W        W21316   1.204  18.294   1.244
11624W        W21317   7.949  11.976  11.380
11625W        W21318   6.023  11.995   3.175
11626W        W21319   7.952   6.619   2.663
11627W        W21320   6.990  14.433  13.343
11628W        W21321  11.778  13.914   2.194
11629W        W21322   1.706   5.138   2.185
11630W        W21323   9.363   1.223  13.827
11631W        W21324  10.337   3.661  12.854
11632W        W21325  11.768  14.879   3.658
11633W        W21326   6.020  18.301  11.858
11634W        W21327   2.184   2.237   0.280
11635W        W21328   6.961  10.013   4.617
11636W        W21329   4.567   6.595   3.166
11637W        W21330   6.973  15.386  10.917
11638W        W21331   7.929   9.540  11.856
11639W        W21332   3.624   5.151   2.191
11640W        W21333   5.071   5.651  14.785
11641W        W21334   5.049  11.012   1.246
11642W        W21335   9.388  11.012  13.347
11643W        W21336   3.626   6.106  14.293
11644W        W21337   4.118   9.521   2.204
11645W        W21338   5.523  12.946   1.249
11646W        W21339   3.150  19.785   3.660
11647W        W21340   6.021   1.747  12.352
11648W        W21341   5.523  19.771   1.700
11649W        W21342   8.440   4.641   0.289
11650W        W21343  10.339   8.542  13.838
11651W        W21344   2.186  11.962   2.676
11652W        W21345   0.281  13.444  14.786
11653W        W21346   9.393  10.489   0.768
11654W        W21347   9.859   1.268   1.737
11655W        W21348   2.684   8.092  10.907
11656W        W21349   8.448  17.811   1.232
11657W        W21350  10.800   2.207   4.151
11658W        W21351   9.862   5.123  12.857
11659W        W21352   7.445   5.122  10.916
11660W        W21353  11.778   6.116   4.152
11661W        W21354   2.669  19.288   3.193
11662W        W21355   5.082   2.196  13.813
11663W        W21356   8.898  13.930  10.927
11664W        W21357   4.109  19.776  14.787
11665W        W21358   4.576   7.095  12.359
11666W        W21359   8.442  14.413   4.154
11667W        W21360   9.372   2.724   3.176
11668W        W21361   1.724  18.314   4.124
11669W        W21362   8.912   2.196  11.900
11670W        W21363   1.717   4.658  10.934
11671W        W21364   5.056  11.986  13.817
11672W        W21365   4.124  14.423   3.174
11673W        W21366   7.955   3.700  14.279
11674W        W21367   6.029  15.396   2.669
11675W        W21368   1.241  10.033   3.179
11676W        W21369   9.850   1.728   3.634
11677W        W21370   6.512  19.801  13.801
11678W        W21371   8.410  19.275   2.665
11679W        W21372   0.740   3.681   1.213
11680W        W21373   6.989   5.132   3.151
11681W        W21374   8.444  11.468   4.149
11682W        W21375  11.284   1.233  12.841
11683W        W21376   8.432  12.465   2.695
11684W        W21377   7.462   1.240   2.688
11685W        W21378   4.103  10.514  10.907
11686W        W21379   5.072   7.597   0.766
11687W        W21380   3.166   7.609   0.757
11688W        W21381   9.875  18.298  13.327
11689W        W21382   3.165   5.658  12.866
11690W        W21383   2.161   8.083  11.385
11691W        W21384   4.586  13.441  11.878
11692W        W21385   7.001  11.009   1.725
11693W        W21386   0.251   9.072  14.317
11694W        W21387  11.318  15.870  13.306
11695W        W21388   8.902  12.472  14.308
11696W        W21389   2.168  15.370   0.274
11697W        W21390   2.190  13.453   1.243
11698W        W21391   1.212   8.583   2.691
11699W        W21392   3.637  11.957   4.129
11700W        W21393   8.927   4.165   2.679
11701W        W21394   7.466  18.793  12.370
11702W        W21395   1.696  13.934   2.701
11703W        W21396   6.000  12.957   0.769
11704W        W21397   1.688   0.279  14.301
11705W        W21398   0.288  13.942   3.632
11706W        W21399   1.709   6.604   1.229
11707W        W21400  11.778  10.500   1.234
11708W        W21401   4.119   0.285  14.312
11709W        W21402   0.735   1.256  13.325
11710W        W21403   7.004  11.016  11.884
11711W        W21404   6.961   6.116  14.768
11712W        W21405   7.941  12.948   2.220
11713W        W21406  10.840   6.108  13.839
11714W        W21407   4.593   6.098   0.757
11715W        W21408   0.270  10.526  10.917
11716W        W21409  11.790  10.036  13.315
11717W        W21410   2.683  16.344  14.762
11718W        W21411   7.475   8.580   4.113
11719W        W21412   2.205   8.562   2.187
11720W        W21413  11.313  16.831  11.389
11721W        W21414   6.520  13.429   3.646
11722W        W21415   0.761   8.074  14.806
11723W        W21416  10.837  11.961  12.823
11724W        W21417   9.392   8.544  11.881
11725W        W21418  11.795  17.340   2.201
11726W        W21419   7.929   8.058   2.710
11727W        W21420   6.019   7.103   3.173
11728W        W21421   9.393   2.717  14.773
11729W        W21422   2.664   7.571   3.154
11730W        W21423   6.512  19.296  12.355
11731W        W21424   8.433   0.735   4.638
11732W        W21425   6.004   5.158   3.656
11733W        W21426   2.683   3.174  11.382
11734W        W21427   6.047  14.406   2.215
11735W        W21428   5.537   9.523   3.666
11736W        W21429   4.092   3.210   1.210
11737W        W21430  11.766  13.907  12.849
11738W        W21431   2.184  17.322   1.741
11739W        W21432   4.584   3.209  10.903
11740W        W21433   9.368   9.065  12.362
11741W        W21434   0.286  15.401   1.714
11742W        W21435   3.635  10.533  10.903
11743W        W21436   3.163   6.627  14.311
11744W        W21437   6.525   9.520  10.909
11745W        W21438   3.121   9.523   1.251
11746W        W21439   2.161   4.179  12.374
11747W        W21440   1.725  13.915  11.901
11748W        W21441   9.375  18.823  11.887
11749W        W21442   4.125   4.154   3.175
11750W        W21443   8.894  10.995   4.121
11751W        W21444   6.027   5.623   2.695
11752W        W21445   6.022   1.712  11.879
11753W        W21446   8.417  18.318  11.385
11754W        W21447   1.696   3.659  13.311
11755W        W21448   4.118  14.921  13.823
11756W        W21449   6.988  14.902   2.178
11757W        W21450   9.368  15.887  12.382
11758W        W21451   9.393  10.989   0.288
11759W        W21452   0.267  12.936  12.841
11760W        W21453   7.943  10.017   4.615
11761W        W21454   8.918  19.271   1.737
11762W        W21455   2.648   3.193   3.182
11763W        W21456   0.273   4.647  14.279
11764W        W21457   4.593  19.790   3.173
11765W        W21458   3.643  13.938   4.122
11766W        W21459   9.398  18.331  10.935
11767W        W21460   6.043   3.665   1.226
11768W        W21461   9.853  13.455   0.284
11769W        W21462  10.829  13.910  11.405
11770W        W21463   9.367  11.490   4.160
11771W        W21464   7.960   7.104   3.635
11772W        W21465   9.407   4.659  13.821
11773W        W21466   6.494  15.861  12.871
11774W        W21467  10.824  18.794   1.248
11775W        W21468   4.105  14.429   1.224
11776W        W21469   4.082   4.187  13.326
11777W        W21470   7.006   5.138   2.206
11778W        W21471   0.748  16.386   1.213
11779W        W21472   9.383  16.365   1.701
11780W        W21473   8.902  10.995   2.662
11781W        W21474  10.330   5.657   4.126
11782W        W21475   9.841  16.849   3.150
11783W        W21476   2.656  15.862  11.889
11784W        W21477   1.225  10.532  11.882
11785W        W21478   0.735   5.131  11.394
11786W        W21479   7.481   9.517   2.673
11787W        W21480   6.518  18.798   3.163
11788W        W21481   3.636  13.416  13.320
11789W        W21482   9.374  11.979  14.281
11790W        W21483   6.501   0.263   4.154
11791W        W21484   4.114  11.497  12.386
11792W        W21485   5.562   4.640  11.396
11793W        W21486  11.804  15.384   1.213
11794W        W21487   3.167  19.771   3.151
11795W        W21488   4.561   1.730   1.731
11796W        W21489   8.420  14.416   3.675
11797W        W21490   6.036   7.081   4.118
11798W        W21491   7.956  15.875  13.826
11799W        W21492   0.264  12.941  11.885
11800W        W21493   5.059  18.786   2.697
11801W        W21494   2.181   2.233  10.913
11802W        W21495   8.424  17.839   0.745
11803W        W21496   0.735   1.226   3.657
11804W        W21497   4.096  14.905   1.708
11805W        W21498   7.955  18.800   4.133
11806W        W21499   5.550   8.064   0.247
11807W        W21500   1.243  12.460   2.675
11808W        W21501  11.292   1.732   3.179
11809W        W21502   5.046  15.385  12.343
11810W        W21503  10.349  19.269  12.834
11811W        W21504   9.864  17.845  12.823
11812W        W21505   9.402   3.693  12.842
11813W        W21506  11.294   6.601   0.274
11814W        W21507  10.323  19.285   1.699
11815W        W21508  10.840   5.130  11.902
11816W        W21509   9.871  12.441  12.861
11817W        W21510   7.459  15.866   0.281
11818W        W21511   8.418  16.371   1.226
11819W        W21512   8.903  11.009   4.643
11820W        W21513   2.184   1.223  14.788
11821W        W21514   5.534  16.831   4.619
11822W        W21515   7.936  16.869  13.821
11823W        W21516   8.428   7.588   3.632
11824W        W21517   9.363   0.253  14.791
11825W        W21518   0.265  18.796  11.402
11826W        W21519  11.764   5.135  14.300
11827W        W21520   4.105   0.250  14.798
11828W        W21521   5.564  15.414  11.401
11829W        W21522   7.957  18.339   3.176
11830W        W21523   3.633   7.122  11.394
11831W        W21524  11.767  17.818  11.385
11832W        W21525   5.078  10.991  14.795
11833W        W21526   5.049  15.397   1.702
11834W        W21527  11.280  12.948  13.344
11835W        W21528   9.394  15.368  14.312
11836W        W21529  10.844   9.528  14.292
11837W        W21530   1.692  19.757   0.279
11838W        W21531   3.124  15.372   2.185
11839W        W21532   3.640  18.300  13.836
11840W        W21533   9.862  19.793  14.774
11841W        W21534   6.011  17.806   3.167
11842W        W21535   1.725   0.247  14.794
11843W        W21536   4.589  12.486   0.733
11844W        W21537   6.986  18.337   3.669
11845W        W21538   5.059  19.804  12.858
11846W        W21539   9.865  14.422   1.729
11847W        W21540   8.927  15.409   2.180
11848W        W21541   6.507   5.653   2.182
11849W        W21542   6.488   2.683   1.257
11850W        W21543   8.407   6.600  11.393
11851W        W21544  10.367  12.968   3.163
11852W        W21545  11.761   7.585   3.155
11853W        W21546   2.671   1.721   3.655
11854W        W21547  10.329  15.902   1.221
11855W        W21548   8.928  19.292   3.663
11856W        W21549   5.059   6.611  12.830
11857W        W21550   2.687  10.495  14.288
11858W        W21551   3.161   9.527   3.662
11859W        W21552   5.549   0.284  12.347
11860W        W21553   0.727   4.169   2.214
11861W        W21554   1.715   6.623   2.692
11862W        W21555   2.661  13.945  14.317
11863W        W21556   4.596   8.058   2.704
11864W        W21557   3.131  12.970  11.375
11865W        W21558   0.759  15.862   2.202
11866W        W21559   5.085   3.707  13.805
11867W        W21560   3.614  18.297  13.315
11868W        W21561  10.824   3.201   3.662
11869W        W21562   9.851  19.768   3.637
11870W        W21563   1.207   8.079   0.755
11871W        W21564  11.800  12.974   4.146
11872W        W21565  11.798  14.438  13.311
11873W        W21566   3.602   7.606   3.152
11874W        W21567   3.632  12.968  10.910
11875W        W21568   4.115  10.024  12.865
11876W        W21569   3.130   7.115   4.151
11877W        W21570   1.720  16.347   1.225
11878W        W21571   8.439  16.846   0.248
11879W        W21572   0.724  12.964  14.275
11880W        W21573   5.524  18.340  12.833
11881W        W21574   4.582  16.370   3.665
11882W        W21575   6.496   1.725   2.182
11883W        W21576   1.687  16.839  12.865
11884W        W21577  11.303   1.715   3.635
11885W        W21578   0.742  16.860  11.873
11886W        W21579   6.493   3.688   4.133
11887W        W21580   4.082  10.536  12.379
11888W        W21581   7.453   4.681   4.639
11889W        W21582   6.963   3.191  14.797
11890W        W21583   6.023   7.599  10.903
11891W        W21584   4.120   2.236   4.136
11892W        W21585   0.722   2.205  11.873
11893W        W21586   6.041   3.200  11.396
11894W        W21587   2.659   6.116   3.181
11895W        W21588   6.021  19.768  13.350
11896W        W21589   0.731  11.990   3.674
11897W        W21590   1.701  10.020   0.275
11898W        W21591   0.249   0.773   0.285
11899W        W21592   0.739  15.400  12.846
11900W        W21593   0.252  11.483  14.803
11901W        W21594   2.179  11.974  10.892
11902W        W21595   8.881   2.202  14.317
11903W        W21596   1.218  19.290  11.858
11904W        W21597   6.483   7.120   4.127
11905W        W21598   5.543   3.201   2.699
11906W        W21599   0.272   8.077   4.126
11907W        W21600   7.443   4.183   0.740
11908W        W21601   1.247   8.088  10.913
11909W        W21602   4.124  14.408   1.733
11910W        W21603  11.283  14.882   0.277
11911W        W21604   4.088   0.766   4.615
11912W        W21605   8.407  12.468  10.909
11913W        W21606   2.677   8.073   4.141
11914W        W21607  11.782  10.491   0.258
11915W        W21608   8.432   4.158   4.153
11916W        W21609  10.838   9.554  11.386
11917W        W21610  10.324   0.275   1.213
11918W        W21611   6.986  19.776  12.379
11919W        W21612   7.483  15.855   1.730
11920W        W21613   9.878  10.044   3.651
11921W        W21614   8.922   5.158  13.809
11922W        W21615   6.042  19.282  11.416
11923W        W21616   6.024   6.145  13.328
11924W        W21617   2.164  14.888   2.193
11925W        W21618   6.998  10.015   3.165
11926W        W21619  10.844  15.867  13.817
11927W        W21620   9.372   5.610   1.242
11928W        W21621   4.097  17.814   3.646
11929W        W21622   0.255   0.772   1.236
11930W        W21623   0.252  16.841  13.816
11931W        W21624   4.127  16.836   3.633
11932W        W21625   0.765   6.119  13.796
11933W        W21626   5.533   9.055   1.707
11934W        W21627  10.343  19.792  13.340
11935W        W21628   5.054   6.135   1.699
11936W        W21629   6.493  19.756   0.749
11937W        W21630   9.858   4.171   4.627
11938W        W21631   3.638   6.614  11.389
11939W        W21632   3.638  15.402  14.283
11940W        W21633   8.409  14.890  10.916
11941W        W21634   0.243  11.473  12.352
11942W        W21635  10.367  11.504  12.824
11943W        W21636   5.537   2.215   3.661
11944W        W21637  10.337   6.131   4.613
11945W        W21638  11.779  12.476   2.197
11946W        W21639   0.740   8.054  10.897
11947W        W21640  10.811  16.854   0.287
11948W        W21641   1.681   5.624   4.131
11949W        W21642  11.795   9.519   1.226
11950W        W21643   1.699  18.817  11.392
11951W        W21644   6.488   9.543  14.791
11952W        W21645   5.081   5.613   4.114
11953W        W21646   3.610  16.381   0.742
11954W        W21647   2.171   0.287  12.854
11955W        W21648   9.363  16.858   0.754
11956W        W21649   9.857  17.351   1.221
11957W        W21650   6.986   0.759   2.706
11958W        W21651   1.209  13.428   2.214
11959W        W21652  11.771   5.146   1.252
11960W        W21653   1.715  15.393   2.709
11961W        W21654   7.937  17.845  10.935
11962W        W21655  10.820  12.948   0.265
11963W        W21656   8.918   9.065   0.262
11964W        W21657  10.350  18.339   1.708
11965W        W21658   7.487  10.012  12.865
11966W        W21659   8.415  14.925  13.796
11967W        W21660   6.019   1.259   3.640
11968W        W21661   6.962  10.001   0.248
11969W        W21662   3.637   7.093  14.294
11970W        W21663   4.087   8.084  10.908
11971W        W21664   4.573   6.588   2.681
11972W        W21665   3.166   1.745  14.277
11973W        W21666  11.324   2.690   2.674
11974W        W21667  11.325  18.339  13.814
11975W        W21668   7.463   7.587  13.332
11976W        W21669   7.477  15.368   1.251
11977W        W21670   3.638   1.266   1.212
11978W        W21671   9.370  18.788   2.221
11979W        W21672   1.699  17.834   1.252
11980W        W21673   7.005  11.488   3.643
11981W        W21674   5.546   5.644  11.403
11982W        W21675   5.528   9.040   2.686
11983W        W21676   2.680  18.328   4.161
11984W        W21677   2.641   0.285   3.182
11985W        W21678   6.015   9.047   0.243
11986W        W21679   6.014  11.505   0.265
11987W        W21680   1.222  16.349  10.914
11988W        W21681   4.576  19.785   2.690
11989W        W21682   7.956  13.914   4.123
11990W        W21683   6.003  19.299   3.662
11991W        W21684  10.354   5.652   4.606
11992W        W21685   4.122  10.985  11.405
11993W        W21686   1.708   5.125  11.413
11994W        W21687   6.506   5.142   2.666
11995W        W21688   4.083  15.871  12.870
11996W        W21689   5.079  19.312  13.801
11997W        W21690  11.781   8.091  12.371
11998W        W21691   4.125  16.855   0.268
11999W        W21692  10.334   9.046   0.733
12000W        W21693   3.620  14.895  12.846
12001W        W21694  10.807   7.076  14.796
12002W        W21695   7.457  15.894  11.408
12003W        W21696   1.213   2.203  12.380
12004W        W21697   9.400   3.210  12.352
12005W        W21698   4.112   0.761   0.267
12006W        W21699  11.773   7.074   4.120
12007W        W21700   6.509   9.072   0.735
12008W        W21701   4.568  10.526  14.312
12009W        W21702   1.680  14.408   0.741
12010W        W21703   0.760  10.522   4.121
12011W        W21704   9.864   0.256   2.700
12012W        W21705   8.895   6.591  10.911
12013W        W21706   4.584  14.881  12.860
12014W        W21707  11.305  11.990  13.310
12015W        W21708   4.083   1.262   3.652
12016W        W21709   3.128   6.129   1.732
12017W        W21710   1.246  11.952   0.258
12018W        W21711   2.174  11.973   1.709
12019W        W21712   7.961  14.424  13.812
12020W        W21713   6.022   4.189  14.279
12021W        W21714   1.225  12.469  12.860
12022W        W21715   4.097   6.136  13.316
12023W        W21716   4.109   1.239  10.930
12024W        W21717   2.685   9.032   3.180
12025W        W21718  10.823  15.897   0.758
12026W        W21719  11.772   5.658   1.734
12027W        W21720   7.958  13.951  13.352
12028W        W21721   0.740  19.281   0.740
12029W        W21722   0.242   8.071  12.850
12030W        W21723   4.106  13.416   0.767
12031W        W21724   3.626  17.333   0.262
12032W        W21725  11.320   4.174   0.245
12033W        W21726  10.331   4.176  11.418
12034W        W21727   6.497   7.078   0.286
12035W        W21728   9.384   2.703  11.876
12036W        W21729  11.290   0.272  13.820
12037W        W21730   7.003  17.812   4.641
12038W        W21731   9.380   2.240   3.157
12039W        W21732   1.694   6.608  12.356
12040W        W21733   9.370  19.270   1.710
12041W        W21734   6.505   8.068   1.742
12042W        W21735  10.367   6.620  14.309
12043W        W21736   1.691  10.527   4.615
12044W        W21737   9.858   5.125   2.178
12045W        W21738   3.152  11.021   0.270
12046W        W21739   8.402   2.725   0.763
12047W        W21740   0.280   4.666  14.772
12048W        W21741   6.488  19.799   3.181
12049W        W21742   6.497   3.679   0.740
12050W        W21743   5.553  16.347  12.862
12051W        W21744   5.072   5.148  14.311
12052W        W21745   3.624  16.867  10.932
12053W        W21746   9.402   9.533  12.830
12054W        W21747   0.241  18.330   1.230
12055W        W21748   1.727  16.844   4.628
12056W        W21749   6.492  12.480   2.196
12057W        W21750   1.234   6.137   4.598
12058W        W21751   9.864  13.909  11.416
12059W        W21752   6.967  16.873  11.410
12060W        W21753   3.134   2.712   0.290
12061W        W21754  10.353   3.174  11.409
12062W        W21755   1.232   5.131  13.791
12063W        W21756  11.281  11.989   3.653
12064W        W21757   5.088   8.049   3.670
12065W        W21758   9.407   9.039   4.127
12066W        W21759   6.030   8.078  13.819
12067W        W21760   6.962   3.688   3.673
12068W        W21761  10.347   6.124   1.253
12069W        W21762   8.439   4.192  13.791
12070W        W21763   6.969  19.290   0.269
12071W        W21764   5.069   5.123   1.233
12072W        W21765  10.831  17.365   2.181
12073W        W21766   8.440   3.659  11.863
12074W        W21767  10.812   3.184  11.870
12075W        W21768   8.889   8.555   4.617
12076W        W21769   9.855  10.531  14.782
12077W        W21770   3.607   8.077  12.866
12078W        W21771   5.544  19.783   3.640
12079W        W21772   6.007  13.427   4.154
12080W        W21773   4.102   7.584   1.726
12081W        W21774   5.534  12.450   0.748
12082W        W21775   8.903  15.371  14.788
12083W        W21776   2.175  12.470   0.249
12084W        W21777   4.120  12.441  10.902
12085W        W21778   2.162  14.895  10.917
12086W        W21779   7.001   9.066   1.731
12087W        W21780   9.888   5.658   3.185
12088W        W21781   6.047   2.224   2.189
12089W        W21782  11.787   9.548   2.687
12090W        W21783   6.986   6.606  14.799
12091W        W21784   6.498  13.913   0.768
12092W        W21785   6.491  16.869   0.255
12093W        W21786   1.240  18.296  14.279
12094W        W21787   4.115  12.958  14.805
12095W        W21788   9.863  13.915   0.247
12096W        W21789   9.377  11.488  12.833
12097W        W21790   3.641   2.715  13.311
12098W        W21791   8.425   6.128   0.258
12099W        W21792   2.676  13.913   2.191
12100W        W21793   7.454   2.706   4.154
12101W        W21794   6.509   5.644  13.800
12102W        W21795   5.047  17.364   2.672
12103W        W21796  10.348   1.741   1.736
12104W        W21797   5.522   4.180  12.385
12105W        W21798   2.641   8.059  12.359
12106W        W21799   2.670  10.035  14.759
12107W        W21800   9.870  14.416  11.899
12108W        W21801   6.030   4.637  11.384
12109W        W21802   2.180  10.496  13.312
12110W        W21803  10.814   6.115   3.665
12111W        W21804   4.085   8.096  14.301
12112W        W21805   7.948   2.720   1.219
12113W        W21806   9.852   1.751   1.212
12114W        W21807   1.228  14.409  12.358
12115W        W21808   9.392   2.232   1.255
12116W        W21809  11.794   1.233  13.828
12117W        W21810   2.674   2.205  11.880
12118W        W21811   6.983  10.981  11.406
12119W        W21812   9.866  15.394   3.663
12120W        W21813   7.478  17.324  11.884
12121W        W21814   3.617   1.749   2.663
12122W        W21815  11.760  15.884   1.231
12123W        W21816   4.111   8.049  13.347
12124W        W21817   3.619  13.420  13.825
12125W        W21818   9.380   5.142  11.397
12126W        W21819   7.471  12.954   4.149
12127W        W21820   6.513  17.851  14.793
12128W        W21821   7.925  11.986   2.214
12129W        W21822  10.836  14.406   4.132
12130W        W21823   0.751  11.973  10.908
12131W        W21824   7.488   7.092   0.284
12132W        W21825   7.476   6.124   4.151
12133W        W21826   8.440   8.577   4.153
12134W        W21827   7.484  11.965   4.642
12135W        W21828   9.841   2.723   2.181
12136W        W21829  10.823   3.202   2.693
12137W        W21830   5.557  14.901   0.734
12138W        W21831   6.493   8.054  10.914
12139W        W21832   2.171   0.753  14.787
12140W        W21833   4.101  12.453   2.210
12141W        W21834   8.921  18.333   0.744
12142W        W21835   2.644  11.954  12.865
12143W        W21836   6.493   7.083  10.918
12144W        W21837   9.860  14.415   4.137
12145W        W21838   4.111  17.327  14.788
12146W        W21839   2.176   5.161  14.302
12147W        W21840   0.726   1.732   3.663
12148W        W21841   5.529   8.564   0.249
12149W        W21842   1.239  10.527  14.788
12150W        W21843   2.661  10.993   0.246
12151W        W21844  11.789  13.422  13.819
12152W        W21845  10.837   0.249   4.115
12153W        W21846   6.024   8.057   2.180
12154W        W21847  11.319  11.016   4.155
12155W        W21848   6.964   5.162  11.382
12156W        W21849   6.019  15.880   0.773
12157W        W21850   3.616   2.229  10.910
12158W        W21851   0.257  18.802  13.340
12159W        W21852   0.287   9.530   0.733
12160W        W21853   9.389  11.995   1.235
12161W        W21854  11.789   1.240   1.724
12162W        W21855   7.001   3.175   0.288
12163W        W21856   2.184   9.521   2.195
12164W        W21857   8.894  16.374   0.731
12165W        W21858   6.962   5.140   0.755
12166W        W21859   8.415   3.183  13.310
12167W        W21860  11.783   8.090   3.146
12168W        W21861   0.727   0.265  10.920
12169W        W21862   7.933   9.068   1.235
12170W        W21863   5.083  18.785  11.407
12171W        W21864   2.188   4.153   0.276
12172W        W21865   4.099   5.617  14.295
12173W        W21866   8.909  13.432   0.767
12174W        W21867   2.183  16.870  11.902
12175W        W21868   0.729   6.136  14.772
12176W        W21869   1.239  19.298   3.184
12177W        W21870   0.750   8.584  14.778
12178W        W21871   8.918  19.763   0.273
12179W        W21872   1.726  11.012  11.890
12180W        W21873   5.050   3.208  12.832
12181W        W21874  10.809  17.820   0.255
12182W        W21875   2.687  10.509  13.336
12183W        W21876   5.549  19.763   1.245
12184W        W21877   3.165  15.402  13.312
12185W        W21878  10.804   6.135   0.289
12186W        W21879   6.035  17.849   4.117
12187W        W21880   9.368   3.672   2.219
12188W        W21881   9.408  15.412   3.148
12189W        W21882   7.471   6.118  14.801
12190W        W21883   7.944   4.636   2.195
12191W        W21884  11.323  13.451  13.821
12192W        W21885   1.207   6.614  11.380
12193W        W21886   0.286   7.121  14.318
12194W        W21887  11.298  16.354  12.829
12195W        W21888   4.591  12.938  11.866
12196W        W21889   3.133  11.479   1.213
12197W        W21890   4.086   9.536   3.186
12198W        W21891   0.266  14.422   4.130
12199W        W21892   4.574  12.474  10.929
12200W        W21893  10.826  18.794   2.709
12201W        W21894   4.107  14.428  12.859
12202W        W21895   2.672   7.117  14.306
12203W        W21896   0.723  18.294   2.219
12204W        W21897   4.125   7.600  14.303
12205W        W21898   7.951   8.062  13.329
12206W        W21899   8.439   4.676   1.233
12207W        W21900   4.100  13.420  11.893
12208W        W21901   0.250  17.351   1.211
12209W        W21902  11.769  15.409  13.342
12210W        W21903   4.581   7.576  11.406
12211W        W21904   7.922  17.358   0.283
12212W        W21905   3.647   8.564   1.716
12213W        W21906   5.062  19.760   0.761
12214W        W21907   4.085  12.454   0.288
12215W        W21908  10.322  11.502   2.198
12216W        W21909   6.486   4.671   4.626
12217W        W21910   6.005   3.216   2.662
12218W        W21911  10.353  16.854   4.610
12219W        W21912  11.787  11.986   2.688
12220W        W21913   1.710   9.528   0.746
12221W        W21914  10.845  16.371  14.786
12222W        W21915   4.578  12.483  11.388
12223W        W21916   4.565   5.648   0.737
12224W        W21917   0.262   8.564   4.619
12225W        W21918   1.215  11.465  11.902
12226W        W21919   0.261  17.820  12.364
12227W        W21920   7.007   0.255  11.402
12228W        W21921   5.050  15.397  11.379
12229W        W21922   9.863  10.508   0.285
12230W        W21923   4.583   0.246  11.867
12231W        W21924   0.754  15.874   3.647
12232W        W21925  11.775  19.308   2.222
12233W        W21926   2.206  16.387  10.929
12234W        W21927   9.858  15.868  12.843
12235W        W21928   5.555  14.395   1.242
12236W        W21929  11.778   5.647  13.309
12237W        W21930   3.647   6.607  11.875
12238W        W21931   1.716  11.999  12.864
12239W        W21932   3.638  12.974   3.635
12240W        W21933   5.520  14.891   4.614
12241W        W21934   5.050  19.274  14.298
12242W        W21935   5.557  16.356   2.709
12243W        W21936   9.369   6.123  11.858
12244W        W21937   0.284  18.813   1.214
12245W        W21938   3.120   7.091   4.621
12246W        W21939   9.385  16.848  12.340
12247W        W21940   1.239   0.741  12.854
12248W        W21941   6.007  11.986  10.911
12249W        W21942  10.848  15.869  11.884
12250W        W21943   8.912  11.959  14.805
12251W        W21944   1.713   9.038  11.381
12252W        W21945  11.325   6.633   1.715
12253W        W21946   3.616   3.700   2.677
12254W        W21947   6.517   5.658   0.757
12255W        W21948   2.678  13.419  12.363
12256W        W21949   9.888  10.494  12.361
12257W        W21950   1.232   3.683  13.808
12258W        W21951   5.051  12.446   2.676
12259W        W21952   9.866  11.467  12.869
12260W        W21953   6.973   8.543  13.793
12261W        W21954   4.575  14.418  13.324
12262W        W21955   1.216  10.508   0.270
12263W        W21956   2.191  10.980   1.722
12264W        W21957   0.246   8.094  10.890
12265W        W21958   6.492  19.782   3.646
12266W        W21959   7.925   2.200  13.315
12267W        W21960   4.594   4.667  14.313
12268W        W21961   3.645  10.008  14.276
12269W        W21962   1.707   1.249  10.900
12270W        W21963  11.291   4.183  13.319
12271W        W21964  11.777  15.871   3.631
12272W        W21965  10.330   9.546   4.144
12273W        W21966  10.357  19.297  10.905
12274W        W21967   7.938   6.616   4.629
12275W        W21968   5.086  19.313   3.677
12276W        W21969   4.587   4.174   0.733
12277W        W21970   6.038   8.560  10.901
12278W        W21971   8.438   3.667   4.633
12279W        W21972   7.931  13.451  14.283
12280W        W21973   1.220   9.072  11.889
12281W        W21974  11.308   8.539   1.229
12282W        W21975   8.908   2.686   4.636
12283W        W21976  10.337   1.719  14.284
12284W        W21977   7.470   4.662   4.127
12285W        W21978   2.168  18.321  12.383
12286W        W21979   2.163   6.602  10.919
12287W        W21980   9.396   4.662   4.144
12288W        W21981  10.327  18.790   3.631
12289W        W21982   2.203  13.935   0.727
12290W        W21983   0.246  17.364   0.251
12291W        W21984  10.848  10.025   4.603
12292W        W21985   9.881  12.474   1.250
12293W        W21986   7.475   9.515   1.700
12294W        W21987   4.578   5.653   4.152
12295W        W21988   4.112   0.292   0.260
12296W        W21989   6.047   0.281   1.240
12297W        W21990   5.533   4.157  10.918
12298W        W21991   6.974   5.642   4.124
12299W        W21992   8.442  14.418  11.868
12300W        W21993   6.483   2.691   0.274
12301W        W21994   9.371   6.107  10.917
12302W        W21995   4.097  10.996  10.898
12303W        W21996   0.723  12.938   4.120
12304W        W21997   3.606   2.702  12.368
12305W        W21998   1.231  19.280   2.197
12306W        W21999   4.574   3.213  13.830
12307W        W22000   0.269  15.370  10.929
12308W        W22001   4.105   9.537  12.870
12309W        W22002   6.970  14.915  12.834
12310W        W22003   3.629   9.068   4.605
12311W        W22004   6.044  10.513  10.895
12312W        W22005   8.413  13.932  14.795
12313W        W22006   4.095   2.718  11.415
12314W        W22007  10.827   3.181   1.729
12315W        W22008   6.514  16.361  14.766
12316W        W22009   1.215  11.489  13.804
12317W        W22010  11.292   2.684   0.750
12318W        W22011   1.235   2.223  14.799
12319W        W22012   2.206   1.263   0.766
12320W        W22013   4.604   7.088   3.145
12321W        W22014   0.725  17.347   0.766
12322W        W22015  11.294  17.810   3.151
12323W        W22016   6.047  16.360   1.740
12324W        W22017  10.338   6.108  12.828
12325W        W22018  11.787   9.067  11.901
12326W        W22019   3.609   4.658  10.927
12327W        W22020   6.508  13.431   0.752
12328W        W22021   6.986   1.245  10.889
12329W        W22022   6.527   0.774  11.417
12330W        W22023   9.872  17.843   1.703
12331W        W22024   1.235   2.205   3.664
12332W        W22025   8.446   7.608  14.286
12333W        W22026   6.003   5.634   1.733
12334W        W22027   5.530   6.614   1.741
12335W        W22028  11.304  16.857   0.283
12336W        W22029   5.548  11.485   3.188
12337W        W22030   3.135   6.120  13.835
12338W        W22031  10.324   5.167   4.155
12339W        W22032  10.844   7.107   0.244
12340W        W22033   2.684  14.914  13.815
12341W        W22034   6.506  12.939  14.321
12342W        W22035  10.842  10.043   1.247
12343W        W22036   5.533   0.250  14.304
12344W        W22037   2.207  11.974   0.273
12345W        W22038   0.261   2.196   1.710
12346W        W22039   4.090  19.802   3.186
12347W        W22040   9.884  18.339  14.769
12348W        W22041   5.054   9.518  14.295
12349W        W22042   3.610  19.307  13.834
12350W        W22043   2.680   7.076   2.210
12351W        W22044  11.767  12.480  11.860
12352W        W22045   7.463   2.227   4.150
12353W        W22046   8.894  19.799  11.894
12354W        W22047   2.659  16.366  11.403
12355W        W22048   4.085   4.177   0.246
12356W        W22049   4.102  17.333   4.116
12357W        W22050  11.323   3.678   2.705
12358W        W22051   7.455   2.242   0.733
12359W        W22052   4.584   8.062  12.848
12360W        W22053  11.773   2.685  13.324
12361W        W22054  10.334  14.423   1.215
12362W        W22055   4.107   8.067   1.233
12363W        W22056   9.391   5.632  13.322
12364W        W22057   4.573   1.229   1.725
12365W        W22058   1.220   2.222   1.729
12366W        W22059   2.656  17.814  11.859
12367W        W22060   9.884   1.717   0.770
12368W        W22061   4.593   4.670  13.318
12369W        W22062   5.528   2.687   0.740
12370W        W22063   9.882   2.217  14.774
12371W        W22064   0.758  16.359   2.705
12372W        W22065   7.923  16.360  13.813
12373W        W22066  11.323   6.607  13.324
12374W        W22067   6.046   5.137  14.788
12375W        W22068   3.639  11.482  12.853
12376W        W22069   1.212   4.647   0.269
12377W        W22070   7.964  17.355   2.694
12378W        W22071   7.006   3.187   2.683
12379W        W22072   1.232  10.515   4.151
12380W        W22073   7.483  14.419   1.236
12381W        W22074   7.929  17.348  12.829
12382W        W22075  11.783   6.129  11.901
12383W        W22076   4.590  15.377   4.631
12384W        W22077   2.648  19.776  13.797
12385W        W22078   5.534  15.413   3.674
12386W        W22079   7.477  10.048  13.801
12387W        W22080   7.486  17.846   1.245
12388W        W22081   2.181   1.737   0.273
12389W        W22082   5.544   4.174  14.778
12390W        W22083  10.810   5.133   3.172
12391W        W22084  11.295  18.315  13.348
12392W        W22085   6.987  14.422   0.748
12393W        W22086   5.561   0.773   1.701
12394W        W22087  10.831   2.703  13.341
12395W        W22088   0.250  12.976   4.636
12396W        W22089   9.850  17.349  14.301
12397W        W22090   8.448  19.765   2.677
12398W        W22091  11.320   6.125  12.355
12399W        W22092   7.946   4.195   1.702
12400W        W22093   2.163   1.224   1.736
12401W        W22094   2.185  19.796  13.339
12402W        W22095   0.276   3.677  13.838
12403W        W22096   1.206   1.735   3.654
12404W        W22097   4.563   8.057   4.123
12405W        W22098   7.475  12.471   1.251
12406W        W22099   5.544  11.963   3.641
12407W        W22100   0.721  19.282   4.132
12408W        W22101   8.923  10.002  13.837
12409W        W22102   6.028  14.426   4.139
12410W        W22103   7.936   7.586  14.794
12411W        W22104   2.674  19.803   2.694
12412W        W22105   9.391  16.346   0.284
12413W        W22106   9.380   1.230  12.359
12414W        W22107   7.464   9.064   4.122
12415W        W22108   1.212   1.740   2.215
12416W        W22109   3.161   4.664   2.193
12417W        W22110   3.640  16.368   3.635
12418W        W22111   8.905   5.636   0.726
12419W        W22112   2.648  18.310  13.354
12420W        W22113  10.352  12.945  13.334
12421W        W22114  11.311  19.770  11.418
12422W        W22115   8.430   2.698  10.897
12423W        W22116   9.854  12.475  12.363
12424W        W22117   3.128   1.753   2.191
12425W        W22118   9.868  17.839  14.791
12426W        W22119   1.230   7.093  12.358
12427W        W22120   9.395  15.406   4.129
12428W        W22121   6.022  11.485   2.683
12429W        W22122   8.896   8.540   1.210
12430W        W22123  11.780  18.815   1.248
12431W        W22124   8.923  14.420   0.285
12432W        W22125   1.201  14.903  11.863
12433W        W22126   1.722  17.822   3.654
12434W        W22127   9.843   3.217   2.668
12435W        W22128   9.370  11.958  10.933
12436W        W22129   0.741   9.546   2.204
12437W        W22130   2.191   9.558   2.664
12438W        W22131   6.035  15.401   4.159
12439W        W22132   6.983   1.244  11.855
12440W        W22133   7.486  12.453  13.344
12441W        W22134  11.775  16.374  10.914
12442W        W22135   6.004  14.887   4.115
12443W        W22136   6.979  18.789   2.690
12444W        W22137  11.799  16.840  11.899
12445W        W22138   2.642  19.296  14.761
12446W        W22139   0.275   7.608  11.388
12447W        W22140   1.700  17.822  13.836
12448W        W22141  11.783  18.827  10.902
12449W        W22142   8.917  13.416   1.707
12450W        W22143   0.280   2.212   2.193
12451W        W22144   8.434   8.071   0.764
12452W        W22145   3.605  15.371  12.351
12453W        W22146   5.561   7.101   3.665
12454W        W22147   0.740   7.581  14.302
12455W        W22148   5.526  19.307  10.926
12456W        W22149   3.603  13.925   1.240
12457W        W22150   6.511  16.860   3.167
12458W        W22151   6.033   6.143  11.391
12459W        W22152   4.109  15.383  11.895
12460W        W22153   8.421   1.251  11.397
12461W        W22154   8.903   4.652  13.836
12462W        W22155   4.103  16.345   3.167
12463W        W22156   7.481   0.245   0.253
12464W        W22157   3.131  19.275  11.395
12465W        W22158   0.263   7.117  13.341
12466W        W22159   4.587   8.073   0.728
12467W        W22160   9.875   5.127  10.891
12468W        W22161   1.693   0.772   4.615
12469W        W22162  11.780  18.819   2.686
12470W        W22163  11.318  17.814   3.677
12471W        W22164   0.725  18.801  11.875
12472W        W22165  11.299  10.042   2.188
12473W        W22166   0.277  10.522   2.210
12474W        W22167   6.030   1.736   2.665
12475W        W22168   0.247  12.482  13.791
12476W        W22169   1.214  14.880   1.211
12477W        W22170   2.657  18.294   0.761
12478W        W22171   6.995   4.148   2.696
12479W        W22172   9.867   2.243  14.284
12480W        W22173   2.655   0.760   2.206
12481W        W22174   6.485  13.428  13.321
12482W        W22175   3.620  12.485   3.660
12483W        W22176   0.748   5.134  10.916
12484W        W22177   2.179   5.653  14.308
12485W        W22178   9.391  19.304  13.342
12486W        W22179   3.604  14.395   4.151
12487W        W22180   7.952   1.730  13.341
12488W        W22181   5.534   7.601  13.818
12489W        W22182   4.084   6.136   0.272
12490W        W22183   0.272  13.947  13.791
12491W        W22184  10.834   9.531   0.731
12492W        W22185   5.536  18.821   4.113
12493W        W22186   4.121   7.605  11.863
12494W        W22187   8.899  10.994  11.399
12495W        W22188  11.304   6.117   3.164
12496W        W22189   1.226  17.346  12.858
12497W        W22190   0.246  13.440   2.207
12498W        W22191   3.608  19.805   3.645
12499W        W22192   7.967   9.522  14.784
12500W        W22193   6.989  11.984   0.743
12501W        W22194  10.327   7.576   1.230
12502W        W22195   0.745  19.792  11.863
12503W        W22196  10.351   7.571   4.617
12504W        W22197   0.252   6.610   4.120
12505W        W22198   2.168  14.894  13.309
12506W        W22199   8.896   9.549  10.889
12507W        W22200   9.378  16.375  10.911
12508W        W22201   9.395   0.246  14.286
12509W        W22202   6.013  18.337   2.700
12510W        W22203   1.237  10.985   1.253
12511W        W22204   5.071  15.369   3.642
12512W        W22205   4.100  13.436  12.386
12513W        W22206   2.669   6.101  14.769
12514W        W22207   8.898  12.975   2.198
12515W        W22208   1.207   1.249  10.887
12516W        W22209   9.385  12.942   4.611
12517W        W22210   6.042   9.048  11.411
12518W        W22211  11.767   9.514   4.598
12519W        W22212   0.281   0.289  14.288
12520W        W22213  10.806   8.562  11.404
12521W        W22214   5.547   3.217   3.174
12522W        W22215   1.705  11.989  11.402
12523W        W22216   7.473  13.453  10.925
12524W        W22217   7.475   6.118   2.691
12525W        W22218   2.660  10.014  11.860
12526W        W22219   4.085   1.713   2.669
12527W        W22220   6.961  17.838  14.769
12528W        W22221   5.044  10.528   0.762
12529W        W22222   2.177  13.931  13.326
12530W        W22223   7.478  10.035   2.678
12531W        W22224   3.160  18.819   4.641
12532W        W22225   4.567   7.602   0.281
12533W        W22226   9.407  10.015  12.868
12534W        W22227   8.904  18.828  10.904
12535W        W22228   9.881   7.094   4.144
12536W        W22229   4.118  16.346  12.835
12537W        W22230   3.156  10.504   1.251
12538W        W22231   7.485   0.759  14.294
12539W        W22232   6.037  18.309   4.616
12540W        W22233   2.179  18.818   3.658
12541W        W22234   8.430   9.518  10.911
12542W        W22235   9.876   4.178   1.236
12543W        W22236  10.345  16.863   3.177
12544W        W22237   9.841   3.205  11.391
12545W        W22238  11.780  19.795  13.310
12546W        W22239   0.248  11.502   1.708
12547W        W22240   4.086  16.877  11.383
12548W        W22241   6.997  13.951  10.930
12549W        W22242   6.977   7.098   1.715
12550W        W22243  11.796   9.555   4.142
12551W        W22244  10.829  10.025  14.313
12552W        W22245   3.148   8.564  14.283
12553W        W22246   3.146   5.613   0.243
12554W        W22247   4.091  14.915  12.827
12555W        W22248   9.846  18.305   3.151
12556W        W22249   8.911   1.742  13.308
12557W        W22250   8.905  18.814  14.288
12558W        W22251   0.253   8.564  12.370
12559W        W22252   1.686   0.774   2.691
12560W        W22253   5.535   9.528  14.781
12561W        W22254   8.909  19.762   2.217
12562W        W22255  10.351   0.759  10.926
12563W        W22256   6.007  18.825   4.606
12564W        W22257   1.725   1.237   0.287
12565W        W22258   3.157  12.480   4.618
12566W        W22259   5.074   4.641   1.220
12567W        W22260   1.703   4.661  12.827
12568W        W22261   2.688  16.834   2.670
12569W        W22262  11.763   9.536  11.883
12570W        W22263   4.606  16.844   1.240
12571W        W22264   3.621   9.063  11.859
12572W        W22265  11.283   2.224   2.684
12573W        W22266   7.443   3.694  10.899
12574W        W22267   1.721  15.892  13.831
12575W        W22268   5.555   4.663  14.785
12576W        W22269   1.716  19.282  13.306
12577W        W22270   6.977  15.392  11.379
12578W        W22271   3.638   9.042   2.194
12579W        W22272   7.965   4.674   4.142
12580W        W22273  11.795  12.441  11.405
12581W        W22274  11.802  11.488   4.157
12582W        W22275   6.968  13.422  10.935
12583W        W22276   2.682  11.011  11.373
12584W        W22277   8.912  10.993  12.343
12585W        W22278   9.865   4.672  11.872
12586W        W22279  11.801   5.134  13.340
12587W        W22280   9.880  13.423  11.392
12588W        W22281   6.039  14.429   3.669
12589W        W22282  10.329  12.448   2.220
12590W        W22283  10.354  11.978   4.156
12591W        W22284   0.275  10.042   4.161
12592W        W22285   4.108   2.219   0.288
12593W        W22286   6.524   0.291   1.256
12594W        W22287   2.672  14.897   1.236
12595W        W22288   4.092   0.271   0.767
12596W        W22289   8.444  10.496  14.310
12597W        W22290   7.444  17.342   1.211
12598W        W22291   6.992  10.034   0.748
12599W        W22292  11.296   0.264  10.898
12600W        W22293   3.639  17.806  13.330
12601W        W22294   6.487  12.973   2.688
12602W        W22295   3.157   9.052   0.755
12603W        W22296   6.037  18.782   4.129
12604W        W22297  11.291  13.941   0.278
12605W        W22298   6.961  11.956   1.231
12606W        W22299   6.010  12.949  12.353
12607W        W22300   3.165   7.571  13.822
12608W        W22301   4.090   2.221   3.662
12609W        W22302   2.208   2.693   0.278
12610W        W22303   1.246  15.879  11.873
12611W        W22304   5.542   7.119  13.337
12612W        W22305   2.187  12.463  12.857
12613W        W22306   7.958  11.015  13.813
12614W        W22307   9.875  17.839  11.882
12615W        W22308  11.797   7.578   3.664
12616W        W22309   5.555  15.876  14.286
12617W        W22310   0.273   6.135  13.794
12618W        W22311   1.210  14.435   4.616
12619W        W22312   3.131   4.172  14.312
12620W        W22313   1.228  12.441  12.350
12621W        W22314   6.005  15.371   0.265
12622W        W22315   6.497  15.387   4.621
12623W        W22316   7.463  18.309   1.227
12624W        W22317   8.901  16.853  12.858
12625W        W22318   0.759   4.178  11.873
12626W        W22319   9.866  10.509   1.742
12627W        W22320   3.626   4.678   0.245
12628W        W22321   8.886   9.052  12.830
12629W        W22322   6.977   9.546   3.664
12630W        W22323   5.071   1.737  11.378
12631W        W22324   1.208  17.838   2.689
12632W        W22325   6.519  12.966  13.317
12633W        W22326   4.603   5.633   0.282
12634W        W22327   2.187   6.119   0.273
12635W        W22328   9.882  13.427  11.879
12636W        W22329   9.363  16.841  11.885
12637W        W22330   9.857   9.030  10.921
12638W        W22331   4.122  11.993   0.244
12639W        W22332   3.139  11.507   2.206
12640W        W22333   1.697   6.612  10.906
12641W        W22334   6.031  17.838  12.827
12642W        W22335   8.434  16.834  11.876
12643W        W22336   7.483   1.267   0.258
12644W        W22337   2.652  13.443  13.346
12645W        W22338   7.967   7.079  10.897
12646W        W22339  11.764  13.935   3.634
12647W        W22340   3.616   8.059  14.308
12648W        W22341   1.693  11.499  11.394
12649W        W22342   4.570   8.085  14.317
12650W        W22343   1.221   4.649   0.726
12651W        W22344   2.680  14.435  10.921
12652W        W22345   3.633   0.773   4.639
12653W        W22346   3.608  14.406  13.812
12654W        W22347   8.418  10.035   4.641
12655W        W22348   1.711   9.546  13.323
12656W        W22349   2.187  17.813  13.808
12657W        W22350   9.384  14.910  13.317
12658W        W22351   0.248   6.631  13.819
12659W        W22352   7.962   5.648  12.358
12660W        W22353   2.182  12.969   4.120
12661W        W22354   6.984   4.667   4.155
12662W        W22355   2.641  12.975  14.316
12663W        W22356   9.870   0.288  11.886
12664W        W22357   4.116   2.227   0.770
12665W        W22358  11.302  14.894  14.298
12666W        W22359   7.959  16.354   1.728
12667W        W22360   6.493   2.690  10.914
12668W        W22361  11.795  11.508  11.387
12669W        W22362  10.349   4.169   0.751
12670W        W22363   8.417  13.429  11.415
12671W        W22364   6.518   1.736   3.150
12672W        W22365   7.935   9.547  13.344
12673W        W22366   8.403   0.767   3.629
12674W        W22367   1.706  14.422   3.176
12675W        W22368   4.110  12.486  12.833
12676W        W22369   6.033   6.133  14.319
12677W        W22370   5.075  16.875   3.673
12678W        W22371   0.763   5.654  11.893
12679W        W22372  11.288  19.766  14.298
12680W        W22373   9.863   1.242  14.762
12681W        W22374   7.963  16.833   0.771
12682W        W22375   1.716  13.425  11.895
12683W        W22376   8.911   9.068  13.833
12684W        W22377   6.506  10.493  13.822
12685W        W22378   8.423   1.729  10.922
12686W        W22379   4.124  10.492   1.211
12687W        W22380   2.688   7.587  13.340
12688W        W22381   1.719   4.680  12.382
12689W        W22382   7.962  12.444  14.763
12690W        W22383   9.880   0.746   1.734
12691W        W22384  10.342  15.393  11.373
12692W        W22385   9.846  12.459   1.713
12693W        W22386   6.983  17.814  12.837
12694W        W22387   9.403   8.066   2.203
12695W        W22388   2.656   5.636   1.210
12696W        W22389   7.962  10.492  13.838
12697W        W22390  10.804   6.117  13.314
12698W        W22391   0.749  14.400   2.688
12699W        W22392   6.972   1.221  11.411
12700W        W22393   7.942   1.220   4.155
12701W        W22394   7.002   4.648  14.311
12702W        W22395   7.441   3.193   2.195
12703W        W22396   6.035   4.172   2.708
12704W        W22397   8.901   4.683  13.340
12705W        W22398   0.283   1.255   4.601
12706W        W22399   7.004  16.355   2.709
12707W        W22400   0.767  13.929  14.767
12708W        W22401  10.846  16.873   4.128
12709W        W22402   9.884  16.878  10.898
12710W        W22403  10.357   0.262   1.718
12711W        W22404   7.486   2.236   2.218
12712W        W22405   8.919  13.429  12.857
12713W        W22406   0.732  10.533  12.823
12714W        W22407   5.041  15.870   3.635
12715W        W22408   2.660  15.858  10.930
12716W        W22409  10.351  11.978  10.909
12717W        W22410   2.195   6.135   4.612
12718W        W22411   8.428   8.081   1.226
12719W        W22412   2.174  19.772  12.372
12720W        W22413   9.379   2.716  13.819
12721W        W22414   4.091   6.120  13.810
12722W        W22415   6.981  11.982  14.284
12723W        W22416   1.207   9.048  13.792
12724W        W22417   6.999  16.830   0.265
12725W        W22418   8.925  12.469   0.242
12726W        W22419   4.604  14.424  14.295
12727W        W22420   6.007   5.630  11.860
12728W        W22421   7.945   9.525   0.242
12729W        W22422  10.825   8.555   1.739
12730W        W22423   7.931   2.205   2.692
12731W        W22424   2.666  13.453  14.300
12732W        W22425   8.433  18.798  14.765
12733W        W22426  10.804  11.962  13.833
12734W        W22427   4.575   8.052  10.926
12735W        W22428   1.236   4.680  11.410
12736W        W22429  11.778  16.370  11.394
12737W        W22430   3.167   8.542   1.725
12738W        W22431   7.926   0.757  13.312
12739W        W22432   6.977  18.335  11.377
12740W        W22433   7.466  11.472   4.645
12741W        W22434   6.021   0.773   0.252
12742W        W22435   0.275   5.636  10.919
12743W        W22436  10.345   0.248  14.806
12744W        W22437   7.472  18.341  12.846
12745W        W22438   7.457  13.463  12.365
12746W        W22439   5.551  12.459   1.738
12747W        W22440   0.273   1.740   3.663
12748W        W22441   2.663   9.528   1.727
12749W        W22442   9.377  11.487   4.600
12750W        W22443   9.396   0.245   1.735
12751W        W22444   1.200  10.994  10.931
12752W        W22445   4.571   2.704   2.190
12753W        W22446   4.583   0.779  11.895
12754W        W22447  10.827  12.446  14.291
12755W        W22448   8.907  19.805  13.819
12756W        W22449   1.226  17.353   1.705
12757W        W22450   6.030  11.473   1.702
12758W        W22451   9.843   6.596   0.727
12759W        W22452   0.756  11.499  14.297
12760W        W22453   8.414  13.917   3.176
12761W        W22454  11.301  11.995   3.189
12762W        W22455  10.825  10.010   3.631
12763W        W22456   9.867  15.876  12.345
12764W        W22457   3.633  15.403   0.276
12765W        W22458   5.547   0.755   2.667
12766W        W22459   1.217  12.487  11.411
12767W        W22460   2.190  16.834  14.784
12768W        W22461   5.530   7.104   1.714
12769W        W22462   4.585  18.801  14.786
12770W        W22463   5.054   2.228  11.882
12771W        W22464   2.654  19.315   2.668
12772W        W22465  10.826   8.564  12.843
12773W        W22466  10.839  10.494  13.331
12774W        W22467  11.791  11.018   1.250
12775W        W22468  11.797  18.330   4.138
12776W        W22469   1.221  11.500   2.695
12777W        W22470   4.606   7.568  13.316
12778W        W22471   3.647  10.998   2.663
12779W        W22472   5.047   0.282   0.261
12780W        W22473   8.401  11.962   4.126
12781W        W22474   2.653  15.859  14.303
12782W        W22475  11.802  15.374  14.765
12783W        W22476  11.299  14.410  12.860
12784W        W22477   7.481  19.778  12.351
12785W        W22478   9.864  11.486   4.116
12786W        W22479   8.429   9.525   4.137
12787W        W22480   3.638  12.454  14.286
12788W        W22481   3.610   0.757   0.744
12789W        W22482   3.136  15.404  11.414
12790W        W22483  11.323   4.657   1.211
12791W        W22484   2.182   4.150  14.789
12792W        W22485   1.218   9.038  13.308
12793W        W22486   3.156  14.917   1.257
12794W        W22487   9.857  15.884   4.610
12795W        W22488  10.801  15.381   2.685
12796W        W22489   1.724   5.618  11.375
12797W        W22490   3.139  13.941  11.885
12798W        W22491   8.428   1.721  12.847
12799W        W22492   6.497   0.759   0.259
12800W        W22493   5.538   7.587  14.772
12801W        W22494   4.588  16.872  12.866
12802W        W22495   9.400  11.977  12.856
12803W        W22496  10.353  12.446   3.634
12804W        W22497  11.303  13.951  13.815
12805W        W22498   6.008  17.818   2.685
12806W        W22499   3.631   2.729   2.209
12807W        W22500  10.804   7.572  13.309
12808W        W22501   5.073   8.059   2.688
12809W        W22502   8.905  10.992  10.928
12810W        W22503  10.837   0.769   4.152
12811W        W22504   1.240   8.540   3.643
12812W        W22505   3.122   4.662   3.177
12813W        W22506   3.138   7.080  12.842
12814W        W22507   6.501  10.990   4.609
12815W        W22508   6.009   4.172   3.153
12816W        W22509  11.784  18.795  12.365
12817W        W22510   8.425  17.816  11.870
12818W        W22511  11.291  12.963   0.287
12819W        W22512   0.732   9.067   1.741
12820W        W22513   6.490   1.721   2.666
12821W        W22514   1.713  12.946   4.128
12822W        W22515   6.973   1.721  11.873
12823W        W22516   6.976   2.227   3.179
12824W        W22517   8.925  12.936  13.353
12825W        W22518   5.071   2.241  12.386
12826W        W22519   2.178  12.951  11.857
12827W        W22520   5.058   4.155  14.281
12828W        W22521   0.271  10.978   0.763
12829W        W22522   1.216   2.208   3.175
12830W        W22523   0.751   4.647   1.234
12831W        W22524   6.029  17.808   1.718
12832W        W22525   7.452  12.936   1.711
12833W        W22526   3.143   8.558  12.381
12834W        W22527  10.325   4.638  11.417
12835W        W22528   0.749  15.900  14.803
12836W        W22529   8.438   9.062  13.313
12837W        W22530   5.523  12.457  11.412
12838W        W22531   4.089  12.464   3.146
12839W        W22532   7.921   5.154   4.148
12840W        W22533  10.367   9.050  11.868
12841W        W22534   6.010   1.225  13.332
12842W        W22535   7.960   9.065   0.264
12843W        W22536   9.386  14.904   0.726
12844W        W22537   3.123  12.480  13.794
12845W        W22538   4.109  10.510   1.717
12846W        W22539  11.764  10.520  11.872
12847W        W22540  10.834   0.745  10.934
12848W        W22541   5.549   4.650   1.699
12849W        W22542   6.005  10.042  13.308
12850W        W22543   6.003  18.315   1.712
12851W        W22544   0.276  11.499  12.831
12852W        W22545  11.787  13.418   3.163
12853W        W22546  11.764   3.674   4.601
12854W        W22547  11.787   1.723  13.811
12855W        W22548   9.861   9.519   1.229
12856W        W22549   8.445  10.494  10.921
12857W        W22550   4.602  10.505   0.750
12858W        W22551   5.050  10.525   2.210
12859W        W22552   0.254  10.999  13.326
12860W        W22553   8.905  11.488   1.722
12861W        W22554   7.944   5.131  14.314
12862W        W22555   3.166  15.394   0.749
12863W        W22556   4.116  16.357  12.360
12864W        W22557   7.444   4.176  13.798
12865W        W22558   1.714  16.873  14.792
12866W        W22559   2.180  14.438  13.307
12867W        W22560  11.283   0.766   0.254
12868W        W22561   7.000   4.682   0.766
12869W        W22562   1.719  16.865   4.141
12870W        W22563   3.620  17.365   2.708
12871W        W22564   9.884  10.008  11.396
12872W        W22565   7.952  16.366   3.648
12873W        W22566   2.647  10.516  13.811
12874W        W22567   8.429   5.141  12.859
12875W        W22568   1.214   1.243   4.128
12876W        W22569   6.974  14.394   3.155
12877W        W22570   8.883  13.462  10.894
12878W        W22571   2.170  10.011   1.256
12879W        W22572   9.398   4.639  13.354
12880W        W22573  11.306   6.595  10.897
12881W        W22574   1.222  16.377  11.382
12882W        W22575   4.583   3.215   3.663
12883W        W22576   7.931  16.383   3.148
12884W        W22577   5.087   5.159   4.118
12885W        W22578   4.608   0.747   4.115
12886W        W22579   2.677  13.439   4.599
12887W        W22580   9.386  17.354  11.893
12888W        W22581   5.046   9.531  13.803
12889W        W22582   6.045   4.676   0.286
12890W        W22583   9.845  16.371   1.222
12891W        W22584   8.429  16.384  11.401
12892W        W22585  10.341   1.225  14.288
12893W        W22586   6.522  17.347   1.248
12894W        W22587   0.258  18.317  13.833
12895W        W22588   9.871  11.503   0.263
12896W        W22589   1.204  17.814  13.807
12897W        W22590   7.440   5.142  13.810
12898W        W22591   6.491  10.984   0.727
12899W        W22592   3.144   5.156  13.320
12900W        W22593   6.500  11.994  12.345
12901W        W22594   1.696  14.424  11.400
12902W        W22595   4.597  10.510   2.690
12903W        W22596  10.844  13.436   1.249
12904W        W22597   5.078  13.949   2.704
12905W        W22598   8.912   9.067   4.599
12906W        W22599   6.046   7.092  14.784
12907W        W22600   0.266   2.217   0.273
12908W        W22601   0.244  17.852   4.618
12909W        W22602   6.496  11.965   1.226
12910W        W22603   6.010  10.994  14.307
12911W        W22604   7.461   9.031   3.172
12912W        W22605  10.812  15.878   3.183
12913W        W22606   8.897  18.311  12.358
12914W        W22607   2.646  11.995   3.169
12915W        W22608  11.783   9.050   3.646
12916W        W22609   7.948  14.406   0.726
12917W        W22610   4.087  17.353  10.934
12918W        W22611   8.913  16.842   0.253
12919W        W22612  11.287   8.081  10.921
12920W        W22613   3.159   8.560  14.772
12921W        W22614  10.356  10.009   2.193
12922W        W22615   2.167   5.147   2.202
12923W        W22616   8.899  16.343  11.857
12924W        W22617  10.825   2.689  13.815
12925W        W22618   8.442  16.852  14.773
12926W        W22619   6.992   7.574  11.386
12927W        W22620  10.330  13.444   2.214
12928W        W22621   7.474  17.844   3.178
12929W        W22622   3.151  14.419  14.314
12930W        W22623  11.300  18.309   3.152
12931W        W22624   6.995  10.985  14.802
12932W        W22625   3.162   3.666   4.119
12933W        W22626   9.867   5.641  14.295
12934W        W22627   4.127  17.805  11.867
12935W        W22628   5.533  10.995  12.842
12936W        W22629  11.795  19.289   1.732
12937W        W22630   1.223  14.392   1.212
12938W        W22631   4.084   5.166  13.793
12939W        W22632   1.235  10.991  14.280
12940W        W22633   0.240  18.826  12.850
12941W        W22634   3.141   5.144  13.828
12942W        W22635   7.472   2.224   3.149
12943W        W22636   7.966  16.363   4.630
12944W        W22637   2.203   9.046   2.689
12945W        W22638   5.547  13.439  11.408
12946W        W22639  11.771   1.751   1.248
12947W        W22640   9.374   6.590   4.135
12948W        W22641  10.332  19.284  12.360
12949W        W22642   8.400  17.323  14.781
12950W        W22643   5.526  19.308   1.211
12951W        W22644   0.731   7.079   2.676
12952W        W22645   3.136  17.806  11.871
12953W        W22646  11.320   9.026   3.666
12954W        W22647   8.899   7.097  11.372
12955W        W22648  11.777  18.783  14.790
12956W        W22649   4.608   2.208   3.663
12957W        W22650   2.648   2.208  14.802
12958W        W22651  10.817  15.899  10.928
12959W        W22652   2.661  13.437   0.277
12960W        W22653   5.540  11.000  11.409
12961W        W22654   6.013  10.511   2.672
12962W        W22655   1.211   2.686  12.862
12963W        W22656   4.592   0.257   0.251
12964W        W22657   0.729  14.404  12.355
12965W        W22658  10.321   0.749   3.637
12966W        W22659   0.722  12.953  11.882
12967W        W22660   3.129  15.902  14.301
12968W        W22661   4.591   7.077  14.762
12969W        W22662  11.292   8.558   1.726
12970W        W22663   4.573  12.963   0.277
12971W        W22664   9.855   6.139  11.411
12972W        W22665   3.621   4.649   3.657
12973W        W22666   3.133  15.895   1.704
12974W        W22667   1.726   3.179  14.322
12975W        W22668   0.283  14.904   4.153
12976W        W22669   8.891   4.642   0.729
12977W        W22670   2.206  17.326  11.864
12978W        W22671  10.826  19.316  12.368
12979W        W22672   8.902  10.489  12.371
12980W        W22673   4.107  11.470   0.764
12981W        W22674  10.331  12.947  11.868
12982W        W22675   9.881   7.585  13.807
12983W        W22676   8.421  19.796  10.905
12984W        W22677   7.944   7.566   1.715
12985W        W22678   5.051  13.425   2.178
12986W        W22679   4.586   1.744  13.812
12987W        W22680   8.896   2.721   1.253
12988W        W22681   1.708  14.886   0.753
12989W        W22682   9.398  16.839  12.827
12990W        W22683   5.085  13.934   2.199
12991W        W22684   9.376   0.264  10.916
12992W        W22685   4.576  17.342  12.350
12993W        W22686   7.481  17.829  13.323
12994W        W22687   0.279  18.822  10.914
12995W        W22688   2.202  16.354  12.364
12996W        W22689   3.143  19.280  14.283
12997W        W22690   9.406   2.686   2.214
12998W        W22691   8.911   4.662   4.131
12999W        W22692  11.770  18.794   3.184
13000W        W22693   1.706   3.203  13.831
13001W        W22694   9.875  17.821  13.308
13002W        W22695   6.501  18.809   1.243
13003W        W22696   1.720  15.406  10.918
13004W        W22697   6.508  11.011   3.181
13005W        W22698  11.328   2.198   1.728
13006W        W22699  11.781  10.532  10.926
13007W        W22700   2.188   3.663  14.277
13008W        W22701  11.771   8.564  11.398
13009W        W22702   4.564   2.701   0.744
13010W        W22703   5.532  11.483  12.828
13011W        W22704   7.448  18.811   2.225
13012W        W22705  11.281   9.027   4.600
13013W        W22706   6.490   0.277  10.920
13014W        W22707   7.965  18.309  11.880
13015W        W22708   7.922   8.584   1.713
13016W        W22709  10.838   2.211  11.387
13017W        W22710   1.243   8.051   0.285
13018W        W22711   2.665  16.354   3.152
13019W        W22712   2.203  15.899  10.925
13020W        W22713   5.045  17.351   1.212
13021W        W22714   0.736   5.637   4.599
13022W        W22715   4.593  18.341   1.240
13023W        W22716   8.424   8.584  13.310
13024W        W22717   6.516   3.671  11.414
13025W        W22718   6.012  17.321  11.886
13026W        W22719   1.719   6.632  11.875
13027W        W22720   6.009   1.720  14.281
13028W        W22721   7.446   0.283  11.871
13029W        W22722   4.594  16.844   3.645
13030W        W22723   8.439   4.666   4.120
13031W        W22724   6.008   0.777   3.665
13032W        W22725   6.508  17.850   2.195
13033W        W22726   3.608  12.457  13.340
13034W        W22727   8.883   4.636  10.895
13035W        W22728   7.963   7.087   0.276
13036W        W22729   7.932   4.164  13.796
13037W        W22730   1.685   9.518   3.149
13038W        W22731   5.568   9.547   2.701
13039W        W22732   6.507  13.922   4.613
13040W        W22733   2.188   3.671   2.186
13041W        W22734   8.901  12.464   0.756
13042W        W22735   8.886  13.421   1.211
13043W        W22736   4.573  19.277  12.833
13044W        W22737   5.083   3.203   3.635
13045W        W22738   7.486  14.922   0.247
13046W        W22739   1.214  18.313   3.654
13047W        W22740   1.697   2.207  10.892
13048W        W22741   6.491  19.277  13.339
13049W        W22742   7.447  14.408  11.414
13050W        W22743   4.121   2.683   1.733
13051W        W22744   4.572   8.556   1.739
13052W        W22745   2.665  10.012   2.186
13053W        W22746   2.173  18.821   2.211
13054W        W22747   6.998   0.757   0.269
13055W        W22748   9.383   5.154  13.804
13056W        W22749   4.593  16.867   4.147
13057W        W22750   4.114  11.496   3.653
13058W        W22751   4.106  10.038  14.772
13059W        W22752   8.914   7.576   4.613
13060W        W22753   2.189   6.131  14.302
13061W        W22754   1.211  15.902  12.386
13062W        W22755   6.016  11.976  12.827
13063W        W22756   2.185   5.128  14.797
13064W        W22757   7.942  10.012  10.889
13065W        W22758   7.944   6.625   2.212
13066W        W22759   8.414  19.302  13.312
13067W        W22760  11.803  17.326  10.910
13068W        W22761   1.210  11.507   4.636
13069W        W22762   4.562  12.968  11.382
13070W        W22763   4.111  18.793   4.601
13071W        W22764   7.958   3.185   0.755
13072W        W22765   6.991  17.343  12.853
13073W        W22766  10.846   3.214   1.252
13074W        W22767   8.413   7.091   1.238
13075W        W22768   8.435  10.035   4.125
13076W        W22769   6.524  13.424  11.881
13077W        W22770  11.804  16.849  14.787
13078W        W22771   0.724   0.250   2.695
13079W        W22772   9.395  10.013   0.287
13080W        W22773   5.538  19.802   3.146
13081W        W22774   8.896   1.253   0.741
13082W        W22775   2.652   6.120  10.926
13083W        W22776   4.564  11.013   2.698
13084W        W22777   1.238   8.572   0.731
13085W        W22778   0.283  17.845   1.738
13086W        W22779   3.154  10.976  13.319
13087W        W22780   7.931  11.990   1.226
13088W        W22781   8.442   2.211  13.815
13089W        W22782   8.925  13.424   3.638
13090W        W22783  11.305  12.965  13.794
13091W        W22784   9.399  13.459  14.298
13092W        W22785   8.889   3.218  14.800
13093W        W22786   8.907  14.882  11.381
13094W        W22787  11.800   2.725  11.409
13095W        W22788   7.951  13.430  14.785
13096W        W22789   5.563   7.114  12.385
13097W        W22790  10.323  12.441  11.865
13098W        W22791  11.793  14.882   3.178
13099W        W22792   2.178  11.511   1.241
13100W        W22793   7.465   0.252   4.153
13101W        W22794  10.823  12.968  13.801
13102W        W22795   8.923  14.914   1.242
13103W        W22796   4.120  14.902   0.271
13104W        W22797   9.363  15.856  10.905
13105W        W22798   4.105   5.164  10.921
13106W        W22799   4.602  10.014  12.824
13107W        W22800   4.574  11.501  14.763
13108W        W22801   0.763   4.655  14.311
13109W        W22802   6.499  19.269   4.638
13110W        W22803  10.365   7.604   0.773
13111W        W22804   3.629  16.376  13.315
13112W        W22805   9.843   4.159  11.389
13113W        W22806  10.355   2.714  12.355
13114W        W22807  11.282   8.059  11.381
13115W        W22808   1.702   7.574   2.206
13116W        W22809   2.660  11.510  11.858
13117W        W22810   6.982  12.951  13.340
13118W        W22811   5.078  17.325  11.861
13119W        W22812   8.407  14.909   0.757
13120W        W22813   6.992   5.151  14.301
13121W        W22814   1.694  10.501  13.808
13122W        W22815  10.801  18.801  13.812
13123W        W22816   5.070   9.062  13.836
13124W        W22817   9.878   0.751  12.860
13125W        W22818   6.496  18.803   0.746
13126W        W22819   7.965  19.787   4.155
13127W        W22820   8.419  13.434   2.218
13128W        W22821   0.269   8.056  11.409
13129W        W22822   6.511  10.509   3.672
13130W        W22823   7.954  19.788  11.867
13131W        W22824   5.537  16.846  11.867
13132W        W22825   3.611  10.030  11.407
13133W        W22826   0.261   2.726   0.735
13134W        W22827   9.844   0.747   1.235
13135W        W22828   7.949   6.100  14.279
13136W        W22829   1.705   2.723  13.351
13137W        W22830   1.221  12.967   0.275
13138W        W22831   6.007   4.179   1.226
13139W        W22832   8.909   5.651  12.840
13140W        W22833  10.839  14.919  14.278
13141W        W22834   9.857  18.791  14.792
13142W        W22835   4.106   5.127  12.346
13143W        W22836   6.508   2.694   0.756
13144W        W22837  10.358  17.809  12.382
13145W        W22838  10.842  19.293  14.306
13146W        W22839  11.328   1.713   4.603
13147W        W22840   3.629   0.753  11.870
13148W        W22841  10.358   0.753  13.803
13149W        W22842   4.092   3.176   2.684
13150W        W22843  11.796   1.255  12.850
13151W        W22844   6.043  11.994  11.872
13152W        W22845   3.622   8.583   4.644
13153W        W22846   4.088  11.470  11.373
13154W        W22847   9.390   0.253   4.639
13155W        W22848   9.868  18.320   0.288
13156W        W22849  11.285   2.724   3.146
13157W        W22850   7.483  14.882   0.770
13158W        W22851   1.216  12.453   1.233
13159W        W22852   1.232   1.264  13.339
13160W        W22853   1.232  11.971   4.638
13161W        W22854   9.843   5.140  11.876
13162W        W22855   0.281   7.572   1.723
13163W        W22856  11.294   0.734   3.641
13164W        W22857   8.899  16.347  13.827
13165W        W22858   5.557  12.975   3.635
13166W        W22859   2.181   3.214   3.654
13167W        W22860   9.386  11.504   0.757
13168W        W22861  10.349   4.166  14.284
13169W        W22862   0.271  15.854   4.117
13170W        W22863   5.067  19.310   4.126
13171W        W22864   7.927  15.863  11.416
13172W        W22865   9.863   8.552   0.733
13173W        W22866   7.930  19.307  11.875
13174W        W22867   6.992  15.380   0.773
13175W        W22868   0.766   9.521   4.123
13176W        W22869   1.202  19.284   2.703
13177W        W22870   0.751  12.473   4.159
13178W        W22871  11.305  11.004   0.733
13179W        W22872   6.015  12.928  10.927
13180W        W22873   4.593   4.154   0.248
13181W        W22874   1.240   6.104  14.763
13182W        W22875   4.592  14.403   1.241
13183W        W22876   6.520   8.094  11.415
13184W        W22877   5.562  11.487   0.253
13185W        W22878   1.215  19.770   3.657
13186W        W22879  11.789   2.210  10.896
13187W        W22880   6.528   3.671   4.644
13188W        W22881   4.115  16.837   4.153
13189W        W22882   1.721  17.331   4.599
13190W        W22883   1.202  16.380   2.217
13191W        W22884   2.680   7.587  13.825
13192W        W22885   7.486   4.680   3.653
13193W        W22886   5.082   6.104  13.793
13194W        W22887   4.126   4.180   3.657
13195W        W22888  10.339   0.778   1.247
13196W        W22889   2.684   1.732   0.253
13197W        W22890   1.207   2.694   0.753
13198W        W22891   5.043   2.684  13.822
13199W        W22892   8.905  10.048  11.384
13200W        W22893   5.522   5.160   1.229
13201W        W22894   3.142   0.741  12.349
13202W        W22895   9.864   1.255   0.288
13203W        W22896   6.034   3.210  13.333
13204W        W22897  10.811  13.935   3.150
13205W        W22898   6.023  12.971  11.902
13206W        W22899   3.166  11.996   4.611
13207W        W22900   3.155   5.641  10.892
13208W        W22901   4.094   8.054   2.210
13209W        W22902   0.736   4.666   3.168
13210W        W22903   8.918   2.686  11.392
13211W        W22904   2.183  18.799  11.413
13212W        W22905   2.175  10.034   0.283
13213W        W22906  11.292  14.409   1.700
13214W        W22907   3.633   7.574   2.184
13215W        W22908   6.996   4.168  11.415
13216W        W22909   9.387   4.676   2.194
13217W        W22910   1.207  15.392  11.391
13218W        W22911   3.614  18.334  11.860
13219W        W22912   7.943  11.970  12.368
13220W        W22913   4.594  12.946   4.127
13221W        W22914   9.403  10.535  13.322
13222W        W22915   5.044  19.791   0.269
13223W        W22916   6.973  10.500  14.322
13224W        W22917   7.440   0.778   1.247
13225W        W22918   5.532  10.023   1.733
13226W        W22919   6.979  13.930  13.809
13227W        W22920   1.717  10.002  12.851
13228W        W22921   4.576   8.093   1.737
13229W        W22922   9.371  18.301   2.707
13230W        W22923   4.095   7.574   2.688
13231W        W22924   9.843   2.695   0.731
13232W        W22925   6.518  11.469  10.932
13233W        W22926   8.904   3.704  12.824
13234W        W22927  10.809   7.121   2.214
13235W        W22928   4.109  17.826   2.699
13236W        W22929   4.088   4.646   1.248
13237W        W22930   5.073  18.323   1.721
13238W        W22931   8.903   9.512   0.246
13239W        W22932   4.598  14.434   3.662
13240W        W22933   6.999  17.808  13.821
13241W        W22934   5.550  11.020  14.280
13242W        W22935   5.555   1.258   1.695
13243W        W22936   2.187   1.267   4.138
13244W        W22937   8.443  17.812   4.147
13245W        W22938   6.035   8.066   3.174
13246W        W22939   0.242  13.911   2.197
13247W        W22940   7.933   4.148   0.281
13248W        W22941   6.965   1.717  13.354
13249W        W22942   7.949   6.102   1.245
13250W        W22943   9.363  18.785   1.238
13251W        W22944  10.328  11.991   4.616
13252W        W22945   5.058   9.537   0.287
13253W        W22946   8.427   1.251   0.286
13254W        W22947   2.190  15.373   2.698
13255W        W22948   9.404  19.802   4.133
13256W        W22949   7.928   2.702   0.257
13257W        W22950   4.582  14.415  11.382
13258W        W22951   7.488  10.529  14.291
13259W        W22952   9.391   0.251  11.866
13260W        W22953   5.540  14.424   4.643
13261W        W22954   2.667   8.581   3.153
13262W        W22955   8.906   3.195  12.340
13263W        W22956  11.800  17.847   2.212
13264W        W22957   0.257   1.268  10.923
13265W        W22958   2.673   3.182  12.362
13266W        W22959   0.756   6.100   4.158
13267W        W22960   6.527   2.691   3.174
13268W        W22961   9.867   7.570  11.894
13269W        W22962   5.077  18.315  14.760
13270W        W22963   0.738   8.059  13.838
13271W        W22964   9.385  14.392   3.150
13272W        W22965   5.527  14.921   1.739
13273W        W22966   0.749   0.273   2.187
13274W        W22967  10.808   6.597   1.700
13275W        W22968   0.744  19.800  14.774
13276W        W22969   5.568   9.064  13.809
13277W        W22970   0.743  17.825  12.362
13278W        W22971   1.212   1.261  14.766
13279W        W22972   3.164   7.588   0.244
13280W        W22973   7.921  11.014   2.674
13281W        W22974   2.186  18.787   4.639
13282W        W22975   2.195  17.822  14.772
13283W        W22976   6.507   5.626  14.284
13284W        W22977  10.834  19.782  13.815
13285W        W22978   9.404  13.919   1.250
13286W        W22979   4.587  15.372   4.126
13287W        W22980   0.245   1.261   3.165
13288W        W22981   5.560  16.853  13.816
13289W        W22982  11.792  14.898  11.388
13290W        W22983   5.052   5.161  12.829
13291W        W22984   1.683   9.057  12.351
13292W        W22985  11.773   9.560  14.784
13293W        W22986   9.878   2.701  14.306
13294W        W22987   1.700   5.130   0.754
13295W        W22988   6.999   4.151  12.360
13296W        W22989   2.640   2.242  11.405
13297W        W22990   1.234  12.479   0.727
13298W        W22991   6.039  10.509   3.175
13299W        W22992   4.102  10.994   0.271
13300W        W22993   7.477   4.192  12.844
13301W        W22994   2.171  11.482   1.712
13302W        W22995   5.070   8.075   2.222
13303W        W22996   3.643  12.487   4.598
13304W        W22997   5.084  14.435   3.636
13305W        W22998   7.444  10.996   1.216
13306W        W22999   0.274  19.298   4.122
13307W        W23000   6.989  19.308  12.361
13308W        W23001   1.227   6.133   2.701
13309W        W23002   6.977  11.478  14.300
13310W        W23003   6.020   8.558  13.340
13311W        W23004   6.969  18.814  10.908
13312W        W23005   4.564  18.829  11.416
13313W        W23006  11.769   0.772   3.644
13314W        W23007   5.063  15.858   1.238
13315W        W23008   0.740  16.872  14.305
13316W        W23009   6.970   8.066  13.332
13317W        W23010   8.408  18.800   0.264
13318W        W23011   6.029   2.218   3.174
13319W        W23012   1.225   7.569  13.335
13320W        W23013  10.337   0.762  11.397
13321W        W23014   1.704   7.088   2.666
13322W        W23015   2.643   5.130  13.815
13323W        W23016   1.241  11.503  14.294
13324W        W23017   2.169   6.625  14.793
13325W        W23018  11.795  12.932  13.807
13326W        W23019   0.722   1.741   4.642
13327W        W23020   3.622  12.932  14.294
13328W        W23021   7.473  15.400   0.246
13329W        W23022   2.657  12.481   4.153
13330W        W23023  10.825  16.869  11.389
13331W        W23024  10.333  18.315  11.383
13332W        W23025   9.880  14.917   4.622
13333W        W23026   9.367  10.999   1.229
13334W        W23027   3.164   2.209  14.794
13335W        W23028   9.877  16.363  13.820
13336W        W23029   1.688  19.797  14.760
13337W        W23030   5.555  15.894   0.766
13338W        W23031   1.708  19.775   3.151
13339W        W23032   0.247  12.935  13.347
13340W        W23033   9.841  18.313   1.248
13341W        W23034   2.675  13.420  13.833
13342W        W23035   2.645  17.317   1.256
13343W        W23036   6.524  16.351  12.355
13344W        W23037   0.248  11.965   1.236
13345W        W23038   5.064   4.168   3.156
13346W        W23039   0.287  11.958   2.196
13347W        W23040   2.659  13.903  13.341
13348W        W23041   2.178  18.333  14.283
13349W        W23042   6.978   4.643  12.381
13350W        W23043   3.160   9.542  11.883
13351W        W23044   7.464  10.047   4.132
13352W        W23045   5.559   0.270  11.882
13353W        W23046   1.234   2.715   2.700
13354W        W23047   4.564   1.240   0.743
13355W        W23048  11.770  11.008  11.890
13356W        W23049   7.959  16.833  10.913
13357W        W23050  10.847  16.342  12.372
13358W        W23051  11.774   3.207   3.652
13359W        W23052   7.944   2.239   4.645
13360W        W23053   9.396   7.105   0.754
13361W        W23054  11.797  18.320  12.827
13362W        W23055   6.994  18.788  14.769
13363W        W23056   6.964   2.199   2.186
13364W        W23057   3.121   8.560  13.340
13365W        W23058   9.846  10.048   2.215
13366W        W23059   3.629   9.526   3.658
13367W        W23060   9.867   2.202  13.332
13368W        W23061  11.791   0.275  11.382
13369W        W23062   2.643   2.233   1.716
13370W        W23063   9.857   6.622  11.860
13371W        W23064  10.823  10.520   2.667
13372W        W23065  10.818   3.193  13.798
13373W        W23066   7.939   4.679  11.863
13374W        W23067   9.365  14.399   3.630
13375W        W23068  11.327  17.819   1.706
13376W        W23069   3.131   6.108   2.695
13377W        W23070   6.030   6.611  14.798
13378W        W23071  11.296  18.293  14.304
13379W        W23072   9.373  19.776  11.892
13380W        W23073  10.322  12.476  13.342
13381W        W23074   4.090  11.512   0.264
13382W        W23075  10.820  17.806  13.321
13383W        W23076   8.446  16.370   4.153
13384W        W23077  11.784   3.218  11.858
13385W        W23078  11.773   0.269   2.688
13386W        W23079   6.011   1.744  12.856
13387W        W23080   1.228   9.049  12.340
13388W        W23081   3.128   1.716  10.933
13389W        W23082   7.943  19.279  13.813
13390W        W23083   4.564   9.552   2.667
13391W        W23084   8.404  15.368   2.195
13392W        W23085   8.403   3.707   2.206
13393W        W23086   2.206  17.830  12.823
13394W        W23087   5.527  15.379   1.234
13395W        W23088   5.536  16.850  11.383
13396W        W23089   7.958  10.525  14.772
13397W        W23090  11.801  10.976  14.280
13398W        W23091   8.415  16.864  13.834
13399W        W23092   0.750  10.980   2.688
13400W        W23093   1.681  10.002   2.705
13401W        W23094   0.728   7.099  13.308
13402W        W23095   3.128  15.873   0.266
13403W        W23096   7.956  18.322   4.122
13404W        W23097   5.065  18.294  12.343
13405W        W23098  11.298   9.070   1.229
13406W        W23099   2.207   8.538  12.858
13407W        W23100   6.525   1.225  13.316
13408W        W23101   7.452  10.536   4.145
13409W        W23102   2.180  16.837  13.808
13410W        W23103  10.840   6.630  12.848
13411W        W23104   0.251   2.214   4.604
13412W        W23105   7.442  10.034  14.793
13413W        W23106   4.567  10.997  11.886
13414W        W23107   1.240   9.052  14.313
13415W        W23108   8.417  15.391  12.831
13416W        W23109   0.735  19.786  13.347
13417W        W23110   5.081   4.683  11.398
13418W        W23111   8.887   6.619  13.820
13419W        W23112   1.228  16.832   1.210
13420W        W23113   5.556  18.331   3.673
13421W        W23114   0.256   2.730   2.676
13422W        W23115   5.050   6.119  14.317
13423W        W23116   9.885   0.744  14.792
13424W        W23117   6.978  13.915   2.690
13425W        W23118   7.440  14.399   3.183
13426W        W23119  10.829  14.879   2.670
13427W        W23120  11.787   2.238  14.785
13428W        W23121   3.637   1.742   4.643
13429W        W23122   3.619   0.254  11.378
13430W        W23123   1.205  18.341  13.816
13431W        W23124  11.781   6.141   3.159
13432W        W23125   6.493  17.853   1.241
13433W        W23126   5.550   4.641  11.877
13434W        W23127   1.215  14.393   2.687
13435W        W23128   0.264  18.302   0.750
13436W        W23129   6.047  19.305   1.235
13437W        W23130   4.103   1.236   4.152
13438W        W23131   5.537  12.450  10.888
13439W        W23132   7.965   1.729  13.797
13440W        W23133   9.883  14.420  13.832
13441W        W23134   9.850  11.483   2.667
13442W        W23135   7.925   4.167   0.729
13443W        W23136  11.801  16.858  12.862
13444W        W23137   5.073   0.277  13.338
13445W        W23138   5.530  15.898   3.634
13446W        W23139   9.873  18.798  11.880
13447W        W23140   8.883  12.952   3.178
13448W        W23141  11.788   8.084  11.862
13449W        W23142   4.571   3.698  10.933
13450W        W23143   2.651  13.903  11.858
13451W        W23144   9.385   6.117   2.694
13452W        W23145   8.919  13.906   3.661
13453W        W23146   2.686   6.102  13.821
13454W        W23147  11.290   1.266   4.642
13455W        W23148  10.815  13.432  14.301
13456W        W23149   2.195   5.132   3.189
13457W        W23150   4.106   3.678  12.363
13458W        W23151   2.653   9.072  10.909
13459W        W23152   6.501  17.347   2.189
13460W        W23153   0.270  18.819   2.188
13461W        W23154   5.082   5.650  13.307
13462W        W23155  11.769   0.740  14.321
13463W        W23156   3.140   7.094  11.400
13464W        W23157   4.110  15.400   4.600
13465W        W23158  11.771   9.537   0.749
13466W        W23159   6.527   9.042   2.196
13467W        W23160   6.486  10.498   1.713
13468W        W23161   6.503  12.948   1.701
13469W        W23162   4.596   3.697  13.336
13470W        W23163  11.318  14.924   2.205
13471W        W23164   4.596   4.168  11.872
13472W        W23165  11.804  13.444  12.830
13473W        W23166  11.773   5.124   2.674
13474W        W23167   8.899  12.464   3.190
13475W        W23168   0.740  10.986   1.255
13476W        W23169  11.764  11.992  13.801
13477W        W23170   9.853   6.605   1.726
13478W        W23171   1.693  14.437  10.913
13479W        W23172   6.010  16.876   1.700
13480W        W23173  10.342   4.172  12.372
13481W        W23174   3.637  10.978   0.751
13482W        W23175  11.795   8.564   4.114
13483W        W23176  11.292  10.536   0.269
13484W        W23177   4.603  10.995   2.191
13485W        W23178   3.642   6.598   0.276
13486W        W23179   7.933  11.479   4.633
13487W        W23180   2.178  18.299  11.408
13488W        W23181   5.567   1.723  11.410
13489W        W23182  11.284  17.841  11.398
13490W        W23183  10.351  13.416  12.841
13491W        W23184   3.131   6.609   3.643
13492W        W23185   2.199   3.183  13.322
13493W        W23186   2.658  19.760  11.413
13494W        W23187   2.669   3.213  13.798
13495W        W23188   9.360  19.761   2.182
13496W        W23189   6.022  15.403  13.793
13497W        W23190  10.825  13.429   4.606
13498W        W23191   6.505  12.482  14.283
13499W        W23192   1.203  11.979   4.136
13500W        W23193   6.042   3.687   1.695
13501W        W23194   1.704   8.064   0.268
13502W        W23195   6.972  10.981  12.851
13503W        W23196   0.265  10.515   3.160
13504W        W23197   0.738  19.775   3.179
13505W        W23198  10.368   6.587   2.686
13506W        W23199  10.347  19.793   3.185
13507W        W23200   6.971   3.697  11.419
13508W        W23201   9.858   6.599   3.646
13509W        W23202  11.289   3.198   1.700
13510W        W23203   2.648  10.036   4.116
13511W        W23204   7.964   1.228   2.671
13512W        W23205   4.567   5.155   3.647
13513W        W23206   0.284   4.163   3.175
13514W        W23207   6.962   1.728  13.791
13515W        W23208   1.712   0.268  13.314
13516W        W23209   4.112   8.568   0.275
13517W        W23210   9.848  11.502   0.762
13518W        W23211   0.753   7.572  11.406
13519W        W23212   0.267   6.113   3.185
13520W        W23213   7.472  16.344  14.764
13521W        W23214  10.808   5.657   1.706
13522W        W23215   2.646   0.777   1.245
13523W        W23216   6.001  18.293  13.313
13524W        W23217   4.594   8.564  13.311
13525W        W23218   9.382   5.128  14.311
13526W        W23219   1.727  10.520  13.309
13527W        W23220   1.219   1.742   1.225
13528W        W23221   2.171  12.973   4.634
13529W        W23222  11.299   6.613  14.769
13530W        W23223   4.119  16.372   4.131
13531W        W23224   7.937   1.254  12.827
13532W        W23225   6.966   0.780  14.797
13533W        W23226   2.665  11.466   2.208
13534W        W23227   6.967  16.376  11.392
13535W        W23228   0.762  16.342  11.859
13536W        W23229   5.057  13.928   0.283
13537W        W23230   8.907  15.408   4.624
13538W        W23231   4.116   2.221  12.862
13539W        W23232   3.602  17.363   0.767
13540W        W23233  10.823  15.399  12.374
13541W        W23234  11.310  16.839  13.322
13542W        W23235  10.840   2.702   3.675
13543W        W23236   0.737  10.490  12.342
13544W        W23237   5.069  15.883  10.923
13545W        W23238  11.776   7.573   4.142
13546W        W23239  10.340  11.501  14.799
13547W        W23240   9.857   3.186  11.887
13548W        W23241  11.322   5.645  13.352
13549W        W23242   5.088   2.205  14.761
13550W        W23243   8.887   7.586   3.182
13551W        W23244   3.124  18.341  10.907
13552W        W23245   5.060  17.850  11.866
13553W        W23246   0.759  11.984   2.209
13554W        W23247  11.312   1.246   2.223
13555W        W23248   6.991   0.251   4.629
13556W        W23249  11.808  15.380  10.924
13557W        W23250   7.943   4.661   3.174
13558W        W23251   6.480  15.388   4.137
13559W        W23252  11.312  19.272   3.677
13560W        W23253   7.463  14.404  10.930
13561W        W23254   0.762   0.270  12.350
13562W        W23255   7.443  16.831  11.895
13563W        W23256   4.589  11.984   1.733
13564W        W23257   2.189   9.557   1.213
13565W        W23258   6.003  12.969  14.761
13566W        W23259   6.979   8.574  11.857
13567W        W23260   4.106   9.054  14.794
13568W        W23261   8.438  11.479  14.778
13569W        W23262   1.229   1.720   4.612
13570W        W23263   2.645  19.307   0.736
13571W        W23264   3.123   4.166  12.859
13572W        W23265  11.286  12.469   2.225
13573W        W23266   9.397   4.677   0.770
13574W        W23267   7.930  14.394  11.883
13575W        W23268   0.721  18.815   0.750
13576W        W23269   1.716   2.713  12.861
13577W        W23270   2.683  10.003   3.654
13578W        W23271   5.563   4.683  10.933
13579W        W23272   3.612  19.760  11.399
13580W        W23273   4.093   1.725   3.156
13581W        W23274   2.644  17.830  14.799
13582W        W23275   9.845   3.665  10.927
13583W        W23276  11.779  16.839   1.218
13584W        W23277   7.966   9.051   1.700
13585W        W23278   7.941   8.072   1.246
13586W        W23279   7.968  16.362  14.761
13587W        W23280   7.962  19.757  10.904
13588W        W23281   8.902  18.326   4.143
13589W        W23282   9.851   4.180  12.831
13590W        W23283   6.980   6.617  14.291
13591W        W23284   5.558  14.432  14.764
13592W        W23285   4.564   5.646  11.887
13593W        W23286  10.359  18.323   3.675
13594W        W23287   7.450   9.531  14.303
13595W        W23288   9.362  16.382  14.315
13596W        W23289   6.521   6.113  12.831
13597W        W23290   4.581  14.905   2.707
13598W        W23291   9.843   1.721  12.382
13599W        W23292   8.409  16.363   2.178
13600W        W23293   2.682  11.509  14.781
13601W        W23294   7.484  17.357  13.312
13602W        W23295   4.587  17.811   0.738
13603W        W23296   6.520   6.632   3.671
13604W        W23297   0.244  15.854   4.612
13605W        W23298   5.538   6.143  12.344
13606W        W23299   5.044  17.352   0.289
13607W        W23300  10.844  19.766  12.835
13608W        W23301   1.718  19.279  13.823
13609W        W23302   3.129  17.318  10.910
13610W        W23303   2.672  18.815  14.790
13611W        W23304   8.899   0.284   0.760
13612W        W23305   6.975   2.224   4.623
13613W        W23306   6.487  10.021   3.147
13614W        W23307   5.080  19.802   2.197
13615W        W23308   4.589  11.477   2.191
13616W        W23309   1.722  10.489   4.135
13617W        W23310   2.202  19.274   3.665
13618W        W23311   1.216   2.722   0.256
13619W        W23312   8.442   3.207   3.187
13620W        W23313   8.436   1.233  14.276
13621W        W23314   4.584   5.618   3.638
13622W        W23315  11.321   0.771  10.922
13623W        W23316   3.139  12.456   3.643
13624W        W23317   9.882   6.103   2.206
13625W        W23318   1.208  13.416  10.915
13626W        W23319   2.161   3.700   1.235
13627W        W23320   9.382   3.674   4.605
13628W        W23321   3.127  14.893  13.793
13629W        W23322  10.339  10.527  11.900
13630W        W23323   3.165   2.203   4.600
13631W        W23324   5.062  16.359   2.681
13632W        W23325  10.344  11.465   3.151
13633W        W23326  10.806  11.007  10.908
13634W        W23327  11.312   3.665  11.892
13635W        W23328  10.358  12.469  10.910
13636W        W23329   7.468   1.266  13.796
13637W        W23330   6.495  14.424   1.694
13638W        W23331   7.465   7.596   0.285
13639W        W23332   4.560  12.482   1.224
13640W        W23333  11.775  17.364   3.672
13641W        W23334   6.006  12.967  12.835
13642W        W23335   6.993  14.430  13.823
13643W        W23336   5.559   8.566   0.752
13644W        W23337   5.080  18.827  10.904
13645W        W23338   6.485   7.110   1.706
13646W        W23339   1.703   1.248  12.344
13647W        W23340   6.031  19.316   2.190
13648W        W23341  10.824  13.441   3.634
13649W        W23342   2.187  13.918  12.377
13650W        W23343   1.726  12.937   2.684
13651W        W23344   1.724   7.106   0.253
13652W        W23345   2.659  11.988   4.608
13653W        W23346   5.080  13.457   0.273
13654W        W23347   0.728   3.216  10.918
13655W        W23348   4.590  10.021  14.301
13656W        W23349   2.684  10.018  10.914
13657W        W23350   7.478   4.636  13.793
13658W        W23351   6.971  12.445   2.191
13659W        W23352   2.199   8.071  11.867
13660W        W23353   6.503  15.893  13.826
13661W        W23354   6.048  16.830   3.642
13662W        W23355   9.870  12.487   3.187
13663W        W23356   6.505   6.618  11.396
13664W        W23357   2.162   9.534  14.278
13665W        W23358   7.446   7.582   1.253
13666W        W23359   8.924  10.041   4.621
13667W        W23360  11.317   0.733  12.344
13668W        W23361   1.243  12.440   4.158
13669W        W23362   8.885  17.364  12.867
13670W        W23363   5.083  14.925  13.825
13671W        W23364  10.339   4.179  13.325
13672W        W23365   4.105  19.764  11.389
13673W        W23366   7.486  17.810  12.352
13674W        W23367   8.416  12.443   1.730
13675W        W23368   2.675  13.420   2.210
13676W        W23369  11.782  18.814   0.253
13677W        W23370   3.157  15.875   0.739
13678W        W23371   8.427  17.848  14.299
13679W        W23372   0.754  12.443  11.864
13680W        W23373   6.520  14.432  14.319
13681W        W23374   1.245  10.514  14.320
13682W        W23375   9.864  14.426  12.345
13683W        W23376   6.011   6.589   0.263
13684W        W23377   0.254  17.848  14.795
13685W        W23378   6.042   5.623   3.168
13686W        W23379  11.769  10.993  14.779
13687W        W23380   4.568  16.353   4.139
13688W        W23381   1.691  18.323  13.828
13689W        W23382   1.237   2.695   4.146
13690W        W23383   4.595  17.319  11.372
13691W        W23384   7.952  18.829   1.234
13692W        W23385   3.136   7.117   0.769
13693W        W23386   8.410   8.095  11.372
13694W        W23387   5.083   1.712   2.706
13695W        W23388   7.928   8.062   4.603
13696W        W23389   6.973   5.170   3.641
13697W        W23390   6.024  19.776   1.712
13698W        W23391  10.827   7.595   3.191
13699W        W23392   2.686   3.703   4.601
13700W        W23393   7.958  16.874   2.682
13701W        W23394   7.486   5.149  11.899
13702W        W23395   6.044   0.276   0.287
13703W        W23396   2.643  12.947  11.409
13704W        W23397   6.491   6.127  14.322
13705W        W23398   0.724  13.443   1.248
13706W        W23399   4.081  11.478   4.131
13707W        W23400   4.564   2.687  12.829
13708W        W23401   7.002   0.738   4.117
13709W        W23402  11.787  12.475  14.319
13710W        W23403   2.194  19.301  14.790
13711W        W23404   7.480  17.827  13.804
13712W        W23405   2.168   7.080   3.166
13713W        W23406   0.732   2.704   3.658
13714W        W23407   6.525   4.162   1.719
13715W        W23408   4.600  17.354  10.925
13716W        W23409   5.566   7.592  13.318
13717W        W23410   6.035   2.724   0.281
13718W        W23411  11.773   6.139   0.254
13719W        W23412   7.475  17.330   3.185
13720W        W23413   9.852   1.742  11.384
13721W        W23414  11.770   0.759   1.741
13722W        W23415   6.027  11.962   4.138
13723W        W23416  11.315  11.493   0.243
13724W        W23417   9.408  19.281  14.779
13725W        W23418   1.204   4.637  13.331
13726W        W23419  10.360   0.755  12.866
13727W        W23420   2.671   4.153   3.646
13728W        W23421   4.110  19.310   4.614
13729W        W23422   8.897  19.776  10.892
13730W        W23423   6.045  17.321   3.662
13731W        W23424   9.390  15.372   1.241
13732W        W23425   7.459  19.276  14.773
13733W        W23426   3.146   0.744   3.649
13734W        W23427   6.523  15.380  13.349
13735W        W23428   5.062  11.984  11.869
13736W        W23429   1.241  18.797  14.775
13737W        W23430   7.472   2.220   1.229
13738W        W23431  10.832   7.099  10.904
13739W        W23432   3.647   4.680  13.829
13740W        W23433   3.608  13.929  13.347
13741W        W23434  10.819  10.989  12.862
13742W        W23435  10.327  15.381  12.832
13743W        W23436  11.762  12.941   1.223
13744W        W23437   5.044   3.194   2.200
13745W        W23438   1.709   6.119   0.749
13746W        W23439   2.666  12.933   0.273
13747W        W23440   4.090  11.011   1.698
13748W        W23441   2.655   4.681   0.286
13749W        W23442  10.826  12.928   1.706
13750W        W23443   9.379   0.251   2.665
13751W        W23444   6.970   6.601  11.858
13752W        W23445  11.315  12.448   1.256
13753W        W23446   6.516  15.887   0.275
13754W        W23447   3.612  15.874   2.198
13755W        W23448  10.802   8.058   1.212
13756W        W23449   0.285  17.330   4.132
13757W        W23450   6.525  12.452  13.836
13758W        W23451   9.870   5.644  11.890
13759W        W23452   4.113  16.877  13.830
13760W        W23453   6.028  16.874  10.900
13761W        W23454   1.224  11.958   1.715
13762W        W23455   3.640  14.895   0.248
13763W        W23456   8.890   1.709   2.185
13764W        W23457   3.145  11.982  10.899
13765W        W23458  11.301  11.504  11.866
13766W        W23459   8.409  15.375   3.668
13767W        W23460   8.435   5.642  14.789
13768W        W23461   1.717  19.270  14.319
13769W        W23462   8.408   2.199   0.733
13770W        W23463  10.337   7.081   2.215
13771W        W23464   7.485  19.315   0.773
13772W        W23465   1.210  19.765   3.181
13773W        W23466   4.123   3.179   2.200
13774W        W23467   3.646   3.680  10.907
13775W        W23468   5.070  16.364   4.150
13776W        W23469  11.782   7.113  10.920
13777W        W23470   5.543   5.653   2.680
13778W        W23471   2.206  16.852  11.402
13779W        W23472   9.851  14.391  14.773
13780W        W23473  11.283   7.595   2.670
13781W        W23474   8.887  12.963  14.768
13782W        W23475   6.991  10.492   2.669
13783W        W23476   2.196   6.109  11.861
13784W        W23477   7.964   7.569   2.680
13785W        W23478   6.040   8.570   2.209
13786W        W23479   5.542  17.354  11.414
13787W        W23480  11.791   5.148   0.283
13788W        W23481   0.747   6.615   1.695
13789W        W23482   0.735  10.525   1.253
13790W        W23483   7.921   4.681   0.756
13791W        W23484   5.052  12.955   0.756
13792W        W23485   3.143  10.041  12.861
13793W        W23486   4.108  16.829  13.315
13794W        W23487  11.789   3.190  14.785
13795W        W23488   5.084  12.954   4.126
13796W        W23489   7.943  15.387   2.184
13797W        W23490   9.396   2.726   4.130
13798W        W23491   2.163   0.259   3.630
13799W        W23492   4.108   8.543   4.606
13800W        W23493   2.195  18.337   1.239
13801W        W23494  10.820   6.130  12.385
13802W        W23495   8.885   9.068  11.888
13803W        W23496   8.444   3.192  13.839
13804W        W23497  11.307  16.839  14.798
13805W        W23498   5.074  16.836   1.698
13806W        W23499   4.590   5.652  13.831
13807W        W23500   9.846  14.407   3.671
13808W        W23501   9.853   8.068  10.902
13809W        W23502   7.959   7.090  12.376
13810W        W23503   9.375   6.626   1.252
13811W        W23504   9.397  16.838   4.149
13812W        W23505   4.565  15.856  14.309
13813W        W23506   3.158   8.076   1.713
13814W        W23507   7.966  12.454   3.146
13815W        W23508   9.366  12.445   4.617
13816W        W23509   5.047   7.603   2.704
13817W        W23510   6.523  16.843  13.316
13818W        W23511   9.407  12.483   1.717
13819W        W23512   9.388  13.419   4.124
13820W        W23513   3.637   1.259  14.772
13821W        W23514  10.340  12.457  14.318
13822W        W23515   0.758   2.721  13.322
13823W        W23516   0.272  11.988   2.689
13824W        W23517   2.677  16.382   2.215
13825W        W23518   8.428   8.081   3.148
13826W        W23519   3.644  10.528   3.160
13827W        W23520   3.161   7.100   3.188
13828W        W23521   0.760   5.647   0.757
13829W        W23522   6.984  14.925   1.219
13830W        W23523   4.604  18.821   1.240
13831W        W23524   4.088  15.372  13.328
13832W        W23525   3.647  14.394   3.181
13833W        W23526   0.250   5.614   4.618
13834W        W23527   1.698  19.763   4.156
13835W        W23528   8.900  18.333  10.932
13836W        W23529   6.516   3.181   0.280
13837W        W23530   9.360   4.181   3.175
13838W        W23531   6.484   1.745  13.321
13839W        W23532   5.068  10.534  13.328
13840W        W23533  11.321   3.694  11.383
13841W        W23534  10.337  14.913  14.803
13842W        W23535   0.731  13.421  12.825
13843W        W23536   6.974   9.044   4.606
13844W        W23537   5.047  10.048  14.792
13845W        W23538  10.803  12.472   3.652
13846W        W23539  11.796  18.304  10.920
13847W        W23540   3.153  13.416  13.830
13848W        W23541   7.462   2.236  13.351
13849W        W23542   3.620  14.917   1.739
13850W        W23543   2.662   5.632  11.889
13851W        W23544   0.740  11.971   0.274
13852W        W23545   7.450   9.067   0.264
13853W        W23546   2.174  11.504  11.887
13854W        W23547   0.741  15.890   0.769
13855W        W23548   6.042  13.425   0.287
13856W        W23549   7.944   3.660  10.908
13857W        W23550   9.880  14.907  14.763
13858W        W23551  11.786  14.436  12.854
13859W        W23552   6.509  12.470  10.911
13860W        W23553   0.282  19.787  14.310
13861W        W23554   0.740   3.703   2.208
13862W        W23555   9.845  10.020  14.776
13863W        W23556   3.138  12.454  12.862
13864W        W23557   4.102   7.587  14.790
13865W        W23558   8.414  11.480   1.229
13866W        W23559   5.535  11.496   3.651
13867W        W23560   6.043  10.511   0.771
13868W        W23561   0.762   7.608  13.338
13869W        W23562   5.550   4.193  11.395
13870W        W23563   6.021   2.692   1.722
13871W        W23564   9.375   5.636   3.146
13872W        W23565   1.719  10.004  12.375
13873W        W23566  10.356   2.725   0.746
13874W        W23567  11.322  14.900   1.245
13875W        W23568  11.326  17.346   4.121
13876W        W23569   9.360   8.549   1.256
13877W        W23570   4.102   3.174   3.648
13878W        W23571   2.671   4.181   0.263
13879W        W23572   3.621  18.828  13.316
13880W        W23573   7.002  10.533  11.382
13881W        W23574   3.142   4.682  14.301
13882W        W23575   6.528   8.091  14.779
13883W        W23576   4.092  16.870  12.825
13884W        W23577   7.473   2.715  14.291
13885W        W23578   1.230   0.244  12.363
13886W        W23579   0.256  15.902   0.244
13887W        W23580   9.369  17.357  13.811
13888W        W23581   0.257  11.504  13.801
13889W        W23582   7.956  12.968   0.260
13890W        W23583  11.280  18.820   1.730
13891W        W23584   0.269   0.286  12.846
13892W        W23585   4.081   4.161  10.925
13893W        W23586   7.474   3.174   3.166
13894W        W23587   9.399   5.155   4.121
13895W        W23588   2.201   5.129  12.371
13896W        W23589   2.181   7.599   1.256
13897W        W23590   1.225  10.526   2.221
13898W        W23591   7.964  16.878  11.399
13899W        W23592   1.225  19.281  14.312
13900W        W23593   3.602   9.555   0.755
13901W        W23594   0.277  16.357   0.751
13902W        W23595   7.454  16.838   4.598
13903W        W23596  11.299   0.777  13.315
13904W        W23597   1.687   1.225   4.157
13905W        W23598   6.985  13.920  14.767
13906W        W23599  10.323   9.517  12.825
13907W        W23600   7.462  19.798   1.244
13908W        W23601   2.169  15.410  14.280
13909W        W23602   5.533  13.951   0.769
13910W        W23603   2.187  15.861   0.283
13911W        W23604   1.231   3.701  14.303
13912W        W23605   6.027   8.544  14.308
13913W        W23606   5.063   8.562  11.417
13914W        W23607  10.321   9.068   1.223
13915W        W23608   8.898  18.326  14.318
13916W        W23609   1.232  17.323   1.240
13917W        W23610   4.594  19.783  10.929
13918W        W23611   7.468   1.237   3.157
13919W        W23612   8.408  16.348  12.838
13920W        W23613  11.772  10.041   0.284
13921W        W23614   7.943   9.049   3.147
13922W        W23615   7.933  19.296   0.755
13923W        W23616   6.017  19.786   3.634
13924W        W23617   0.253  17.846  13.318
13925W        W23618   9.362   1.239  10.904
13926W        W23619   3.617  18.326  14.783
13927W        W23620   0.275   7.091   2.189
13928W        W23621   1.683   8.545   3.653
13929W        W23622   6.521  17.843  11.390
13930W        W23623  10.339   7.080   0.750
13931W        W23624   8.882  16.832  13.331
13932W        W23625   0.250  16.850   1.736
13933W        W23626   0.268  10.030   1.725
13934W        W23627   0.249  14.895   1.694
13935W        W23628  10.352   0.291   2.200
13936W        W23629  10.803   7.584  11.879
13937W        W23630   9.379   5.646   1.733
13938W        W23631  11.298  10.017   2.700
13939W        W23632   9.375   9.515  11.375
13940W        W23633   8.923  13.456   4.132
13941W        W23634  10.333   1.224   2.192
13942W        W23635   6.515  13.923  10.903
13943W        W23636   5.071  16.835  12.339
13944W        W23637   0.246  10.488  12.360
13945W        W23638   8.928  17.827   0.252
13946W        W23639   1.723   4.150  13.821
13947W        W23640   1.246  15.378   0.761
13948W        W23641   8.426  16.877  11.381
13949W        W23642   7.461   3.699  14.784
13950W        W23643   6.977  19.780   4.114
13951W        W23644   8.429   0.763   2.208
13952W        W23645  10.335  18.816  13.330
13953W        W23646   1.724  18.822   0.260
13954W        W23647   1.724  17.827   2.671
13955W        W23648   2.667   6.609  13.805
13956W        W23649  11.281   0.760  13.795
13957W        W23650   2.663  12.466   1.711
13958W        W23651   1.209  14.392   0.245
13959W        W23652   1.219   1.732  13.832
13960W        W23653   1.702  11.490   2.210
13961W        W23654  11.313  10.039   4.613
13962W        W23655  11.326   7.585  11.861
13963W        W23656   3.630  17.809   0.260
13964W        W23657   5.536  19.307   4.160
13965W        W23658   1.681   1.251   4.599
13966W        W23659   9.380  10.003  10.907
13967W        W23660  10.847   5.610   4.597
13968W        W23661   2.182   7.567   2.223
13969W        W23662   0.752  16.864  11.377
13970W        W23663   5.083   2.242  10.897
13971W        W23664  10.327  13.426  12.351
13972W        W23665   5.071  11.984   2.705
13973W        W23666   5.063   6.602   1.732
13974W        W23667   6.981   4.173  10.927
13975W        W23668   7.947   1.231  14.784
13976W        W23669   4.590  17.843   2.662
13977W        W23670  11.775  16.357  14.300
13978W        W23671  10.345  11.976   0.264
13979W        W23672   2.680   6.116  11.877
13980W        W23673   3.155  15.894   4.613
13981W        W23674  11.793   3.678  12.865
13982W        W23675   2.675   0.754   4.635
13983W        W23676   0.725  16.832   4.643
13984W        W23677   9.887   6.593  12.380
13985W        W23678   8.902   0.762  14.763
13986W        W23679   0.734  18.315  11.864
13987W        W23680   7.442  14.436   4.643
13988W        W23681   1.698  11.475   0.749
13989W        W23682  10.352  17.326  11.393
13990W        W23683   6.509  19.293   3.153
13991W        W23684  11.309  14.410  14.292
13992W        W23685   9.383  11.974   3.647
13993W        W23686   8.913   0.771   0.746
13994W        W23687   1.206  12.458   0.277
13995W        W23688  11.779   4.682  11.865
13996W        W23689   4.095   6.125   0.768
13997W        W23690   0.270   7.120  11.868
13998W        W23691   6.986   9.558   4.116
13999W        W23692   3.149   3.209   2.186
14000W        W23693   7.923   8.054   0.770
14001W        W23694   4.119  10.519  13.802
14002W        W23695   2.174   0.750   4.614
14003W        W23696   2.674   2.713   3.190
14004W        W23697   8.923   0.268   4.137
14005W        W23698   4.102  13.443   4.115
14006W        W23699   9.848   9.058   2.193
14007W        W23700   6.001   4.677   4.142
14008W        W23701  10.321  12.941   2.675
14009W        W23702   5.554  10.031  12.829
14010W        W23703   5.061   0.765   0.770
14011W        W23704   6.037   4.681  12.370
14012W        W23705   6.510   6.128   1.696
14013W        W23706   6.485   6.619   0.248
14014W        W23707   6.022   3.192   3.174
14015W        W23708   0.734   8.066   0.266
14016W        W23709   8.416  13.935  13.313
14017W        W23710   6.984  18.337  12.831
14018W        W23711  10.807   4.642  11.881
14019W        W23712   8.433   8.571   4.599
14020W        W23713  10.344   3.197   2.201
14021W        W23714  11.792   4.635   4.126
14022W        W23715   9.876   3.659  14.299
14023W        W23716   4.103   9.025   0.252
14024W        W23717   2.685   9.556   0.735
14025W        W23718   8.926   4.646   2.685
14026W        W23719   0.748  16.371   4.627
14027W        W23720   5.557   7.078   0.740
14028W        W23721   8.426  15.899  11.861
14029W        W23722   1.682  13.444   0.245
14030W        W23723   7.958   7.602  14.309
14031W        W23724   0.246  16.862  14.306
14032W        W23725  10.339  10.525   4.147
14033W        W23726   7.443  13.944   4.161
14034W        W23727   0.760   0.743   2.203
14035W        W23728   5.529   0.274   2.196
14036W        W23729   7.946  17.329   2.180
14037W        W23730   0.281  16.383   4.118
14038W        W23731   3.153   5.651  14.770
14039W        W23732   2.172   2.200   4.612
14040W        W23733  11.308  14.883   3.674
14041W        W23734   9.374   3.684  14.765
14042W        W23735   4.585  12.938   3.159
14043W        W23736  11.763   2.233  12.354
14044W        W23737  10.334   9.025  13.344
14045W        W23738   7.928  14.901  12.347
14046W        W23739  11.324   5.617   3.168
14047W        W23740   9.887  15.375   2.695
14048W        W23741   0.285   4.676  11.895
14049W        W23742   8.407  18.308  13.328
14050W        W23743   6.043  15.391   0.729
14051W        W23744  11.772  16.352  12.352
14052W        W23745   4.574  15.413  14.806
14053W        W23746   2.178   1.715  11.893
14054W        W23747   7.939   7.077  13.805
14055W        W23748   5.077  11.500   1.221
14056W        W23749   2.687   7.092   3.661
14057W        W23750   4.604   5.159  13.807
14058W        W23751   8.925  16.383  12.835
14059W        W23752   1.240  11.968   3.634
14060W        W23753   9.396  17.362  10.930
14061W        W23754   1.232   4.672   1.738
14062W        W23755   5.040   3.219   1.701
14063W        W23756   1.697  11.960   0.284
14064W        W23757   0.726  11.962  11.895
14065W        W23758   0.275  18.791  14.778
14066W        W23759   4.089  12.485  14.301
14067W        W23760   9.377   2.241   1.740
14068W        W23761   4.116  10.525   0.272
14069W        W23762  11.306  10.045   3.659
14070W        W23763   5.063  17.835   0.740
14071W        W23764  10.359   2.683  11.870
14072W        W23765   9.850  16.833  13.802
14073W        W23766   2.680  11.021   0.746
14074W        W23767   9.388   0.739   3.677
14075W        W23768   6.494  17.330  14.770
14076W        W23769   3.627   5.636  13.342
14077W        W23770   3.637  15.388   2.215
14078W        W23771   6.486  17.808   4.145
14079W        W23772   6.525   4.659  10.905
14080W        W23773   5.045   5.148  11.373
14081W        W23774   6.506   8.082   2.686
14082W        W23775  11.800   2.684  13.818
14083W        W23776   6.968  18.787  11.406
14084W        W23777   8.880   9.532  12.837
14085W        W23778   5.535   5.641   4.141
14086W        W23779   1.219   5.635   4.618
14087W        W23780   9.851  18.797  10.915
14088W        W23781  11.769   6.596   0.754
14089W        W23782   1.722  10.999  12.383
14090W        W23783   2.168   4.659  10.900
14091W        W23784   5.043   5.617  11.866
14092W        W23785   1.226   4.184  14.295
14093W        W23786   3.618   1.708   3.637
14094W        W23787   7.449  11.482   0.733
14095W        W23788  10.839  15.404   1.216
14096W        W23789  10.348   9.519   3.651
14097W        W23790  10.348   6.101  11.866
14098W        W23791   9.372  19.803   3.637
14099W        W23792   8.896   0.270   2.202
14100W        W23793   2.179  15.879  11.393
14101W        W23794   1.242  14.913   3.672
14102W        W23795   3.126  18.792  11.865
14103W        W23796   6.030   5.624  13.349
14104W        W23797   3.607   5.133   3.182
14105W        W23798   5.567   2.689  13.808
14106W        W23799   0.251  15.876  13.345
14107W        W23800  10.344  13.949   2.678
14108W        W23801   7.952   2.727  13.838
14109W        W23802   2.175   4.165  10.901
14110W        W23803   5.086  12.471   4.622
14111W        W23804   7.944  13.437   1.230
14112W        W23805   5.561  10.033   3.646
14113W        W23806  10.350   3.212   2.709
14114W        W23807   2.179  19.763   1.701
14115W        W23808   5.540   6.612  11.402
14116W        W23809   0.735   7.564   1.221
14117W        W23810  11.319  14.891   4.124
14118W        W23811   9.871   8.585  14.320
14119W        W23812   0.764   4.647  10.935
14120W        W23813   3.152   5.147   0.753
14121W        W23814  10.812   2.230   3.170
14122W        W23815  10.322   6.136   0.279
14123W        W23816   7.486   4.174   4.632
14124W        W23817   8.446   2.718   3.645
14125W        W23818   5.534   2.728  12.363
14126W        W23819   7.001   5.636   0.256
14127W        W23820   7.462   2.687  11.403
14128W        W23821   7.476  19.277   4.639
14129W        W23822   0.732  17.812  12.848
14130W        W23823   1.689   4.147   1.696
14131W        W23824   4.587   8.061  13.829
14132W        W23825   3.627   4.150   4.598
14133W        W23826   4.115   9.030   4.622
14134W        W23827   7.484   4.191   3.161
14135W        W23828   7.468  14.411   2.220
14136W        W23829   1.722  19.773   1.253
14137W        W23830  10.814   8.087   4.621
14138W        W23831   9.862   7.106  14.762
14139W        W23832   2.648   3.189  10.919
14140W        W23833   7.449  18.329  11.389
14141W        W23834   8.885   2.699   0.254
14142W        W23835   8.918  13.441  13.337
14143W        W23836   9.863   9.025  12.339
14144W        W23837  11.284   8.071  13.812
14145W        W23838  10.329   4.679  11.857
14146W        W23839   8.888  10.511   1.249
14147W        W23840   6.969  13.431   1.739
14148W        W23841   4.571   0.275   3.673
14149W        W23842  11.304   9.027  12.340
14150W        W23843   7.942   5.647   2.706
14151W        W23844   6.033   5.144  11.866
14152W        W23845   1.713   6.607  12.839
14153W        W23846   0.248   6.109   3.630
14154W        W23847   1.698   5.139   3.676
14155W        W23848  10.343   7.112   4.140
14156W        W23849   6.006   0.769  13.809
14157W        W23850   6.027  14.397   3.169
14158W        W23851   0.744   3.682  13.838
14159W        W23852   4.573   4.151  13.346
14160W        W23853   4.607   5.635  12.346
14161W        W23854   5.529  17.340   0.764
14162W        W23855  11.282  13.923  11.876
14163W        W23856   5.076   6.595  12.383
14164W        W23857   1.220   2.207   2.217
14165W        W23858   0.721   3.199  12.361
14166W        W23859   8.918   8.558  12.371
14167W        W23860   0.242  17.333   0.739
14168W        W23861   3.154   3.213  14.759
14169W        W23862   7.473  16.380   3.639
14170W        W23863   6.998   0.261   0.289
14171W        W23864   4.101   2.694  14.282
14172W        W23865   8.905  10.516   0.739
14173W        W23866   4.112   2.713   3.639
14174W        W23867  11.298   4.681   2.672
14175W        W23868   2.206   9.560   3.663
14176W        W23869   2.168  15.397  13.795
14177W        W23870   6.003  17.837   4.619
14178W        W23871   1.200  10.036  10.922
14179W        W23872   9.363   1.252  13.310
14180W        W23873   8.917   7.579   0.248
14181W        W23874   2.204  11.492  10.903
14182W        W23875   9.868  16.355   2.665
14183W        W23876   4.596  14.892  14.308
14184W        W23877   0.278   4.155  11.401
14185W        W23878   7.948   4.169   1.235
14186W        W23879   1.230  11.500   1.217
14187W        W23880   7.468  10.009   3.630
14188W        W23881   3.137   6.106  12.365
14189W        W23882   7.933  11.020   1.249
14190W        W23883   0.271  17.322   4.605
14191W        W23884   6.520   6.144  11.410
14192W        W23885   1.241   7.602   3.648
14193W        W23886  11.794   1.725   0.254
14194W        W23887  11.800  14.901  12.859
14195W        W23888   9.855   6.627   2.691
14196W        W23889   6.039   5.621   4.128
14197W        W23890   0.275  16.368   1.220
14198W        W23891   2.168   5.656  13.312
14199W        W23892   5.546   3.665   3.644
14200W        W23893   6.519   8.069   3.151
14201W        W23894   4.599   9.526   0.282
14202W        W23895   7.922  11.010  11.419
14203W        W23896   6.023  11.501  14.786
14204W        W23897   6.497  13.434  12.826
14205W        W23898   1.719   0.734   3.668
14206W        W23899   6.017  10.505  14.805
14207W        W23900   6.025   8.080   1.738
14208W        W23901   4.595   9.071   3.193
14209W        W23902   1.217   7.117   2.199
14210W        W23903   7.948   9.071   4.602
14211W        W23904   1.201  18.331   3.152
14212W        W23905   5.049  19.774  14.759
14213W        W23906   3.643  11.972   0.244
14214W        W23907   7.475   2.209  11.400
14215W        W23908   1.219   9.536  10.890
14216W        W23909  10.824   7.603   4.600
14217W        W23910  10.344   3.702   4.160
14218W        W23911   4.564  11.485   1.730
14219W        W23912   6.048  13.442  13.345
14220W        W23913  11.288   0.764  11.866
14221W        W23914   3.640   3.194   0.768
14222W        W23915   9.862  19.298   1.716
14223W        W23916   3.133  13.456   2.183
14224W        W23917   6.521  16.364   1.701
14225W        W23918   5.550  11.955   0.288
14226W        W23919  11.770   6.142  13.792
14227W        W23920   7.966  10.983   1.704
14228W        W23921   1.697  12.480  14.791
14229W        W23922   6.962  10.032  12.824
14230W        W23923   0.273   4.179  10.910
14231W        W23924   6.981  17.364   3.661
14232W        W23925   5.054   2.216   3.182
14233W        W23926   9.851   6.612   4.631
14234W        W23927   5.070   4.683   4.113
14235W        W23928   6.521   2.238  14.773
14236W        W23929   3.155   9.058   3.648
14237W        W23930  10.325  13.930  12.831
14238W        W23931   0.262  19.771   4.634
14239W        W23932  11.314   6.134  14.780
14240W        W23933  11.323   0.268  14.769
14241W        W23934  10.805   2.725   4.609
14242W        W23935   5.540   5.123   3.630
14243W        W23936   4.083   1.221  12.345
14244W        W23937   2.164  15.902  13.820
14245W        W23938   7.948   0.246   1.231
14246W        W23939   2.673   3.702   1.231
14247W        W23940  10.815   5.641  13.342
14248W        W23941   0.266   2.702  14.775
14249W        W23942   1.682   4.157   1.255
14250W        W23943   7.958   4.649   1.244
14251W        W23944   9.402  15.884   0.246
14252W        W23945   8.427   5.632   2.206
14253W        W23946   4.593   7.570   3.167
14254W        W23947   1.694  16.853   1.249
14255W        W23948   4.085   8.051   4.623
14256W        W23949   3.161   1.726   1.238
14257W        W23950   5.562   8.079   1.247
14258W        W23951   8.919   5.647  11.875
14259W        W23952   3.166   2.711  14.794
14260W        W23953   7.454  10.983  11.884
14261W        W23954   9.858  12.960   3.636
14262W        W23955   6.518   3.217  14.770
14263W        W23956   3.150  13.457   4.142
14264W        W23957   3.613   1.266   0.242
14265W        W23958  11.283  19.270  14.311
14266W        W23959   0.252  16.846   3.651
14267W        W23960   7.000  10.028   1.700
14268W        W23961   8.885   2.208  13.832
14269W        W23962   5.051  14.400  13.791
14270W        W23963   9.360   0.269  12.344
14271W        W23964   4.593   6.593  14.302
14272W        W23965   3.607  17.810  12.824
14273W        W23966   6.004  11.484   3.165
14274W        W23967   4.122   1.230  11.378
14275W        W23968   9.395  13.455   4.635
14276W        W23969   2.652  11.002  10.888
14277W        W23970   4.586  18.807   2.194
14278W        W23971   2.671  10.011   1.739
14279W        W23972  10.804   2.224   4.642
14280W        W23973  10.839   8.584  12.342
14281W        W23974   9.377  13.921   3.634
14282W        W23975   7.478  18.815  10.919
14283W        W23976   2.185   9.047  14.294
14284W        W23977  10.333   8.565   1.740
14285W        W23978   9.871   2.709   1.700
14286W        W23979   7.949   3.701   1.740
14287W        W23980   0.288   7.074  12.346
14288W        W23981   7.444   8.573   4.606
14289W        W23982   2.664  12.930   3.650
14290W        W23983   3.638   9.523  13.327
14291W        W23984   1.237  15.394  13.328
14292W        W23985   5.559  19.290   3.631
14293W        W23986  10.847   0.762  14.302
14294W        W23987   3.143  13.928  12.862
14295W        W23988   6.997   8.061   0.243
14296W        W23989   9.874  19.311   2.680
14297W        W23990   8.897  19.764  12.859
14298W        W23991   4.099  11.973   4.152
14299W        W23992   6.964  19.281  10.924
14300W        W23993   9.404   1.734   2.222
14301W        W23994   3.636   9.056   0.726
14302W        W23995  10.828   6.629   2.192
14303W        W23996   0.735   8.578  11.884
14304W        W23997   0.267   2.238  11.884
14305W        W23998   6.510  16.390   1.257
14306W        W23999   7.959   1.729  14.284
14307W        W24000   5.084   4.656   2.211
14308W        W24001   9.884   7.095   4.604
14309W        W24002  11.782  17.354   1.724
14310W        W24003   4.582   0.245  12.347
14311W        W24004   0.253   9.551   4.627
14312W        W24005   5.531   3.215   3.661
14313W        W24006   4.086   9.061  11.882
14314W        W24007  11.290  11.470   3.660
14315W        W24008   8.445   9.055   1.725
14316W        W24009   6.010  18.784  14.322
14317W        W24010   4.596   0.757   4.598
14318W        W24011   5.077  10.005   0.247
14319W        W24012   6.988   7.586  11.890
14320W        W24013   3.644   0.271  14.292
14321W        W24014   0.754   8.073  11.897
14322W        W24015   2.194  11.509  11.419
14323W        W24016  10.809   6.614  14.791
14324W        W24017  10.324  19.300  13.316
14325W        W24018  10.346   4.151  14.786
14326W        W24019   1.221   3.197  13.795
14327W        W24020   9.401   2.215  11.895
14328W        W24021   7.478   7.574  14.303
14329W        W24022   6.972   3.208  12.351
14330W        W24023   4.582   8.062  11.899
14331W        W24024   8.411  16.874  12.860
14332W        W24025   5.527  17.809   0.750
14333W        W24026   6.996  13.455   0.733
14334W        W24027   9.360   3.667  13.834
14335W        W24028   4.590  14.894   2.195
14336W        W24029   9.858  15.398   4.630
14337W        W24030   7.002  14.922   2.683
14338W        W24031   1.708   7.565  10.919
14339W        W24032  10.331   3.703  14.322
14340W        W24033   2.180  11.483  13.316
14341W        W24034   7.455  10.988   3.150
14342W        W24035   5.530   0.284  14.779
14343W        W24036   2.683  10.039  12.376
14344W        W24037   3.609   5.621  10.901
14345W        W24038   1.234   1.263  12.842
14346W        W24039   9.874   9.516   4.645
14347W        W24040   5.532  11.481   2.204
14348W        W24041   7.946  12.949  12.365
14349W        W24042   0.751  16.871   0.268
14350W        W24043   2.687  10.490   0.755
14351W        W24044  11.771   9.067  13.311
14352W        W24045  10.831  10.046   3.169
14353W        W24046   6.980  18.782   0.770
14354W        W24047   5.530  15.892   4.640
14355W        W24048   5.078   9.070  14.760
14356W        W24049   0.246  14.923  14.300
14357W        W24050   6.035   8.557  13.802
14358W        W24051   8.892  18.814   4.601
14359W        W24052   6.028   2.235   1.720
14360W        W24053   7.932   8.093  12.823
14361W        W24054   0.752  14.411  13.334
14362W        W24055  11.304   3.181   0.261
14363W        W24056   0.723  14.916  12.823
14364W        W24057  10.326  10.535   0.763
14365W        W24058   0.251   4.665   2.701
14366W        W24059   1.695  12.474   2.664
14367W        W24060   0.726  14.427   1.236
14368W        W24061  11.770  16.853   2.220
14369W        W24062  10.324   9.060   2.192
14370W        W24063   8.426  16.865   2.695
14371W        W24064   3.128   6.619   1.725
14372W        W24065   9.404  15.902   2.222
14373W        W24066   9.845  10.998  13.342
14374W        W24067   8.440   6.101   2.188
14375W        W24068   0.276   1.746   3.173
14376W        W24069   2.683   6.113  12.360
14377W        W24070   1.207   4.178  10.921
14378W        W24071  11.777   2.699  12.860
14379W        W24072   3.144   2.206  11.381
14380W        W24073   4.080   9.033  12.374
14381W        W24074   3.625  15.877  10.913
14382W        W24075   9.854   6.596  10.927
14383W        W24076   7.452   1.721  13.828
14384W        W24077   7.482  10.036   2.225
14385W        W24078   7.922  16.871  14.784
14386W        W24079  11.803  12.933  11.383
14387W        W24080   0.283   7.106   3.172
14388W        W24081   8.415   0.744   1.740
14389W        W24082   7.476  11.004   2.194
14390W        W24083   9.363  10.507   0.278
14391W        W24084   7.466  10.533  11.376
14392W        W24085   0.285  14.883  13.802
14393W        W24086   0.740  12.945   1.221
14394W        W24087  11.294   3.178   1.210
14395W        W24088   3.647   7.570   1.250
14396W        W24089   3.137   7.077  13.352
14397W        W24090   2.200   4.652  14.804
14398W        W24091   0.754  11.995  14.277
14399W        W24092   0.737  13.442   0.271
14400W        W24093   6.998  16.342  10.898
14401W        W24094   8.899  11.012  14.280
14402W        W24095   4.110   4.637   2.663
14403W        W24096   8.426   9.528  13.315
14404W        W24097   2.652  19.776   1.735
14405W        W24098   2.195  18.794   0.281
14406W        W24099   4.124   5.650   0.290
14407W        W24100   5.550   2.688  14.305
14408W        W24101   0.746  12.459  11.395
14409W        W24102  11.794   3.173   2.692
14410W        W24103   7.921  14.910  14.309
14411W        W24104   6.974  16.355   1.711
14412W        W24105   1.720   2.207  11.388
14413W        W24106  11.797   8.077   2.699
14414W        W24107   3.621  19.312  14.284
14415W        W24108   9.887   4.180   1.727
14416W        W24109   0.240   1.709   0.244
14417W        W24110   4.599  16.351  11.861
14418W        W24111   7.473  11.999  14.303
14419W        W24112   8.928  18.786   3.180
14420W        W24113  11.798  14.923   2.179
14421W        W24114   3.145   5.619   2.685
14422W        W24115   7.466  18.827  14.775
14423W        W24116   4.098   3.214  13.310
14424W        W24117  10.332  10.993  13.334
14425W        W24118   3.641   3.704   1.698
14426W        W24119   3.619   4.189  10.900
14427W        W24120   0.766   9.053   3.668
14428W        W24121  10.331   9.541   1.257
14429W        W24122   2.688   8.542   3.667
14430W        W24123   6.043  10.030  13.821
14431W        W24124  11.305   9.054   2.210
14432W        W24125   2.170   8.564  11.382
14433W        W24126   8.401  18.787   1.724
14434W        W24127   1.710  10.492   2.202
14435W        W24128   2.180   7.582   3.657
14436W        W24129   9.381  12.945  10.905
14437W        W24130   2.199   1.730   1.742
14438W        W24131   6.990   2.698  11.869
14439W        W24132   1.727   4.179   2.708
14440W        W24133  11.288  18.799   2.665
14441W        W24134   2.201   0.735   3.655
14442W        W24135   3.121   0.770   3.154
14443W        W24136  10.355   1.235   2.698
14444W        W24137   1.691  19.309   3.670
14445W        W24138  10.821   5.169  12.367
14446W        W24139   9.850   2.697  12.342
14447W        W24140   7.000  19.292   1.234
14448W        W24141   6.963   5.648  13.819
14449W        W24142  11.296  13.942  14.290
14450W        W24143   3.615   2.214   2.219
14451W        W24144  11.291  15.374   2.669
14452W        W24145   9.844  17.358   3.174
14453W        W24146   1.702   3.690   1.707
14454W        W24147   8.423   4.675   1.726
14455W        W24148   6.483  14.392   4.121
14456W        W24149   0.246   2.689  14.296
14457W        W24150   8.918  11.501  13.349
14458W        W24151   8.889   1.724  12.837
14459W        W24152  10.811   5.134   1.250
14460W        W24153   6.033  18.313   0.735
14461W        W24154  11.798  18.813   1.709
14462W        W24155   4.562   1.267   2.666
14463W        W24156  11.797   8.577  11.883
14464W        W24157   6.986   9.060  12.370
14465W        W24158   9.398  15.403   2.180
14466W        W24159   3.127  15.413  10.891
14467W        W24160   2.191  13.942  11.884
14468W        W24161   0.275  18.298  13.326
14469W        W24162   3.645   8.556   3.154
14470W        W24163  10.843   5.616   2.695
14471W        W24164   5.057   3.667  11.372
14472W        W24165   7.470   8.059   4.625
14473W        W24166   9.374   5.633  12.360
14474W        W24167   3.123   7.081   2.222
14475W        W24168   4.564   7.568   1.708
14476W        W24169   5.050  14.406   3.185
14477W        W24170   4.562   3.171   4.625
14478W        W24171   2.178   6.630   3.168
14479W        W24172   3.137  10.042   3.658
14480W        W24173   3.131  16.875  12.824
14481W        W24174   9.367   2.686  11.389
14482W        W24175   7.466  18.340   2.706
14483W        W24176  11.292  13.441  11.418
14484W        W24177   2.644  12.446   2.701
14485W        W24178   4.607  17.361   1.242
14486W        W24179   6.975  16.877   1.230
14487W        W24180   1.685  12.943   0.280
14488W        W24181   6.017   0.762   1.707
14489W        W24182   9.871  16.853  11.887
14490W        W24183   2.178   4.661  14.288
14491W        W24184   3.639  10.026   0.742
14492W        W24185  11.303  12.941  14.290
14493W        W24186   3.632   4.636   1.234
14494W        W24187   0.761  17.335   2.670
14495W        W24188   2.182   1.735   3.193
14496W        W24189  10.802  11.991   4.124
14497W        W24190   0.744  12.942  12.379
14498W        W24191   5.046  10.978   1.722
14499W        W24192   6.974   9.521   2.194
14500W        W24193   7.441  16.866   3.161
14501W        W24194   8.916  12.948  12.341
14502W        W24195   0.253  18.306   1.733
14503W        W24196   4.595  16.350  13.344
14504W        W24197   5.524   8.073  11.861
14505W        W24198  11.301  14.915   4.640
14506W        W24199   7.486   9.066   0.753
14507W        W24200   8.437   3.182   2.194
14508W        W24201   0.264  15.856  11.883
14509W        W24202   1.682   1.730   1.224
14510W        W24203   9.383   7.121   2.210
14511W        W24204   0.724  11.481   3.674
14512W        W24205   3.123  10.525   1.721
14513W        W24206   7.933   2.727  12.365
14514W        W24207   6.003  12.443  10.898
14515W        W24208  11.317  18.794  13.313
14516W        W24209   5.522  19.290  12.855
14517W        W24210  11.323  13.448   1.248
14518W        W24211  10.847  19.285  11.883
14519W        W24212   0.746   0.735  12.348
14520W        W24213   8.900  11.011   0.727
14521W        W24214   9.372  14.900   2.701
14522W        W24215   6.972   6.626  10.925
14523W        W24216   4.119   2.243  13.832
14524W        W24217   7.486   9.531   4.635
14525W        W24218   7.484   4.187  10.931
14526W        W24219   8.894  13.448  14.778
14527W        W24220   6.029  15.372  13.347
14528W        W24221   4.599  13.932  12.342
14529W        W24222   2.687   0.263   3.646
14530W        W24223   1.222  16.348   3.153
14531W        W24224  10.349  18.792   0.286
14532W        W24225   5.071  15.878  12.866
14533W        W24226   0.268  10.982   3.176
14534W        W24227   3.148  10.505   0.273
14535W        W24228   8.405  17.830   2.198
14536W        W24229   7.454  16.848   1.694
14537W        W24230   8.893  18.324   0.265
14538W        W24231   5.532  16.387   3.152
14539W        W24232  10.335  16.866  12.855
14540W        W24233   7.962  15.383   3.182
14541W        W24234   1.711  18.325  14.783
14542W        W24235   3.134  16.386   1.727
14543W        W24236   6.505   4.648   3.640
14544W        W24237   0.755   3.215  14.806
14545W        W24238   0.251  15.891  11.392
14546W        W24239   1.210   7.591   1.254
14547W        W24240   8.441   8.571   0.262
14548W        W24241  11.308  19.281   1.737
14549W        W24242   8.913  15.867  12.352
14550W        W24243   5.050   0.746  10.904
14551W        W24244   8.410   2.206  10.900
14552W        W24245   9.874  18.314  12.352
14553W        W24246   9.868  14.912  12.824
14554W        W24247  10.821   4.642   1.215
14555W        W24248   3.647  19.779   4.139
14556W        W24249   8.893  10.496  13.809
14557W        W24250   3.622   0.760   4.145
14558W        W24251   6.012  10.039   1.226
14559W        W24252   5.557  14.414   3.178
14560W        W24253   7.477  16.388  14.285
14561W        W24254   3.631  19.277   1.712
14562W        W24255   1.215  14.410   0.772
14563W        W24256  11.784  14.408   3.648
14564W        W24257  10.804   1.247  10.920
14565W        W24258   8.418   9.557   1.228
14566W        W24259   5.566  17.351  12.387
14567W        W24260   8.415   0.736  13.322
14568W        W24261   5.538  12.478   1.219
14569W        W24262   0.767  13.458  13.818
14570W        W24263   2.194  15.372  13.322
14571W        W24264   7.442   3.690   1.215
14572W        W24265   3.132  15.862   4.155
14573W        W24266   6.003   5.162   0.277
14574W        W24267  10.358  17.317   1.734
14575W        W24268   0.275  17.358  11.874
14576W        W24269   7.942  14.902  11.381
14577W        W24270   3.155   1.260   0.246
14578W        W24271   7.965   1.712   3.193
14579W        W24272  10.340   2.200   3.174
14580W        W24273   6.510   8.537   3.154
14581W        W24274   2.663   3.181   4.608
14582W        W24275   9.876  15.377  13.329
14583W        W24276   1.242   3.171   3.187
14584W        W24277   0.248   9.064   1.226
14585W        W24278   2.166  10.990  11.878
14586W        W24279   8.894  13.944  12.352
14587W        W24280   2.659  16.832   2.206
14588W        W24281   1.719  13.947   0.732
14589W        W24282   2.182  19.757  11.883
14590W        W24283   0.249   2.236  10.888
14591W        W24284   8.416  10.028   2.681
14592W        W24285   9.873   4.164   3.640
14593W        W24286   9.408   6.600  12.368
14594W        W24287   0.735  10.529   3.150
14595W        W24288   8.423   4.663  12.842
14596W        W24289   1.208  12.969   3.671
14597W        W24290   5.559  18.816   1.694
14598W        W24291   1.694  12.476   0.251
14599W        W24292   7.452   0.742   3.630
14600W        W24293   3.600  16.871   1.742
14601W        W24294   4.602  15.872  12.857
14602W        W24295   2.676  12.485  12.360
14603W        W24296   4.115   3.694   4.644
14604W        W24297   5.048   4.675   3.667
14605W        W24298   0.732   5.141   2.183
14606W        W24299   6.483   2.226   2.213
14607W        W24300   2.198   0.290  11.380
14608W        W24301   3.137  18.336   0.245
14609W        W24302   2.667  19.778  13.326
14610W        W24303   9.402  17.346  12.864
14611W        W24304   2.653   1.735   1.256
14612W        W24305   8.907   9.033   3.651
14613W        W24306   9.850   0.280   0.265
14614W        W24307  11.289  12.465  13.324
14615W        W24308   8.417   6.633  14.766
14616W        W24309   2.658   5.616   4.630
14617W        W24310  10.815   1.235   1.695
14618W        W24311   5.544   0.773  14.301
14619W        W24312   4.589  12.935   0.754
14620W        W24313   3.149   3.679   3.658
14621W        W24314   5.071  14.400  10.892
14622W        W24315   5.542  17.844   3.662
14623W        W24316   4.084  15.882   0.279
14624W        W24317   9.385  12.484  14.320
14625W        W24318   4.568  14.923   0.260
14626W        W24319  10.352  11.959   3.637
14627W        W24320   4.081  11.965  10.904
14628W        W24321   0.755   6.588  13.821
14629W        W24322   8.909   3.190  13.322
14630W        W24323   1.700   3.218   1.244
14631W        W24324   2.650   7.583  14.285
14632W        W24325   8.905  14.411  11.865
14633W        W24326   0.726  13.930  11.388
14634W        W24327   7.464  16.872  10.933
14635W        W24328   7.960  18.785   0.763
14636W        W24329   6.527   9.046  13.803
14637W        W24330   5.078  18.340  11.391
14638W        W24331   3.159  11.466   3.161
14639W        W24332   7.458  17.321  10.912
14640W        W24333   2.674  15.399   1.229
14641W        W24334   1.706   3.688  11.886
14642W        W24335   0.743   0.738   4.618
14643W        W24336   1.705  12.972   0.741
14644W        W24337   7.960   0.776   4.614
14645W        W24338   1.718  14.421   4.633
14646W        W24339   4.603  19.312   2.180
14647W        W24340  11.289  18.798  13.832
14648W        W24341   5.556   3.680   0.244
14649W        W24342   7.932  11.478   1.255
14650W        W24343   4.101   9.533   4.127
14651W        W24344   3.619  15.368  14.766
14652W        W24345   7.948  10.011  12.382
14653W        W24346   1.687   2.724   0.277
14654W        W24347   8.405   4.176  10.909
14655W        W24348   2.168  19.790  10.907
14656W        W24349   7.481  12.957   4.644
14657W        W24350   8.911  10.025   2.182
14658W        W24351   3.144   1.237  14.785
14659W        W24352  10.847   4.157  13.310
14660W        W24353   7.479   2.720   3.191
14661W        W24354  10.840  15.878  12.377
14662W        W24355   8.418   0.269  12.838
14663W        W24356   7.455  16.381  11.396
14664W        W24357   2.171   8.071  13.836
14665W        W24358   2.178  17.362  14.766
14666W        W24359   6.526   3.181   3.180
14667W        W24360   5.541  17.330   1.253
14668W        W24361  11.299  19.795   0.262
14669W        W24362  11.799  11.973   2.202
14670W        W24363   4.119   4.183  11.383
14671W        W24364  11.308  12.470  12.847
14672W        W24365   3.135  12.950  13.350
14673W        W24366   6.048  12.462   2.185
14674W        W24367   7.931   0.260  12.362
14675W        W24368   7.935   6.103  14.801
14676W        W24369   2.661  12.948   1.717
14677W        W24370   1.687  16.874   3.649
14678W        W24371   5.067  16.352   1.238
14679W        W24372   9.387  14.903   3.158
14680W        W24373  10.825  17.808   4.625
14681W        W24374   4.082   9.065   0.740
14682W        W24375   6.483  14.924  14.279
14683W        W24376   1.229   3.677  12.347
14684W        W24377   2.677  15.372   0.743
14685W        W24378   7.965  13.427  10.900
14686W        W24379   9.861  13.904   3.178
14687W        W24380   6.041   2.223   3.637
14688W        W24381   9.392  19.791   5.590
14689W        W24382   4.594  11.004  12.866
14690W        W24383   7.959  17.831  11.409
14691W        W24384   7.945   7.106  14.297
14692W        W24385   6.499  19.305  14.782
14693W        W24386   8.926   3.690   4.152
14694W        W24387   1.711   4.157   2.225
14695W        W24388  10.329   0.291   4.122
14696W        W24389   7.000   2.692   1.710
14697W        W24390   2.658  10.991  14.292
14698W        W24391   3.133   4.175   2.678
14699W        W24392   5.056   8.073  14.792
14700W        W24393   4.602   7.091   2.200
14701W        W24394   5.085   6.594  14.310
14702W        W24395   5.530   3.176   4.613
14703W        W24396  11.327   4.651  13.348
14704W        W24397   9.369  10.508   4.618
14705W        W24398   7.456  10.992   0.283
14706W        W24399  10.836  14.414  11.898
14707W        W24400  11.294   0.249   3.154
14708W        W24401  11.760  11.484   4.605
14709W        W24402   2.664   0.779  12.369
14710W        W24403   6.967   0.246  11.858
14711W        W24404   9.884  19.271  11.859
14712W        W24405   7.457  19.796   3.641
14713W        W24406   5.075   6.612   4.633
14714W        W24407   2.658   0.763  12.860
14715W        W24408  11.317   1.223  10.931
14716W        W24409   2.166  16.840   3.641
14717W        W24410   2.191   0.278   0.726
14718W        W24411   4.600  10.044   4.136
14719W        W24412   0.268  14.401  12.857
14720W        W24413   1.219   4.167  11.863
14721W        W24414   0.754   9.556  12.866
14722W        W24415   2.174   0.733  12.831
14723W        W24416   8.404   0.749   0.743
14724W        W24417   3.160  11.989  14.321
14725W        W24418  11.761   2.215   4.622
14726W        W24419   0.262   1.224   1.243
14727W        W24420   4.585   5.127   4.639
14728W        W24421   9.874  16.838   0.728
14729W        W24422   6.032   4.636  13.795
14730W        W24423   2.678   5.654  13.329
14731W        W24424   2.178  16.830  14.323
14732W        W24425   3.604  19.284  14.768
14733W        W24426   6.504  13.447   2.215
14734W        W24427  10.328   8.580  10.918
14735W        W24428   0.753  10.521   1.742
14736W        W24429   0.735  10.513   0.264
14737W        W24430   7.460  14.429  12.859
14738W        W24431   5.052  10.029  12.340
14739W        W24432   7.963  16.850   1.225
14740W        W24433   6.495   5.623   4.138
14741W        W24434  10.334   3.678  11.855
14742W        W24435   1.710  11.512   3.171
14743W        W24436   8.422  13.420   0.268
14744W        W24437   3.150   0.758   0.740
14745W        W24438  10.841   2.732   4.135
14746W        W24439   5.533  13.439  12.860
14747W        W24440   9.877   2.233  11.395
14748W        W24441  10.828   9.555  11.865
14749W        W24442   8.914  18.334   3.174
14750W        W24443   4.592  17.834  14.303
14751W        W24444   7.481   5.647   2.668
14752W        W24445   5.048   6.598   4.137
14753W        W24446   7.470   2.226   0.268
14754W        W24447   7.924   0.263  13.343
14755W        W24448   1.203   1.245   0.258
14756W        W24449   6.488  18.828   4.625
14757W        W24450   1.702  10.512  11.868
14758W        W24451   5.045  12.965  11.873
14759W        W24452   8.433   8.084   0.248
14760W        W24453   0.764   1.233  10.924
14761W        W24454   8.423  13.914   0.761
14762W        W24455   8.424  10.021  13.815
14763W        W24456   7.442   6.631  13.346
14764W        W24457   3.628  17.838   2.680
14765W        W24458   6.487  10.033  13.805
14766W        W24459   6.497   2.717   2.178
14767W        W24460   4.574  16.850   3.187
14768W        W24461   6.021   2.706   1.254
14769W        W24462   3.622   2.221   0.752
14770W        W24463   0.767   3.693   0.770
14771W        W24464   0.760  15.408   0.744
14772W        W24465   3.605   0.277   2.702
14773W        W24466   5.547  14.402  12.386
14774W        W24467   5.551   6.594   1.244
14775W        W24468   9.399  13.912  11.867
14776W        W24469   8.891   9.553   3.657
14777W        W24470   4.594   7.113  13.322
14778W        W24471   6.497   0.741  13.348
14779W        W24472   1.207  11.512  12.339
14780W        W24473   6.022  12.475  12.826
14781W        W24474   8.926  12.449  12.386
14782W        W24475  11.805   6.614   0.248
14783W        W24476   6.512  11.954  11.880
14784W        W24477   8.883  11.464  12.354
14785W        W24478   1.700  12.936  14.317
14786W        W24479   4.585  14.892   3.648
14787W        W24480   2.180  18.804   3.175
14788W        W24481   6.039   3.659  10.893
14789W        W24482   8.924   9.561   4.124
14790W        W24483   5.080   6.143  10.888
14791W        W24484   3.605   7.081  14.769
14792W        W24485   2.205   0.773   1.734
14793W        W24486   0.740  11.973  12.374
14794W        W24487  11.778  16.865   2.664
14795W        W24488   7.921  12.969   4.134
14796W        W24489   9.393   0.271  11.408
14797W        W24490   1.704   1.224  11.372
14798W        W24491   1.243   1.735  10.920
14799W        W24492   7.486  13.431  13.831
14800W        W24493   0.265   5.617   3.146
14801W        W24494   3.645   4.656  12.357
14802W        W24495   2.199  10.512   0.745
14803W        W24496   3.129   3.202   1.714
14804W        W24497  10.326  13.910   0.749
14805W        W24498   9.401   1.252   3.176
14806W        W24499   4.085   2.712   3.190
14807W        W24500   8.411   2.716   1.220
14808W        W24501   9.364   7.083   3.673
14809W        W24502   6.979  11.478   0.262
14810W        W24503   3.128   9.052  12.345
14811W        W24504   9.377  13.911   0.736
14812W        W24505   1.218   6.628   3.188
14813W        W24506  10.830  10.994  13.309
14814W        W24507   6.046  14.402  14.803
14815W        W24508   7.923   9.035  14.310
14816W        W24509   0.288   6.627  12.383
14817W        W24510  11.804   4.170  14.278
14818W        W24511   0.759  16.370  12.368
14819W        W24512   5.535  18.294  13.340
14820W        W24513   0.243  19.802   0.246
14821W        W24514  10.815   3.681   0.277
14822W        W24515   1.710  16.343  13.333
14823W        W24516   5.562  14.905   4.151
14824W        W24517   9.377   3.211   3.193
14825W        W24518   6.044  19.273   4.138
14826W        W24519   9.884   7.582  12.863
14827W        W24520   8.416   9.038   3.632
14828W        W24521   4.591  11.474  14.314
14829W        W24522   6.506   1.267   3.175
14830W        W24523   9.880  12.935   4.639
14831W        W24524  10.805  14.918   1.217
14832W        W24525  10.332  19.798   4.140
14833W        W24526  10.363   8.580   2.695
14834W        W24527   7.486   8.582  14.775
14835W        W24528   5.066  11.978  12.363
14836W        W24529   1.724   2.197  11.903
14837W        W24530   8.883  10.492  14.289
14838W        W24531   9.402  11.952  11.411
14839W        W24532  11.319  17.842  11.858
14840W        W24533  10.841   0.285  12.356
14841W        W24534   0.257   7.603  12.849
14842W        W24535  11.296  13.941  12.364
14843W        W24536  11.807   3.691  10.898
14844W        W24537   5.544   7.577   2.667
14845W        W24538   3.133   9.043  13.326
14846W        W24539  10.824   2.203   3.653
14847W        W24540  10.813  12.965   3.188
14848W        W24541   8.918   1.730  12.341
14849W        W24542   5.060  18.303   4.601
14850W        W24543  11.765  19.774   1.728
14851W        W24544   1.697  18.339  13.353
14852W        W24545   0.733  19.801   0.741
14853W        W24546   0.748  15.372  14.319
14854W        W24547   1.707   1.257   2.670
14855W        W24548   5.565  10.042   4.617
14856W        W24549   2.181  14.886  11.866
14857W        W24550   6.961  10.047  11.409
14858W        W24551   0.262   8.570  12.855
14859W        W24552   3.127  12.961   0.746
14860W        W24553   2.174   1.733  12.365
14861W        W24554   9.397  15.872  14.779
14862W        W24555  11.796  15.892  13.831
14863W        W24556   3.623   7.108  13.803
14864W        W24557   5.528   1.749  14.275
14865W        W24558   3.149  15.874  12.365
14866W        W24559   6.977   1.235   1.721
14867W        W24560   2.642  11.019  11.876
14868W        W24561   2.660   8.583   0.247
14869W        W24562   7.472   8.567   1.212
14870W        W24563  11.294  15.376  14.295
14871W        W24564   2.199  19.787   4.622
14872W        W24565   4.100  10.526  12.864
14873W        W24566   3.157   1.751  11.396
14874W        W24567   5.530   5.125   2.700
14875W        W24568   2.183  11.502   0.746
14876W        W24569   4.605  18.325   4.627
14877W        W24570   0.250  14.401  12.354
14878W        W24571   5.085  13.442  12.842
14879W        W24572   6.981  14.882  11.877
14880W        W24573   1.244  18.331  12.348
14881W        W24574  10.335  14.904  12.830
14882W        W24575   6.020  10.990  12.364
14883W        W24576   6.990  12.947   2.189
14884W        W24577   1.237  18.340   4.622
14885W        W24578   5.081  16.869   0.266
14886W        W24579   2.669   4.152   3.172
14887W        W24580   0.736   8.072   4.616
14888W        W24581   7.961  15.409   2.698
14889W        W24582   5.058   4.638  10.894
14890W        W24583   6.969   3.187  10.927
14891W        W24584   9.867  15.855  11.862
14892W        W24585  11.800   0.253   4.154
14893W        W24586   0.267  18.821   0.756
14894W        W24587  11.295   1.755  11.376
14895W        W24588   0.268   1.730  13.808
14896W        W24589   9.868   4.184  11.887
14897W        W24590   8.414   6.134  13.800
14898W        W24591   1.214   7.606  14.314
14899W        W24592   2.668   5.636   2.202
14900W        W24593   5.063   6.112   3.174
14901W        W24594   5.545  15.388  11.895
14902W        W24595   4.579   2.703  10.913
14903W        W24596   0.759   2.196   4.135
14904W        W24597   7.964   2.213  14.322
14905W        W24598   6.496  11.017  14.765
14906W        W24599   6.964  10.528  11.899
14907W        W24600   4.127  14.434   4.155
14908W        W24601   4.088  12.972   0.756
14909W        W24602  10.848  19.798   3.175
14910W        W24603   2.678  12.928   4.140
14911W        W24604   7.486   2.204   4.600
14912W        W24605   8.882   7.088  13.832
14913W        W24606   4.606  15.371  11.376
14914W        W24607   6.007  15.402   4.634
14915W        W24608   7.469  10.976   4.141
14916W        W24609   7.471  14.420   2.674
14917W        W24610   4.575   3.192   1.712
14918W        W24611   2.678   4.645   3.151
14919W        W24612   8.903  19.765   0.750
14920W        W24613   8.415   6.631  13.321
14921W        W24614  10.811  17.838   4.135
14922W        W24615   1.223   3.200  13.322
14923W        W24616   4.117  18.298  14.291
14924W        W24617   0.738  12.447   0.772
14925W        W24618   6.024  13.449   2.217
14926W        W24619   7.942  17.807  14.799
14927W        W24620   1.242  10.497   3.188
14928W        W24621   8.442   5.167   4.155
14929W        W24622   0.251   4.165   2.210
14930W        W24623   7.941  14.925   1.255
14931W        W24624   0.286   7.086   3.675
14932W        W24625   8.431   8.580   2.669
14933W        W24626   0.252   3.201  10.890
14934W        W24627  11.293  16.383   2.707
14935W        W24628   2.651   4.651  11.390
14936W        W24629  11.288  13.919   3.156
14937W        W24630   4.563  15.384   0.772
14938W        W24631   7.936  14.397  14.801
14939W        W24632   5.049  11.485   4.612
14940W        W24633   0.274  16.866   2.697
14941W        W24634   3.140  17.839   2.199
14942W        W24635   7.958  15.377  14.781
14943W        W24636   6.526  19.798  14.774
14944W        W24637   0.275  10.976   4.623
14945W        W24638   0.260  14.433  14.789
14946W        W24639   3.636  19.278  12.384
14947W        W24640   7.484   6.102  13.332
14948W        W24641   7.456   6.590  12.830
14949W        W24642   1.681  16.359   3.639
14950W        W24643   4.568  14.898  13.351
14951W        W24644   9.390   5.623  12.870
14952W        W24645   9.848  19.794  13.317
14953W        W24646   7.935  10.505   1.220
14954W        W24647   8.433  13.450   3.633
14955W        W24648   6.527   0.279  14.306
14956W        W24649   0.271   0.247   3.647
14957W        W24650   7.446  13.424   1.698
14958W        W24651   9.844  19.779   0.284
14959W        W24652   0.284  19.797   3.633
14960W        W24653   8.899   8.091   1.732
14961W        W24654   7.466  16.365   4.128
14962W        W24655  10.342  18.802   4.140
14963W        W24656   8.448  10.491  11.897
14964W        W24657   9.859   3.685  11.892
14965W        W24658   4.099   4.643   3.676
14966W        W24659   2.658  16.360  11.893
14967W        W24660   3.160   0.262   2.696
14968W        W24661   0.729   3.173  11.856
14969W        W24662   6.524  15.414   3.665
14970W        W24663   6.009  17.344  14.797
14971W        W24664   5.560   9.520   1.723
14972W        W24665   1.243  12.459  11.862
14973W        W24666   2.656  15.894   0.249
14974W        W24667   1.209   3.188   4.617
14975W        W24668   5.050   6.111  12.358
14976W        W24669   9.866  12.973  14.797
14977W        W24670   6.974  12.936  11.393
14978W        W24671   0.735   9.036  13.827
14979W        W24672   7.936  17.840   2.186
14980W        W24673   8.907  19.777   4.146
14981W        W24674   9.843  12.965   3.161
14982W        W24675   8.448   3.187   1.249
14983W        W24676   9.402  12.959  12.828
14984W        W24677   0.246   6.617   2.662
14985W        W24678  11.776   6.611  10.899
14986W        W24679  10.334   8.059  13.796
14987W        W24680  10.843  11.958  11.388
14988W        W24681   6.021  19.289  13.834
14989W        W24682   0.729  13.418   4.610
14990W        W24683   8.905  10.045  10.932
14991W        W24684   2.679  17.353   3.658
14992W        W24685  11.288  10.493  10.909
14993W        W24686  10.355   5.136   2.697
14994W        W24687   6.044  19.770  11.891
14995W        W24688   7.964  14.914   1.710
14996W        W24689   4.581  11.993  11.405
14997W        W24690  10.344   6.602  12.851
14998W        W24691   2.197   9.038  11.859
14999W        W24692   3.600  11.478   2.220
15000W        W24693   3.606  14.920   1.236
15001W        W24694   0.241   4.160   0.767
15002W        W24695   4.117   0.265   3.654
15003W        W24696   5.560   9.561  11.382
15004W        W24697  11.298  11.019  13.826
15005W        W24698   7.000  14.433  12.374
15006W        W24699   7.965  18.826  11.408
15007W        W24700   1.716  18.796  12.826
15008W        W24701   5.531   1.730  14.771
15009W        W24702   7.001   3.214   4.161
15010W        W24703  10.349   1.708  10.893
15011W        W24704   9.880   7.090   0.261
15012W        W24705   5.526  17.318  13.316
15013W        W24706  10.342  11.010   3.162
15014W        W24707   4.117  12.947   2.701
15015W        W24708   2.677  12.439   0.728
15016W        W24709   1.706  18.796   0.754
15017W        W24710   6.979  16.374  12.846
15018W        W24711   3.644   7.088  13.341
15019W        W24712   3.648  11.476   4.143
15020W        W24713   5.547   4.640   3.164
15021W        W24714   2.669   8.572  10.927
15022W        W24715  11.318  19.804   3.168
15023W        W24716   8.440  19.300  13.813
15024W        W24717   9.840  12.472  14.806
15025W        W24718   4.570  15.388   3.170
15026W        W24719   5.051   2.229   4.609
15027W        W24720   3.634   3.666   3.677
15028W        W24721   7.003   9.061  14.765
15029W        W24722   3.629  18.327   4.645
15030W        W24723   5.556  11.480   2.672
15031W        W24724   6.968   2.700   2.689
15032W        W24725   8.443   8.064   1.728
15033W        W24726  10.324   4.651  14.304
15034W        W24727   8.892  11.955  13.344
15035W        W24728   6.040  18.826   2.707
15036W        W24729   4.086   2.217  13.343
15037W        W24730   1.231   2.227   0.743
15038W        W24731   5.546   4.681   5.101
15039W        W24732  11.791   2.202   0.762
15040W        W24733   5.088  16.387   1.711
15041W        W24734   3.627  10.530  12.383
15042W        W24735   7.469   8.084  10.914
15043W        W24736   1.244   0.254   2.215
15044W        W24737   6.490  16.850  14.297
15045W        W24738   9.407  13.920   0.258
15046W        W24739   5.077   3.210  12.386
15047W        W24740   2.178  15.372  10.914
15048W        W24741  11.317  10.038  14.796
15049W        W24742  11.783   8.064   3.639
15050W        W24743   3.145   2.689  11.865
15051W        W24744   6.045  13.445   0.732
15052W        W24745   6.028   0.281  12.849
15053W        W24746   8.892  10.528   1.713
15054W        W24747   6.490   0.769  14.278
15055W        W24748   3.614   9.546  14.297
15056W        W24749   2.205   7.567   4.133
15057W        W24750   0.278  19.302   2.688
15058W        W24751   6.513  15.382   2.204
15059W        W24752   6.995  17.835   0.729
15060W        W24753   6.007   3.691   2.692
15061W        W24754  10.330  16.849   2.682
15062W        W24755   1.708   0.259  12.360
15063W        W24756  10.831   3.212  11.402
15064W        W24757   7.966   7.593  11.878
15065W        W24758   0.759  17.335  11.407
15066W        W24759   7.454  13.909   0.768
15067W        W24760   2.198   1.263  10.931
15068W        W24761   0.267   8.550   0.252
15069W        W24762  11.782   5.156   1.716
15070W        W24763  10.342  11.009  14.276
15071W        W24764   4.126   7.102   3.165
15072W        W24765   1.702   3.701   3.168
15073W        W24766   5.568  18.302   1.211
15074W        W24767   1.201   9.068   2.199
15075W        W24768   3.154   6.118  13.311
15076W        W24769   6.007   3.690  14.804
15077W        W24770   7.480   5.163   1.724
15078W        W24771   5.062  19.774   3.644
15079W        W24772   2.208  11.512   3.146
15080W        W24773  11.311  13.951  10.904
15081W        W24774   6.523   8.077   3.676
15082W        W24775   5.063   5.124   0.755
15083W        W24776   3.168  12.458  14.301
15084W        W24777   5.074  13.944  14.780
15085W        W24778   0.767   9.524  10.916
15086W        W24779  11.788   9.061   0.268
15087W        W24780   2.678  16.372   0.259
15088W        W24781   8.422  14.903  13.324
15089W        W24782   5.052   6.617  14.805
15090W        W24783   2.674   4.165   0.766
15091W        W24784   7.477   3.680   3.187
15092W        W24785   4.111   3.215  14.767
15093W        W24786   6.994   3.693   0.756
15094W        W24787   6.019  10.490  11.861
15095W        W24788   1.722   8.548   3.180
15096W        W24789   1.207   8.062   1.218
15097W        W24790   7.462   4.180   2.671
15098W        W24791   2.196   9.528   0.734
15099W        W24792   9.404   2.686   2.690
15100W        W24793   7.473  12.460  14.287
15101W        W24794   5.524   8.570  12.833
15102W        W24795   0.749   1.223   1.217
15103W        W24796   3.637   3.214  12.867
15104W        W24797   0.760  19.271   3.187
15105W        W24798   3.129   4.168   4.156
15106W        W24799   2.167  10.015  13.798
15107W        W24800   2.654   0.290  12.343
15108W        W24801   2.178   0.758  13.347
15109W        W24802   6.502   9.526   1.221
15110W        W24803   4.090  13.915  14.300
15111W        W24804  11.317  12.474  11.873
15112W        W24805   5.057  17.346   3.146
15113W        W24806   8.430   7.594   0.283
15114W        W24807   8.918  11.490  10.934
15115W        W24808   5.559  17.821  12.387
15116W        W24809   5.054  19.274   0.731
15117W        W24810   4.601  19.295   3.665
15118W        W24811   7.454  14.899   3.634
15119W        W24812   4.561   6.103  13.803
15120W        W24813   7.469   8.537   3.659
15121W        W24814   1.698  15.897   1.246
15122W        W24815   0.764   2.199   2.701
15123W        W24816   8.888   6.146   4.137
15124W        W24817   3.610   7.594  12.387
15125W        W24818  11.282   1.255  13.834
15126W        W24819   8.908  12.955  14.307
15127W        W24820   8.920   1.749   1.216
15128W        W24821   5.065   6.631  11.411
15129W        W24822   0.759   3.199   1.714
15130W        W24823   9.865   4.168  10.890
15131W        W24824   0.258   2.687  13.836
15132W        W24825  10.839  18.314   4.154
15133W        W24826   0.731   7.584  11.864
15134W        W24827   6.010  10.039   0.280
15135W        W24828  11.315   0.747   2.668
15136W        W24829   7.964  19.789  12.863
15137W        W24830   3.638   2.230   4.623
15138W        W24831  11.290  16.351  14.295
15139W        W24832   4.124   8.054   2.697
15140W        W24833   4.125   9.522   0.770
15141W        W24834   1.220   8.557   0.273
15142W        W24835   9.878  17.340   3.643
15143W        W24836   6.046   8.054  12.369
15144W        W24837   5.530  15.412   4.117
15145W        W24838   0.270   0.287  12.360
15146W        W24839   2.680   4.680  14.762
15147W        W24840   1.718   6.610  14.805
15148W        W24841   8.891  16.380  11.402
15149W        W24842  10.808  14.421  12.350
15150W        W24843   5.525   2.206   0.741
15151W        W24844   8.426   6.627   2.198
15152W        W24845   3.627  16.356   2.694
15153W        W24846  10.846   0.253   0.258
15154W        W24847   9.379   4.194   2.179
15155W        W24848   8.434  19.788  12.362
15156W        W24849   4.602   9.037   0.770
15157W        W24850   1.228   6.103   2.215
15158W        W24851   6.481   3.670   3.672
15159W        W24852   3.620  15.389   1.220
15160W        W24853  10.367   8.094   0.734
15161W        W24854   6.517   2.684  12.386
15162W        W24855   3.633  17.362   1.228
15163W        W24856   1.218  19.281  13.325
15164W        W24857   2.205   6.112   0.755
15165W        W24858  10.330  16.373  12.823
15166W        W24859  10.336  11.498  13.838
15167W        W24860   7.442   8.556  10.918
15168W        W24861   4.089   5.615   0.774
15169W        W24862   9.398  19.798  11.386
15170W        W24863   5.058   7.118   0.277
15171W        W24864  11.790  15.864   0.288
15172W        W24865   6.046   9.558   4.602
15173W        W24866   2.173   9.044   4.129
15174W        W24867   1.205   7.115   3.643
15175W        W24868   3.124   0.267   0.761
15176W        W24869   1.688   8.581  11.408
15177W        W24870   4.590  14.926  13.828
15178W        W24871   0.271   5.626   4.113
15179W        W24872   9.863   8.060  11.864
15180W        W24873  11.323  11.021   3.635
15181W        W24874  10.358   5.629   3.180
15182W        W24875   3.121  14.921  12.860
15183W        W24876   7.473  12.472   1.737
15184W        W24877   8.430   5.145  12.345
15185W        W24878  11.792  10.001   1.727
15186W        W24879   9.388  16.851   2.669
15187W        W24880   7.476   3.683  13.318
15188W        W24881   8.412   9.068   2.693
15189W        W24882   2.686   5.134   3.156
15190W        W24883   1.710   8.538   1.736
15191W        W24884   8.422  10.519   1.251
15192W        W24885  10.354   5.150  12.825
15193W        W24886   9.868  17.847   3.669
15194W        W24887   0.282  16.857   4.640
15195W        W24888   2.640  18.794   0.244
15196W        W24889   5.529  16.847   3.634
15197W        W24890   7.941  15.410  13.810
15198W        W24891   7.480  12.939  14.797
15199W        W24892  10.802   4.657  10.905
15200W        W24893   9.854   7.078   3.173
15201W        W24894   9.374  12.937  12.366
15202W        W24895   5.055   4.194   2.678
15203W        W24896   5.056  18.332  14.292
15204W        W24897  11.789   2.693   3.645
15205W        W24898   6.514   4.670   4.146
15206W        W24899   7.457  11.464   1.223
15207W        W24900   3.149   3.698  11.410
15208W        W24901   8.406   2.199   1.713
15209W        W24902  11.800  11.504  13.344
15210W        W24903  10.364  18.822  11.885
15211W        W24904  11.321   7.592  13.818
15212W        W24905   5.083  14.886   3.655
15213W        W24906   9.407   0.742  14.291
15214W        W24907   0.245   7.114  12.834
15215W        W24908   9.395  18.812  10.893
15216W        W24909   7.965   3.669  13.814
15217W        W24910   7.935  19.779   2.222
15218W        W24911   9.844   7.112  13.332
15219W        W24912  10.826  19.272   2.707
15220W        W24913   0.264  11.471  11.902
15221W        W24914   5.560  13.419   1.245
15222W        W24915   9.406  14.893  12.826
15223W        W24916   4.582  13.422   2.703
15224W        W24917   3.137   1.710  12.855
15225W        W24918   1.718  11.957   3.659
15226W        W24919   5.086   5.163   2.698
15227W        W24920   7.935  18.340   0.261
15228W        W24921   5.554   2.222   2.180
15229W        W24922   6.042   4.186   2.217
15230W        W24923   1.725  12.965  11.868
15231W        W24924   2.202  14.402   1.706
15232W        W24925   3.614   9.555  12.865
15233W        W24926   6.030   7.084   2.203
15234W        W24927   7.453  17.838   3.654
15235W        W24928   6.024   4.175   4.630
15236W        W24929   6.041  14.893   4.632
15237W        W24930   2.172  19.307   2.187
15238W        W24931   0.755  16.837   3.673
15239W        W24932   6.016   2.215  11.408
15240W        W24933   0.245   9.064   4.115
15241W        W24934   2.175   6.596  13.836
15242W        W24935   7.004   1.718   2.702
15243W        W24936   6.515  11.465  11.886
15244W        W24937   0.743  18.822   1.250
15245W        W24938  11.328  13.437  13.336
15246W        W24939   6.015  11.023  13.811
15247W        W24940   0.263  11.504   0.242
15248W        W24941   6.482  18.314  11.375
15249W        W24942   8.423   8.573  14.805
15250W        W24943   5.077  11.496   1.719
15251W        W24944   6.521  17.832   3.154
15252W        W24945   0.259   5.127  14.773
15253W        W24946   6.037  10.039   2.178
15254W        W24947   8.925   4.648   0.263
15255W        W24948   2.649   2.729  13.320
15256W        W24949   6.987   8.061   4.124
15257W        W24950   0.257   6.129  14.303
15258W        W24951   7.927  13.440   3.147
15259W        W24952   4.081   7.595  12.832
15260W        W24953   7.463  17.320  11.409
15261W        W24954   0.752   6.588   2.692
15262W        W24955   6.971   8.560   1.223
15263W        W24956   9.376   4.175   3.674
15264W        W24957   2.179   6.588  12.847
15265W        W24958   4.119   4.162  12.342
15266W        W24959  10.323  17.351  13.352
15267W        W24960   5.070  19.777  13.322
15268W        W24961   8.439  10.035  10.903
15269W        W24962   6.033  12.930   3.674
15270W        W24963   5.042  19.798  10.889
15271W        W24964  10.811  17.849  14.773
15272W        W24965   3.150  17.827   0.251
15273W        W24966   3.164   1.242  10.915
15274W        W24967   6.016  10.015  11.873
15275W        W24968   0.763   8.063  14.278
15276W        W24969   1.238   1.234   1.252
15277W        W24970   6.995   0.775  11.397
15278W        W24971   5.077   7.109   1.243
15279W        W24972   6.972  10.015  11.873
15280W        W24973  11.780   3.178  14.318
15281W        W24974   8.437   8.537  11.870
15282W        W24975   4.121   5.136   0.728
15283W        W24976   8.923   0.265  11.387
15284W        W24977   6.519   3.678  11.903
15285W        W24978   5.520  11.010  11.876
15286W        W24979   1.206   5.145  12.377
15287W        W24980   9.408  11.995   3.192
15288W        W24981   1.228  18.300   1.716
15289W        W24982   8.925  11.468  14.314
15290W        W24983   7.461  19.781  14.765
15291W        W24984   6.978  13.452  13.317
15292W        W24985   4.102   7.583   0.761
15293W        W24986   0.763   5.143   2.671
15294W        W24987  10.808   7.562   1.253
15295W        W24988   2.673   5.644  10.929
15296W        W24989   1.242   7.116   3.182
15297W        W24990   8.412   3.702   1.232
15298W        W24991   7.444  13.438   4.140
15299W        W24992   1.713   1.737   3.182
15300W        W24993   6.525  17.833   2.676
15301W        W24994   7.930  14.427   2.203
15302W        W24995  10.804   2.729   2.202
15303W        W24996   5.522   3.693   1.716
15304W        W24997  10.810   5.140   2.199
15305W        W24998   2.684   1.722  13.334
15306W        W24999   9.398  14.890   3.636
15307W        W25000  11.317   6.125   1.720
15308W        W25001   6.992   9.070  11.409
15309W        W25002  11.315  11.972   1.218
15310W        W25003  10.327  11.467   2.676
15311W        W25004   1.226   8.544  12.364
15312W        W25005  10.351  15.395   2.185
15313W        W25006   6.018  14.920  12.870
15314W        W25007   5.066  11.022  14.301
15315W        W25008   6.995  14.907   1.738
15316W        W25009   9.383  18.311   1.729
15317W        W25010   2.646  14.904   2.205
15318W        W25011   1.718  18.823  14.313
15319W        W25012   4.118   1.223  13.796
15320W        W25013   8.887  15.869   1.250
15321W        W25014   6.038   7.565  14.294
15322W        W25015   5.548  18.793  14.289
15323W        W25016   5.053   0.262   2.704
15324W        W25017   7.449  18.782   4.609
15325W        W25018   0.764   6.132  11.396
15326W        W25019   0.761  11.990   1.739
15327W        W25020   0.748  17.808   2.685
15328W        W25021   7.475  12.477  10.935
15329W        W25022   7.468   4.170  11.866
15330W        W25023   0.737   4.638  14.787
15331W        W25024   7.451   0.282   0.764
15332W        W25025   5.055   5.137  11.882
15333W        W25026  11.794  18.324   0.271
15334W        W25027   8.434   3.701  14.806
15335W        W25028   0.279  15.371  14.284
15336W        W25029   2.672  13.442  12.863
15337W        W25030   5.054   6.136  14.783
15338W        W25031   3.151  17.833   4.122
15339W        W25032   3.630  19.774  13.350
15340W        W25033   4.099  18.340  13.796
15341W        W25034   4.607  15.377  10.912
15342W        W25035   2.684   6.602   3.178
15343W        W25036   7.488   8.069   3.650
15344W        W25037   4.597   7.573   1.227
15345W        W25038   1.707   1.242  11.902
15346W        W25039   2.174   9.028   1.231
15347W        W25040   6.489   6.137  13.835
15348W        W25041   7.007   7.088  13.315
15349W        W25042   8.432   1.237   1.732
15350W        W25043   7.452   4.642  11.900
15351W        W25044   1.687  17.848   0.770
15352W        W25045   9.377  17.832   2.180
15353W        W25046   2.171   3.678  11.869
15354W        W25047  10.331  16.378   2.178
15355W        W25048   6.969   4.640   0.247
15356W        W25049   9.887   3.701   4.121
15357W        W25050  11.328   8.583   4.638
15358W        W25051   5.072  15.388   0.287
15359W        W25052   0.261   1.258  11.391
15360W        W25053   7.934  14.900   3.155
15361W        W25054   9.843   1.726  13.335
15362W        W25055  10.836   5.158  14.792
15363W        W25056   6.487   6.619  14.309
15364W        W25057   9.849   9.066   4.130
15365W        W25058   0.267  11.476   3.651
15366W        W25059   7.001  11.504  11.375
15367W        W25060   4.117   6.109  10.887
15368W        W25061  10.806   7.089   3.666
15369W        W25062  10.826   9.045  14.766
15370W        W25063   8.908  10.046  11.874
15371W        W25064   5.525  15.898  13.836
15372W        W25065   8.431  13.449  12.830
15373W        W25066   6.527   0.732   1.218
15374W        W25067   7.468   7.083  10.890
15375W        W25068   2.678   9.530   4.138
15376W        W25069   5.046  17.347  13.340
15377W        W25070   1.200  11.497  14.783
15378W        W25071   8.894  15.885  13.792
15379W        W25072   0.744   3.672   0.271
15380W        W25073   3.610   7.572   4.146
15381W        W25074   0.275   9.521   3.652
15382W        W25075   0.746  12.974   3.652
15383W        W25076   7.930   3.174   3.148
15384W        W25077  10.341   8.066  11.874
15385W        W25078   0.264   3.179   3.658
15386W        W25079   7.457   9.045  12.861
15387W        W25080   7.931  12.950  13.333
15388W        W25081   5.544  16.364  13.800
15389W        W25082  10.827  12.972   0.753
15390W        W25083   6.988  15.383  12.838
15391W        W25084   4.602  15.878   3.641
15392W        W25085   3.138  19.312   3.655
15393W        W25086   4.095  15.396  12.370
15394W        W25087   4.123   0.262  12.382
15395W        W25088   1.208   1.740  12.340
15396W        W25089   7.004   5.165   1.221
15397W        W25090   7.966  12.479   0.739
15398W        W25091   0.727  18.318   3.670
15399W        W25092   9.842   5.134  11.375
15400W        W25093   1.222  11.971   2.692
15401W        W25094  10.366   3.685   2.709
15402W        W25095   3.623   3.674  11.408
15403W        W25096  11.288   1.267   3.180
15404W        W25097  11.788   4.652  12.835
15405W        W25098   7.960   6.126   2.218
15406W        W25099   4.576  13.440  10.907
15407W        W25100   5.552   1.261  11.870
15408W        W25101   8.400  13.913  11.886
15409W        W25102   9.865   5.643  13.806
15410W        W25103   5.558   3.678  11.419
15411W        W25104   8.907   1.236  14.281
15412W        W25105   6.521   1.719   3.653
15413W        W25106   7.479  11.464   3.663
15414W        W25107   2.651  13.460   1.695
15415W        W25108   1.702   5.140   4.615
15416W        W25109   1.716   3.688  12.830
15417W        W25110  10.340   2.225  11.411
15418W        W25111   4.562  10.505  14.788
15419W        W25112   2.199   5.644   4.136
15420W        W25113  10.341   8.087   2.663
15421W        W25114   3.619   5.153  14.786
15422W        W25115   0.251   7.587   3.654
15423W        W25116   0.249  15.389   2.209
15424W        W25117   6.491  13.939   1.703
15425W        W25118   7.449   6.110   3.655
15426W        W25119   8.413  18.332  11.863
15427W        W25120   2.665   3.685  14.314
15428W        W25121  11.285   0.285   3.638
15429W        W25122   0.240  13.451   1.239
15430W        W25123   0.254   5.147  14.314
15431W        W25124   2.160  17.810   2.193
15432W        W25125  11.803  19.286  14.275
15433W        W25126  11.298  14.909   2.674
15434W        W25127   6.021  19.793  14.796
15435W        W25128   1.241  19.783   4.611
15436W        W25129   8.446   6.133  10.934
15437W        W25130   3.617  15.875   3.176
15438W        W25131   3.134   7.567   3.165
15439W        W25132   4.089  19.294  13.813
15440W        W25133   5.542  12.471   0.247
15441W        W25134   7.471  10.512   3.145
15442W        W25135   0.274  19.789  13.353
15443W        W25136   6.522  13.415   2.701
15444W        W25137   3.134   5.629   3.634
15445W        W25138   4.123   8.566  10.899
15446W        W25139   5.562  12.465   2.690
15447W        W25140   7.946  19.798  13.837
15448W        W25141   0.746  19.782  12.342
15449W        W25142   6.015   7.084   0.763
15450W        W25143   8.415   1.260  14.788
15451W        W25144   6.008   1.742   2.188
15452W        W25145   0.273  17.352  14.777
15453W        W25146   2.675  14.898  11.902
15454W        W25147   7.449   5.636  13.798
15455W        W25148   5.058   2.206  11.395
15456W        W25149   0.745  16.854  10.923
15457W        W25150   6.025   3.699  11.900
15458W        W25151   9.372  13.446   3.639
15459W        W25152   5.060  11.480   3.183
15460W        W25153   2.669  17.350   3.179
15461W        W25154   6.025   5.611  12.864
15462W        W25155   1.234  19.756   0.744
15463W        W25156  10.321   1.235   1.234
15464W        W25157   5.522  12.927   1.706
15465W        W25158   3.151   1.709   0.753
15466W        W25159   3.148   8.081  11.406
15467W        W25160   5.559  13.436  13.791
15468W        W25161  11.768  16.344   4.642
15469W        W25162  11.763  18.319  12.387
15470W        W25163   1.707  11.968   3.148
15471W        W25164   4.085   6.616  11.412
15472W        W25165   3.147   6.124  10.892
15473W        W25166   4.104  10.997   3.162
15474W        W25167   9.362   5.620  10.888
15475W        W25168   9.887   4.188   3.153
15476W        W25169   1.700   9.550  12.844
15477W        W25170   2.164   7.117   4.142
15478W        W25171   4.567  14.410  13.808
15479W        W25172   9.849   5.135  12.350
15480W        W25173   6.992   5.130   0.283
15481W        W25174   5.529   3.682   2.182
15482W        W25175   2.178   4.165   3.152
15483W        W25176  11.321   9.546  12.386
15484W        W25177   8.883  17.825  12.853
15485W        W25178   4.093  18.801  12.834
15486W        W25179   3.143   7.085  14.301
15487W        W25180   3.615   3.673   4.159
15488W        W25181   8.438   8.076   2.704
15489W        W25182   6.022  16.873  11.405
15490W        W25183   6.519  13.909  14.314
15491W        W25184   9.387   4.654   4.640
15492W        W25185   0.740   2.716   1.714
15493W        W25186   6.987   7.106  14.298
15494W        W25187   9.878  19.782   2.674
15495W        W25188   1.724   2.211   1.224
15496W        W25189  11.792   4.187   0.729
15497W        W25190  10.806   4.664  14.792
15498W        W25191   5.564  12.463  12.343
15499W        W25192   6.526   3.200   4.159
15500W        W25193   5.076  12.473  13.327
15501W        W25194   5.547  15.395  14.285
15502W        W25195   7.948   2.220   1.229
15503W        W25196   0.285  10.033   2.209
15504W        W25197   1.706   8.081  11.883
15505W        W25198   6.507  18.792  12.350
15506W        W25199   9.368  14.428   0.753
15507W        W25200   2.164   5.612   2.187
15508W        W25201  11.314   5.146   4.135
15509W        W25202   8.904   3.171   1.714
15510W        W25203  11.309   9.038  13.824
15511W        W25204   2.183  16.368  13.805
15512W        W25205   7.936   2.226   2.201
15513W        W25206   0.266  13.931  11.411
15514W        W25207   1.219   5.153   0.773
15515W        W25208   3.632   4.155   1.728
15516W        W25209   6.044   0.752   1.240
15517W        W25210   2.667   0.276  12.868
15518W        W25211   6.501   2.692  13.326
15519W        W25212   4.592   4.669  13.832
15520W        W25213   3.157   1.721   1.695
15521W        W25214   6.998   1.716  14.792
15522W        W25215   3.618   4.171  12.851
15523W        W25216  10.806  13.911   1.226
15524W        W25217   6.497   8.576  13.340
15525W        W25218   9.366  15.902   4.131
15526W        W25219   7.453   6.618  14.303
15527W        W25220   8.917  12.464  11.417
15528W        W25221   1.725  13.914  13.307
15529W        W25222   6.026  13.927  12.837
15530W        W25223   0.264   8.086   0.249
15531W        W25224  10.325  16.376  11.388
15532W        W25225   2.163  14.395  10.911
15533W        W25226   8.402   0.283  11.880
15534W        W25227   2.656   4.636   1.741
15535W        W25228   4.586  11.013   4.133
15536W        W25229  10.824   2.242  12.832
15537W        W25230  10.808   2.696  14.317
15538W        W25231   9.372  13.945   2.207
15539W        W25232   6.011   7.567   1.216
15540W        W25233   3.153   6.137   1.257
15541W        W25234   8.443   9.528  14.768
15542W        W25235   7.472  14.925  14.766
15543W        W25236  10.335  10.517   3.166
15544W        W25237   8.927   3.207   3.637
15545W        W25238   1.244  10.502   4.601
15546W        W25239   0.754  14.895   4.148
15547W        W25240   7.945  13.416  13.818
15548W        W25241   4.125   0.738   2.696
15549W        W25242  11.794  11.988   0.268
15550W        W25243   2.663   7.111  13.338
15551W        W25244   0.727  17.340   0.261
15552W        W25245  10.336  19.274   0.282
15553W        W25246   1.226   4.651   2.222
15554W        W25247   3.144   9.513  12.350
15555W        W25248   5.054   4.662  12.841
15556W        W25249   5.059  12.487  14.300
15557W        W25250   6.519   3.192  13.350
15558W        W25251   3.146  18.338   4.122
15559W        W25252   4.598  10.041  14.758
15560W        W25253  10.335  17.833   1.711
15561W        W25254   2.203   4.640   0.760
15562W        W25255   7.463   5.139  13.341
15563W        W25256  10.328  13.940   4.620
15564W        W25257  11.287  13.933  13.350
15565W        W25258   1.727  19.271  14.766
15566W        W25259   0.765  14.433   0.276
15567W        W25260   6.028   7.117   0.256
15568W        W25261   6.502   8.565  12.859
15569W        W25262   6.023  12.968   4.633
15570W        W25263   6.968   2.729   3.151
15571W        W25264   8.418  13.435   0.743
15572W        W25265   9.853  19.270  10.904
15573W        W25266   4.591  17.321  11.894
15574W        W25267   4.094  16.376  11.403
15575W        W25268   5.524  14.397   2.188
15576W        W25269   5.555  10.021  11.410
15577W        W25270   7.921   3.207   0.249
15578W        W25271   5.546  10.036  12.357
15579W        W25272   3.620   2.729   3.190
15580W        W25273   6.032  11.953   4.630
15581W        W25274   0.285   5.142   1.697
15582W        W25275   3.162  17.841   3.174
15583W        W25276   4.103  18.296   3.177
15584W        W25277   0.735  16.845  12.357
15585W        W25278   7.943  15.855  11.878
15586W        W25279   1.208  12.943   2.669
15587W        W25280   7.450   8.076   2.689
15588W        W25281   6.979  14.922   4.157
15589W        W25282   1.686  18.822   3.633
15590W        W25283   5.064   4.644   0.745
15591W        W25284   3.629  10.031   4.141
15592W        W25285   7.003   9.541  14.303
15593W        W25286   0.730   2.688   4.603
15594W        W25287  10.340  19.312   4.644
15595W        W25288   5.528   2.696  11.900
15596W        W25289  11.320  11.992  13.822
15597W        W25290   1.248  17.357  11.898
15598W        W25291   2.672   1.233  10.889
15599W        W25292   4.596  15.857  11.895
15600W        W25293   4.099  11.466   1.712
15601W        W25294   1.215   8.581   1.228
15602W        W25295   9.380   3.703  11.372
15603W        W25296   7.947   2.730  10.907
15604W        W25297   9.870   3.213   0.287
15605W        W25298   8.403  17.829   2.670
15606W        W25299   8.403  19.272  12.375
15607W        W25300   7.002  17.334  10.917
15608W        W25301  11.321   0.249  13.328
15609W        W25302   0.246  16.378   0.281
15610W        W25303  11.800  14.900   0.256
15611W        W25304   2.187  15.392   0.748
15612W        W25305   5.539   2.219  14.782
15613W        W25306   9.395  12.970   0.728
15614W        W25307   2.674   6.602   3.644
15615W        W25308   0.758   1.241   1.696
15616W        W25309   0.734  17.352  13.321
15617W        W25310   0.273  13.451  12.824
15618W        W25311   5.547   4.649  12.353
15619W        W25312   6.010  14.412   0.770
15620W        W25313   8.435   4.674  13.321
15621W        W25314   7.939  12.959   3.661
15622W        W25315   0.281  10.009   3.657
15623W        W25316   5.069  18.329   2.192
15624W        W25317   0.753  11.963  14.762
15625W        W25318   7.946   0.736   0.257
15626W        W25319   0.761  10.496   0.733
15627W        W25320   5.066  12.461   2.191
15628W        W25321   2.198   5.155   1.702
15629W        W25322   0.267  17.851  11.407
15630W        W25323   3.606   4.169   3.151
15631W        W25324  10.838  17.359  11.402
15632W        W25325   5.533  16.379  14.283
15633W        W25326   6.517  18.817   2.197
15634W        W25327   3.122  19.316   2.669
15635W        W25328  10.326  16.866  13.818
15636W        W25329   3.643   4.666  14.298
15637W        W25330   1.688  12.928   1.216
15638W        W25331   3.165  18.802  14.304
15639W        W25332   6.036   0.277  14.308
15640W        W25333   8.446  13.442   2.685
15641W        W25334   0.740  18.317   1.731
15642W        W25335   5.082  10.043  14.276
15643W        W25336   7.451  16.843  14.284
15644W        W25337   5.525   0.733   3.663
15645W        W25338  10.349   5.154  14.784
15646W        W25339   2.642   8.565   0.766
15647W        W25340   3.134  19.781  13.351
15648W        W25341   9.862   7.574   1.714
15649W        W25342   5.523  13.920   4.126
15650W        W25343   2.662  14.879   1.702
15651W        W25344   4.125  19.776  12.382
15652W        W25345   0.268  10.534  14.765
15653W        W25346   9.383  17.347   0.756
15654W        W25347   6.499   2.725  14.282
15655W        W25348   1.686  17.818   2.210
15656W        W25349   0.749   4.679  12.858
15657W        W25350   3.133   7.585  14.771
15658W        W25351  10.831  18.783   0.246
15659W        W25352   0.254  10.518   1.226
15660W        W25353   5.065  14.918  13.344
15661W        W25354   3.601   1.753  13.833
15662W        W25355   5.041  16.838  12.854
15663W        W25356   6.977  11.487   2.224
15664W        W25357   6.993  18.294   0.273
15665W        W25358   8.886   2.717  12.368
15666W        W25359   8.915   2.721   1.727
15667W        W25360  11.806  16.866   3.653
15668W        W25361   1.720   3.215  14.799
15669W        W25362   1.723  15.375   1.249
15670W        W25363   0.281   1.743   0.769
15671W        W25364   7.932   4.661   4.635
15672W        W25365   4.579   8.551  11.857
15673W        W25366   6.519  14.421   0.282
15674W        W25367   0.268   9.539  13.828
15675W        W25368   5.566   0.767  13.794
15676W        W25369  11.323  16.840  12.837
15677W        W25370   3.135  11.966  13.313
15678W        W25371   2.656  18.296  12.860
15679W        W25372   7.445  12.481   2.220
15680W        W25373   7.454  12.951   2.707
15681W        W25374   1.706  10.508  14.312
15682W        W25375  10.362   1.716  11.889
15683W        W25376   1.692  18.797   1.734
15684W        W25377   6.504   7.080  12.356
15685W        W25378   6.004   2.196  12.366
15686W        W25379   6.029   5.165  12.373
15687W        W25380   8.444   0.265   2.667
15688W        W25381  10.344  14.910   2.197
15689W        W25382   6.012  13.949   3.179
15690W        W25383   3.164  16.344  10.904
15691W        W25384   2.200   2.231  13.833
15692W        W25385   8.921  19.310  11.373
15693W        W25386   2.647  11.486  14.296
15694W        W25387   6.034   5.653   0.277
15695W        W25388   2.682  14.424  11.903
15696W        W25389   0.246  17.360   1.729
15697W        W25390   6.490   5.134  13.806
15698W        W25391   1.201   4.680   2.674
15699W        W25392  11.294   0.265  12.834
15700W        W25393   0.738   1.242  14.284
15701W        W25394   3.128   0.775   2.695
15702W        W25395   4.085   8.092  13.829
15703W        W25396   5.054   8.538  12.824
15704W        W25397   1.728  11.969   1.233
15705W        W25398   7.946  17.322  13.314
15706W        W25399   0.259  16.350   3.163
15707W        W25400  11.298  19.785  14.789
15708W        W25401   0.733  10.517  14.294
15709W        W25402   4.111  17.350  13.310
15710W        W25403  11.791   6.107   4.640
15711W        W25404   4.576  13.434  14.770
15712W        W25405   4.606  19.270  11.872
15713W        W25406   6.041  17.349  11.406
15714W        W25407   0.743   9.037   2.219
15715W        W25408   8.401  11.953  13.820
15716W        W25409   6.991  15.870  10.904
15717W        W25410   2.178  10.037  11.859
15718W        W25411   6.984   7.599   4.155
15719W        W25412   4.595   5.612  11.393
15720W        W25413   3.601  10.012   1.713
15721W        W25414   2.165   0.747  11.898
15722W        W25415   5.080  13.451   1.229
15723W        W25416   9.845  16.876   0.249
15724W        W25417   0.731   0.767  11.393
15725W        W25418   1.213   3.663   0.735
15726W        W25419   2.167   2.725  13.311
15727W        W25420   0.735  15.902   0.260
15728W        W25421   1.231   3.694   1.724
15729W        W25422  10.365  12.970   2.222
15730W        W25423   3.639   3.174   1.728
15731W        W25424   1.241   5.136   3.164
15732W        W25425   5.557   4.636  14.320
15733W        W25426   1.234   0.736   0.270
15734W        W25427   4.089   3.675  13.337
15735W        W25428   7.939   5.642  10.892
15736W        W25429   8.901  12.975   0.263
15737W        W25430   5.079   4.194   4.117
15738W        W25431   4.595   1.237  10.910
15739W        W25432   0.751  13.447  12.348
15740W        W25433   0.767   2.696   4.140
15741W        W25434  11.284  17.850  13.335
15742W        W25435   3.123  11.957  11.896
15743W        W25436   8.438   9.053   4.606
15744W        W25437   2.670   5.160   4.632
15745W        W25438   7.954   4.165  12.828
15746W        W25439   4.114   8.549  12.864
15747W        W25440  11.767   4.167  12.831
15748W        W25441   5.060  15.411  12.831
15749W        W25442   7.941  13.445  12.858
15750W        W25443   6.018   2.707   3.638
15751W        W25444   8.425   7.108   4.131
15752W        W25445   0.252  17.835  12.824
15753W        W25446   7.485   5.644  13.350
15754W        W25447   1.705  17.849   1.709
15755W        W25448   3.602  18.819   0.279
15756W        W25449   2.201   7.092   2.672
15757W        W25450   9.861   7.090  12.342
15758W        W25451   2.650  12.943   4.630
15759W        W25452   8.909  14.919   2.193
15760W        W25453   9.368  16.346   1.251
15761W        W25454   9.365  11.964   2.191
15762W        W25455   9.881   1.245  14.303
15763W        W25456   8.419  15.881   1.212
15764W        W25457   9.387  19.773  14.775
15765W        W25458   0.277  18.792  13.800
15766W        W25459  10.357  14.891  14.294
15767W        W25460  11.289   2.709  14.794
15768W        W25461   1.212  15.388  12.825
15769W        W25462  11.305   4.652  11.404
15770W        W25463  10.341   7.081  12.841
15771W        W25464   3.620  11.956   4.637
15772W        W25465   2.673  17.343   0.757
15773W        W25466   9.380  10.979  13.811
15774W        W25467   5.555  10.004   1.242
15775W        W25468   9.868   8.094  13.797
15776W        W25469  10.335  13.455  14.313
15777W        W25470   4.591   5.143   2.675
15778W        W25471   9.396   1.718  13.354
15779W        W25472  11.311   4.181   0.732
15780W        W25473   1.683   1.752   4.637
15781W        W25474   6.516   9.540   2.695
15782W        W25475  10.823   9.530   1.221
15783W        W25476   5.071   3.194  11.410
15784W        W25477   9.881  17.848   0.728
15785W        W25478  10.826   7.083   1.228
15786W        W25479  10.844  13.447   3.178
15787W        W25480   3.148   2.200   3.177
15788W        W25481   4.085  17.354   2.192
15789W        W25482  11.775   4.159  14.772
15790W        W25483   9.841  19.301   4.601
15791W        W25484   6.019   0.777  10.911
15792W        W25485   5.521  14.904  13.818
15793W        W25486   2.666  15.375  11.876
15794W        W25487   9.879  16.873   4.140
15795W        W25488  10.348  17.829   4.633
15796W        W25489   0.753  13.906   2.682
15797W        W25490  10.807  18.818  10.918
15798W        W25491   9.849  16.846   4.620
15799W        W25492   4.115   6.625  14.319
15800W        W25493   3.144  10.002   0.266
15801W        W25494   9.862  18.815   4.158
15802W        W25495   6.986   7.104  12.380
15803W        W25496  11.775  17.806  11.895
15804W        W25497   9.398   8.551  12.824
15805W        W25498   6.966   7.116   0.748
15806W        W25499   6.500   8.576  11.870
15807W        W25500   7.452   8.083  11.891
15808W        W25501   7.966  16.356   0.751
15809W        W25502  11.324  13.932  10.427
15810W        W25503   7.932  16.354   4.158
15811W        W25504   0.261   1.261   2.207
15812W        W25505   6.997  10.981  13.794
15813W        W25506  11.326  10.510   2.218
15814W        W25507   4.576  13.913   4.632
15815W        W25508   4.099   3.697  14.759
15816W        W25509   7.951   3.191  10.915
15817W        W25510  10.837  11.016   0.766
15818W        W25511   4.124  14.427  14.275
15819W        W25512   8.424  18.803   2.677
15820W        W25513   5.041  13.418  11.376
15821W        W25514   5.562   6.131   1.227
15822W        W25515   8.890  10.532  11.877
15823W        W25516   1.227  18.796  11.870
15824W        W25517   5.535   9.053   3.180
15825W        W25518   5.052   6.595   3.636
15826W        W25519   6.027  10.001  11.374
15827W        W25520   6.518   6.600  11.892
15828W        W25521   2.188   5.160   0.266
15829W        W25522   6.512  18.313   0.244
15830W        W25523   4.597   1.733   3.675
15831W        W25524   2.658  11.966   2.700
15832W        W25525   9.881   0.750   2.225
15833W        W25526  10.358   5.650   2.180
15834W        W25527   4.081  11.963  11.391
15835W        W25528   8.441  19.272  10.890
15836W        W25529   5.552  14.915   3.164
15837W        W25530   0.749  19.758   2.215
15838W        W25531   8.903  13.914  14.285
15839W        W25532   4.092   7.098   3.638
15840W        W25533  10.841  19.317   4.116
15841W        W25534  10.834  14.889  13.311
15842W        W25535   9.867   7.602   1.246
15843W        W25536   5.542   0.286  13.345
15844W        W25537   1.212  15.890  13.317
15845W        W25538   1.697  17.342   2.203
15846W        W25539   6.480   3.677  13.321
15847W        W25540   8.892   6.122   1.739
15848W        W25541   4.106   2.712  12.379
15849W        W25542   8.423   8.559   3.155
15850W        W25543  10.818   5.146  13.339
15851W        W25544   4.563  19.295  13.837
15852W        W25545   6.990   8.556   2.198
15853W        W25546   9.374  19.762   1.727
15854W        W25547  10.320  11.469  10.929
15855W        W25548   0.754   6.107   1.725
15856W        W25549   2.668   9.056   1.234
15857W        W25550   7.478   9.557   0.757
15858W        W25551   6.033  16.878   2.697
15859W        W25552   1.712  13.915   1.726
15860W        W25553   3.644   7.075   1.717
15861W        W25554   3.606   4.191  14.790
15862W        W25555   9.383   9.072   4.626
15863W        W25556   5.065  13.463   3.170
15864W        W25557   0.741  17.341   4.623
15865W        W25558   6.527  11.496   0.755
15866W        W25559   1.686   7.563  11.412
15867W        W25560   5.046   2.730  14.778
15868W        W25561   2.653  17.853  13.327
15869W        W25562  10.340  15.870   0.747
15870W        W25563   2.167   2.716   4.127
15871W        W25564   3.634   8.049   4.119
15872W        W25565   4.604  19.300  10.899
15873W        W25566   4.575   4.664   2.204
15874W        W25567   6.010   7.601   0.248
15875W        W25568   8.447  16.873   3.665
15876W        W25569   3.158  12.477   0.726
15877W        W25570   0.737  17.828   4.153
15878W        W25571   7.963  16.866   2.225
15879W        W25572   9.844   9.068  13.814
15880W        W25573   9.392   3.682  14.317
15881W        W25574   6.488   4.178  14.791
15882W        W25575  11.315   2.214  10.890
15883W        W25576   5.042   2.705  11.864
15884W        W25577   7.006   2.215   4.129
15885W        W25578   9.401  14.411  12.827
15886W        W25579   8.903  17.346   3.193
15887W        W25580   0.735  11.969   4.607
15888W        W25581   6.960  12.478  11.876
15889W        W25582  10.337  17.362   4.633
15890W        W25583  10.834  15.402   1.712
15891W        W25584   7.466  14.924  11.883
15892W        W25585   4.562   2.235  11.372
15893W        W25586   6.028  13.912  11.389
15894W        W25587  10.332  11.504  11.391
15895W        W25588   9.877  10.005  13.346
15896W        W25589   5.080  14.415   2.179
15897W        W25590   1.205   3.185   0.281
15898W        W25591   1.694   5.636  11.889
15899W        W25592   9.374   0.736  11.391
15900W        W25593   6.048   6.108  12.835
15901W        W25594   8.417   9.523   3.667
15902W        W25595  10.336   4.675  12.371
15903W        W25596   7.934  12.463  13.335
15904W        W25597  11.328  15.888   2.192
15905W        W25598   2.191   9.541  11.414
15906W        W25599   5.055   9.028  12.380
15907W        W25600   2.176   9.548  14.770
15908W        W25601   2.659  17.820  11.376
15909W        W25602   0.247   2.688   2.182
15910W        W25603   1.697   8.559  14.316
15911W        W25604   0.240  17.852   3.162
15912W        W25605   6.521  12.941  12.363
15913W        W25606   6.506   0.267   0.282
15914W        W25607   4.081  14.923  12.380
15915W        W25608   9.393  13.924  10.895
15916W        W25609   7.968   2.224   1.740
15917W        W25610   5.567  11.502  13.802
15918W        W25611   6.491  17.356   1.694
15919W        W25612  11.792  19.759   3.652
15920W        W25613   6.035   6.601  13.801
15921W        W25614   3.122  11.022  10.902
15922W        W25615  10.801  16.358   4.613
15923W        W25616  11.289  10.014  10.900
15924W        W25617   2.175   8.065   1.244
15925W        W25618   2.182  16.383  11.879
15926W        W25619   2.179  19.786  12.856
15927W        W25620   7.947   5.636   0.279
15928W        W25621   9.874  13.935  14.774
15929W        W25622   6.974  15.894  13.799
15930W        W25623   3.122   8.563  12.867
15931W        W25624   9.374  15.872   0.736
15932W        W25625   8.926   9.059   4.141
15933W        W25626   6.045  16.846  11.860
15934W        W25627  10.830   1.231  11.384
15935W        W25628   7.938  10.038  11.880
15936W        W25629   9.878  18.310  13.812
15937W        W25630   5.521  11.977   1.249
15938W        W25631   3.160  11.967   0.751
15939W        W25632   3.125  11.009   3.152
15940W        W25633   6.043   0.253   4.610
15941W        W25634   8.923   2.239  11.414
15942W        W25635   0.748  18.796  11.404
15943W        W25636   1.209  15.862   1.740
15944W        W25637   6.034   8.538  14.759
15945W        W25638   1.716   8.553   2.214
15946W        W25639   6.504   0.280  12.383
15947W        W25640   2.191  15.855   2.705
15948W        W25641   3.633  17.815   4.135
15949W        W25642  10.347   2.204  11.881
15950W        W25643   9.869   6.141   1.246
15951W        W25644  11.327  16.876   0.763
15952W        W25645   2.175   1.753  10.907
15953W        W25646   8.925   6.144  12.353
15954W        W25647  10.339   0.266  13.799
15955W        W25648  11.779   6.594   4.139
15956W        W25649   9.367   5.623   0.731
15957W        W25650   4.596   9.056  11.896
15958W        W25651   6.526   5.123   3.173
15959W        W25652   5.546   7.120  10.895
15960W        W25653  11.774  16.370   4.138
15961W        W25654   8.409   7.574   1.230
15962W        W25655  11.284  10.987   1.255
15963W        W25656   8.406   1.239   3.160
15964W        W25657   0.242   9.030   2.206
15965W        W25658   4.101   2.690   4.114
15966W        W25659  10.846  16.853   0.745
15967W        W25660   2.669   9.559   2.224
15968W        W25661   8.916   1.251  12.830
15969W        W25662   1.203   5.647  11.403
15970W        W25663  10.809   9.518  13.800
15971W        W25664   5.550  15.855  12.870
15972W        W25665  11.293   7.600  14.774
15973W        W25666  11.308  13.453   3.147
15974W        W25667   6.032   8.080  14.289
15975W        W25668   3.606  14.414   0.250
15976W        W25669   2.670   7.561   2.666
15977W        W25670   2.682   4.189  11.379
15978W        W25671   6.021   3.192  12.865
15979W        W25672   4.573   3.698  12.824
15980W        W25673  10.814  14.406   0.251
15981W        W25674   5.544   1.246  13.816
15982W        W25675  10.363  11.507  12.367
15983W        W25676   7.929   7.080  14.795
15984W        W25677  10.366  16.838  14.760
15985W        W25678   7.455  15.869   3.173
15986W        W25679  11.285   0.288   1.234
15987W        W25680  11.797   5.162   3.642
15988W        W25681   6.019   4.659   1.738
15989W        W25682   4.594  12.943   3.648
15990W        W25683  11.763  13.462   4.642
15991W        W25684   3.127  16.838   0.286
15992W        W25685   1.210   1.715   3.175
15993W        W25686   6.011  11.003  11.392
15994W        W25687   9.364  11.996   2.701
15995W        W25688   0.729  11.011   2.180
15996W        W25689  11.795  18.795   4.157
15997W        W25690   8.905   1.728   4.132
15998W        W25691   2.674   7.081  13.835
15999W        W25692   2.648   8.575  14.290
16000W        W25693   3.640   0.774  12.870
16001W        W25694   5.040  19.275  13.335
16002W        W25695   3.642   7.580  10.916
16003W        W25696   5.521  11.505  12.348
16004W        W25697   3.123  12.471   3.188
16005W        W25698   2.667  10.533   3.186
16006W        W25699   4.081  14.433   0.745
16007W        W25700   5.085  12.958  14.767
16008W        W25701   5.046   8.567  10.914
16009W        W25702   3.151  10.014   2.669
16010W        W25703   0.275  17.808   4.159
16011W        W25704   4.562  12.934   1.256
16012W        W25705   0.754  15.876   4.132
16013W        W25706   2.647   5.144   2.222
16014W        W25707   8.443  18.786   1.249
16015W        W25708   7.958  13.937   1.707
16016W        W25709   2.188  16.877   1.723
16017W        W25710  10.806  16.832   1.731
16018W        W25711   0.733   8.078  13.330
16019W        W25712   7.957   2.199  11.885
16020W        W25713   5.056   5.150  12.340
16021W        W25714   3.136   0.286  11.887
16022W        W25715   7.959   5.159   3.155
16023W        W25716   0.728   0.777  14.782
16024W        W25717   8.439  10.490   4.149
16025W        W25718   3.129   6.115   2.180
16026W        W25719   8.915  10.019   2.679
16027W        W25720   2.667  16.854  12.850
16028W        W25721   8.442   3.216   4.629
16029W        W25722   3.163   5.650  12.387
16030W        W25723   4.106   2.222  11.385
16031W        W25724   1.705  15.857   1.715
16032W        W25725   8.882  18.317  13.346
16033W        W25726   5.567  14.425   3.635
16034W        W25727   4.116  19.797   4.123
16035W        W25728   3.152   9.050   0.279
16036W        W25729   8.899  13.947   2.197
16037W        W25730   8.424  17.328   0.749
16038W        W25731   8.409   1.716   3.642
16039W        W25732   8.409   3.669  12.856
16040W        W25733   8.882   0.779  11.860
16041W        W25734   0.243  15.396   1.251
16042W        W25735   9.867  15.375  12.851
16043W        W25736   7.952  14.417   2.677
16044W        W25737   7.003   0.284  12.348
16045W        W25738   3.634   5.615   0.280
16046W        W25739   6.963   8.096   1.240
16047W        W25740   3.127   8.575   0.742
16048W        W25741   6.517   8.073  12.358
16049W        W25742   3.622   6.140   3.163
16050W        W25743  11.316   4.193   3.178
16051W        W25744   5.563   0.286   1.733
16052W        W25745   9.847  14.892  10.917
16053W        W25746   8.914  10.494  10.934
16054W        W25747   2.660   6.099  13.314
16055W        W25748   6.518   5.133   3.650
16056W        W25749   6.044   9.029  14.805
16057W        W25750  10.842  17.332  10.924
16058W        W25751   0.754  11.995   1.237
16059W        W25752   4.083   6.592   0.270
16060W        W25753   3.604   3.663  12.834
16061W        W25754  10.355   9.039   0.259
16062W        W25755   9.887   7.590   4.129
16063W        W25756  11.308  19.771   2.209
16064W        W25757   5.079   0.759  12.870
16065W        W25758   7.927  17.807   2.667
16066W        W25759   6.514  13.453  14.274
16067W        W25760   0.751   8.088   0.744
16068W        W25761   9.880   1.737   3.147
16069W        W25762   9.396   5.140   1.698
16070W        W25763   0.758  18.337   1.225
16071W        W25764   4.578  12.936   1.725
16072W        W25765   4.087   7.607  13.808
16073W        W25766   6.032   0.761   2.196
16074W        W25767   8.422  19.308   3.165
16075W        W25768   2.178   7.116  10.890
16076W        W25769   8.436   7.561  13.808
16077W        W25770   0.254   9.530  13.313
16078W        W25771   6.504  11.966   2.682
16079W        W25772   6.965   0.264   1.238
16080W        W25773   1.724  13.438   1.232
16081W        W25774  11.786  18.315  14.299
16082W        W25775   8.403  11.471   1.741
16083W        W25776   6.018  17.807   2.203
16084W        W25777   8.886   6.123  13.332
16085W        W25778   8.429  19.800   4.151
16086W        W25779   5.078   9.534   1.225
16087W        W25780   5.548   5.163   0.280
16088W        W25781   9.375  10.036  14.303
16089W        W25782   4.598  13.933   4.134
16090W        W25783   0.746  18.326  14.301
16091W        W25784   3.623   5.631   1.230
16092W        W25785   1.702  13.424   2.204
16093W        W25786  11.805  12.475   2.663
16094W        W25787   1.227   6.135   3.644
16095W        W25788   4.117  11.952   1.229
16096W        W25789   7.006  18.305  14.311
16097W        W25790   3.610   6.633   0.759
16098W        W25791   7.488   9.040   3.648
16099W        W25792   6.522   1.249   4.132
16100W        W25793   7.468  15.394   1.741
16101W        W25794   6.511  17.320  10.917
16102W        W25795   9.395   3.219   4.136
16103W        W25796   3.613  17.828   2.207
16104W        W25797   3.641  17.365   3.150
16105W        W25798   6.963  18.321  10.911
16106W        W25799   1.699  16.850   3.147
16107W        W25800  11.309   1.719  14.783
16108W        W25801   3.641  11.020  13.806
16109W        W25802   7.938  17.829   3.189
16110W        W25803   2.677   8.560  14.758
16111W        W25804   3.634   7.577  14.281
16112W        W25805   5.555  18.812   3.677
16113W        W25806   0.250  11.993  10.907
16114W        W25807   4.089  14.887   4.146
16115W        W25808   4.093   5.151  11.885
16116W        W25809   4.112   8.541  14.782
16117W        W25810   2.173  16.864   3.170
16118W        W25811  10.362   4.643   2.694
16119W        W25812   0.245  14.918   3.654
16120W        W25813  10.352  18.323   4.602
16121W        W25814   2.662   1.226  11.402
16122W        W25815   8.885  16.841   3.673
16123W        W25816  10.817   4.163  14.763
16124W        W25817   7.930   0.739   4.153
16125W        W25818  10.328   2.219   3.653
16126W        W25819   8.909   8.540  13.327
16127W        W25820   9.375  13.423   0.742
16128W        W25821   3.604   0.780   2.674
16129W        W25822   4.565   9.543  11.407
16130W        W25823   2.642  16.390   4.161
16131W        W25824   8.425   8.083  11.865
16132W        W25825   1.683   6.605   0.765
16133W        W25826  11.781   7.118   1.701
16134W        W25827   9.368  12.487   2.667
16135W        W25828   9.382   1.742  13.818
16136W        W25829   3.644   1.237   2.680
16137W        W25830   3.145   7.083  14.759
16138W        W25831   8.884   8.093   4.624
16139W        W25832   2.687   3.182   3.668
16140W        W25833   1.710  10.011  13.315
16141W        W25834   3.606   5.167  13.813
16142W        W25835   4.582   6.626   0.745
16143W        W25836   2.682  16.856  10.889
16144W        W25837   1.208  12.940  12.839
16145W        W25838   0.269   6.116  11.882
16146W        W25839   2.676   5.642   3.662
16147W        W25840  10.840  13.928  11.880
16148W        W25841   3.162  12.950  12.374
16149W        W25842   3.139  17.327   0.246
16150W        W25843  11.308  12.937   2.202
16151W        W25844   2.189   5.152   4.604
16152W        W25845   3.611   2.201   3.656
16153W        W25846   8.400  10.985   1.211
16154W        W25847  10.810   7.114   2.689
16155W        W25848   0.246   3.692  14.792
16156W        W25849   0.737   4.159   3.656
16157W        W25850   3.635   0.282  12.853
16158W        W25851  11.319  18.816  14.279
16159W        W25852   5.555  11.954  12.364
16160W        W25853  11.307  18.808  11.388
16161W        W25854   2.191  11.976  14.769
16162W        W25855   6.036   4.155  12.384
16163W        W25856   3.635  17.820   1.256
16164W        W25857   0.272   1.736   2.699
16165W        W25858   4.127   3.209   3.163
16166W        W25859   5.041   5.129   2.185
16167W        W25860   9.880   7.573  12.382
16168W        W25861   8.441  15.859  13.308
16169W        W25862   0.270   1.710   4.629
16170W        W25863   1.211   4.189  13.832
16171W        W25864   6.015  13.415  12.861
16172W        W25865   7.938  18.787   2.672
16173W        W25866   8.410   1.224  13.806
16174W        W25867   2.649  11.512   1.244
16175W        W25868   5.045   4.186   1.254
16176W        W25869   7.964   0.741   2.689
16177W        W25870   3.152   1.729   3.189
16178W        W25871   9.382   1.267   2.185
16179W        W25872   5.527   1.740  13.338
16180W        W25873   2.161   5.643   1.696
16181W        W25874   9.863   5.132  14.304
16182W        W25875   8.439   2.202  14.788
16183W        W25876   9.862  17.848   3.167
16184W        W25877   5.561   4.189   0.729
16185W        W25878  10.350  12.456   4.120
16186W        W25879   1.694   8.073  14.801
16187W        W25880   9.366   5.164  13.307
16188W        W25881  11.316   9.060  10.932
16189W        W25882   2.645  16.854  13.341
16190W        W25883  10.357   7.118  13.836
16191W        W25884  10.340  12.946  10.934
16192W        W25885   1.218   0.741  13.826
16193W        W25886   9.403  16.372  12.846
16194W        W25887   0.749  18.340   0.265
16195W        W25888   1.240   0.771  14.761
16196W        W25889   6.012  16.854  14.806
16197W        W25890   9.370   4.180   2.681
16198W        W25891  11.299   5.166   1.255
16199W        W25892  11.765  17.360   3.170
16200W        W25893   1.687  19.804   0.733
16201W        W25894  10.331  17.354   4.137
16202W        W25895   2.176  15.859  12.358
16203W        W25896   1.223   7.597  14.758
16204W        W25897   8.924   3.207  10.888
16205W        W25898   5.080  19.803   3.170
16206W        W25899   6.991   6.106  13.352
16207W        W25900  11.767  10.501  14.802
16208W        W25901   8.906   6.109   4.613
16209W        W25902  10.346  18.327  11.901
16210W        W25903  10.811   5.655   0.250
16211W        W25904   6.003  17.840  14.778
16212W        W25905   4.105   4.663  11.417
16213W        W25906   7.458  15.397  11.389
16214W        W25907   5.525  10.513  13.792
16215W        W25908  11.318   1.258   0.286
16216W        W25909   9.385   7.105   0.257
16217W        W25910   8.427   8.063   4.605
16218W        W25911   7.949   6.104  10.929
16219W        W25912   8.901  14.913  10.925
16220W        W25913   0.755  18.336  13.825
16221W        W25914   0.761  12.958  11.417
16222W        W25915   7.484   4.650   3.180
16223W        W25916   2.642   0.266  13.828
16224W        W25917   3.642   2.725   0.288
16225W        W25918   6.506  10.518  14.317
16226W        W25919   1.719  17.347   4.129
16227W        W25920   1.229   8.056   3.633
16228W        W25921   4.122  10.490  13.334
16229W        W25922   9.884   6.120   3.654
16230W        W25923   5.560   2.221  14.277
16231W        W25924   2.185  14.918   0.745
16232W        W25925   8.410  13.438  13.836
16233W        W25926   0.271   6.587   2.189
16234W        W25927   2.659  18.338   2.189
16235W        W25928   2.182  11.022   4.625
16236W        W25929  11.762   1.242   0.263
16237W        W25930   9.880   2.726  13.340
16238W        W25931   5.562   5.639  11.898
16239W        W25932   8.921  16.361  14.275
16240W        W25933   5.059   7.580  10.892
16241W        W25934   2.672  12.957  13.796
16242W        W25935   8.909  18.333  11.417
16243W        W25936   7.458  13.433  13.330
16244W        W25937   7.470  18.335  14.800
16245W        W25938   9.399  12.450   1.243
16246W        W25939   6.497  10.014   2.191
16247W        W25940   6.000  12.486   2.694
16248W        W25941  11.290   9.047  14.307
16249W        W25942  11.769   1.744   2.180
16250W        W25943   5.056   3.197  14.293
16251W        W25944   1.706  11.023  14.801
16252W        W25945   9.371  13.910  14.276
16253W        W25946   6.494  13.448   1.697
16254W        W25947   9.369  12.456   0.728
16255W        W25948   6.016   2.731  11.381
16256W        W25949   1.718   7.078  13.322
16257W        W25950  11.312   9.532   1.241
16258W        W25951   1.215  17.842  12.865
16259W        W25952   0.270  10.040   0.729
16260W        W25953   0.268  16.856  10.911
16261W        W25954   0.258   4.636  12.369
16262W        W25955   7.452   7.102  13.821
16263W        W25956   2.686  10.535  14.793
16264W        W25957   6.496   7.574  14.797
16265W        W25958   8.445   7.593  10.889
16266W        W25959   4.113  10.503  11.890
16267W        W25960  11.317  16.344  11.401
16268W        W25961   1.237   4.658   1.236
16269W        W25962  11.806   1.708  12.361
16270W        W25963   3.156   9.514   0.734
16271W        W25964   0.730  16.378   4.146
16272W        W25965   6.987  13.937  12.368
16273W        W25966   0.259   5.627  13.825
16274W        W25967   6.044   8.054   2.689
16275W        W25968   5.088  18.809  14.761
16276W        W25969   7.450   5.122  14.790
16277W        W25970   4.591  17.354   3.675
16278W        W25971   5.562  12.943   0.751
16279W        W25972  11.299  19.309   2.704
16280W        W25973   5.047  11.508  13.311
16281W        W25974  11.776   4.176  13.832
16282W        W25975   8.440   0.766  10.893
16283W        W25976   7.458   4.677  12.831
16284W        W25977   9.865   5.124   1.711
16285W        W25978  10.321  19.763   2.199
16286W        W25979   1.708  11.022   2.199
16287W        W25980   2.641  18.803   1.709
16288W        W25981  10.363  17.327  11.869
16289W        W25982   1.216   4.650  14.772
16290W        W25983   4.116   0.739  11.891
16291W        W25984   5.534  10.016  13.825
16292W        W25985   0.243  15.894  14.310
16293W        W25986  11.289   1.234   4.134
16294W        W25987   7.002  18.317   4.601
16295W        W25988   9.393  18.801  12.851
16296W        W25989   9.880   4.168   4.126
16297W        W25990  10.826   4.172  12.843
16298W        W25991   7.933   3.207  13.311
16299W        W25992   1.695   4.671  11.395
16300W        W25993   3.146   5.151  11.403
16301W        W25994  10.328  12.453   0.743
16302W        W25995   6.487  18.335  11.884
16303W        W25996   6.975   5.135  11.871
16304W        W25997   5.521   9.532  11.861
16305W        W25998   0.759  10.003   2.704
16306W        W25999   9.857  18.815   3.193
16307W        W26000   1.705   1.258  12.843
16308W        W26001   4.573   2.231  14.289
16309W        W26002   1.708   9.527  11.419
16310W        W26003   7.956   4.163   2.203
16311W        W26004   4.595   3.663  12.381
16312W        W26005   3.123  19.282   1.215
16313W        W26006   2.666   1.265   3.634
16314W        W26007   9.852   9.044  14.764
16315W        W26008   6.506  15.897  14.296
16316W        W26009   7.949  10.028   1.695
16317W        W26010   2.661  18.324  13.823
16318W        W26011  10.333  15.382   4.623
16319W        W26012   6.503  10.030   1.245
16320W        W26013   0.739   8.544   0.741
16321W        W26014   4.601  14.404  10.911
16322W        W26015   8.406   6.626  10.898
16323W        W26016   8.902  16.873  14.758
16324W        W26017   6.507   2.228  12.377
16325W        W26018  10.837   2.220  13.343
16326W        W26019   8.420   3.186  12.347
16327W        W26020   1.223   7.565   0.262
16328W        W26021   6.516  10.989   3.644
16329W        W26022   5.054   5.618   1.251
16330W        W26023   7.475  13.454  14.288
16331W        W26024   6.518  11.013  13.321
16332W        W26025   6.001  18.306  14.765
16333W        W26026   5.567  17.827   0.264
16334W        W26027   7.007  10.035   1.258
16335W        W26028  10.828   3.706   2.209
16336W        W26029   3.614  14.417  12.858
16337W        W26030   8.411  10.994  13.335
16338W        W26031   4.564   2.229   3.151
16339W        W26032   4.123  18.808  11.875
16340W        W26033   2.172   0.746   4.159
16341W        W26034   1.215   9.044   0.248
16342W        W26035   9.841  12.948  11.879
16343W        W26036   0.751  18.781  14.274
16344W        W26037   4.120   5.148   4.142
16345W        W26038  11.792   3.705   1.234
16346W        W26039  10.830  18.338   2.206
16347W        W26040   8.921   6.143  13.821
16348W        W26041   0.730  11.475   4.135
16349W        W26042   8.420  11.503   4.621
16350W        W26043   3.636   1.256  14.298
16351W        W26044   4.120   2.688  11.865
16352W        W26045   4.081  11.468  14.291
16353W        W26046  11.763   4.151  11.398
16354W        W26047   6.009  16.843   3.183
16355W        W26048   8.883   3.172   4.618
16356W        W26049   6.513   3.695   3.188
16357W        W26050  10.328  12.456  12.342
16358W        W26051   2.654   0.273   0.275
16359W        W26052   6.012   5.153   2.193
16360W        W26053   7.003   7.575   1.723
16361W        W26054   8.914   3.683  13.329
16362W        W26055   6.507  16.352   0.279
16363W        W26056   1.225   4.148   0.280
16364W        W26057   7.452  10.500  11.872
16365W        W26058   1.216  13.916  14.286
16366W        W26059   1.686   7.076   2.221
16367W        W26060   4.561  17.822   1.735
16368W        W26061   1.204   5.150   2.221
16369W        W26062   1.214  16.877   0.738
16370W        W26063  11.786   0.776   4.631
16371W        W26064   7.007   2.696  14.310
16372W        W26065   8.897  18.308   1.740
16373W        W26066   2.683  18.792   1.240
16374W        W26067   1.245   1.258  14.277
16375W        W26068   7.486  13.943  13.836
16376W        W26069   1.208   0.779   4.613
16377W        W26070   9.374   9.557   3.151
16378W        W26071   1.204   8.574  14.803
16379W        W26072  10.847  12.452  13.337
16380W        W26073   8.434  13.437   1.716
16381W        W26074  11.777  18.827  11.870
16382W        W26075   4.570   2.719   2.704
16383W        W26076   7.442   2.686  13.353
16384W        W26077   6.991   6.595   1.234
16385W        W26078   6.508   7.585  12.371
16386W        W26079   5.536  10.013  13.352
16387W        W26080   1.206  15.411   1.716
16388W        W26081   2.177  19.796  13.820
16389W        W26082   1.684  13.463   2.695
16390W        W26083   3.161   8.060  14.319
16391W        W26084   0.250   6.629   4.615
16392W        W26085   9.362  19.315   0.751
16393W        W26086   3.624   9.060   2.678
16394W        W26087   3.167   9.048  14.301
16395W        W26088  11.788   5.641  10.930
16396W        W26089   6.975   6.618   3.675
16397W        W26090  10.343   2.230  13.343
16398W        W26091   2.202   7.569   2.703
16399W        W26092   7.442   9.559   0.247
16400W        W26093   1.694  14.923  11.861
16401W        W26094   0.754  13.912  14.299
16402W        W26095   1.220   3.176   1.714
16403W        W26096   4.579   1.257  11.385
16404W        W26097   4.571  11.472   0.277
16405W        W26098   1.724  15.409  13.837
16406W        W26099   3.135   4.189   0.764
16407W        W26100   2.193  14.406  14.781
16408W        W26101   4.592  17.815  10.914
16409W        W26102   0.744  15.399  14.787
16410W        W26103   2.174   4.643  12.824
16411W        W26104   1.687   5.144   0.290
16412W        W26105   1.212   9.042  12.826
16413W        W26106   1.234  17.342  14.770
16414W        W26107   2.167   3.218  11.411
16415W        W26108   5.551   6.128  14.773
16416W        W26109   2.674   8.088   3.667
16417W        W26110   1.692  16.864  10.897
16418W        W26111   9.874   9.547   0.765
16419W        W26112   2.170   4.679  13.333
16420W        W26113   5.546  17.818  13.836
16421W        W26114   2.645   1.229  13.805
16422W        W26115   1.717  10.512  12.370
16423W        W26116   5.521  15.862  11.891
16424W        W26117   6.022  16.837  13.836
16425W        W26118   5.058  14.890  12.868
16426W        W26119   8.424  10.015   3.631
16427W        W26120   0.733   9.032   2.668
16428W        W26121   2.661  18.781  10.895
16429W        W26122   1.714  11.467   1.709
16430W        W26123   3.144   1.709  13.332
16431W        W26124  11.772  13.911  11.415
16432W        W26125   6.514  16.370  12.830
16433W        W26126   0.257   1.226  14.283
16434W        W26127   7.967  19.772   1.721
16435W        W26128   4.603   4.675   4.602
16436W        W26129   0.720   6.139   0.257
16437W        W26130   8.440   0.261  10.910
16438W        W26131   9.859  19.786   1.216
16439W        W26132   6.509  12.468   0.765
16440W        W26133   3.626  17.836   3.639
16441W        W26134   6.503   5.655   4.608
16442W        W26135   5.080   7.589   2.222
16443W        W26136   8.918  15.389   0.752
16444W        W26137   1.685   5.649  10.892
16445W        W26138   6.482  10.032  12.365
16446W        W26139   5.550  10.027   0.760
16447W        W26140  10.835   3.200  10.896
16448W        W26141  10.838  11.982  14.317
16449W        W26142   3.155  12.457   4.144
16450W        W26143  10.325  13.433   0.729
16451W        W26144   6.507   9.071   4.122
16452W        W26145   7.965   7.573  13.826
16453W        W26146   3.616   5.615   1.723
16454W        W26147   3.126   9.061  13.806
16455W        W26148  11.288  15.394   4.608
16456W        W26149   8.912  15.864  13.308
16457W        W26150   2.664  14.393  13.824
16458W        W26151   5.084  12.956  12.378
16459W        W26152   8.438   9.055  12.835
16460W        W26153   7.482   9.552  12.860
16461W        W26154   0.765  19.760   0.290
16462W        W26155   5.076   2.227   1.709
16463W        W26156   7.936   6.599  12.376
16464W        W26157  11.771   2.201   2.671
16465W        W26158   5.072  11.017  10.925
16466W        W26159   9.360   5.646   4.136
16467W        W26160   5.529   8.095   3.183
16468W        W26161   3.632   9.520   2.665
16469W        W26162   8.411   2.241   2.699
16470W        W26163   2.184  16.849  13.314
16471W        W26164   4.096  16.350  10.921
16472W        W26165   8.904   5.159   3.654
16473W        W26166   6.497   5.631   1.730
16474W        W26167   7.943  14.397   1.234
16475W        W26168   1.694   2.719  12.356
16476W        W26169   4.595   2.231   1.696
16477W        W26170   7.951   1.227   1.716
16478W        W26171  10.807   2.727  11.875
16479W        W26172   9.843   0.768   4.614
16480W        W26173   7.931   2.719   1.716
16481W        W26174   4.095  12.476   2.690
16482W        W26175   2.669  19.295  11.896
16483W        W26176   0.737  18.333   0.756
16484W        W26177   6.021  12.456  11.869
16485W        W26178   1.218   2.720  11.397
16486W        W26179   3.121   5.635  14.293
16487W        W26180   7.938   4.657  13.807
16488W        W26181   4.081  10.037  13.820
16489W        W26182   6.982   2.221  10.926
16490W        W26183   8.902  12.471  12.829
16491W        W26184   6.512   2.228  13.348
16492W        W26185   8.897   4.155   0.748
16493W        W26186   3.165  17.355   2.682
16494W        W26187   7.459  12.952  14.293
16495W        W26188   8.427  12.456   0.755
16496W        W26189   0.725  11.492   1.257
16497W        W26190   3.158  19.802  12.847
16498W        W26191   7.948   6.604  14.307
16499W        W26192   8.912  18.817   4.134
16500W        W26193   6.504   0.261  13.831
16501W        W26194   6.514  12.952   0.773
16502W        W26195   0.286  12.934  12.357
16503W        W26196   7.451   6.143  12.844
16504W        W26197   1.722   6.138  11.883
16505W        W26198   3.144   5.170  12.355
16506W        W26199   7.470   3.667   4.138
16507W        W26200   4.081  12.971  11.865
16508W        W26201  11.786  15.871  10.905
16509W        W26202   0.743  16.831   3.177
16510W        W26203   6.972   0.260   4.140
16511W        W26204  10.835  11.013   1.728
16512W        W26205   4.125  19.784   2.209
16513W        W26206   4.575  10.035   2.691
16514W        W26207   2.175  11.497  14.781
16515W        W26208   1.717  12.457  13.314
16516W        W26209   4.118   4.181  13.800
16517W        W26210   6.983   9.555   4.641
16518W        W26211   6.971   1.730   0.742
16519W        W26212   2.179  13.907   3.193
16520W        W26213  10.335  11.464   3.662
16521W        W26214   6.501  12.472   4.119
16522W        W26215   7.947   6.117  11.373
16523W        W26216  10.839  12.942  13.315
16524W        W26217   5.051   7.075  13.321
16525W        W26218   9.878  16.368  10.907
16526W        W26219   0.244  10.512   4.605
16527W        W26220  11.767   9.523  12.824
16528W        W26221   7.456   6.123  11.376
16529W        W26222   0.742   9.064  10.925
16530W        W26223   2.182   2.233  14.275
16531W        W26224   5.540  17.842  10.914
16532W        W26225   2.645   6.111   1.222
16533W        W26226   0.253  12.485  11.374
16534W        W26227  11.804   9.539  13.832
16535W        W26228   6.480   4.173   3.157
16536W        W26229   0.281   7.597   4.127
16537W        W26230   7.007   9.055   3.671
16538W        W26231   3.603  14.900  13.801
16539W        W26232   3.130   2.723   1.248
16540W        W26233   5.560   9.530   3.165
16541W        W26234  10.353  11.474   1.734
16542W        W26235   8.429  15.397  10.889
16543W        W26236   7.002   2.229  12.824
16544W        W26237   3.163  15.869  14.796
16545W        W26238   8.921   6.114   2.202
16546W        W26239   4.579   8.557   4.127
16547W        W26240   6.017  14.882   3.147
16548W        W26241   7.480   0.264  14.797
16549W        W26242   0.757  13.914   4.146
16550W        W26243   0.768  17.826   1.241
16551W        W26244   9.394   7.087   1.710
16552W        W26245  11.297  10.510  11.397
16553W        W26246   1.223  14.916  14.302
16554W        W26247   1.690   9.555   4.645
16555W        W26248   6.497  14.914   0.261
16556W        W26249  10.343  10.024  12.835
16557W        W26250   7.482  13.948  12.860
16558W        W26251   9.851   5.617   0.762
16559W        W26252   6.524   7.600   1.694
16560W        W26253   8.416   2.220   3.641
16561W        W26254   0.278   0.287   4.598
16562W        W26255   4.116  18.327  11.391
16563W        W26256  10.837  15.377   3.634
16564W        W26257   0.748   6.602   0.752
16565W        W26258   5.072  16.353  13.339
16566W        W26259   4.115   0.261   2.672
16567W        W26260   6.506  16.355  11.391
16568W        W26261   0.738   0.757  11.873
16569W        W26262   5.540  10.986   0.275
16570W        W26263   2.672  14.430  14.784
16571W        W26264   2.208   2.237  11.888
16572W        W26265   3.127  14.415  11.385
16573W        W26266   3.158   8.096  10.908
16574W        W26267  10.367  15.376   2.701
16575W        W26268   6.045  11.952  13.339
16576W        W26269   3.127   4.164  14.794
16577W        W26270  11.778  17.337  12.862
16578W        W26271   1.220   7.105   4.140
16579W        W26272   1.701  12.952  12.369
16580W        W26273   8.433  12.962  14.768
16581W        W26274   1.228   3.687   3.147
16582W        W26275   8.912   9.539  14.276
16583W        W26276  11.791  17.835   3.174
16584W        W26277   7.472   1.756  11.876
16585W        W26278   9.864  14.904   1.697
16586W        W26279   1.238  12.472   2.212
16587W        W26280   7.465  15.871  12.379
16588W        W26281   7.937   8.584   0.733
16589W        W26282   6.022   2.198  11.871
16590W        W26283   4.595  19.310   1.694
16591W        W26284   4.101  18.324   4.158
16592W        W26285   9.842   0.780  11.883
16593W        W26286  11.774  16.345   0.257
16594W        W26287   9.402  19.298   0.256
16595W        W26288   3.131  19.308   4.124
16596W        W26289   6.505   5.616  11.382
16597W        W26290   3.622  12.951   2.695
16598W        W26291   6.968  15.396   2.677
16599W        W26292   7.451  14.914   1.719
16600W        W26293   2.165   1.228  11.373
16601W        W26294   9.368   8.584  13.816
16602W        W26295   0.286  10.026  11.406
16603W        W26296  11.778  17.827   4.132
16604W        W26297   7.006  12.940  14.314
16605W        W26298   7.936   7.091   2.685
16606W        W26299   7.475  10.004   3.149
16607W        W26300   6.027  12.975  11.398
16608W        W26301  11.786  11.511  12.373
16609W        W26302   5.077   7.599  13.795
16610W        W26303  10.832   1.259  12.868
16611W        W26304   5.557   3.661  12.840
16612W        W26305   9.868   3.670  14.759
16613W        W26306   9.875  10.048   1.696
16614W        W26307  11.291  14.419   0.740
16615W        W26308  11.802  17.334  11.411
16616W        W26309   5.554   8.551   2.220
16617W        W26310  10.365   7.567  10.914
16618W        W26311   5.554   7.111  11.863
16619W        W26312  11.280   4.652   3.173
16620W        W26313   9.847   5.128  14.765
16621W        W26314   1.246  19.796   1.740
16622W        W26315  10.333   5.131   1.737
16623W        W26316   2.189  19.798   0.278
16624W        W26317   6.964  13.948  12.824
16625W        W26318   3.607   8.583   2.201
16626W        W26319   0.733   0.264   1.246
16627W        W26320   7.006   8.573   3.159
16628W        W26321   4.092   7.091  11.394
16629W        W26322   6.498   0.283   1.738
16630W        W26323   2.169  10.999  10.913
16631W        W26324   5.567  11.978   0.752
16632W        W26325   2.643  19.299  14.322
16633W        W26326   6.032   7.098  11.412
16634W        W26327   8.408  15.868  14.759
16635W        W26328   6.506  12.963   2.199
16636W        W26329   6.041   5.642  13.819
16637W        W26330   8.430   0.763  12.859
16638W        W26331   3.645  13.435   3.674
16639W        W26332   0.268   8.076  12.365
16640W        W26333   3.629   9.053  13.319
16641W        W26334   6.978  13.459  12.361
16642W        W26335   2.183   3.694  10.929
16643W        W26336   4.115  13.425  12.852
16644W        W26337   4.117  11.952  13.820
16645W        W26338   9.361   9.555  12.377
16646W        W26339   6.483  11.014  13.810
16647W        W26340  11.770  16.851  14.312
16648W        W26341   0.260   4.638   0.762
16649W        W26342   6.503  19.271  10.933
16650W        W26343  11.769  13.917  13.344
16651W        W26344   6.994  15.861   4.116
16652W        W26345   9.881  11.991  14.320
16653W        W26346   5.541   6.107   2.682
16654W        W26347  11.302   8.086  12.375
16655W        W26348   7.474  19.770  13.342
16656W        W26349   4.095  15.384   2.699
16657W        W26350  10.324   3.184  13.309
16658W        W26351   5.041  16.364  10.922
16659W        W26352  10.813   3.689   1.250
16660W        W26353   7.924   9.538  11.383
16661W        W26354   0.749   6.622  14.296
16662W        W26355  10.320  16.832  11.876
16663W        W26356  10.818   0.737   2.705
16664W        W26357   0.287   3.676   1.229
16665W        W26358   7.476   3.171  12.360
16666W        W26359  10.360   6.127  10.894
16667W        W26360   0.276  11.492   2.693
16668W        W26361   3.121  17.853  10.905
16669W        W26362   1.710   1.743   0.762
16670W        W26363   3.123   4.651   0.283
16671W        W26364   7.469  12.963  13.347
16672W        W26365  10.321   0.262  14.316
16673W        W26366   4.608  12.950   2.187
16674W        W26367   1.209   3.176   2.692
16675W        W26368  11.781   4.677   1.258
16676W        W26369   6.963  18.336  12.354
16677W        W26370   9.369  11.012   0.746
16678W        W26371   1.685  13.431   3.192
16679W        W26372   2.687  18.823  13.810
16680W        W26373  11.804   3.203  13.815
16681W        W26374  10.814  16.866  14.292
16682W        W26375  11.326   6.586  14.315
16683W        W26376   7.461   6.130  10.889
16684W        W26377   8.899  19.313   2.186
16685W        W26378  10.823  14.405   3.175
16686W        W26379   3.157  13.906   1.741
16687W        W26380   5.045   5.652   4.597
16688W        W26381   3.617   7.592  13.813
16689W        W26382   4.089  17.325   1.225
16690W        W26383  10.349   0.748   4.148
16691W        W26384   4.596   5.638   1.731
16692W        W26385   1.232   1.220  11.401
16693W        W26386   5.531   4.682   1.224
16694W        W26387   7.920  16.381   2.674
16695W        W26388   4.578   7.598   2.667
16696W        W26389   8.427  16.834   1.719
16697W        W26390   2.683  17.334  12.349
16698W        W26391   6.968  19.278  11.403
16699W        W26392   0.752   2.195  10.903
16700W        W26393   2.167   6.117  11.375
16701W        W26394  10.343   1.749   2.190
16702W        W26395   5.043   5.624   3.161
16703W        W26396   7.960  17.836   1.243
16704W        W26397   9.391   7.566  12.385
16705W        W26398   3.158   3.678   0.743
16706W        W26399   6.514  16.845  12.381
16707W        W26400   7.441   7.597   3.178
16708W        W26401  11.280   5.166  12.833
16709W        W26402  11.783  19.799   2.707
16710W        W26403   1.725  14.429  13.797
16711W        W26404   1.683   0.256   3.159
16712W        W26405   6.042  15.868  14.285
16713W        W26406   8.441   1.727  11.393
16714W        W26407   5.062  17.331   1.712
16715W        W26408   8.918   5.137   4.136
16716W        W26409   5.083   6.106  13.312
16717W        W26410   0.752  18.791  10.915
16718W        W26411  10.326   5.639  11.382
16719W        W26412   6.978   9.030   2.201
16720W        W26413   2.189   0.766  14.312
16721W        W26414   1.682   8.079   3.632
16722W        W26415   5.072   5.625   2.220
16723W        W26416   1.725   1.259   3.667
16724W        W26417   5.042   1.738  13.307
16725W        W26418   9.844   0.263  11.397
16726W        W26419  10.340  12.972  14.306
16727W        W26420   9.391  11.959  13.320
16728W        W26421   5.070   4.164  11.414
16729W        W26422   5.085   8.563   2.681
16730W        W26423   3.640   0.764  13.818
16731W        W26424  10.324   2.688  12.832
16732W        W26425   8.402   8.564   0.739
16733W        W26426   6.028  12.455  14.292
16734W        W26427   3.621  18.333   2.697
16735W        W26428   1.234   3.661  14.774
16736W        W26429  10.846  10.521  11.379
16737W        W26430   0.278   1.727   2.214
16738W        W26431  10.825  14.878  12.864
16739W        W26432   7.457  17.852  14.297
16740W        W26433  11.794  10.042   4.145
16741W        W26434   5.084  11.463  14.321
16742W        W26435   7.967   3.205   3.654
16743W        W26436   5.047   2.205   1.238
16744W        W26437  10.363  11.495   4.645
16745W        W26438   5.079  12.974  11.387
16746W        W26439   1.715  10.979  11.419
16747W        W26440   6.004   3.695   2.214
16748W        W26441   3.616  12.478  10.933
16749W        W26442   2.666  12.956   3.155
16750W        W26443  10.823  12.466  14.777
16751W        W26444   6.514   4.150  13.831
16752W        W26445   5.537  13.923  11.398
16753W        W26446   5.546  15.380  12.857
16754W        W26447   0.267   6.108  12.850
16755W        W26448   7.469   8.565  13.830
16756W        W26449   7.926  14.437  12.838
16757W        W26450   1.680  18.782  13.825
16758W        W26451   8.414  15.894   4.144
16759W        W26452   2.641   3.678   1.697
16760W        W26453   7.478  11.480   3.164
16761W        W26454   1.715   6.139  11.407
16762W        W26455  10.341   6.618  13.810
16763W        W26456  10.814  19.311  12.827
16764W        W26457   7.954  10.504  12.372
16765W        W26458   0.753  10.038   1.739
16766W        W26459   5.530  13.439  13.309
16767W        W26460   3.144  10.008   0.728
16768W        W26461   2.162   1.744   0.738
16769W        W26462   6.526  11.503  12.340
16770W        W26463   5.064   0.738   0.285
16771W        W26464  11.304   3.204  12.353
16772W        W26465  10.364   5.645   0.284
16773W        W26466  11.306   1.738   0.742
16774W        W26467   2.667   4.165  14.799
16775W        W26468   2.646   9.026   0.742
16776W        W26469   8.429  11.955   0.283
16777W        W26470   3.636   9.512   4.136
16778W        W26471   0.275   4.661   1.218
16779W        W26472   7.488  12.972  11.866
16780W        W26473   6.515   0.740  12.360
16781W        W26474   5.064   7.112  14.764
16782W        W26475   6.492  18.794  10.934
16783W        W26476   9.389   3.195   1.739
16784W        W26477   2.650   4.678   2.672
16785W        W26478   4.582  19.805   2.187
16786W        W26479   0.751   0.770   3.190
16787W        W26480   2.684   0.749   0.279
16788W        W26481   9.884   0.747   3.150
16789W        W26482   8.884  10.995  13.335
16790W        W26483   8.409  12.455  12.844
16791W        W26484   9.852   3.705   2.215
16792W        W26485   8.893  10.013   4.142
16793W        W26486  10.338  15.880   1.714
16794W        W26487   9.364   3.700   3.166
16795W        W26488   0.746   6.106  12.863
16796W        W26489   5.544  16.374  11.372
16797W        W26490   1.690   2.690   2.219
16798W        W26491  11.309   3.198  12.859
16799W        W26492   7.949  16.382  14.289
16800W        W26493   6.019   6.107  10.910
16801W        W26494   0.726   8.090   3.181
16802W        W26495   5.563  18.815  13.347
16803W        W26496   1.711  10.031   4.135
16804W        W26497   9.887   0.767   4.122
16805W        W26498   4.589  15.895   1.220
16806W        W26499   6.025  17.851  11.398
16807W        W26500   3.122  17.356   2.221
16808W        W26501   3.130  10.516   3.660
16809W        W26502   5.534  10.040   4.127
16810W        W26503   7.937   7.568   3.631
16811W        W26504   5.548  19.292  14.795
16812W        W26505  11.321  14.912  11.891
16813W        W26506   9.865  14.903   3.672
16814W        W26507   9.848   8.078  13.325
16815W        W26508   4.081   9.538  14.785
16816W        W26509   9.866  13.937   1.214
16817W        W26510  10.826  11.488  11.892
16818W        W26511   9.403  12.964   0.264
16819W        W26512   4.593   3.707  14.789
16820W        W26513  11.301  10.019  12.354
16821W        W26514  11.782   8.071   0.742
16822W        W26515   5.524   2.237  11.876
16823W        W26516   1.682  16.383  11.871
16824W        W26517   4.588  13.910  10.910
16825W        W26518   3.641   5.644   3.672
16826W        W26519   6.510   1.719  12.366
16827W        W26520   4.563  16.848   1.694
16828W        W26521   9.408  11.993  11.867
16829W        W26522  11.293  17.326  12.351
16830W        W26523   7.458  11.971   1.231
16831W        W26524   5.041  10.990  13.314
16832W        W26525  11.300   0.262   1.702
16833W        W26526   6.995   5.611   3.193
16834W        W26527  10.361   9.030   2.662
16835W        W26528  11.298   3.190   4.612
16836W        W26529   0.757   7.610  13.819
16837W        W26530   3.162  11.491  13.355
16838W        W26531   6.015  19.293   0.271
16839W        W26532   9.386  13.459  13.317
16840W        W26533  10.814  14.903   0.266
16841W        W26534   6.985   7.595   3.655
16842W        W26535   5.071   8.567   0.277
16843W        W26536   3.130  10.507  11.856
16844W        W26537   7.001   7.107  11.404
16845W        W26538  10.321  11.983   2.209
16846W        W26539  10.358   3.208   4.161
16847W        W26540   9.385   9.046   3.158
16848W        W26541   1.207   2.706  13.331
16849W        W26542   1.241  17.841   1.210
16850W        W26543   0.269  14.879  14.796
16851W        W26544   3.624   7.589  14.783
16852W        W26545   7.941  10.996  11.893
16853W        W26546   1.714  10.513   3.177
16854W        W26547   8.912   4.646  11.416
16855W        W26548   0.738   9.531   0.773
16856W        W26549  11.794   6.126  10.894
16857W        W26550  11.763  17.318  14.764
16858W        W26551   2.656   1.259   1.211
16859W        W26552   6.043   6.108   4.608
16860W        W26553   0.266   6.131   2.221
16861W        W26554   5.541  15.902   3.183
16862W        W26555   9.858   5.629  12.358
16863W        W26556   6.041  10.531   3.634
16864W        W26557  11.802   2.710   1.719
16865W        W26558  10.824   6.623   0.256
16866W        W26559   9.391   4.162  14.282
16867W        W26560  11.788  12.940   0.279
16868W        W26561   1.235   9.551   0.751
16869W        W26562  11.774   0.288  10.888
16870W        W26563   3.611  12.448   1.721
16871W        W26564   6.971  11.484   0.728
16872W        W26565  10.365   7.099   3.176
16873W        W26566   0.744   0.264  11.864
16874W        W26567   0.288   8.558  14.791
16875W        W26568   7.944   9.522  10.912
16876W        W26569   3.132  17.824  12.351
16877W        W26570  10.820   3.201   4.119
16878W        W26571   9.369  10.020   3.658
16879W        W26572   6.481  17.830   0.736
16880W        W26573   1.233   0.248  11.862
16881W        W26574   8.919  15.872   2.709
16882W        W26575  11.798   2.240   2.220
16883W        W26576   7.471  14.891  12.860
16884W        W26577   0.734  18.336  14.790
16885W        W26578   1.690   6.603   0.285
16886W        W26579   5.561   9.070  14.778
16887W        W26580   9.403   7.114   1.215
16888W        W26581   3.139   2.711   4.615
16889W        W26582   5.062  10.028  10.909
16890W        W26583   5.055   3.693   2.189
16891W        W26584   8.443  10.523  13.797
16892W        W26585   9.862  11.489   1.227
16893W        W26586   9.370   2.233  11.377
16894W        W26587   9.389   3.192  14.765
16895W        W26588   3.609   6.107  13.805
16896W        W26589   8.434   0.245   1.739
16897W        W26590   0.722   0.266   4.153
16898W        W26591   0.762   6.621  13.343
16899W        W26592   7.965  19.310  11.383
16900W        W26593   3.138   2.730  14.297
16901W        W26594   6.525  16.342  13.816
16902W        W26595   1.706  11.013   1.722
16903W        W26596  10.802  10.505  14.784
16904W        W26597   6.512   2.212   1.228
16905W        W26598   5.549   7.579   1.244
16906W        W26599   4.569   8.071   3.633
16907W        W26600   0.273   9.539   2.188
16908W        W26601   7.442  16.388  10.931
16909W        W26602   6.035   2.207  14.319
16910W        W26603   4.098   1.745   0.259
16911W        W26604   0.271  16.833  12.864
16912W        W26605   0.262   7.075  10.922
16913W        W26606   7.448  19.795   1.708
16914W        W26607   7.964   9.541   0.770
16915W        W26608   1.716  11.478  10.902
16916W        W26609  11.319   1.744  10.922
16917W        W26610   5.076   9.028   4.606
16918W        W26611   7.954   7.580  12.858
16919W        W26612   2.680   4.161   2.688
16920W        W26613   3.605  11.004   4.133
16921W        W26614   8.895   8.095  14.293
16922W        W26615   6.017  12.958  14.313
16923W        W26616   8.403  16.847  13.346
16924W        W26617  11.291   2.687  14.285
16925W        W26618   6.010  11.476   0.759
16926W        W26619  10.327  17.338   0.258
16927W        W26620  10.328   4.158   4.640
16928W        W26621   6.524  13.456  13.792
16929W        W26622   6.041   9.554   3.634
16930W        W26623  10.357  10.520  10.917
16931W        W26624   9.386  14.434  14.299
16932W        W26625   6.010   5.634   2.204
16933W        W26626   1.219   9.033   1.229
16934W        W26627   0.273   9.552   3.193
16935W        W26628  10.834  19.299  11.376
16936W        W26629   7.473   9.057   1.211
16937W        W26630  11.807  19.788  12.863
16938W        W26631   3.600   2.242   1.706
16939W        W26632   1.698   4.183   0.245
16940W        W26633   9.853   6.109  14.301
16941W        W26634  11.769   5.129  11.375
16942W        W26635  10.322   2.232  10.931
16943W        W26636   3.147  14.422   3.662
16944W        W26637   6.028   6.143   2.203
16945W        W26638  11.799  13.425   1.742
16946W        W26639   2.165   8.576   0.274
16947W        W26640   0.270  14.907   1.223
16948W        W26641   0.728   4.660   0.753
16949W        W26642   1.714  12.448   1.742
16950W        W26643   4.596   3.212   0.258
16951W        W26644   2.685  14.414  13.339
16952W        W26645   4.588  18.316   2.189
16953W        W26646   4.080   3.212  11.900
16954W        W26647   6.991  19.305  13.326
16955W        W26648   4.591  13.915  11.892
16956W        W26649   7.956  19.774   0.744
16957W        W26650   0.270   1.715  14.284
16958W        W26651   1.228   6.627   0.752
16959W        W26652   8.409  14.879  12.370
16960W        W26653   7.008  18.793   1.704
16961W        W26654   4.578   0.267   3.179
16962W        W26655   1.721  11.995  13.310
16963W        W26656   8.924  12.965   3.659
16964W        W26657   0.721   3.687  10.911
16965W        W26658   3.148  18.819  12.372
16966W        W26659  11.327   3.204   0.768
16967W        W26660   3.647   4.160   2.675
16968W        W26661   0.283  18.823   4.624
16969W        W26662   4.115  13.434   3.633
16970W        W26663  10.344  13.439  13.321
16971W        W26664   9.388   6.632   2.676
16972W        W26665  11.282   6.124   3.651
16973W        W26666  11.300   0.764   1.255
16974W        W26667   5.088  15.877  11.407
16975W        W26668   3.139   6.122   0.735
16976W        W26669   7.442   0.752   2.695
16977W        W26670   7.939   1.728   1.706
16978W        W26671   9.881  14.915   1.213
16979W        W26672   1.705  17.348   3.666
16980W        W26673   9.853   7.099  12.865
16981W        W26674   8.411   8.540  11.408
16982W        W26675   1.709   2.696  13.823
16983W        W26676   0.746  15.868  13.347
16984W        W26677   3.163  11.987  11.381
16985W        W26678   7.956  13.925   2.696
16986W        W26679   5.525   2.686   3.164
16987W        W26680   0.733  13.421   3.187
16988W        W26681  11.779  11.482  13.819
16989W        W26682  10.346  11.005  11.872
16990W        W26683   3.133   2.226  12.357
16991W        W26684   3.645   9.045   0.289
16992W        W26685   3.646   9.557  10.888
16993W        W26686   4.565   0.742   1.233
16994W        W26687   8.444   3.212  14.318
16995W        W26688   0.271   3.659   0.263
16996W        W26689   2.656  19.773   0.250
16997W        W26690   6.969   2.195   1.257
16998W        W26691   2.653  10.514   4.145
16999W        W26692   1.224   0.766  10.903
17000W        W26693   6.522   9.047   0.246
17001W        W26694   7.924  18.799  12.377
17002W        W26695   3.617   2.732   4.146
17003W        W26696   9.866   9.561   4.140
17004W        W26697   7.935  15.883  14.783
17005W        W26698   6.965   6.128   3.639
17006W        W26699   0.766   5.630  12.848
17007W        W26700   6.032   3.216  12.367
17008W        W26701   2.651  14.896   4.611
17009W        W26702   0.287   6.135   2.663
17010W        W26703   2.654  17.847   2.663
17011W        W26704   9.400  10.495  11.860
17012W        W26705   1.214   1.242  11.869
17013W        W26706   9.372   3.209   0.276
17014W        W26707   9.373   1.244   2.709
17015W        W26708   5.567  17.349   4.629
17016W        W26709   0.734   2.240  12.356
17017W        W26710   2.202   1.715  13.806
17018W        W26711   7.465  10.497  13.793
17019W        W26712  11.320  18.815   2.200
17020W        W26713   9.386  12.935  14.792
17021W        W26714   6.493   9.050  14.306
17022W        W26715   6.485   2.732   3.674
17023W        W26716   1.690  14.399  12.868
17024W        W26717   6.490  19.799   0.251
17025W        W26718   6.997  19.774   0.772
17026W        W26719  10.813  18.318   4.645
17027W        W26720   5.530   4.653   2.703
17028W        W26721   6.982   3.206  11.882
17029W        W26722   9.845  18.814   2.664
17030W        W26723   3.619  17.845  11.868
17031W        W26724   9.364   9.551   4.645
17032W        W26725   2.643  17.338   2.663
17033W        W26726  11.317   1.715   4.136
17034W        W26727   9.395  12.484   3.155
17035W        W26728   9.859  10.531   0.774
17036W        W26729   9.871   4.653   3.668
17037W        W26730   7.465   1.223   4.135
17038W        W26731   8.442   5.129   0.733
17039W        W26732   0.248  15.385  13.795
17040W        W26733  10.351  19.781   0.733
17041W        W26734  11.776   8.088   1.699
17042W        W26735   7.960   7.110  12.866
17043W        W26736   5.525  13.915   2.179
17044W        W26737   2.663  16.875   4.634
17045W        W26738   0.723  17.822  14.314
17046W        W26739   4.083  14.905   0.770
17047W        W26740   7.937  14.904  13.325
17048W        W26741   2.679   9.030  14.278
17049W        W26742   9.407   0.261   0.730
17050W        W26743   7.958   0.768   1.737
17051W        W26744   8.920   6.591  11.378
17052W        W26745  11.287  15.405   0.740
17053W        W26746   1.683  13.462   1.737
17054W        W26747   6.977   7.590   2.193
17055W        W26748   3.643   3.193  11.419
17056W        W26749   2.684   6.146   4.158
17057W        W26750   5.075   2.233   3.648
17058W        W26751  11.301   8.568  10.887
17059W        W26752   5.537   6.599  12.348
17060W        W26753   4.595  13.940  13.801
17061W        W26754   7.457   8.073  11.411
17062W        W26755   9.402  13.912  13.828
17063W        W26756   9.396   5.161  12.846
17064W        W26757   4.562  12.484   3.146
17065W        W26758  10.364   1.244  14.806
17066W        W26759  10.809  17.321  13.803
17067W        W26760   2.181   7.078   0.771
17068W        W26761   6.025  16.875  12.844
17069W        W26762   6.996   2.232  11.859
17070W        W26763   8.422  18.312  12.383
17071W        W26764   6.024  12.464   4.627
17072W        W26765   9.881   8.575   2.178
17073W        W26766   7.928  19.760   3.629
17074W        W26767   0.720  17.853   4.644
17075W        W26768   6.009   1.221  13.799
17076W        W26769   5.042   4.680  13.309
17077W        W26770   0.762   2.715  11.379
17078W        W26771  10.339   7.111   4.600
17079W        W26772   7.952   8.551   3.186
17080W        W26773  11.316   8.585  13.825
17081W        W26774   9.396   8.055   3.174
17082W        W26775   2.167   3.180  11.861
17083W        W26776  11.298  13.433  12.865
17084W        W26777  11.310   1.250  14.317
17085W        W26778   6.502  12.967   1.225
17086W        W26779   1.207  18.818   1.702
17087W        W26780   1.213  10.003  11.861
17088W        W26781   1.203  10.007  12.377
17089W        W26782   2.664   5.141  14.284
17090W        W26783   4.088   1.725  12.828
17091W        W26784  11.796  18.299  11.389
17092W        W26785  10.818  14.436  10.907
17093W        W26786   1.688  11.507  11.896
17094W        W26787   5.553  18.792   0.268
17095W        W26788   0.281   2.219   1.251
17096W        W26789  10.344  14.432  13.813
17097W        W26790   1.695   3.171   3.147
17098W        W26791   4.568  14.393   2.203
17099W        W26792   5.566   1.236  14.793
17100W        W26793   1.727  19.772  11.868
17101W        W26794   3.614  18.826   2.191
17102W        W26795   3.143  19.303  10.906
17103W        W26796   5.049   7.091   4.122
17104W        W26797  11.326  11.004  13.350
17105W        W26798   6.979   3.213  13.798
17106W        W26799   3.626  12.962  12.829
17107W        W26800  10.351  18.323   2.663
17108W        W26801   1.210  14.908   4.136
17109W        W26802   4.578   6.624   4.157
17110W        W26803   9.877   9.525   3.192
17111W        W26804   0.767   3.172   3.641
17112W        W26805   3.606  18.808  10.926
17113W        W26806   5.045  14.891   1.231
17114W        W26807   5.048   6.120   0.741
17115W        W26808   7.453  19.283  13.837
17116W        W26809   9.369  17.363   2.220
17117W        W26810   5.531  14.407  10.932
17118W        W26811   5.043   0.773   4.126
17119W        W26812   1.711   9.071   0.733
17120W        W26813   8.896  12.972  10.914
17121W        W26814   8.897   6.612  13.341
17122W        W26815   9.362  17.811   2.679
17123W        W26816   9.402  15.898   2.675
17124W        W26817   3.163   9.028  11.377
17125W        W26818   7.446   0.290   1.737
17126W        W26819   5.552   5.159  12.846
17127W        W26820   1.202   1.246   2.188
17128W        W26821   4.124  18.295   2.662
17129W        W26822   1.230   9.046   2.666
17130W        W26823   8.418  12.954  14.289
17131W        W26824  11.791   2.208  13.334
17132W        W26825   4.585  15.865   4.603
17133W        W26826   9.865  18.340   1.737
17134W        W26827   8.886  19.768  13.321
17135W        W26828   6.018   1.730  10.923
17136W        W26829   1.224   8.551   3.148
17137W        W26830  10.840   8.568  14.769
17138W        W26831   4.574  17.835  11.875
17139W        W26832   4.572   2.684   4.125
17140W        W26833   3.159   1.719   0.274
17141W        W26834   3.642   4.640   2.670
17142W        W26835   7.001  10.510  12.842
17143W        W26836  10.822  17.844   1.232
17144W        W26837   9.399   9.519  14.795
17145W        W26838   5.526  19.787   4.613
17146W        W26839   6.972   1.735   3.151
17147W        W26840   6.981  10.488  13.800
17148W        W26841  10.817   0.748   1.725
17149W        W26842   1.724   4.682   3.190
17150W        W26843   4.598  15.866   0.754
17151W        W26844   2.671  10.992   2.686
17152W        W26845  10.330   6.622  11.390
17153W        W26846   1.232  16.345   4.148
17154W        W26847   4.580  17.359   2.671
17155W        W26848   7.473   9.042  14.290
17156W        W26849   5.551   1.223   3.166
17157W        W26850   1.238   7.102   2.695
17158W        W26851   3.640   2.209   2.684
17159W        W26852   5.552  11.974   2.683
17160W        W26853   5.527   2.722  14.806
17161W        W26854   0.728   3.208  11.415
17162W        W26855   2.654   1.243   3.151
17163W        W26856   2.681  15.382   3.183
17164W        W26857  10.359  14.915   3.159
17165W        W26858   7.927  15.892   1.252
17166W        W26859   8.885  17.843  11.379
17167W        W26860  11.797  11.497  11.890
17168W        W26861  10.823   8.086   2.682
17169W        W26862   2.665   1.750  13.798
17170W        W26863   7.938   2.208  12.370
17171W        W26864   2.177  18.314   0.768
17172W        W26865  11.293   6.144   0.770
17173W        W26866   6.964   3.669   2.217
17174W        W26867   8.925   7.562  13.798
17175W        W26868   0.736  15.404   4.157
17176W        W26869   2.652  17.843   1.239
17177W        W26870   3.166  19.766  10.911
17178W        W26871   3.126   1.221  13.830
17179W        W26872   6.973  13.923   1.718
17180W        W26873   6.523  18.337  13.307
17181W        W26874   2.651   9.064   1.722
17182W        W26875   0.728  11.999   0.767
17183W        W26876   1.244  18.313   0.261
17184W        W26877   6.526  11.979  14.305
17185W        W26878   4.565   8.543   3.149
17186W        W26879   8.407   7.121  14.313
17187W        W26880   5.042   5.158  14.759
17188W        W26881   1.219  17.352   3.186
17189W        W26882   4.574  13.440  11.416
17190W        W26883   3.139  10.008   1.697
17191W        W26884  10.808  18.297  11.414
17192W        W26885   4.108   2.234   4.639
17193W        W26886   4.105  11.966  12.861
17194W        W26887   0.765  17.336  12.371
17195W        W26888   6.961   4.149  14.311
17196W        W26889   3.151  13.456   0.270
17197W        W26890  11.775   6.588   1.215
17198W        W26891  11.788  11.499   3.635
17199W        W26892   2.193  10.001   4.619
17200W        W26893   8.438   7.566  11.387
17201W        W26894   5.552  11.005   3.156
17202W        W26895   3.123  15.379  11.868
17203W        W26896  10.339  16.850  14.312
17204W        W26897   6.040   8.070   0.769
17205W        W26898   6.982   9.548   2.703
17206W        W26899   2.673  10.043  12.850
17207W        W26900   4.575  18.822   3.666
17208W        W26901   8.908   0.769  12.351
17209W        W26902   5.080  17.357  14.788
17210W        W26903   1.211  19.779  13.325
17211W        W26904   5.074  12.442   0.765
17212W        W26905   9.847   6.626  12.863
17213W        W26906  10.839  18.320  14.286
17214W        W26907  11.322  10.515   2.667
17215W        W26908   4.092  19.299   0.249
17216W        W26909   7.925   9.067  12.383
17217W        W26910  11.787  11.021   4.641
17218W        W26911   2.194  12.950  14.792
17219W        W26912   2.169  15.382  12.381
17220W        W26913   8.415  12.482  13.319
17221W        W26914   2.171  10.501  12.827
17222W        W26915   0.282  13.426  11.418
17223W        W26916   9.875   5.148  13.311
17224W        W26917   9.845   9.519   3.660
17225W        W26918   7.472   3.693   0.743
17226W        W26919   1.700   9.541   4.152
17227W        W26920  11.778  10.504   0.747
17228W        W26921  10.843  11.010   3.189
17229W        W26922   0.737  11.020   1.700
17230W        W26923  11.795   0.250   1.697
17231W        W26924   5.046   7.113   3.644
17232W        W26925   0.747  16.382   2.203
17233W        W26926  10.808  19.766   3.641
17234W        W26927   2.663  15.898   2.664
17235W        W26928   6.023  15.869  14.785
17236W        W26929   6.511  15.391   0.285
17237W        W26930   9.396   4.163  13.344
17238W        W26931  10.358   6.118   4.121
17239W        W26932   8.417   4.191   3.671
17240W        W26933  11.773   1.710  10.895
17241W        W26934   3.161  17.358   1.253
17242W        W26935  11.806  14.878   0.735
17243W        W26936  11.311   9.544  10.892
17244W        W26937   4.081  19.769   1.216
17245W        W26938   3.129   3.682  14.805
17246W        W26939   4.572  13.460   2.190
17247W        W26940   0.730  10.043   4.628
17248W        W26941  11.302  10.007   1.712
17249W        W26942   6.034  13.446  10.906
17250W        W26943   6.507  11.980   3.631
17251W        W26944   9.849  17.331   0.738
17252W        W26945   8.404   9.052   0.253
17253W        W26946   6.976  19.314   1.735
17254W        W26947   5.550  13.458   4.607
17255W        W26948   0.269   6.122  14.758
17256W        W26949   0.247   9.549  12.384
17257W        W26950   0.720   6.124   4.613
17258W        W26951   3.646   7.094   3.656
17259W        W26952   6.517  13.446  10.896
17260W        W26953   7.934  19.790   1.218
17261W        W26954   4.586  10.026  12.373
17262W        W26955   7.457   5.134   4.156
17263W        W26956   5.042   6.585   0.740
17264W        W26957  10.811   3.194  14.285
17265W        W26958   1.245  17.846   0.768
17266W        W26959   5.076   0.268  11.399
17267W        W26960   0.761  19.305   1.255
17268W        W26961   2.666   9.066  14.762
17269W        W26962   1.705  15.395  13.322
17270W        W26963   6.509   9.026   4.608
17271W        W26964   5.044   9.054  11.879
17272W        W26965   5.070  18.333   1.237
17273W        W26966   8.418  19.776  12.830
17274W        W26967   6.008  15.883   2.680
17275W        W26968   7.952  11.971  13.835
17276W        W26969   7.444   2.695  14.779
17277W        W26970   0.280  14.432   3.650
17278W        W26971   2.181  11.024  11.393
17279W        W26972   9.883  11.996   1.715
17280W        W26973   8.427   9.520  12.827
17281W        W26974   9.852  11.997   0.247
17282W        W26975   1.718   2.228   3.168
17283W        W26976   5.546   6.110  11.865
17284W        W26977   8.913   0.264  12.824
17285W        W26978   8.892  14.397  13.809
17286W        W26979   2.647   3.181  13.350
17287W        W26980   4.579   0.772  14.772
17288W        W26981   9.380  19.281   1.241
17289W        W26982   6.002   7.077  13.817
17290W        W26983   1.229  11.966  12.349
17291W        W26984   2.175   8.050  10.918
17292W        W26985   3.127   4.173  13.823
17293W        W26986   4.592   1.736   4.627
17294W        W26987  11.800   5.162   0.760
17295W        W26988   6.031  13.905  13.324
17296W        W26989   6.511  14.906   1.251
17297W        W26990   8.418  17.846   1.710
17298W        W26991  10.832  12.932  11.390
17299W        W26992   1.242   5.612  12.844
17300W        W26993   6.048   0.245   3.644
17301W        W26994   0.245   4.168   1.232
17302W        W26995  11.287   7.594   4.161
17303W        W26996   5.047   7.600   0.265
17304W        W26997   6.041   6.098   0.737
17305W        W26998   2.161  12.970   1.742
17306W        W26999   3.161   4.640   1.741
17307W        W27000   5.546  15.375  10.926
17308W        W27001   9.374  16.864  11.402
17309W        W27002   9.877  12.965  12.374
17310W        W27003   8.923   7.573   4.160
17311W        W27004   2.166  10.525   4.636
17312W        W27005   8.891  14.395  13.308
17313W        W27006   7.957   1.263  12.384
17314W        W27007   6.011   9.025   0.769
17315W        W27008   3.154  18.339   1.219
17316W        W27009   6.525   2.242   0.243
17317W        W27010   6.046   3.189  10.927
17318W        W27011  11.316   1.719   1.694
17319W        W27012   6.482  18.322  12.823
17320W        W27013   0.280   7.599   1.231
17321W        W27014   8.889   4.192  14.779
17322W        W27015   8.419   0.289  12.365
17323W        W27016   7.959  11.501  13.826
17324W        W27017   5.041   0.259  12.830
17325W        W27018  10.323   5.157  13.814
17326W        W27019  11.293   6.618  13.822
17327W        W27020   8.911  10.020  12.381
17328W        W27021  10.839   9.056   0.258
17329W        W27022  10.816   9.027  14.289
17330W        W27023  11.280   4.195   3.641
17331W        W27024   4.096  19.761  13.315
17332W        W27025   4.085  18.301   0.272
17333W        W27026  11.293  14.425  11.858
17334W        W27027   3.133   9.548   3.171
17335W        W27028   1.720   2.718  14.290
17336W        W27029   7.441  12.449  11.867
17337W        W27030   1.239  18.824   0.764
17338W        W27031   0.750  18.293  12.829
17339W        W27032   8.895   2.687  10.887
17340W        W27033   1.720  17.345  11.886
17341W        W27034  10.839  18.783   4.146
17342W        W27035   8.889  14.920  11.879
17343W        W27036   3.644  18.337  10.917
17344W        W27037   3.607  11.507  14.314
17345W        W27038   5.529  10.511  12.850
17346W        W27039   2.174   7.569   4.639
17347W        W27040   6.511  16.878   4.161
17348W        W27041   4.114   2.725   2.665
17349W        W27042   2.183  13.913  14.806
17350W        W27043   5.068  14.404   0.246
17351W        W27044   8.432  10.048  12.368
17352W        W27045   3.634  11.995  12.827
17353W        W27046   4.104   9.033   1.702
17354W        W27047   7.926  19.303   4.632
17355W        W27048   3.638  12.935   2.202
17356W        W27049   7.443   5.135   4.621
17357W        W27050   5.087  15.877  11.871
17358W        W27051   4.588  10.043   3.664
17359W        W27052   0.759  14.901  14.784
17360W        W27053   7.486  11.474   1.713
17361W        W27054   4.566   4.171   3.148
17362W        W27055   8.916   5.646   3.191
17363W        W27056   3.625   4.663   3.193
17364W        W27057  10.345  18.332  13.330
17365W        W27058   2.656   0.765  13.820
17366W        W27059  10.817   1.751  14.767
17367W        W27060   8.882   1.232  11.377
17368W        W27061   9.886  17.330  12.828
17369W        W27062   6.493  17.358   0.264
17370W        W27063  10.803  13.457  13.829
17371W        W27064   5.561  11.472  10.914
17372W        W27065   4.115   1.727   3.669
17373W        W27066   1.695   8.075   1.717
17374W        W27067  11.308  16.371   3.667
17375W        W27068   3.624  12.462   2.702
17376W        W27069   9.856   3.211   4.607
17377W        W27070   8.401   5.624   0.258
17378W        W27071   6.964  11.469  14.763
17379W        W27072  11.802  15.404   0.251
17380W        W27073   1.222  15.401  13.803
17381W        W27074   1.707  16.361   4.123
17382W        W27075   6.508   9.527   3.147
17383W        W27076   4.086  17.338   3.153
17384W        W27077   6.976  17.826   3.168
17385W        W27078   4.575   0.742   1.709
17386W        W27079   8.890  13.428   3.192
17387W        W27080   1.687  13.451   4.120
17388W        W27081   1.726   1.229  14.309
17389W        W27082   7.473  13.459  11.868
17390W        W27083   2.195  12.480  11.868
17391W        W27084  10.364  10.514  12.366
17392W        W27085   3.603  19.759  14.277
17393W        W27086   8.923  19.307   0.757
17394W        W27087  10.348  16.847   0.267
17395W        W27088   3.148   8.081   2.707
17396W        W27089  10.833  15.885   0.289
17397W        W27090   1.223   8.069   2.688
17398W        W27091   9.370  11.497   2.199
17399W        W27092   1.700  12.473   1.227
17400W        W27093   8.887   0.741  12.834
17401W        W27094   1.711  12.476   2.225
17402W        W27095  11.306   5.635  10.900
17403W        W27096   2.650  16.862   0.739
17404W        W27097   7.470   4.166  12.368
17405W        W27098   5.059  17.815   2.690
17406W        W27099   8.922  11.005   2.218
17407W        W27100   7.451   5.122  12.863
17408W        W27101   2.670  15.895  14.781
17409W        W27102   9.369   9.034  12.830
17410W        W27103  11.775   7.091   3.676
17411W        W27104   3.126  17.357  14.311
17412W        W27105   9.378   0.739   4.615
17413W        W27106   3.136  13.438  11.897
17414W        W27107  11.770  19.313  10.907
17415W        W27108   4.581  11.499  13.333
17416W        W27109   2.660   3.695  13.339
17417W        W27110  11.771   9.034  12.858
17418W        W27111   6.500  18.815  13.322
17419W        W27112   8.433  10.992   1.729
17420W        W27113   2.684   2.706   0.270
17421W        W27114  10.326  17.848  10.888
17422W        W27115   8.400  13.915   3.651
17423W        W27116   6.005  15.862  12.374
17424W        W27117   6.989  11.468   1.238
17425W        W27118  10.323  17.340   2.200
17426W        W27119   1.703   1.751   3.649
17427W        W27120   1.223   0.281  12.850
17428W        W27121   1.693   1.266   3.147
17429W        W27122   5.530   1.263   4.644
17430W        W27123   5.062   9.050   3.159
17431W        W27124   5.551  15.866  10.892
17432W        W27125   1.225  10.048   4.155
17433W        W27126   7.943   0.742   0.746
17434W        W27127  10.350  11.013  10.904
17435W        W27128   4.602  10.008   1.722
17436W        W27129   5.041   1.744   0.250
17437W        W27130   4.104   5.643   3.185
17438W        W27131  11.773   8.088   2.202
17439W        W27132   7.967  15.376  12.870
17440W        W27133   0.765   5.144  14.805
17441W        W27134  10.321  18.804  12.853
17442W        W27135   0.279   4.182  12.843
17443W        W27136  11.789  14.429   3.173
17444W        W27137  11.767   5.628  12.845
17445W        W27138   3.159   7.583   2.664
17446W        W27139   3.640  12.963  13.314
17447W        W27140   3.156  18.813  13.794
17448W        W27141   6.026   0.246   3.171
17449W        W27142   8.437  11.021  14.286
17450W        W27143   5.527  13.424   4.149
17451W        W27144   4.608   3.662   4.131
17452W        W27145   2.188  18.295   4.115
17453W        W27146   8.902   8.544   2.188
17454W        W27147   6.992  12.933  13.792
17455W        W27148   8.897   9.556   1.235
17456W        W27149   3.612  11.468   4.598
17457W        W27150   6.991   0.762   0.740
17458W        W27151   8.889   0.736  13.333
17459W        W27152   4.583  14.392  12.862
17460W        W27153  11.781  17.322  14.298
17461W        W27154   1.708   6.116   4.151
17462W        W27155   4.567  19.291   0.288
17463W        W27156   6.984   7.590   2.698
17464W        W27157  11.791   2.729  10.928
17465W        W27158  10.355   3.665   1.255
17466W        W27159   7.922   0.277   4.123
17467W        W27160   7.953  10.982   3.665
17468W        W27161   1.234   5.647  13.332
17469W        W27162   5.531  17.344  12.836
17470W        W27163   8.916  15.877   3.165
17471W        W27164   0.766  10.016   3.173
17472W        W27165  10.357  14.910   4.151
17473W        W27166   0.284  19.791  12.827
17474W        W27167   4.126  17.821   1.736
17475W        W27168  10.847   9.544   3.641
17476W        W27169   9.388   5.147   4.613
17477W        W27170  11.289   4.191  11.885
17478W        W27171  11.319   0.760  14.278
17479W        W27172  10.814   6.628   3.657
17480W        W27173   9.845  10.009   4.118
17481W        W27174   9.877   2.713  11.411
17482W        W27175  11.776   3.218  10.929
17483W        W27176   5.566  11.468   0.754
17484W        W27177   9.854   8.576  11.868
17485W        W27178   7.935  14.414  11.379
17486W        W27179  11.767   0.285  13.345
17487W        W27180   5.055   0.270   1.708
17488W        W27181   1.229  16.389   1.711
17489W        W27182  10.811  10.989   2.679
17490W        W27183  10.354   0.756  14.789
17491W        W27184  11.310  10.507  12.837
17492W        W27185   2.180   4.668   0.272
17493W        W27186   3.628  18.814   4.119
17494W        W27187  11.322   9.054   0.243
17495W        W27188   1.216  15.873   0.764
17496W        W27189   3.130   1.263  14.312
17497W        W27190   7.466   9.058   2.187
17498W        W27191   0.728   2.709  14.319
17499W        W27192   6.025  13.422  14.778
17500W        W27193   4.586  11.967   3.154
17501W        W27194   3.155   2.726  11.416
17502W        W27195   9.381  13.418  11.403
17503W        W27196   8.899  12.940   4.599
17504W        W27197   7.002   1.240   3.675
17505W        W27198   8.441  14.399   1.711
17506W        W27199   7.941  17.852  13.823
17507W        W27200   5.057   2.684   4.641
17508W        W27201   8.433   9.044  11.373
17509W        W27202   5.557   8.583   3.677
17510W        W27203   3.615  15.868  13.834
17511W        W27204   7.925   2.710   2.188
17512W        W27205   2.199  11.983  12.368
17513W        W27206   3.610   3.681   1.223
17514W        W27207   0.764  11.482   2.213
17515W        W27208   6.040   1.238   2.671
17516W        W27209  10.812   7.091  13.322
17517W        W27210   8.415   8.054  10.934
17518W        W27211   2.678  13.911   1.248
17519W        W27212   4.099  18.829  14.766
17520W        W27213   9.391   6.103  13.839
17521W        W27214   2.201  18.332  14.766
17522W        W27215   3.150  10.005  10.919
17523W        W27216   8.924  15.375  10.933
17524W        W27217   6.037  16.374   0.730
17525W        W27218   2.164  16.836  10.911
17526W        W27219  11.302   4.674  11.891
17527W        W27220   6.023  11.024   0.744
17528W        W27221   2.195  14.430   2.209
17529W        W27222  11.764  19.787  12.362
17530W        W27223   2.650   3.666   2.698
17531W        W27224  10.361  10.019  12.352
17532W        W27225   1.223  17.828   4.158
17533W        W27226   9.392   6.620  13.798
17534W        W27227   1.221   1.243   1.714
17535W        W27228   1.212   2.205  14.287
17536W        W27229   0.739   6.133   2.194
17537W        W27230   1.210  12.928  11.417
17538W        W27231   2.169  13.924   4.142
17539W        W27232   0.248  11.955  14.798
17540W        W27233   0.748  15.887   1.718
17541W        W27234  10.329  16.868  13.346
17542W        W27235   7.937   9.028  13.324
17543W        W27236   1.705  15.371   3.168
17544W        W27237   1.241  12.959   0.757
17545W        W27238   7.451  13.916  10.907
17546W        W27239   9.390   0.759  13.828
17547W        W27240   4.607  18.301  13.338
17548W        W27241   7.928   3.665   1.246
17549W        W27242  10.357   8.088   3.160
17550W        W27243   5.548  16.860  13.334
17551W        W27244   5.065   2.687   3.185
17552W        W27245   0.764  14.897   2.671
17553W        W27246   4.101  19.774  11.858
17554W        W27247   4.084   6.101   3.192
17555W        W27248  11.785  17.327  13.322
17556W        W27249  11.312  14.429   2.672
17557W        W27250  11.792  10.529   1.725
17558W        W27251   0.279  11.989   0.265
17559W        W27252   5.042   8.565   2.182
17560W        W27253  11.798   8.563  14.322
17561W        W27254   8.917  11.984   4.633
17562W        W27255   0.282  19.772   3.148
17563W        W27256   4.605   6.098   2.690
17564W        W27257  10.362   8.096   3.656
17565W        W27258   1.242  13.918   0.750
17566W        W27259   2.192  13.452  13.814
17567W        W27260   6.503   5.159  13.325
17568W        W27261   1.247   8.089   2.194
17569W        W27262   6.484  14.396   2.705
17570W        W27263   4.596   9.052   2.224
17571W        W27264   8.409   0.753   0.267
17572W        W27265   4.083  18.297  12.858
17573W        W27266   6.980  18.787   4.161
17574W        W27267   0.245  19.270   1.234
17575W        W27268   3.123  10.024   4.613
17576W        W27269   9.404  12.477  11.892
17577W        W27270  11.778   3.687   2.186
17578W        W27271  11.764   9.550  11.408
17579W        W27272   3.647   8.547  11.380
17580W        W27273   5.520  10.532   4.610
17581W        W27274   4.580   3.204  14.802
17582W        W27275  10.808   9.061  13.792
17583W        W27276   7.967   6.134   1.705
17584W        W27277   1.224  18.823   4.139
17585W        W27278  11.789   3.704   3.162
17586W        W27279   7.474  15.413  14.774
17587W        W27280   3.159   9.523  13.819
17588W        W27281   3.646  19.757  11.871
17589W        W27282   5.080   4.157   0.772
17590W        W27283   9.860  18.796   0.757
17591W        W27284   1.206  10.034   1.698
17592W        W27285   6.013  16.371  13.838
17593W        W27286   8.886  18.807   0.279
17594W        W27287   3.128   0.253   3.640
17595W        W27288  11.777   1.737   3.669
17596W        W27289   5.079  12.965  12.861
17597W        W27290   6.501   1.725  10.893
17598W        W27291   9.848  15.403  11.880
17599W        W27292   6.511  10.522   1.236
17600W        W27293   8.438  18.829  12.836
17601W        W27294   9.843   2.224   4.153
17602W        W27295   5.562   4.647  12.842
17603W        W27296   5.565   8.065  14.796
17604W        W27297   0.259  14.402  13.805
17605W        W27298   9.887  15.383  13.811
17606W        W27299   1.211  10.047   2.221
17607W        W27300   2.675  13.944   4.147
17608W        W27301   7.967   3.700   3.648
17609W        W27302   9.844  18.793  14.287
17610W        W27303   3.128   5.131  14.287
17611W        W27304   7.446   8.571   1.703
17612W        W27305   1.684   3.681  11.413
17613W        W27306  11.779  14.423  11.875
17614W        W27307   2.684  12.450   1.248
17615W        W27308   3.151   1.223   4.124
17616W        W27309  11.293  17.851  12.851
17617W        W27310   7.926  15.892   4.160
17618W        W27311   2.660  15.367   1.721
17619W        W27312   2.207  14.898   2.697
17620W        W27313   3.122   4.677  11.870
17621W        W27314  11.775  14.434   4.644
17622W        W27315   6.016   6.628   2.683
17623W        W27316   9.843  15.864   2.669
17624W        W27317   1.236   9.026   4.135
17625W        W27318   2.662  17.358  11.875
17626W        W27319   6.493   2.729   4.143
17627W        W27320   5.058   9.073  13.353
17628W        W27321   8.887  13.926   1.239
17629W        W27322   1.725   8.050  14.296
17630W        W27323   9.387   6.588  14.758
17631W        W27324   7.487  19.780  12.836
17632W        W27325   8.891   1.721   3.161
17633W        W27326  11.789   8.562   0.728
17634W        W27327   3.627  18.300   0.279
17635W        W27328   6.497   4.147   0.282
17636W        W27329   8.421  15.899   2.210
17637W        W27330   7.963  17.828  11.887
17638W        W27331   7.445  15.901  13.794
17639W        W27332   7.448   9.533   4.146
17640W        W27333   9.879  19.792   0.742
17641W        W27334  10.326   4.152   4.150
17642W        W27335   4.112   0.744  13.307
17643W        W27336   5.521   2.241   2.702
17644W        W27337   3.619   6.137  11.902
17645W        W27338   8.891   7.077   2.204
17646W        W27339  10.825  18.796   3.674
17647W        W27340   7.957  18.329  12.829
17648W        W27341   1.711   4.184  14.784
17649W        W27342   1.244  16.843   2.668
17650W        W27343   6.043   5.128   3.147
17651W        W27344   1.245  10.018  12.848
17652W        W27345   7.960  17.819   4.153
17653W        W27346   5.058  13.427   4.602
17654W        W27347   8.421  12.937  11.868
17655W        W27348   3.632   9.513  11.392
17656W        W27349   6.508  10.530   0.756
17657W        W27350   6.968  17.805   3.647
17658W        W27351   5.049  12.928  14.313
17659W        W27352   1.721  14.426   1.239
17660W        W27353   5.520  15.889   2.184
17661W        W27354   5.051  10.010  11.870
17662W        W27355   3.603   8.537   4.152
17663W        W27356   1.712   7.594  13.812
17664W        W27357   4.600   8.580   4.610
17665W        W27358   4.578   7.095   0.285
17666W        W27359   1.690  18.339  11.898
17667W        W27360  11.760  11.968   1.242
17668W        W27361   3.608   4.638   2.215
17669W        W27362  11.804   7.109   0.730
17670W        W27363   0.284  13.949   1.741
17671W        W27364   8.890   7.105  13.335
17672W        W27365   8.906  11.970  14.282
17673W        W27366   0.762  17.334  11.898
17674W        W27367  11.312   7.609   3.667
17675W        W27368  10.845  18.298  11.869
17676W        W27369   2.682  12.949  11.867
17677W        W27370   7.484   2.215  10.895
17678W        W27371  10.337   9.523  13.801
17679W        W27372   8.905  15.898   2.184
17680W        W27373   8.900  17.831   3.192
17681W        W27374   6.971  19.797   3.676
17682W        W27375   6.973   6.142   2.686
17683W        W27376   7.966  16.379  10.928
17684W        W27377  11.768  15.376  13.813
17685W        W27378   9.375  12.974   3.632
17686W        W27379   8.407   6.610   4.644
17687W        W27380   0.254  13.421   2.665
17688W        W27381   3.126  16.875  13.354
17689W        W27382   6.993  15.379   1.742
17690W        W27383   8.412   0.291   2.205
17691W        W27384   9.364   9.531  10.893
17692W        W27385   1.234   4.671  13.830
17693W        W27386   3.639   1.709   2.185
17694W        W27387   3.612  19.788   1.243
17695W        W27388   8.424  15.873  10.917
17696W        W27389   9.363  15.409   1.720
17697W        W27390   7.463   4.164   3.673
17698W        W27391   7.447   4.657   1.241
17699W        W27392   3.614   1.750   1.222
17700W        W27393   6.986   3.189  13.319
17701W        W27394   2.168   4.640  12.347
17702W        W27395   2.642  16.875   1.712
17703W        W27396   7.945   5.163  13.307
17704W        W27397   6.506  11.006  14.309
17705W        W27398   9.883   0.767   0.731
17706W        W27399   0.727   9.559  14.310
17707W        W27400   5.529  16.853   1.224
17708W        W27401   6.481  15.369  10.903
17709W        W27402   7.002   8.543  13.316
17710W        W27403   4.083  16.836   1.250
17711W        W27404   7.965  14.402  13.345
17712W        W27405  10.826   0.272   4.636
17713W        W27406   8.922  17.342  14.780
17714W        W27407   2.186  15.406   1.218
17715W        W27408   6.979  17.342   3.186
17716W        W27409   6.998  18.320   3.177
17717W        W27410   0.256   1.730  11.860
17718W        W27411   1.236  10.004  13.314
17719W        W27412  11.790   5.630   3.190
17720W        W27413   0.263   2.208  14.772
17721W        W27414   0.252  17.323   3.147
17722W        W27415   0.259   0.764  14.303
17723W        W27416   4.573   6.125  11.404
17724W        W27417   8.415  19.791   1.696
17725W        W27418   7.486   8.075  13.799
17726W        W27419   7.476  15.863   1.219
17727W        W27420   5.565   2.715   4.602
17728W        W27421  11.295   2.696  11.900
17729W        W27422  11.324   3.209  11.861
17730W        W27423   6.033   6.605   3.643
17731W        W27424   6.979   7.118   4.159
17732W        W27425   9.401  13.454  10.935
17733W        W27426   2.678   9.067   2.207
17734W        W27427  10.811   8.093   0.272
17735W        W27428   4.092   3.688   4.122
17736W        W27429   3.647   4.153   2.198
17737W        W27430   2.658  18.826   0.750
17738W        W27431   6.481  13.419   0.264
17739W        W27432   9.845   3.183   3.170
17740W        W27433   6.969  12.960   0.762
17741W        W27434   8.413  12.941  13.795
17742W        W27435   5.087   2.713   0.276
17743W        W27436   3.610  15.902   4.645
17744W        W27437   1.703   5.169   1.257
17745W        W27438   2.667  12.950  14.803
17746W        W27439   0.750   7.105   2.213
17747W        W27440   4.096  11.474  13.812
17748W        W27441   4.580  19.763  11.373
17749W        W27442   3.614  16.358   3.152
17750W        W27443   2.644  11.954  14.279
17751W        W27444  10.831  11.474   3.634
17752W        W27445   1.720   7.569  12.853
17753W        W27446   9.400  16.359   2.699
17754W        W27447   2.207   0.254  14.305
17755W        W27448   9.386   3.688  13.320
17756W        W27449   2.644   5.155  11.418
17757W        W27450   1.720   9.515   3.632
17758W        W27451   0.736   3.669  11.379
17759W        W27452   3.601   8.558  14.302
17760W        W27453   2.162   9.071   0.267
17761W        W27454  10.817  10.999  11.886
17762W        W27455   2.681   8.068   1.239
17763W        W27456   8.927  12.485   3.658
17764W        W27457   1.215  13.920   3.164
17765W        W27458   1.683   8.063   1.242
17766W        W27459  10.837   4.677   2.666
17767W        W27460  10.335   7.094   0.251
17768W        W27461   7.486  17.852   2.690
17769W        W27462   6.030  10.019   0.762
17770W        W27463   6.960  11.497   2.674
17771W        W27464   3.636  10.519  13.309
17772W        W27465   5.070   7.595  14.769
17773W        W27466   7.946   9.056  11.867
17774W        W27467   3.628  11.480   0.757
17775W        W27468  10.808   0.277   1.700
17776W        W27469   7.477  14.893  12.374
17777W        W27470   8.425   5.628   0.771
17778W        W27471  10.808   8.566  11.873
17779W        W27472   9.376  12.947   1.699
17780W        W27473   5.078   1.263   4.599
17781W        W27474   8.916   9.055   2.699
17782W        W27475   6.018  14.888   2.188
17783W        W27476   3.632  19.766   1.728
17784W        W27477   5.537  13.947  12.366
17785W        W27478  10.841   7.112  13.790
17786W        W27479   6.019  13.939   0.762
17787W        W27480   0.763  17.818   3.149
17788W        W27481   5.544  10.497   3.179
17789W        W27482   3.601  19.804   0.276
17790W        W27483   4.599   4.651   0.770
17791W        W27484  11.807   2.196   1.249
17792W        W27485   2.653   8.572   2.675
17793W        W27486   3.643  18.317  12.362
17794W        W27487   6.524   3.682   2.222
17795W        W27488   4.595   9.072  14.310
17796W        W27489   1.216   5.626   4.159
17797W        W27490  10.353  14.405   4.120
17798W        W27491   1.219  19.290   1.244
17799W        W27492   5.069  12.946   3.634
17800W        W27493   7.944  13.451   2.213
17801W        W27494   6.961   6.600   3.162
17802W        W27495  11.285   4.189   1.236
17803W        W27496  10.343  16.851   0.743
17804W        W27497   1.238  15.885   4.122
17805W        W27498   1.241   7.589   1.700
17806W        W27499   3.121  13.439  14.286
17807W        W27500   7.444   8.580   0.759
17808W        W27501   5.041   7.120   1.699
17809W        W27502   1.200  13.942   1.728
17810W        W27503   5.530  15.385  14.782
17811W        W27504   4.124   5.165  12.828
17812W        W27505   7.924   8.053   3.170
17813W        W27506   5.056  18.795  14.304
17814W        W27507   0.277  17.344  11.416
17815W        W27508  10.801  19.313   1.711
17816W        W27509   7.958  10.989  14.285
17817W        W27510   7.468   4.650   1.741
17818W        W27511   4.092   6.586  10.908
17819W        W27512   4.563  11.477   0.738
17820W        W27513   5.077   7.570  11.892
17821W        W27514   7.927  11.966  12.831
17822W        W27515   3.607   1.751  14.303
17823W        W27516  11.795  12.462  13.797
17824W        W27517   3.146   0.282  11.387
17825W        W27518   4.572   7.592  12.349
17826W        W27519  10.346  12.942  13.825
17827W        W27520   9.403  10.496  11.401
17828W        W27521   0.725  17.842  11.403
17829W        W27522   5.085   1.741  12.834
17830W        W27523   2.173   5.149  10.930
17831W        W27524   6.501  11.999  13.793
17832W        W27525  11.784  19.286  14.762
17833W        W27526   5.048  13.939   1.709
17834W        W27527   3.122   6.596   4.155
17835W        W27528   7.963   0.270   1.733
17836W        W27529  10.363   2.224   2.705
17837W        W27530   1.209  19.778  14.778
17838W        W27531   8.885   9.553  11.399
17839W        W27532   0.768   7.596  12.842
17840W        W27533  11.791  19.316  12.867
17841W        W27534  10.816   4.652   0.774
17842W        W27535  11.315   5.652   1.716
17843W        W27536   4.596  19.281   1.226
17844W        W27537   2.168  14.427   1.237
17845W        W27538   8.880   7.583   2.218
17846W        W27539  11.805  18.829  13.355
17847W        W27540   8.434   1.752  12.348
17848W        W27541   3.646  13.931  11.893
17849W        W27542   3.154   0.752   1.211
17850W        W27543  11.315   0.741   0.761
17851W        W27544  11.778  19.307  12.345
17852W        W27545   6.524   4.654   1.245
17853W        W27546  11.785  11.968  11.384
17854W        W27547   6.527  17.839  11.865
17855W        W27548  11.769   3.684  14.772
17856W        W27549   8.909   3.682  12.350
17857W        W27550   6.994   0.280   0.729
17858W        W27551   2.678  11.999  13.809
17859W        W27552   2.663  12.481  14.319
17860W        W27553   3.154   9.069   2.705
17861W        W27554  10.837  12.487  11.400
17862W        W27555  11.793   0.740  13.349
17863W        W27556   6.995  11.479  12.349
17864W        W27557  11.767   1.743   0.755
17865W        W27558   8.883   5.152   1.717
17866W        W27559   8.413   6.121   4.139
17867W        W27560  11.807   1.225   3.193
17868W        W27561   8.415   3.667  11.399
17869W        W27562   2.188  11.000  13.829
17870W        W27563   4.081   1.260   3.172
17871W        W27564   7.955   3.689   4.123
17872W        W27565   7.483  19.312  11.891
17873W        W27566   1.713   8.077   2.222
17874W        W27567   4.121  10.034  11.894
17875W        W27568   8.924  10.041   3.655
17876W        W27569   4.125   8.578  11.888
17877W        W27570  10.826  13.930   0.280
17878W        W27571   9.360   5.132  11.901
17879W        W27572   8.884  11.463   3.169
17880W        W27573   5.536   9.542   4.151
17881W        W27574  11.775   3.179  11.384
17882W        W27575   8.406   9.025   2.198
17883W        W27576   8.445  13.918  10.899
17884W        W27577   9.887   2.222  11.898
17885W        W27578  11.766   7.577   1.700
17886W        W27579   7.482   0.746  12.365
17887W        W27580   7.967   2.684  14.290
17888W        W27581   2.649   6.608   2.215
17889W        W27582   6.495   2.237   3.155
17890W        W27583   4.589   5.633  12.857
17891W        W27584   5.561   3.201  12.823
17892W        W27585   1.236  16.362  14.304
17893W        W27586   7.482  19.279  14.305
17894W        W27587  11.789  19.791  10.913
17895W        W27588   5.066  14.432  11.398
17896W        W27589   7.001  16.830  13.808
17897W        W27590   1.686   6.105  14.280
17898W        W27591   3.140   9.057   1.717
17899W        W27592   0.250   8.076   4.623
17900W        W27593   8.911   4.147  12.829
17901W        W27594   0.751  12.487   3.667
17902W        W27595   9.398  17.837   0.729
17903W        W27596   6.011   9.533  12.856
17904W        W27597   9.857  14.409   0.737
17905W        W27598   7.948   7.564  11.404
17906W        W27599  10.843  17.821   3.192
17907W        W27600   3.602  14.402   3.676
17908W        W27601   1.233  17.815  14.285
17909W        W27602  11.284  13.926   0.741
17910W        W27603   5.554   6.594   4.644
17911W        W27604   7.453  13.417   2.700
17912W        W27605   6.490  19.274   1.220
17913W        W27606  11.770   9.025  14.286
17914W        W27607   2.201   3.185   4.118
17915W        W27608   0.285  16.861  12.350
17916W        W27609   6.502  12.957  10.925
17917W        W27610   1.238  17.836  13.318
17918W        W27611   4.584  16.379  12.853
17919W        W27612   8.440   0.760   1.226
17920W        W27613   5.042   4.666   2.700
17921W        W27614   9.367  14.435  11.878
17922W        W27615   8.892   9.061  13.331
17923W        W27616   2.202   6.603   1.741
17924W        W27617   4.100  19.793   0.251
17925W        W27618   6.519   9.071  12.831
17926W        W27619  10.333   9.033  12.344
17927W        W27620   1.702  14.919   2.187
17928W        W27621   2.676  10.506  11.389
17929W        W27622   6.517  15.883  13.343
17930W        W27623   6.995  15.900   0.267
17931W        W27624  10.843  18.813   0.737
17932W        W27625   1.694  11.464  14.786
17933W        W27626   1.212  12.471  13.331
17934W        W27627   7.953   7.094   4.118
17935W        W27628   9.399   9.070   0.248
17936W        W27629   6.028   3.687  11.381
17937W        W27630   5.084  11.512   2.220
17938W        W27631   7.965   5.145  13.801
17939W        W27632  11.764  15.889   1.704
17940W        W27633   8.907  17.852  10.934
17941W        W27634   2.665  13.926  12.840
17942W        W27635   6.962  15.854  11.398
17943W        W27636   2.647  13.944   0.267
17944W        W27637   4.101  15.382   3.157
17945W        W27638  11.296  15.901  13.828
17946W        W27639  10.365  14.395   1.701
17947W        W27640   5.041   3.694   4.117
17948W        W27641  11.304  17.817   0.726
17949W        W27642   4.085   6.586   2.189
17950W        W27643   9.391  12.957   1.242
17951W        W27644   4.105  15.870   2.666
17952W        W27645   8.405   1.261  11.902
17953W        W27646   7.967   5.625  11.372
17954W        W27647   9.880  16.830  12.355
17955W        W27648  11.288   3.697   1.695
17956W        W27649   8.429  16.876   3.158
17957W        W27650   6.011   7.591  14.761
17958W        W27651   0.245  12.962   3.193
17959W        W27652   3.155  14.914  14.783
17960W        W27653   7.475  14.421   1.727
17961W        W27654   0.756  19.303  12.840
17962W        W27655   2.675  17.345  12.825
17963W        W27656  10.811  11.473  13.792
17964W        W27657   4.124  14.394  11.867
17965W        W27658   4.121  17.835  10.904
17966W        W27659   5.079   3.677  10.931
17967W        W27660   5.086  19.297  10.909
17968W        W27661  11.300  11.008  10.900
17969W        W27662   7.950  12.932   1.249
17970W        W27663   0.740  12.957   4.598
17971W        W27664   7.935   2.683  11.387
17972W        W27665   3.161   5.623   4.603
17973W        W27666   8.895   0.267  13.316
17974W        W27667   2.176   1.244  11.863
17975W        W27668   5.044  19.287  14.799
17976W        W27669   9.861  19.785   1.725
17977W        W27670   3.129  13.434  13.348
17978W        W27671  11.299  18.793  11.886
17979W        W27672   2.178   0.737  13.805
17980W        W27673   6.001  11.502  14.301
17981W        W27674   8.418  14.916  14.284
17982W        W27675   7.936   9.045   0.770
17983W        W27676   5.557   5.639   4.610
17984W        W27677   6.492  17.340  14.278
17985W        W27678   6.012   8.073  11.376
17986W        W27679   7.450  11.003  13.827
17987W        W27680   4.568  16.355   1.731
17988W        W27681  10.827  19.784  12.368
17989W        W27682  11.289  14.425   3.162
17990W        W27683   1.695   4.171   3.181
17991W        W27684  11.786   3.217   4.142
17992W        W27685   4.082   4.148  11.876
17993W        W27686   0.278  10.524   0.748
17994W        W27687   5.041  13.437  12.350
17995W        W27688   9.382  17.364  12.382
17996W        W27689   1.700   9.061  14.309
17997W        W27690   3.131  14.885   3.665
17998W        W27691   0.730   9.541   2.687
17999W        W27692   8.437   1.709   2.668
18000W        W27693   5.552  17.329   2.661
18001W        W27694   2.163   5.642  12.367
18002W        W27695   3.125   8.552  10.929
18003W        W27696   2.671  10.524   3.638
18004W        W27697   6.977  12.445   4.140
18005W        W27698   1.233  17.836  14.800
18006W        W27699  10.339  13.949  11.856
18007W        W27700   9.880  17.321   2.181
18008W        W27701   6.510  15.373  14.797
18009W        W27702  10.821   6.596  12.374
18010W        W27703   4.598  19.773  14.803
18011W        W27704   7.951  19.314   4.130
18012W        W27705   5.047  19.300   1.252
18013W        W27706   8.446   9.064  14.316
18014W        W27707   6.521  17.852   4.636
18015W        W27708   9.362  15.397  11.886
18016W        W27709   6.994   9.560   0.772
18017W        W27710   4.592  11.503   2.693
18018W        W27711   6.036   2.234   1.252
18019W        W27712   8.889   7.085  14.762
18020W        W27713   9.389  14.396   2.684
18021W        W27714   1.726   3.210   2.701
18022W        W27715   9.849  10.527   4.141
18023W        W27716   1.706   7.565  13.313
18024W        W27717   5.063   2.685   4.143
18025W        W27718   0.276   9.063   4.645
18026W        W27719  10.807  19.765  13.314
18027W        W27720   4.109  10.503   4.607
18028W        W27721   8.888  12.450   2.667
18029W        W27722   2.677   9.521   3.635
18030W        W27723   9.872  14.409  14.277
18031W        W27724   5.536  16.353   4.639
18032W        W27725   5.050   8.088  11.892
18033W        W27726   8.404   3.689  10.894
18034W        W27727   1.237   6.136  13.801
18035W        W27728   9.392   2.710   1.724
18036W        W27729   0.753   1.753  12.363
18037W        W27730   7.458  10.977  13.353
18038W        W27731   6.963   7.114   1.228
18039W        W27732   3.122  19.791  14.771
18040W        W27733   6.967  12.453   1.702
18041W        W27734   9.373   6.105  13.310
18042W        W27735   6.013  16.877  13.343
18043W        W27736   2.184  11.014   3.160
18044W        W27737   8.438  17.322  13.806
18045W        W27738   4.565  12.486  14.768
18046W        W27739  10.838   8.537  13.838
18047W        W27740   0.243  13.420   0.268
18048W        W27741   5.082   6.589  13.803
18049W        W27742  10.364  11.980   1.223
18050W        W27743   9.366  17.808  14.295
18051W        W27744   9.885  19.761   2.192
18052W        W27745   5.057   4.678  11.856
18053W        W27746   8.441   8.555  12.371
18054W        W27747   4.579   6.116   1.738
18055W        W27748   7.473   8.548  14.317
18056W        W27749   7.467  11.953  11.857
18057W        W27750   3.123  14.398  11.878
18058W        W27751   2.197   0.746   2.183
18059W        W27752   4.592   3.685   3.641
18060W        W27753   4.127  14.421   3.667
18061W        W27754   1.224  14.892  12.370
18062W        W27755  11.787   6.601   3.156
18063W        W27756   5.062   6.133  12.852
18064W        W27757   7.954  18.318   1.235
18065W        W27758   0.273  13.450  12.385
18066W        W27759   2.197   1.721   4.115
18067W        W27760   1.244   2.721   4.607
18068W        W27761   6.990   1.724  12.362
18069W        W27762   1.244  13.422  12.866
18070W        W27763  10.809   1.234   0.749
18071W        W27764   7.462  17.345   4.642
18072W        W27765   3.134  10.488  13.835
18073W        W27766  11.787  10.024  14.320
18074W        W27767   5.560   4.168  13.833
18075W        W27768   8.422  14.439   0.249
18076W        W27769   9.371   5.625  14.300
18077W        W27770   1.242  17.342   0.264
18078W        W27771   9.406  14.913  11.868
18079W        W27772   8.918  19.273   4.124
18080W        W27773   0.260   6.593  14.308
18081W        W27774   2.685   9.543  12.857
18082W        W27775   7.002   2.207   0.281
18083W        W27776   2.680  19.272   2.205
18084W        W27777   5.544  11.991  13.312
18085W        W27778  10.820   6.099  14.769
18086W        W27779   5.076  19.782   1.218
18087W        W27780   7.465  15.888   0.752
18088W        W27781   9.860   8.565   3.670
18089W        W27782   7.000   7.570  14.308
18090W        W27783  10.823  19.791   0.748
18091W        W27784   8.882   9.039   1.215
18092W        W27785   4.091   5.147   1.725
18093W        W27786   9.368   0.737   0.265
18094W        W27787   2.646  17.335   1.710
18095W        W27788   8.426  19.805  11.880
18096W        W27789   3.633   1.260  13.326
18097W        W27790   6.999   4.670  14.779
18098W        W27791   1.709   8.582  12.351
18099W        W27792   6.501  19.308   2.674
18100W        W27793   6.496   5.167  14.784
18101W        W27794   3.611   2.205  13.314
18102W        W27795   1.700   9.058   3.187
18103W        W27796   0.734  10.991  11.860
18104W        W27797  10.808   9.029  11.389
18105W        W27798   6.512   9.556  14.284
18106W        W27799  11.298   9.553  12.860
18107W        W27800   8.915   3.680   1.704
18108W        W27801   3.631  10.047   4.643
18109W        W27802  10.840   8.549  14.278
18110W        W27803   0.723   0.755  13.823
18111W        W27804  11.780  10.525  13.826
18112W        W27805   5.548   4.669   4.129
18113W        W27806   5.046  14.421  14.295
18114W        W27807   2.645   3.191   2.194
18115W        W27808   6.015  19.803  12.351
18116W        W27809   3.628  17.317  12.832
18117W        W27810   9.866   3.187  14.313
18118W        W27811   3.644  10.040   3.656
18119W        W27812   6.497  12.951   0.275
18120W        W27813   7.933  13.936   3.644
18121W        W27814   2.679   3.177   1.725
18122W        W27815   8.923  10.977   0.271
18123W        W27816   5.078  10.526  12.860
18124W        W27817   3.142   3.664  13.342
18125W        W27818   0.245   0.245  13.353
18126W        W27819   0.731  19.293  14.303
18127W        W27820   2.662   6.609  14.761
18128W        W27821   6.527  11.987  12.843
18129W        W27822   0.757   8.537   2.671
18130W        W27823   6.008  12.961   3.156
18131W        W27824  11.799  11.493  10.905
18132W        W27825  10.810  17.328   1.735
18133W        W27826   3.647  11.006  11.401
18134W        W27827   8.401  11.510   3.665
18135W        W27828   5.555   7.081  14.792
18136W        W27829   4.586   4.183  11.418
18137W        W27830   2.177  14.898   0.275
18138W        W27831   7.472   2.234   1.722
18139W        W27832   3.145   3.201   3.177
18140W        W27833   4.107  19.767   3.656
18141W        W27834   0.749  19.287  13.353
18142W        W27835   1.219   8.053  12.851
18143W        W27836   7.938   0.272   4.598
18144W        W27837   2.670  11.483  12.359
18145W        W27838  11.321  16.372   2.179
18146W        W27839  10.800  11.481   0.737
18147W        W27840   2.169   9.540  10.904
18148W        W27841  10.352   1.718  12.380
18149W        W27842   3.136   3.215  11.418
18150W        W27843   1.202  11.015   2.197
18151W        W27844  11.807   0.245  13.820
18152W        W27845  11.326  14.889   3.163
18153W        W27846   6.996  19.773  12.831
18154W        W27847   6.999  14.915  12.347
18155W        W27848   9.384   4.637  14.768
18156W        W27849   0.730  10.015  12.828
18157W        W27850   3.612  18.327   1.701
18158W        W27851   7.444   4.155   4.161
18159W        W27852   1.722  18.312   3.187
18160W        W27853   9.884  13.951   4.642
18161W        W27854   7.933   1.711  12.369
18162W        W27855  10.839  15.405  11.394
18163W        W27856   9.883  13.932  13.836
18164W        W27857   8.898  16.342   2.663
18165W        W27858   9.396   4.181  14.806
18166W        W27859  10.821   3.671  10.895
18167W        W27860  10.818   6.101  14.302
18168W        W27861   4.566   5.168  12.847
18169W        W27862   4.127  19.302  11.861
18170W        W27863  10.360   3.187  13.797
18171W        W27864  11.305   6.106  13.808
18172W        W27865   6.492  13.948  13.316
18173W        W27866   7.958   7.083   1.226
18174W        W27867   8.410   8.070  12.866
18175W        W27868   2.192  12.974  14.286
18176W        W27869   3.153  13.447   2.681
18177W        W27870  11.776   0.780   3.151
18178W        W27871   8.439  14.435  12.831
18179W        W27872   7.939   7.084   1.708
18180W        W27873   9.886  15.404  12.340
18181W        W27874  11.807   8.546   1.216
18182W        W27875  11.761  19.788  14.320
18183W        W27876  11.778   1.739   2.698
18184W        W27877   7.474   1.748  10.931
18185W        W27878  11.787  17.341   4.150
18186W        W27879   0.279  15.411  11.416
18187W        W27880  11.283   2.227   1.211
18188W        W27881  11.795  10.017  11.880
18189W        W27882   3.624  11.981  14.792
18190W        W27883   3.609   8.560  12.375
18191W        W27884   6.527  18.339  13.826
18192W        W27885   7.940  17.333   1.727
18193W        W27886   9.373   4.161  12.377
18194W        W27887  11.794   3.218   2.195
18195W        W27888   3.625  17.350   3.641
18196W        W27889   6.042  11.019   4.634
18197W        W27890   4.567  14.421   0.767
18198W        W27891   6.515  13.419   1.237
18199W        W27892   4.081  18.330   1.212
18200W        W27893   7.443  19.273   4.160
18201W        W27894  10.349   8.063   1.240
18202W        W27895   8.405   1.741  13.341
18203W        W27896   4.124  16.875   1.719
18204W        W27897   7.471  17.813   0.766
18205W        W27898   0.752  16.833   2.215
18206W        W27899   5.062   2.714   2.667
18207W        W27900   0.242   5.122   0.260
18208W        W27901   4.568  19.306  14.778
18209W        W27902   0.252  19.801  12.361
18210W        W27903   6.972   5.651   2.706
18211W        W27904   3.135   0.734  13.346
18212W        W27905  11.806   4.641   3.648
18213W        W27906   0.724  14.424  13.794
18214W        W27907   6.523   3.208  11.371
18215W        W27908   3.123   9.526   2.182
18216W        W27909   7.442  12.475  12.341
18217W        W27910   8.908   3.189   4.120
18218W        W27911   3.617   8.053   1.223
18219W        W27912   0.749  18.814   1.711
18220W        W27913   3.162  13.442   1.694
18221W        W27914   1.233   6.614  10.924
18222W        W27915  11.786   1.266  13.339
18223W        W27916   6.028  16.859   2.200
18224W        W27917   2.174   5.165  11.860
18225W        W27918   6.041  14.402  11.879
18226W        W27919  10.358   7.601   2.194
18227W        W27920   0.728   7.564   3.170
18228W        W27921   8.908  19.787   4.624
18229W        W27922   6.996  16.850   3.657
18230W        W27923   2.170   9.549   1.704
18231W        W27924   4.595   3.193  11.386
18232W        W27925  11.298  19.292  12.832
18233W        W27926   2.207  14.417   3.650
18234W        W27927   5.523  17.815  12.824
18235W        W27928   7.959   3.200  11.865
18236W        W27929   9.389  18.333  13.811
18237W        W27930   6.043  11.470   4.143
18238W        W27931  11.778   2.243  13.802
18239W        W27932   2.686  19.274  12.341
18240W        W27933   6.983   6.594  12.382
18241W        W27934   5.536   8.074   4.126
18242W        W27935   6.972   1.227  14.771
18243W        W27936   5.525   9.068  12.869
18244W        W27937  10.329  16.861   3.631
18245W        W27938   3.602   8.052  12.370
18246W        W27939   4.111   0.250  13.837
18247W        W27940   6.981  16.377   0.753
18248W        W27941   8.885  16.844   3.154
18249W        W27942   7.921  13.943  11.393
18250W        W27943   6.481   4.675  14.315
18251W        W27944  10.812  14.415  14.804
18252W        W27945   7.929  16.874   4.150
18253W        W27946  10.816   2.686  12.386
18254W        W27947   9.408  10.497   2.677
18255W        W27948   1.685  13.434  13.320
18256W        W27949   2.204  10.992  12.855
18257W        W27950   8.428  11.012  14.797
18258W        W27951   0.740   9.524   1.251
18259W        W27952   1.206  17.842  11.401
18260W        W27953   7.954  15.407  12.372
18261W        W27954   8.411   0.758   4.143
18262W        W27955   1.686   2.205  14.311
18263W        W27956   7.475   0.745  11.419
18264W        W27957   0.732  15.393  11.381
18265W        W27958   7.945   4.659   1.729
18266W        W27959   9.850   1.236  11.865
18267W        W27960  11.328   5.147  14.762
18268W        W27961   3.638   4.165   4.139
18269W        W27962   9.375  16.849  10.926
18270W        W27963   5.078   6.100   0.280
18271W        W27964  11.293   6.129   2.183
18272W        W27965  10.825  15.868   4.613
18273W        W27966   0.264   1.751  14.781
18274W        W27967   6.483   3.670   0.246
18275W        W27968  11.314  12.953   1.715
18276W        W27969   5.561   2.215  13.792
18277W        W27970   9.397  17.826  13.313
18278W        W27971   2.679   2.227   0.751
18279W        W27972   4.100   2.240  14.291
18280W        W27973   3.131   0.284   4.611
18281W        W27974   3.602   0.747  12.344
18282W        W27975   0.262   9.533   0.278
18283W        W27976   4.571   3.198   1.257
18284W        W27977  10.815  12.941  10.919
18285W        W27978   7.957  16.855  14.282
18286W        W27979   4.097  18.808   3.149
18287W        W27980   6.015  14.403  12.369
18288W        W27981   7.472   2.199   2.687
18289W        W27982   6.974  16.835  10.897
18290W        W27983   3.620  16.863   2.677
18291W        W27984   1.237   6.595   3.646
18292W        W27985   8.901  19.271   3.163
18293W        W27986   4.116  15.873   2.180
18294W        W27987   5.086   5.610  10.898
18295W        W27988   9.855  13.440  12.837
18296W        W27989  11.769  17.337   0.248
18297W        W27990   0.765   6.601   4.136
18298W        W27991   2.657  11.503  11.405
18299W        W27992   2.193  11.977   2.187
18300W        W27993   7.486  15.376  12.350
18301W        W27994  11.766  13.453   2.196
18302W        W27995   5.545  19.782  14.279
18303W        W27996   6.488   7.606   4.141
18304W        W27997   0.745  15.876  13.811
18305W        W27998   3.121  11.988   3.151
18306W        W27999   6.484   5.623  13.320
18307W        W28000   9.864  17.825   1.253
18308W        W28001   8.425   3.196  11.410
18309W        W28002  11.304  19.786   2.691
18310W        W28003  11.305  18.791   4.126
18311W        W28004   7.452  12.958   3.650
18312W        W28005   5.544   6.598  14.769
18313W        W28006   4.579   6.597  12.350
18314W        W28007  11.771   8.093   1.243
18315W        W28008   4.101  12.461   4.161
18316W        W28009   7.459  17.812   4.622
18317W        W28010   6.483   7.605   2.200
18318W        W28011   9.881  16.348   4.614
18319W        W28012   0.272  17.844  11.892
18320W        W28013   1.210  19.770  12.375
18321W        W28014   6.999   0.261  14.305
18322W        W28015   6.993   4.178   0.736
18323W        W28016   5.065   0.747   1.698
18324W        W28017   0.726  13.933  12.861
18325W        W28018   6.023   6.140  12.386
18326W        W28019   6.973  15.857   0.746
18327W        W28020   9.847  13.906   1.708
18328W        W28021   7.445  16.343  13.343
18329W        W28022   8.917  15.382  11.378
18330W        W28023   4.100   1.738  12.376
18331W        W28024  11.797  19.783   0.729
18332W        W28025   2.168  13.905  11.374
18333W        W28026  11.298   7.581  11.386
18334W        W28027   2.670   7.092   4.625
18335W        W28028  10.343   7.565   3.660
18336W        W28029   9.408  18.320  12.358
18337W        W28030   7.470   5.636   3.631
18338W        W28031   1.245  17.833   4.632
18339W        W28032   3.140  16.375  12.865
18340W        W28033   5.067   8.542   3.192
18341W        W28034   4.574   1.727   3.184
18342W        W28035   7.952   4.646  14.805
18343W        W28036  11.281   5.147  13.796
18344W        W28037   5.041  11.993   0.731
18345W        W28038   5.077  10.508  14.275
18346W        W28039  11.806   0.760   0.731
18347W        W28040   6.987   5.156   2.690
18348W        W28041  10.339  10.514   0.282
18349W        W28042   8.888  14.894  14.767
18350W        W28043  10.831  18.792  14.295
18351W        W28044   6.494  15.368   1.728
18352W        W28045   5.549  10.515  11.375
18353W        W28046  11.321  14.924  12.378
18354W        W28047   3.143   3.173  14.286
18355W        W28048   6.514  14.407  12.833
18356W        W28049   5.088  19.287   1.694
18357W        W28050   8.926   7.098  12.838
18358W        W28051  10.348  14.396   4.604
18359W        W28052  10.357   2.235  13.799
18360W        W28053   8.908   0.268  10.903
18361W        W28054   6.506   8.556  14.283
18362W        W28055   9.884  16.345  14.283
18363W        W28056   1.231  18.787  10.915
18364W        W28057   7.937   5.640  12.828
18365W        W28058   7.471  18.321   2.181
18366W        W28059   9.389   3.178  11.873
18367W        W28060   1.225   7.589   0.730
18368W        W28061   7.442   4.181   2.224
18369W        W28062   4.587  18.803  14.279
18370W        W28063   0.254   6.145  13.352
18371W        W28064   3.640   5.143   3.630
18372W        W28065  10.813   2.239   0.281
18373W        W28066   7.458   8.087   1.233
18374W        W28067   6.972  18.331  13.333
18375W        W28068   3.156  19.306  12.823
18376W        W28069   6.498   9.538   1.719
18377W        W28070  11.283  13.428   4.150
18378W        W28071  11.327   7.116  11.878
18379W        W28072   5.536  19.294   0.257
18380W        W28073   0.270  15.871   2.668
18381W        W28074   6.035  10.983   4.153
18382W        W28075  10.812   3.202  14.806
18383W        W28076   9.876   4.667   1.223
18384W        W28077   5.550  13.924  14.781
18385W        W28078   1.682   7.099   1.218
18386W        W28079  11.807  16.864   0.287
18387W        W28080   2.175  15.892   1.252
18388W        W28081  10.814  19.761  10.927
18389W        W28082   2.183   2.238  12.366
18390W        W28083   2.641  16.380   1.240
18391W        W28084  11.307  14.925  13.313
18392W        W28085   9.399   9.027   2.213
18393W        W28086   2.665  10.524  12.380
18394W        W28087   5.566   0.770   2.211
18395W        W28088   0.278  15.386   2.703
18396W        W28089  11.303   0.746  12.865
18397W        W28090   5.063   9.526  13.337
18398W        W28091   0.277  10.035  10.916
18399W        W28092  11.314   6.617  12.369
18400W        W28093   6.043   8.564  12.347
18401W        W28094   9.390  11.474  11.894
18402W        W28095   6.960   9.542  13.834
18403W        W28096   3.642   0.769   3.662
18404W        W28097   1.723  18.299  14.309
18405W        W28098   6.488  10.008   0.276
18406W        W28099   5.054   8.062   4.644
18407W        W28100   2.203  10.495   3.178
18408W        W28101   1.719   6.133   4.630
18409W        W28102   1.236   8.584  13.351
18410W        W28103  10.348   0.259  12.846
18411W        W28104  11.784   0.265   2.223
18412W        W28105   9.373  10.488   2.212
18413W        W28106  10.805   1.735  11.419
18414W        W28107   3.628  13.913  12.838
18415W        W28108   7.923   1.729   2.217
18416W        W28109   2.187   0.244   2.216
18417W        W28110   1.206  17.328  14.305
18418W        W28111   8.908  18.803  14.789
18419W        W28112   3.123  11.505   4.121
18420W        W28113   4.599   1.725  13.338
18421W        W28114   9.877   9.029  11.873
18422W        W28115   3.621  17.807  14.768
18423W        W28116   5.542   0.259   3.152
18424W        W28117  11.326   8.540  14.310
18425W        W28118   2.676  13.436   2.682
18426W        W28119   0.751   9.550  11.876
18427W        W28120   1.699   9.059   2.677
18428W        W28121  10.816  12.470   1.231
18429W        W28122   1.692   8.576  12.852
18430W        W28123   7.934   7.597   0.247
18431W        W28124   9.386  13.444  12.864
18432W        W28125   9.394   9.526  13.815
18433W        W28126   8.915  10.012  14.318
18434W        W28127   9.879  18.341   2.702
18435W        W28128   8.415   6.597   0.282
18436W        W28129   5.536   2.213  12.365
18437W        W28130   0.247  18.827   2.663
18438W        W28131  11.301  19.307   2.212
18439W        W28132   2.664   8.084   3.178
18440W        W28133   6.971  16.374  13.324
18441W        W28134   3.135  10.993   3.648
18442W        W28135   3.140   2.229  14.309
18443W        W28136   3.137   2.725   2.178
18444W        W28137   9.375   5.165   2.679
18445W        W28138   4.603   3.676  13.818
18446W        W28139   1.692  17.325  13.309
18447W        W28140   9.880   6.118  11.886
18448W        W28141  11.787  16.344   1.248
18449W        W28142   6.031  19.796   4.604
18450W        W28143  10.823   3.702  14.793
18451W        W28144   7.467   9.513  14.797
18452W        W28145   9.366   8.580   4.154
18453W        W28146   3.644  11.512   3.149
18454W        W28147  10.800   5.143   4.118
18455W        W28148   1.719  18.808  11.884
18456W        W28149   8.908  13.939  13.839
18457W        W28150   2.181   9.072  13.798
18458W        W28151   9.378  11.015   1.732
18459W        W28152   0.744  10.516  11.405
18460W        W28153   6.046   9.552   1.242
18461W        W28154   7.446  14.903   2.206
18462W        W28155   5.085  13.441   4.113
18463W        W28156   0.764   7.089  13.804
18464W        W28157   3.612   8.060   2.676
18465W        W28158   0.737  14.417   1.704
18466W        W28159   1.702   1.735  13.325
18467W        W28160  10.811   1.248  12.347
18468W        W28161   6.017  17.817   1.239
18469W        W28162   0.744   5.626  13.810
18470W        W28163   9.377  10.493  12.833
18471W        W28164   5.541  14.916  11.856
18472W        W28165  11.310   2.221  11.383
18473W        W28166   2.193  15.880   3.188
18474W        W28167   0.279  18.794   4.125
18475W        W28168   9.856   9.548   0.263
18476W        W28169   6.982  11.465   4.125
18477W        W28170   0.758   5.160  13.814
18478W        W28171   5.525  14.422  13.791
18479W        W28172   5.057   0.272  13.803
18480W        W28173   5.045   1.731  14.766
18481W        W28174   4.573  10.512  13.838
18482W        W28175   2.203  19.306  10.892
18483W        W28176   7.471   5.150   0.747
18484W        W28177  11.295  16.380  12.386
18485W        W28178   6.486   4.670   1.731
18486W        W28179   0.253   3.700   3.152
18487W        W28180   8.441   0.250   4.611
18488W        W28181   4.124  18.327  14.779
18489W        W28182   1.243   0.755   2.206
18490W        W28183   2.200  14.402  11.879
18491W        W28184   9.373  13.928  12.859
18492W        W28185   9.840   4.670   0.773
18493W        W28186   5.541  19.296  13.334
18494W        W28187  11.798   3.213   0.753
18495W        W28188  10.814  13.441  11.372
18496W        W28189   4.124  10.001  12.371
18497W        W28190   5.060  17.853  10.926
18498W        W28191   8.895  17.845   0.761
18499W        W28192   9.840   7.590  14.283
18500W        W28193   3.138  14.905   4.121
18501W        W28194   5.086   5.627   1.718
18502W        W28195   1.222   9.517  11.895
18503W        W28196   0.753  16.369  13.802
18504W        W28197   7.458  11.512   2.670
18505W        W28198  11.306   9.553  14.790
18506W        W28199   8.888  17.813  13.827
18507W        W28200   8.889   3.699  14.319
18508W        W28201  11.311  14.433  13.806
18509W        W28202  11.780   6.619  14.279
18510W        W28203  10.360  11.015  13.803
18511W        W28204   7.936   1.244   3.180
18512W        W28205   2.676   6.628   4.134
18513W        W28206   3.145   8.066   4.620
18514W        W28207   4.575  16.375  14.307
18515W        W28208   1.687   2.233  13.327
18516W        W28209   5.529   4.174  13.350
18517W        W28210   4.575   9.543  11.889
18518W        W28211   3.639   5.633   2.222
18519W        W28212   6.963   2.710   0.262
18520W        W28213  10.813   2.690   1.712
18521W        W28214  10.838   5.159  12.845
18522W        W28215  11.788  10.994  12.368
18523W        W28216  11.281   2.714  12.382
18524W        W28217   1.724   5.657   2.222
18525W        W28218   3.630   3.669  13.325
18526W        W28219   8.914   7.087   3.640
18527W        W28220   9.879  12.465   2.223
18528W        W28221   6.513   6.102  12.376
18529W        W28222  10.323  16.351  14.760
18530W        W28223   6.985   8.086   2.219
18531W        W28224   7.465  13.458   2.183
18532W        W28225  11.312   8.052   4.140
18533W        W28226   4.572  15.405   2.188
18534W        W28227   5.044  11.471   4.128
18535W        W28228   3.126  15.876   2.202
18536W        W28229   9.401  19.309   3.165
18537W        W28230   7.928   2.221   4.129
18538W        W28231   8.917  15.896  14.789
18539W        W28232   2.653  19.774  12.852
18540W        W28233   6.001   9.557   0.258
18541W        W28234  11.784   2.214   1.738
18542W        W28235   5.087  12.483  11.873
18543W        W28236   2.642  18.337   3.162
18544W        W28237   3.617  15.392   4.160
18545W        W28238  10.360  13.944   3.654
18546W        W28239   3.120  15.414  14.284
18547W        W28240  10.831   0.769   0.773
18548W        W28241   1.690   8.093   0.770
18549W        W28242  10.334  18.821  14.768
18550W        W28243   6.481  19.783  12.356
18551W        W28244   0.766  12.452   2.223
18552W        W28245  10.322  15.379   1.244
18553W        W28246   4.604   4.682  12.355
18554W        W28247   7.937  19.789   0.251
18555W        W28248   3.163  14.433  10.929
18556W        W28249   7.939  11.020   0.275
18557W        W28250   0.254  14.411  11.387
18558W        W28251   6.484   2.726  11.401
18559W        W28252   5.527   1.241   4.150
18560W        W28253   3.646  12.932  13.831
18561W        W28254   7.449   4.676  14.299
18562W        W28255   4.607   0.740  12.834
18563W        W28256   8.403  11.956   4.606
18564W        W28257   6.976  10.978  12.384
18565W        W28258   6.019  19.289   1.710
18566W        W28259   9.867   6.619   3.178
18567W        W28260   3.154  14.423   4.155
18568W        W28261   4.111  17.331   0.759
18569W        W28262  11.286   4.161  14.276
18570W        W28263   1.691  11.958  12.380
18571W        W28264   4.124  11.479   2.675
18572W        W28265   7.444  16.375   1.711
18573W        W28266  10.356   9.532  11.392
18574W        W28267   0.738  14.904   1.725
18575W        W28268   7.920  18.828   4.623
18576W        W28269   1.724   6.129   2.673
18577W        W28270   6.517   2.689  12.855
18578W        W28271   4.100   8.058  11.900
18579W        W28272   6.983   0.771   3.646
18580W        W28273   1.711   7.604  14.795
18581W        W28274   0.241  17.834   2.179
18582W        W28275   8.905   9.026  10.905
18583W        W28276   8.921  19.307  13.325
18584W        W28277  10.351  17.342  13.811
18585W        W28278   8.401   1.236   2.698
18586W        W28279   9.883  19.756  14.282
18587W        W28280   8.913   6.613   0.729
18588W        W28281   0.729   6.105   1.258
18589W        W28282   7.455  10.039   1.704
18590W        W28283   4.602   6.631  14.787
18591W        W28284   3.167   8.571  11.894
18592W        W28285   9.366  11.015   3.154
18593W        W28286   3.130  11.996  14.777
18594W        W28287  10.325   2.235   4.609
18595W        W28288   7.447   0.776   2.218
18596W        W28289   2.677   2.208   0.284
18597W        W28290   9.863  17.329  13.809
18598W        W28291   1.211   9.063  10.924
18599W        W28292   2.685   0.732  11.371
18600W        W28293   1.224  15.396  12.367
18601W        W28294   0.256   9.555   4.148
18602W        W28295   6.024   6.610  11.876
18603W        W28296   1.228   2.714  14.290
18604W        W28297   5.528  13.453  11.893
18605W        W28298   0.720   1.748   1.211
18606W        W28299   6.000  19.773   3.171
18607W        W28300   5.551   3.676  13.828
18608W        W28301   9.386   2.722  14.306
18609W        W28302   6.969  12.958  10.893
18610W        W28303   7.965  18.338   0.739
18611W        W28304   8.901  15.409  11.862
18612W        W28305   9.374   6.614  13.353
18613W        W28306   6.500   4.664  12.869
18614W        W28307   8.441  10.532  14.768
18615W        W28308   5.065  19.781  11.891
18616W        W28309   9.389   2.198  12.349
18617W        W28310  11.308   8.076  14.765
18618W        W28311   2.681   3.667  12.357
18619W        W28312   3.124  14.435   4.638
18620W        W28313   7.964   1.262  13.309
18621W        W28314   1.223  13.917  11.855
18622W        W28315   8.886   4.165  13.806
18623W        W28316   9.395  15.384  11.375
18624W        W28317   0.288   9.067   2.681
18625W        W28318   7.941   0.280   0.281
18626W        W28319  11.317   4.659  12.343
18627W        W28320   8.910   7.569  14.310
18628W        W28321   5.522  12.934  14.282
18629W        W28322   4.586   5.613  10.923
18630W        W28323   7.008  17.846  14.280
18631W        W28324  11.293  17.341  11.408
18632W        W28325   9.855  15.374   1.223
18633W        W28326   7.463   3.694  14.307
18634W        W28327   9.360  17.842  13.792
18635W        W28328   4.564  15.413   0.287
18636W        W28329   5.062  14.913  12.348
18637W        W28330   3.602   5.658   0.754
18638W        W28331   8.908   6.107  12.848
18639W        W28332  11.293   5.168   3.148
18640W        W28333   4.101   5.625  10.931
18641W        W28334   8.444  17.847  13.820
18642W        W28335  11.287  18.338  11.417
18643W        W28336   0.253   9.049  11.864
18644W        W28337   0.765  17.817   0.278
18645W        W28338  11.777   5.632  11.889
18646W        W28339   1.704  11.483  13.321
18647W        W28340   0.244   5.625   0.743
18648W        W28341   7.468   9.547   3.158
18649W        W28342   1.706   9.051  12.836
18650W        W28343  10.844  19.798   1.219
18651W        W28344   3.626  17.843  13.799
18652W        W28345  10.353   3.178  10.923
18653W        W28346   0.243  18.311  14.776
18654W        W28347   2.177  17.342   4.645
18655W        W28348   5.074  15.881   0.733
18656W        W28349   1.244   8.567   2.218
18657W        W28350   6.019  18.827  14.759
18658W        W28351   8.429  11.018  12.367
18659W        W28352   5.533   3.206  13.814
18660W        W28353   6.048   9.545  10.913
18661W        W28354   2.207   3.667   2.671
18662W        W28355   8.909   8.089   0.738
18663W        W28356   2.656   8.556  13.347
18664W        W28357   6.961   6.143   1.739
18665W        W28358   5.056  10.501   1.230
18666W        W28359   1.681   0.280  11.861
18667W        W28360   7.464   7.564   2.685
18668W        W28361   5.524  18.792  11.855
18669W        W28362   2.186   0.779   1.234
18670W        W28363   6.005  10.528  11.392
18671W        W28364   4.124   7.090   4.621
18672W        W28365  11.327   6.113   1.239
18673W        W28366   8.429  10.038  11.374
18674W        W28367   9.401   9.534  14.279
18675W        W28368   1.727  18.303  12.848
18676W        W28369   0.744   4.155  12.868
18677W        W28370   9.883  16.346  12.852
18678W        W28371   5.553   3.185  13.340
18679W        W28372   8.440   4.672   2.200
18680W        W28373   1.689   5.126  12.850
18681W        W28374  10.842   4.187   4.113
18682W        W28375   9.842  18.319   2.189
18683W        W28376  10.351   3.200   3.151
18684W        W28377   9.364   2.711   0.276
18685W        W28378  10.367   1.249  10.892
18686W        W28379   2.673   1.716  14.282
18687W        W28380   3.605   0.245   4.626
18688W        W28381   8.911  18.822   3.630
18689W        W28382  10.846  10.034  11.375
18690W        W28383   3.148  10.990  14.280
18691W        W28384   1.208  10.489   2.703
18692W        W28385   3.613  10.993  11.902
18693W        W28386   9.402   2.228  13.329
18694W        W28387   1.701   5.126   1.713
18695W        W28388   4.123  16.841  12.364
18696W        W28389   8.915  13.925   3.173
18697W        W28390   0.733   4.647   1.727
18698W        W28391   0.255  19.293   0.261
18699W        W28392   8.890   8.086   1.227
18700W        W28393   1.216  18.806   3.187
18701W        W28394  10.841   9.050   1.217
18702W        W28395   0.758   2.731   2.210
18703W        W28396   6.528  15.389  14.297
18704W        W28397   7.464  15.404   4.146
18705W        W28398  10.805  16.376   2.691
18706W        W28399   6.515   9.059  12.355
18707W        W28400   6.025  10.522   0.254
18708W        W28401   0.727  13.920   3.637
18709W        W28402   6.989  17.823   1.699
18710W        W28403   5.533  19.786  13.811
18711W        W28404  10.359  13.945  10.891
18712W        W28405   7.959  16.841   1.734
18713W        W28406  10.348  13.939  14.311
18714W        W28407  10.833   1.722  10.902
18715W        W28408   7.943   9.041  10.902
18716W        W28409   3.646   9.554   1.720
18717W        W28410   5.064   9.046   3.645
18718W        W28411  10.328  12.443   2.678
18719W        W28412   0.241   7.567   2.671
18720W        W28413  10.335   8.579  12.380
18721W        W28414   1.217  14.437  11.892
18722W        W28415   5.554  14.907  14.288
18723W        W28416   3.122  16.877  12.345
18724W        W28417  11.304  16.355  13.821
18725W        W28418   4.566  15.394  14.289
18726W        W28419   9.876   5.638   1.740
18727W        W28420   0.738   1.729  12.825
18728W        W28421   6.516   8.089   0.278
18729W        W28422   5.077   0.771   4.641
18730W        W28423   3.637  10.042   3.187
18731W        W28424   5.543  12.470  11.864
18732W        W28425   6.004  15.875  11.402
18733W        W28426   3.164   4.173  13.323
18734W        W28427   9.388  10.024  11.863
18735W        W28428   9.394  11.465  13.790
18736W        W28429  11.767  12.958   2.185
18737W        W28430   8.425  12.442   3.657
18738W        W28431   9.378  16.384   3.652
18739W        W28432   9.366  13.438  11.872
18740W        W28433   3.148  12.464   0.248
18741W        W28434   7.962  17.352  14.278
18742W        W28435   2.678  10.977   1.700
18743W        W28436   6.036  11.016   2.710
18744W        W28437   0.285   8.058   3.172
18745W        W28438   0.277  19.312  11.890
18746W        W28439   7.001  10.040  13.340
18747W        W28440   0.749  19.761  14.299
18748W        W28441   8.889  15.389  12.363
18749W        W28442   6.527   6.124   0.770
18750W        W28443   9.364  10.987  12.845
18751W        W28444  11.325   5.646  11.375
18752W        W28445   1.709  16.849  13.795
18753W        W28446   1.232  13.938   3.666
18754W        W28447   0.752  13.914   3.184
18755W        W28448   7.480  11.015  12.365
18756W        W28449   6.493   2.727  14.760
18757W        W28450   5.562  19.302  14.277
18758W        W28451   6.496  16.342  10.902
18759W        W28452   1.213  16.387  14.768
18760W        W28453  10.836  10.030   4.122
18761W        W28454   1.685   9.065   3.638
18762W        W28455   6.963   5.618  11.377
18763W        W28456   4.583  10.047   0.754
18764W        W28457   0.744  10.985   4.611
18765W        W28458  10.814  12.458   2.204
18766W        W28459   3.638   7.119  10.900
18767W        W28460   7.461   4.659  13.336
18768W        W28461   0.763   5.123  13.351
18769W        W28462  10.847   6.588  13.825
18770W        W28463   2.677   3.197   0.283
18771W        W28464  10.829   3.188   3.156
18772W        W28465  10.822  18.789   2.194
18773W        W28466  11.289   5.146   2.700
18774W        W28467   8.927  12.960  12.833
18775W        W28468   8.921   0.774  14.312
18776W        W28469   3.624   6.627  14.318
18777W        W28470  11.768  14.411  12.354
18778W        W28471   3.125  12.935   3.191
18779W        W28472   2.185   4.165  13.819
18780W        W28473   1.716  14.427  13.339
18781W        W28474   8.441  12.963   0.759
18782W        W28475   6.992  16.365  14.802
18783W        W28476   4.114  10.031   3.146
18784W        W28477   1.718  10.498  12.829
18785W        W28478   0.768  12.456  13.342
18786W        W28479   4.123  10.504   3.662
18787W        W28480   3.149  10.522  12.838
18788W        W28481  11.805   8.574   0.248
18789W        W28482   4.120   1.251   4.607
18790W        W28483   3.129   7.580   4.134
18791W        W28484   3.138  12.453   2.191
18792W        W28485   8.925  12.972   1.220
18793W        W28486   5.054   9.553   3.629
18794W        W28487   2.180   3.669   3.180
18795W        W28488  10.337  14.405  12.824
18796W        W28489   2.653  17.824  12.860
18797W        W28490   3.135  19.283  13.354
18798W        W28491   8.883  16.859   2.223
18799W        W28492   7.483  10.533   1.257
18800W        W28493   6.493   2.198  11.380
18801W        W28494   1.238   7.110  14.790
18802W        W28495   5.040   8.560  11.877
18803W        W28496  11.292  17.853  12.370
18804W        W28497   8.884  15.412   3.187
18805W        W28498   3.638  13.446   3.147
18806W        W28499   6.498   8.056  13.322
18807W        W28500   9.403   5.125   0.770
18808W        W28501   3.601   5.129  11.412
18809W        W28502   7.457   8.554   2.677
18810W        W28503   8.442  16.386  14.301
18811W        W28504   8.420  16.869   2.209
18812W        W28505   3.646  12.439  12.361
18813W        W28506  11.283  11.987  12.366
18814W        W28507   4.577  10.530   1.214
18815W        W28508   1.213  17.360   2.708
18816W        W28509   3.124   3.682  14.314
18817W        W28510   9.852   7.079  13.811
18818W        W28511   5.549   5.166  12.379
18819W        W28512  10.331   4.181  11.889
18820W        W28513  11.302  19.800   4.129
18821W        W28514   6.034   8.584   1.212
18822W        W28515   0.721   8.051  12.384
18823W        W28516   7.959  15.880   0.741
18824W        W28517   9.869  14.416  10.893
18825W        W28518   7.925   2.704   2.710
18826W        W28519  11.803  12.952   3.660
18827W        W28520  10.839   1.710  13.327
18828W        W28521   4.101   4.668  13.830
18829W        W28522   2.192   5.622   4.605
18830W        W28523   6.992   0.255  12.825
18831W        W28524   9.399  12.476  13.354
18832W        W28525   1.700   9.044  11.870
18833W        W28526   5.078   9.528  11.889
18834W        W28527   9.389  10.490  13.791
18835W        W28528   9.392  10.504   1.242
18836W        W28529   2.671  17.345   4.636
18837W        W28530   4.090  12.934  11.404
18838W        W28531   4.092  16.835  14.306
18839W        W28532  10.328   1.720  14.776
18840W        W28533   6.026   9.559   1.735
18841W        W28534  11.794  11.022   4.122
18842W        W28535   5.059   4.189   2.204
18843W        W28536  11.299  15.411  13.350
18844W        W28537   8.409   3.663  13.800
18845W        W28538  10.353   8.572  14.788
18846W        W28539  10.352  18.336  14.321
18847W        W28540   4.108  12.471  13.836
18848W        W28541   6.486   6.113   1.214
18849W        W28542   9.394  13.929  14.798
18850W        W28543  10.328  12.453  12.855
18851W        W28544   5.561  19.786  13.351
18852W        W28545   9.882  13.927   2.690
18853W        W28546   8.408   7.585   4.136
18854W        W28547   3.154   0.751  14.301
18855W        W28548  11.766  14.403   4.146
18856W        W28549   9.862  12.470   2.692
18857W        W28550   6.045  10.985   2.219
18858W        W28551   4.108   3.215  11.391
18859W        W28552   7.443  13.950   3.155
18860W        W28553   2.192  11.506  13.815
18861W        W28554   6.965  12.442   0.770
18862W        W28555   7.473  15.409  11.902
18863W        W28556  11.805   6.630  11.400
18864W        W28557   8.410  13.929  13.833
18865W        W28558  11.317  11.974   2.183
18866W        W28559   1.700  19.802  14.302
18867W        W28560   8.894  16.830   0.773
18868W        W28561   6.039   7.593  11.410
18869W        W28562   7.478  10.501  12.828
18870W        W28563   6.972  13.913   3.191
18871W        W28564   9.850  11.953  14.766
18872W        W28565   8.447  19.299  11.868
18873W        W28566   0.739  14.438  12.828
18874W        W28567   8.408  18.824  14.317
18875W        W28568   2.675  18.783  13.315
18876W        W28569   4.581  14.399   4.607
18877W        W28570   1.723   5.146  14.317
18878W        W28571  11.309  18.325   4.117
18879W        W28572   6.027  17.816  11.881
18880W        W28573   2.683  15.409   2.181
18881W        W28574   5.566  16.873   2.708
18882W        W28575   3.143  18.802   1.257
18883W        W28576   1.692  10.521  11.381
18884W        W28577   5.565  14.406  11.885
18885W        W28578   6.495   3.661  10.904
18886W        W28579   0.740  13.914   1.258
18887W        W28580   3.149   4.155  11.874
18888W        W28581  11.327  19.313   4.629
18889W        W28582   5.076  16.369   3.147
18890W        W28583   5.064   4.168   4.626
18891W        W28584  11.761  18.341   1.694
18892W        W28585   3.148   0.774   2.214
18893W        W28586   2.165  11.502   3.650
18894W        W28587   6.970   7.102  14.800
18895W        W28588   4.105  14.886   2.179
18896W        W28589   9.387  12.442  12.376
18897W        W28590   6.999  17.358  14.275
18898W        W28591   6.041   3.672   4.122
18899W        W28592   6.512   5.136   0.766
18900W        W28593   6.527  11.504   4.142
18901W        W28594  11.290  10.494   1.220
18902W        W28595   9.395  18.828   4.634
18903W        W28596   5.546   7.590   4.618
18904W        W28597  10.352  18.337   2.213
18905W        W28598  10.363  18.337   0.277
18906W        W28599   1.241  16.874  11.896
18907W        W28600   1.704   1.719  13.823
18908W        W28601   6.033   5.629   3.672
18909W        W28602   6.503   6.632   3.186
18910W        W28603  10.337  17.360   3.641
18911W        W28604   6.024  13.460  14.290
18912W        W28605   7.465  19.313  13.312
18913W        W28606   4.579  18.828  10.893
18914W        W28607   2.664   8.092   2.207
18915W        W28608   6.018   4.637  11.858
18916W        W28609   9.883   0.269   0.740
18917W        W28610   3.601  16.856  13.817
18918W        W28611   7.442  12.471  12.839
18919W        W28612   9.887  12.449  11.395
18920W        W28613   9.861  17.849   4.633
18921W        W28614  10.340   5.139   1.221
18922W        W28615   3.158  10.979   4.145
18923W        W28616  10.831   9.536  14.773
18924W        W28617   4.093   7.114  13.836
18925W        W28618  11.777  14.908   1.218
18926W        W28619  11.766   3.662   3.641
18927W        W28620   9.880   5.627   1.222
18928W        W28621   4.126   7.075  12.870
18929W        W28622   6.013   1.745  14.762
18930W        W28623   6.978   9.053   1.254
18931W        W28624   7.454   6.626   0.760
18932W        W28625   6.964   5.162  13.349
18933W        W28626   7.461  17.318  13.796
18934W        W28627   7.967   5.148   0.282
18935W        W28628  11.295   6.099  11.855
18936W        W28629   0.754  10.025  13.340
18937W        W28630   3.149  16.843   2.702
18938W        W28631   6.511  17.339  12.383
18939W        W28632   5.530   6.123   1.706
18940W        W28633   5.541   8.082  12.387
18941W        W28634   4.593   5.637   3.149
18942W        W28635  11.311  19.786  11.880
18943W        W28636   2.680  10.510  11.873
18944W        W28637   9.868   9.559  11.407
18945W        W28638  10.332  16.366   1.252
18946W        W28639   6.988   9.534  12.371
18947W        W28640   7.442   2.704   1.235
18948W        W28641   0.753   3.664  11.862
18949W        W28642  10.805   3.686  13.823
18950W        W28643   2.164   0.269  13.314
18951W        W28644   7.935  15.387   4.113
18952W        W28645   7.937   5.642  11.890
18953W        W28646  11.775  11.973   4.598
18954W        W28647   6.039   4.657  12.865
18955W        W28648   7.931   2.704   4.147
18956W        W28649   0.248  12.444  12.377
18957W        W28650   7.476  12.968   0.256
18958W        W28651   3.137   4.680   3.657
18959W        W28652   3.632   9.537  11.886
18960W        W28653   3.134   5.645   1.212
18961W        W28654   2.648  10.998   1.231
18962W        W28655   1.246   4.159  13.332
18963W        W28656   4.110   4.165   1.730
18964W        W28657   3.605   2.729   1.235
18965W        W28658   0.258   3.207  12.868
18966W        W28659   3.135  15.384  12.827
18967W        W28660   2.208   9.053  13.345
18968W        W28661  11.775   2.236  11.419
18969W        W28662   6.509  11.954   1.702
18970W        W28663   8.882  12.462   4.120
18971W        W28664   1.694   1.744  12.360
18972W        W28665  11.782  18.337   3.179
18973W        W28666   3.635   0.742   2.204
18974W        W28667   3.147   9.517   2.690
18975W        W28668   3.152  16.855  13.825
18976W        W28669   5.561  18.311  13.814
18977W        W28670   7.932  11.965   4.120
18978W        W28671   7.463   9.515   3.638
18979W        W28672   1.718   0.251   4.626
18980W        W28673   8.441  11.952   0.740
18981W        W28674   7.457   5.651  12.342
18982W        W28675  11.776  11.481  12.839
18983W        W28676   3.154  14.412   3.178
18984W        W28677   4.596  14.436  12.365
18985W        W28678   5.084   1.729   3.654
18986W        W28679   1.238   1.739   1.723
18987W        W28680  11.798   3.678   0.258
18988W        W28681   9.869  12.973  14.295
18989W        W28682  10.339   3.697  13.354
18990W        W28683   3.624  15.894  13.330
18991W        W28684   3.160  17.342   4.114
18992W        W28685   7.004   5.151  12.352
18993W        W28686   6.984   3.173   3.653
18994W        W28687   8.437   3.213  11.875
18995W        W28688  11.765  11.000   3.147
18996W        W28689   4.574  11.497  11.863
18997W        W28690  10.830  13.913  13.349
18998W        W28691   5.534   2.222  12.863
18999W        W28692   5.531   8.556  13.835
19000W        W28693   6.011  13.423   1.739
19001W        W28694   7.956   0.760   3.640
19002W        W28695  11.320  10.048  11.397
19003W        W28696   3.631  15.884   0.772
19004W        W28697  10.814  17.322   0.282
19005W        W28698   1.220   4.646  10.913
19006W        W28699  10.334  19.315  14.799
19007W        W28700   0.257   7.097   2.683
19008W        W28701   5.526  10.990   4.154
19009W        W28702   0.253   9.025   0.772
19010W        W28703   9.376  15.366   4.602
19011W        W28704   6.975  12.458  11.377
19012W        W28705  11.295   7.579   1.225
19013W        W28706  10.334  14.910   3.648
19014W        W28707   7.950   6.612   3.647
19015W        W28708   4.099   7.080  10.907
19016W        W28709   3.631   6.623  13.312
19017W        W28710  10.811   5.150   3.660
19018W        W28711   2.661   2.237   3.154
19019W        W28712   6.039  16.343   0.266
19020W        W28713   7.955  11.968  13.329
19021W        W28714   2.199  10.491   4.132
19022W        W28715   9.848  15.895   3.642
19023W        W28716   9.885  18.339  11.901
19024W        W28717   6.016   0.292   2.201
19025W        W28718   0.722  17.360   1.240
19026W        W28719   6.041  18.336  12.859
19027W        W28720   5.565  11.467   1.225
19028W        W28721   6.494   2.218  12.865
19029W        W28722   4.565  18.790   4.129
19030W        W28723   6.985  10.980  10.934
19031W        W28724   1.713   2.711   1.706
19032W        W28725   2.687  16.851   3.177
19033W        W28726   5.052   0.249   3.154
19034W        W28727   1.707   2.709  10.888
19035W        W28728   7.463   2.214  12.830
19036W        W28729   5.042  17.327  12.366
19037W        W28730   0.287  13.909  13.323
19038W        W28731   4.573   5.125   1.725
19039W        W28732  11.319   8.550  14.776
19040W        W28733   3.146  15.885   3.175
19041W        W28734   5.567  14.417   0.742
19042W        W28735  11.771   6.110   1.709
19043W        W28736  11.762   5.147  10.923
19044W        W28737   7.933  11.495  11.881
19045W        W28738   6.011   5.633  14.293
19046W        W28739   9.872  12.442   0.745
19047W        W28740   6.515   2.220   3.663
19048W        W28741   5.527   4.676  13.805
19049W        W28742  10.352   0.274  10.918
19050W        W28743   4.573   5.131   0.265
19051W        W28744   2.186  16.368   1.694
19052W        W28745   6.520  12.483  13.321
19053W        W28746   2.160  11.507   2.688
19054W        W28747   0.733  16.377  12.848
19055W        W28748  10.820  19.315   3.674
19056W        W28749   6.962   4.683   3.177
19057W        W28750  11.762   6.592  11.874
19058W        W28751   0.280  16.346  12.340
19059W        W28752   7.004   8.584  11.374
19060W        W28753   9.393   0.741   2.696
19061W        W28754   6.522   6.606   2.673
19062W        W28755   9.854   1.265  12.840
19063W        W28756   4.590  18.785  13.321
19064W        W28757   3.643   4.670  12.825
19065W        W28758   6.008   2.235  10.907
19066W        W28759   5.534   2.229   1.740
19067W        W28760   8.925  11.489  14.806
19068W        W28761   3.602   5.168   4.120
19069W        W28762   5.045  16.832   4.620
19070W        W28763  11.789   6.110   3.648
19071W        W28764   3.600  17.349  14.319
19072W        W28765  11.304  15.857  12.852
19073W        W28766  10.831   7.590  14.286
19074W        W28767  11.328  13.908   1.249
19075W        W28768   5.554  12.930  12.841
19076W        W28769   7.446   1.249  14.794
19077W        W28770   2.195   2.694   3.185
19078W        W28771   8.891   6.128  11.864
19079W        W28772  10.817  18.302  14.801
19080W        W28773   6.002  14.886  11.387
19081W        W28774  11.783   5.630   0.753
19082W        W28775   4.585  17.827   2.185
19083W        W28776   7.473  17.826  14.781
19084W        W28777   3.163   1.248  13.315
19085W        W28778  11.289   8.539   0.267
19086W        W28779   2.655   5.628  12.357
19087W        W28780   8.403  10.019   0.259
19088W        W28781   8.885  13.905   0.284
19089W        W28782   0.724   0.734  10.904
19090W        W28783   1.706   8.571   0.252
19091W        W28784   9.883  15.394   1.708
19092W        W28785  10.357   7.586  13.810
19093W        W28786  10.323   9.032  13.807
19094W        W28787  10.824  10.043  10.895
19095W        W28788   1.706  16.378  12.855
19096W        W28789   0.255   4.659  13.341
19097W        W28790   6.976  14.423   1.706
19098W        W28791   3.122   6.109   3.177
19099W        W28792   7.961   7.119  11.856
19100W        W28793  11.783  10.504   2.201
19101W        W28794   7.966  11.959   3.169
19102W        W28795   2.178   2.720   2.222
19103W        W28796   4.106   1.251   1.733
19104W        W28797   6.034  18.297   3.178
19105W        W28798   2.641  12.963   2.221
19106W        W28799   2.176  15.876  11.872
19107W        W28800  10.361   1.738   0.242
19108W        W28801   7.921  17.837   4.613
19109W        W28802  10.334  16.836   4.134
19110W        W28803  11.318  15.891   4.644
19111W        W28804   7.922   6.136  12.375
19112W        W28805  11.327  12.456   1.705
19113W        W28806   9.849  10.523  10.929
19114W        W28807   7.458  17.366   0.740
19115W        W28808   9.856  11.495   2.179
19116W        W28809   5.082   8.571  12.372
19117W        W28810  10.832  15.391   4.152
19118W        W28811  11.788  11.477   2.699
19119W        W28812   6.489   6.614   2.191
19120W        W28813   8.404  11.017  11.380
19121W        W28814   3.142  19.780   0.287
19122W        W28815   0.748  16.362  10.920
19123W        W28816   7.003   9.033   0.743
19124W        W28817   2.179   7.584  12.849
19125W        W28818   1.216   8.558   4.114
19126W        W28819   5.048   3.661  14.787
19127W        W28820   0.739   7.592   0.260
19128W        W28821   4.093   6.591   4.127
19129W        W28822   4.578  13.420   0.737
19130W        W28823   8.924   4.181   2.214
19131W        W28824   4.597   5.622  14.783
19132W        W28825   5.534   6.137  14.287
19133W        W28826  10.362   9.071   1.714
19134W        W28827  10.367   6.611   2.224
19135W        W28828  11.328  12.970   3.166
19136W        W28829   9.406  14.897   1.229
19137W        W28830   1.698   4.659  14.281
19138W        W28831   0.242  10.040   2.691
19139W        W28832   5.531   9.534   1.224
19140W        W28833   8.910   8.564  14.788
19141W        W28834   0.764   0.273  13.349
19142W        W28835   9.372   6.101  12.352
19143W        W28836  11.307  17.357   3.654
19144W        W28837   6.016  10.005   3.660
19145W        W28838   8.401   7.582   1.735
19146W        W28839   0.273   4.160  11.893
19147W        W28840   3.160   2.232  11.859
19148W        W28841   1.710  14.409  11.860
19149W        W28842   4.575   7.102   3.658
19150W        W28843   8.441   8.072  12.341
19151W        W28844  11.769  10.526   3.161
19152W        W28845  10.352  13.928   2.220
19153W        W28846   7.002   2.207   1.696
19154W        W28847   8.401   7.606   0.754
19155W        W28848   2.175  16.856   4.629
19156W        W28849   4.608   2.227   4.612
19157W        W28850  11.319  15.372   4.158
19158W        W28851  11.777   0.754   0.281
19159W        W28852   7.443   5.657   3.186
19160W        W28853   8.444   5.136   0.275
19161W        W28854   6.507  14.893   3.636
19162W        W28855   4.099   4.643   0.747
19163W        W28856   8.922   4.638   3.153
19164W        W28857   8.432   2.700  11.417
19165W        W28858   8.907  12.458  13.316
19166W        W28859  11.291   5.637   3.676
19167W        W28860   8.442  17.318  11.406
19168W        W28861   0.733   1.259   4.149
19169W        W28862   5.048   1.741   4.116
19170W        W28863   7.441   2.209  14.762
19171W        W28864   4.104   8.061  11.411
19172W        W28865   3.605   0.270   0.751
19173W        W28866   6.005   6.116   1.735
19174W        W28867   2.167   8.088   3.656
19175W        W28868   8.886   2.238  13.323
19176W        W28869   6.496   4.654  11.890
19177W        W28870   9.366  13.415  12.361
19178W        W28871   0.743  15.871  12.383
19179W        W28872  11.282  18.296  10.912
19180W        W28873   3.609  10.528  13.806
19181W        W28874   9.874  10.009  13.804
19182W        W28875   5.539   3.693  11.902
19183W        W28876   6.986   7.581  12.340
19184W        W28877   6.030   9.060   3.672
19185W        W28878   2.207  10.021   3.677
19186W        W28879   7.950  18.297  14.284
19187W        W28880   7.926   3.671  12.357
19188W        W28881   5.535  10.520   1.694
19189W        W28882  10.811   2.236   2.689
19190W        W28883   0.766   5.613   0.287
19191W        W28884   1.701   2.728  11.372
19192W        W28885  10.835  16.387  11.866
19193W        W28886   3.161   4.681   0.774
19194W        W28887   3.141  10.525  13.312
19195W        W28888   9.392  17.330   3.644
19196W        W28889   6.961  12.936  11.896
19197W        W28890   3.153   2.684   4.130
19198W        W28891   3.602  15.867  14.780
19199W        W28892   4.091  15.870   1.738
19200W        W28893   0.750  14.431   2.182
19201W        W28894   6.508  14.880  12.842
19202W        W28895   6.979  15.367   1.248
19203W        W28896   2.184   9.044   0.729
19204W        W28897   7.955   0.245  11.398
19205W        W28898   7.467  13.934   0.283
19206W        W28899   4.582   6.143  14.794
19207W        W28900  11.282   8.559  11.371
19208W        W28901   4.085  18.820  10.918
19209W        W28902   2.676   9.560   2.665
19210W        W28903   0.753  12.487  12.846
19211W        W28904   2.195   3.204  14.780
19212W        W28905  10.360  10.046   4.128
19213W        W28906   6.040   1.744   1.698
19214W        W28907   7.463   3.209   4.602
19215W        W28908   8.432  18.337  14.800
19216W        W28909   0.243   3.681   1.705
19217W        W28910   8.914   1.734   2.696
19218W        W28911   7.962  18.335  11.374
19219W        W28912   4.125  11.485  14.784
19220W        W28913   4.597   0.738  10.923
19221W        W28914   3.630  17.823  14.280
19222W        W28915   5.554  19.767  14.761
19223W        W28916   6.047  18.810  10.905
19224W        W28917   7.004  11.508  13.326
19225W        W28918   3.139  16.858   0.765
19226W        W28919   3.140   1.259  12.862
19227W        W28920   1.207  17.359  10.887
19228W        W28921   1.235  11.982  13.793
19229W        W28922   8.896   2.714   2.220
19230W        W28923   8.409  15.857   3.646
19231W        W28924   2.667   9.027   2.663
19232W        W28925   8.918  11.988   1.740
19233W        W28926   1.712   5.125  13.345
19234W        W28927   4.108  10.997   4.602
19235W        W28928   3.135   7.119   2.664
19236W        W28929  10.363  14.428  13.346
19237W        W28930  10.827  11.954  12.387
19238W        W28931   7.937  10.009   0.278
19239W        W28932   8.896  13.919   1.721
19240W        W28933  10.354  12.955   0.735
19241W        W28934  11.770  18.338  13.808
19242W        W28935  11.770  15.406   1.732
19243W        W28936   1.242  16.844   4.644
19244W        W28937   7.952   3.663  14.777
19245W        W28938   7.923   4.668   3.636
19246W        W28939  10.336   4.175   3.634
19247W        W28940  11.291   3.689   4.630
19248W        W28941   6.507   1.737  14.785
19249W        W28942   2.642   4.188   1.723
19250W        W28943   4.080  18.319   4.605
19251W        W28944   4.083  10.988  13.341
19252W        W28945   4.118   4.664  10.908
19253W        W28946   4.114  13.444   1.699
19254W        W28947  10.326   4.169  13.815
19255W        W28948   6.493   5.650   1.210
19256W        W28949   2.177  16.354   4.604
19257W        W28950   0.272  15.406  13.341
19258W        W28951   9.875   9.523   2.668
19259W        W28952   2.654   7.576  11.377
19260W        W28953  11.288  12.970  11.383
19261W        W28954   4.123  11.992   2.213
19262W        W28955   8.402  17.334  11.891
19263W        W28956   6.020   3.697  13.338
19264W        W28957  10.831  17.346   0.754
19265W        W28958   1.723   7.085   1.740
19266W        W28959  10.331   5.135   4.603
19267W        W28960   1.242   4.654   4.129
19268W        W28961   3.121   4.656  12.364
19269W        W28962   2.680  11.992  10.926
19270W        W28963  11.795   9.053   4.159
19271W        W28964   5.531   8.573   4.603
19272W        W28965   9.866   3.670  12.850
19273W        W28966   5.533   7.111   2.180
19274W        W28967   6.497   0.743  12.868
19275W        W28968   8.904   8.084  14.775
19276W        W28969   5.073   9.030   0.769
19277W        W28970  10.361   6.621   3.158
19278W        W28971   2.203   7.086   4.615
19279W        W28972   8.895  19.297  13.794
19280W        W28973   3.634   3.182   0.267
19281W        W28974   7.940   2.710   3.150
19282W        W28975   2.175   3.669   4.129
19283W        W28976   8.425   2.715  11.882
19284W        W28977   9.371   4.161   4.159
19285W        W28978   2.194   1.256   3.173
19286W        W28979  10.814  16.345   3.646
19287W        W28980   8.894   7.080   4.144
19288W        W28981   6.999   2.243  12.340
19289W        W28982   9.399  10.005  12.352
19290W        W28983  11.765  13.419  12.359
19291W        W28984   4.585   8.543   2.189
19292W        W28985   5.046  15.885  14.771
19293W        W28986  11.806  12.929   4.599
19294W        W28987   3.620   0.732  14.294
19295W        W28988   0.251   9.535  14.292
19296W        W28989   1.706   2.232   4.152
19297W        W28990   7.007  11.494  11.857
19298W        W28991   8.896   2.217   4.142
19299W        W28992   7.473  15.865  13.340
19300W        W28993  10.805   7.608  10.912
19301W        W28994   2.182   8.081  12.862
19302W        W28995   8.921  18.320   3.677
19303W        W28996   0.265  11.491   4.641
19304W        W28997   5.083  17.814  14.795
19305W        W28998   7.967  17.362   1.244
19306W        W28999   0.722   7.097  12.841
19307W        W29000   7.455   9.555  11.892
19308W        W29001   1.227   7.599  10.935
19309W        W29002   4.108  13.934  10.922
19310W        W29003   4.105  10.489   4.159
19311W        W29004   3.153   7.579   2.186
19312W        W29005  11.282   3.204  11.399
19313W        W29006  10.842  17.365   3.635
19314W        W29007   5.083  12.957   2.692
19315W        W29008   8.411  17.318   2.203
19316W        W29009   1.212  16.352   2.678
19317W        W29010   1.229   8.075  11.416
19318W        W29011   9.854  10.004  12.349
19319W        W29012  11.767  12.961  12.353
19320W        W29013   0.724   9.557  13.327
19321W        W29014   5.064  13.452   1.699
19322W        W29015   4.103  13.429   4.611
19323W        W29016   6.019  15.369   2.204
19324W        W29017   9.879   3.701  11.373
19325W        W29018  10.362  19.793  14.312
19326W        W29019  10.845   0.292   3.637
19327W        W29020   2.676  14.433   4.148
19328W        W29021   0.246  10.026  12.370
19329W        W29022   3.144  12.482   2.680
19330W        W29023   6.983   4.163   4.141
19331W        W29024  10.357  18.331  13.812
19332W        W29025   3.646  15.855   4.151
19333W        W29026   1.724   8.060  12.824
19334W        W29027  11.805  17.833  12.352
19335W        W29028   5.549  12.439   3.148
19336W        W29029   1.690  11.998   1.715
19337W        W29030   9.364   4.668   1.725
19338W        W29031  10.336   3.206  14.791
19339W        W29032   6.985   5.135   4.132
19340W        W29033   2.681   1.258  14.759
19341W        W29034   9.863   7.114  11.875
19342W        W29035  10.806  11.482  14.787
19343W        W29036   4.563  12.945  13.351
19344W        W29037   4.097   3.681   3.654
19345W        W29038  10.828  10.044  14.799
19346W        W29039  11.786  19.285   3.157
19347W        W29040  10.847   8.549   3.170
19348W        W29041   8.404  13.906  12.828
19349W        W29042   7.477  19.292  10.889
19350W        W29043   2.208  10.008  10.905
19351W        W29044   8.414   3.707   1.708
19352W        W29045   3.626  10.500   1.718
19353W        W29046   2.178   3.201  12.375
19354W        W29047   3.121  16.389  13.351
19355W        W29048   0.720   5.147   1.717
19356W        W29049   6.034   6.101   3.646
19357W        W29050   1.234   1.256   2.686
19358W        W29051   9.880  19.281   3.146
19359W        W29052  11.285  15.373  12.826
19360W        W29053   2.161   4.176  11.407
19361W        W29054   5.525   6.113  13.317
19362W        W29055   5.544   5.647   3.664
19363W        W29056   9.882   8.094  14.299
19364W        W29057   0.741   0.745   4.157
19365W        W29058  10.336   9.070  14.293
19366W        W29059   0.268  10.987   0.276
19367W        W29060   8.424  19.793  13.792
19368W        W29061   4.088   6.596   1.253
19369W        W29062   8.916   1.727   0.749
19370W        W29063  11.806  18.307  11.887
19371W        W29064   4.580  19.761   1.213
19372W        W29065  11.320  19.790  13.315
19373W        W29066   2.183   4.161  12.836
19374W        W29067   6.490  18.331   3.660
19375W        W29068   0.767   1.742  10.913
19376W        W29069   5.532  10.505   2.698
19377W        W29070   6.021  18.819   3.181
19378W        W29071   3.627  15.403   3.642
19379W        W29072  11.295   5.129  11.386
19380W        W29073   8.907   8.585   2.666
19381W        W29074   0.288  19.313  11.383
19382W        W29075  10.812   0.749  12.347
19383W        W29076  10.811  10.992  13.839
19384W        W29077   8.406  11.999  12.830
19385W        W29078   6.525  14.433  14.768
19386W        W29079   9.854   3.197  14.799
19387W        W29080   7.948  11.464  10.927
19388W        W29081   0.764  19.316  12.386
19389W        W29082  11.778  11.988   4.118
19390W        W29083   8.430   1.747   1.712
19391W        W29084   0.264  14.433   2.200
19392W        W29085   9.380  16.878   3.178
19393W        W29086   6.986  12.472   1.224
19394W        W29087   0.752   5.126  12.369
19395W        W29088   0.246   7.093   4.135
19396W        W29089  10.353  10.986   3.671
19397W        W29090   9.880  13.941  11.876
19398W        W29091  11.793   0.247   3.670
19399W        W29092   1.691  18.330   2.709
19400W        W29093  11.780  12.456  12.347
19401W        W29094   8.918  17.817   2.668
19402W        W29095   8.419   4.659  14.761
19403W        W29096   6.964  19.802   2.217
19404W        W29097   3.129   2.215  10.923
19405W        W29098   3.633   6.588  10.933
19406W        W29099   9.382  12.472   4.134
19407W        W29100   5.062   5.169   3.650
19408W        W29101   2.201   9.041  11.410
19409W        W29102   5.045   7.112   4.631
19410W        W29103   4.580  12.967  12.832
19411W        W29104   3.637  11.003  12.369
19412W        W29105   6.033  17.357  13.816
19413W        W29106   9.861  17.820  10.928
19414W        W29107   8.431  15.395  13.340
19415W        W29108   6.505  16.838   2.670
19416W        W29109   9.872   2.219   1.710
19417W        W29110  10.361  17.846  14.293
19418W        W29111   7.953  11.965  10.908
19419W        W29112   8.409   5.141   3.176
19420W        W29113  10.348  15.370   0.739
19421W        W29114   7.472   5.164   0.273
19422W        W29115   7.925  14.918   0.729
19423W        W29116   5.548  18.804  12.863
19424W        W29117   1.219   6.101   0.245
19425W        W29118   0.753   0.266  12.865
19426W        W29119   2.194   9.042   1.739
19427W        W29120   6.004   7.599   2.677
19428W        W29121   8.892  11.510  13.830
19429W        W29122   4.115   3.678   3.191
19430W        W29123   7.469  19.294   1.731
19431W        W29124   8.888   4.182   1.255
19432W        W29125   4.092   8.564   4.141
19433W        W29126   7.949  18.316  14.783
19434W        W29127   7.454   7.605  11.896
19435W        W29128   8.430   1.230   4.153
19436W        W29129   4.598  15.895   4.151
19437W        W29130   4.582  14.892   4.626
19438W        W29131  10.327   5.161   0.735
19439W        W29132   2.180  11.974   0.728
19440W        W29133   4.101   7.095   0.745
19441W        W29134  11.765  17.821   2.668
19442W        W29135   0.748   6.621   2.202
19443W        W29136   4.118  17.341   1.722
19444W        W29137  11.788  17.844   0.264
19445W        W29138   2.665  19.791   2.203
19446W        W29139   4.581   3.702   1.255
19447W        W29140   4.083  12.484   1.727
19448W        W29141  10.846   8.084   3.653
19449W        W29142   1.204  19.286  14.764
19450W        W29143   1.234   1.721  11.374
19451W        W29144  11.783   3.195   0.284
19452W        W29145   0.258   6.117   4.138
19453W        W29146   9.400   2.729   4.637
19454W        W29147   2.204   2.240   2.193
19455W        W29148   0.275   8.049   2.182
19456W        W29149  11.326   2.224  11.886
19457W        W29150   4.112   9.073   2.685
19458W        W29151   5.560  19.281  13.831
19459W        W29152  11.785   2.236   4.161
19460W        W29153   6.999   2.210   2.664
19461W        W29154   8.889   4.674   1.225
19462W        W29155   1.221  17.854  12.352
19463W        W29156   0.723   8.076  11.403
19464W        W29157  10.356   5.629  13.332
19465W        W29158   4.584  18.297   3.170
19466W        W29159   9.863  11.022   3.650
19467W        W29160   6.042  11.007  11.861
19468W        W29161   0.243  15.403   3.632
19469W        W29162  10.321  18.793   2.202
19470W        W29163   1.691  11.991  13.814
19471W        W29164   6.034   7.094  12.869
19472W        W29165  10.328   5.646  10.896
19473W        W29166   4.579  12.452  13.311
19474W        W29167   3.607  16.364  14.790
19475W        W29168   4.562  13.911   2.214
19476W        W29169  10.848  16.366  13.317
19477W        W29170   8.882  18.828   2.696
19478W        W29171   6.022  12.477  13.324
19479W        W29172   5.075   9.040  12.865
19480W        W29173  10.333  14.904   0.757
19481W        W29174   8.418  11.509   2.667
19482W        W29175   2.196  18.333   2.189
19483W        W29176   7.945   8.551   4.604
19484W        W29177   9.886   7.573  14.774
19485W        W29178   1.686  17.319   2.662
19486W        W29179   1.709   5.126  14.767
19487W        W29180   1.724  11.014  13.793
19488W        W29181   4.081   0.746  14.292
19489W        W29182   9.849  13.934   0.759
19490W        W29183   3.128  15.386   4.124
19491W        W29184   5.530   6.103  11.410
19492W        W29185  10.338  17.823   2.183
19493W        W29186   1.711   6.099   1.219
19494W        W29187   9.378  14.413   4.140
19495W        W29188   8.891   8.057  13.329
19496W        W29189   8.402  14.880   1.247
19497W        W29190  10.823  14.403   3.667
19498W        W29191   5.079   1.232  11.382
19499W        W29192   2.193   2.214   2.672
19500W        W29193   5.049  11.486  12.382
19501W        W29194  11.793   5.147   2.196
19502W        W29195  11.286  11.010   2.199
19503W        W29196   5.522   7.089  11.413
19504W        W29197   8.902  19.277   0.285
19505W        W29198   1.716   8.578  13.814
19506W        W29199  10.363  17.848  11.404
19507W        W29200   3.162   2.220   0.748
19508W        W29201   5.051  11.011   2.187
19509W        W29202   0.249  13.433  13.826
19510W        W29203   4.588  19.296   0.765
19511W        W29204   6.993  17.363  13.316
19512W        W29205   6.993   7.083   2.663
19513W        W29206   0.760   0.264  13.821
19514W        W29207   4.109  13.454  14.772
19515W        W29208   0.730  16.365   0.738
19516W        W29209   4.080  13.925  11.374
19517W        W29210   0.741   4.156  10.891
19518W        W29211   2.648   2.220   3.661
19519W        W29212  10.840  12.931   3.636
19520W        W29213   1.709   3.218   2.222
19521W        W29214   1.688   8.060  13.337
19522W        W29215  10.820  15.856  11.409
19523W        W29216  11.287  15.886  14.803
19524W        W29217   6.021   2.709   4.136
19525W        W29218   4.600   2.235  10.916
19526W        W29219   2.684   2.203   4.616
19527W        W29220   9.374  19.298   4.615
19528W        W29221   9.850  11.507  12.348
19529W        W29222   6.500   7.118   0.750
19530W        W29223   2.653   7.076  12.346
19531W        W29224   0.271   8.582  14.310
19532W        W29225   9.856   6.137   0.752
19533W        W29226   4.574   8.052  11.381
19534W        W29227   9.850  19.758   4.628
19535W        W29228   2.164  11.985  11.396
19536W        W29229  10.809   8.087   0.765
19537W        W29230   8.439  17.850   3.652
19538W        W29231   5.545   9.028   4.632
19539W        W29232   2.207  12.445  12.375
19540W        W29233   1.709  14.885  10.901
19541W        W29234   5.563  10.042   2.699
19542W        W29235   3.639  15.884   1.230
19543W        W29236   2.194  14.921  13.799
19544W        W29237   5.565   5.610  13.828
19545W        W29238   5.055   1.726  12.382
19546W        W29239  10.338  15.887   4.611
19547W        W29240   8.426   7.083  13.793
19548W        W29241  10.808   2.228  14.799
19549W        W29242  11.798   7.586  11.380
19550W        W29243   0.244  10.519   2.687
19551W        W29244   0.265  19.804   2.193
19552W        W29245   2.658   1.755   2.214
19553W        W29246   4.588  11.020   0.281
19554W        W29247   5.543  16.860   0.272
19555W        W29248   6.515  10.034   0.737
19556W        W29249   3.163   8.074  13.834
19557W        W29250   0.742  17.352   2.178
19558W        W29251  11.782  13.458   2.663
19559W        W29252  10.354  10.016   1.712
19560W        W29253   3.636   7.596  13.340
19561W        W29254   7.007   4.158   0.277
19562W        W29255   4.122   7.600   3.635
19563W        W29256   8.413  10.013   1.229
19564W        W29257   3.634   3.198   2.224
19565W        W29258   4.090   9.061  13.831
19566W        W29259  11.306   4.648   4.114
19567W        W29260   3.637  18.825  11.393
19568W        W29261   6.968   1.261   4.599
19569W        W29262   9.866  10.023  11.903
19570W        W29263   6.023  10.519  13.839
19571W        W29264   5.072  12.928   0.261
19572W        W29265   7.461  13.439   0.733
19573W        W29266   8.919  12.466   1.245
19574W        W29267   9.375   9.048  10.933
19575W        W29268   0.251  10.517  13.796
19576W        W29269   7.485   2.729  12.381
19577W        W29270  11.777  11.480   0.737
19578W        W29271   7.461  11.013  14.283
19579W        W29272   9.873   5.648  13.313
19580W        W29273   8.412   9.521  11.877
19581W        W29274   1.691  16.346   3.160
19582W        W29275   0.751  18.818   4.122
19583W        W29276   3.160  11.487  14.288
19584W        W29277   9.361   3.201   2.185
19585W        W29278   8.444   7.081   2.698
19586W        W29279   0.270   0.250  10.924
19587W        W29280   8.442   8.544  13.830
19588W        W29281   7.943   1.714  10.934
19589W        W29282   7.450   0.735   0.751
19590W        W29283   6.507  16.836   0.761
19591W        W29284   8.412  12.950   4.113
19592W        W29285   4.107   8.549  11.376
19593W        W29286   3.136   5.641  13.838
19594W        W29287   8.422  13.936   0.254
19595W        W29288   5.549   6.597  12.842
19596W        W29289  10.817   3.179   4.623
19597W        W29290   1.208   5.624   2.697
19598W        W29291   5.052  10.044   4.130
19599W        W29292   6.499   8.569   4.630
19600W        W29293   2.160   6.116   3.635
19601W        W29294   2.667  15.381  14.283
19602W        W29295   0.248  18.333   0.250
19603W        W29296   0.275  14.903  13.348
19604W        W29297   5.051   0.780  11.418
19605W        W29298  11.315   1.224  12.351
19606W        W29299  10.842  18.316   1.734
19607W        W29300   7.464   6.106  14.299
19608W        W29301   3.632   8.052   0.749
19609W        W29302   7.460   7.081  12.378
19610W        W29303   1.690  10.012  10.894
19611W        W29304   6.503  11.488   1.231
19612W        W29305   0.284  12.482  12.828
19613W        W29306   4.585  12.475  12.357
19614W        W29307   8.418   4.190   2.694
19615W        W29308   3.134  10.979   1.232
19616W        W29309   6.016  18.828  11.395
19617W        W29310   5.566   5.168   3.192
19618W        W29311   0.749   4.647  11.372
19619W        W29312   3.141  13.436  12.341
19620W        W29313  10.805   4.638  13.332
19621W        W29314   5.568  11.006  10.904
19622W        W29315   9.361  14.901   4.115
19623W        W29316   3.164  18.785  13.329
19624W        W29317   7.473  10.983  10.889
19625W        W29318   8.913   5.137   0.257
19626W        W29319  11.761   2.198  12.833
19627W        W29320  11.767   0.759  11.900
19628W        W29321  10.844  10.041  13.333
19629W        W29322   1.235   5.132  14.779
19630W        W29323   0.249  19.269  13.314
19631W        W29324  11.791   3.699   1.705
19632NA      NA29325   5.060  10.042  13.316
19633NA      NA29326   1.230   7.083   1.257
19634NA      NA29327   2.192  11.981   4.141
19635NA      NA29328  10.829   2.722   0.746
19636NA      NA29329   8.892   0.288  14.779
19637NA      NA29330   7.929  13.440  13.328
19638NA      NA29331   8.405   4.670   3.652
19639NA      NA29332   8.421   8.065  14.294
19640NA      NA29333  11.302  11.021   3.174
19641NA      NA29334   0.242   4.165  14.766
19642NA      NA29335  11.326  13.905  12.836
19643NA      NA29336   7.453   7.576  10.896
19644NA      NA29337  10.327  15.860   3.661
19645NA      NA29338  11.328   2.730  13.330
19646NA      NA29339  11.281  13.437   0.248
19647NA      NA29340   7.466   7.083   3.631
19648NA      NA29341  10.805   8.539   1.217
19649NA      NA29342   1.698  12.941   1.737
19650NA      NA29343  11.286  10.495   0.753
19651NA      NA29344  11.314   6.134  10.897
19652NA      NA29345   2.187   9.040  12.340
19653NA      NA29346   0.243   5.127  11.878
19654NA      NA29347   7.474   2.233  11.862
19655NA      NA29348   2.658  19.761   4.597
19656NA      NA29349   1.215  19.790  11.900
19657NA      NA29350   2.655   5.143  12.380
19658NA      NA29351  10.834   3.207  12.836
19659NA      NA29352   9.874  18.341  12.868
19660NA      NA29353   3.607  17.354  10.892
19661NA      NA29354  10.822   3.659   3.152
19662NA      NA29355   2.684  12.457  13.815
19663NA      NA29356   1.248   8.065  14.281
19664NA      NA29357   5.538  17.807  14.314
19665NA      NA29358   4.576  10.499  10.912
19666NA      NA29359   8.895   1.250  11.871
19667NA      NA29360  11.792   1.233  10.920
19668NA      NA29361  10.805   8.068  14.296
19669NA      NA29362  11.780   5.634   4.145
19670NA      NA29363   6.031   6.145  14.766
19671NA      NA29364   5.073   4.648   0.252
19672NA      NA29365  11.766   9.526   2.225
19673NA      NA29366   9.361  17.853  12.866
19674NA      NA29367   0.744  17.322  10.894
19675NA      NA29368   4.116   2.227  12.385
19676NA      NA29369   5.047  15.900   3.178
19677NA      NA29370   2.663  19.792  14.764
19678NA      NA29371   1.687  16.867  11.859
19679NA      NA29372  11.774   7.595   2.672
19680NA      NA29373   6.505   3.678   1.233
19681NA      NA29374   0.275   8.575  10.917
19682NA      NA29375  10.820  11.476  12.852
19683NA      NA29376   6.003  14.914  12.352
19684NA      NA29377   9.374   4.188  10.893
19685NA      NA29378   0.258   6.102  11.378
19686NA      NA29379   1.724   0.775   0.268
19687NA      NA29380   7.471   9.063  13.833
19688NA      NA29381  10.331   4.184   3.158
19689NA      NA29382   2.206  17.844   0.771
19690NA      NA29383  11.781   0.766  11.391
19691NA      NA29384   7.470  11.496   4.141
19692NA      NA29385   1.202   0.739  14.282
19693NA      NA29386   1.240   3.174   3.663
19694NA      NA29387   0.253  13.427  10.930
19695NA      NA29388   0.724  13.450   0.773
19696NA      NA29389   9.402  18.338  13.308
19697NA      NA29390  10.840   3.674  14.275
19698NA      NA29391   6.991  18.796  11.892
19699NA      NA29392   6.496   8.090  14.288
19700NA      NA29393   4.592  11.988  13.818
19701NA      NA29394   5.079  10.022   3.655
19702NA      NA29395   6.989   2.716  13.345
19703NA      NA29396   4.587   4.664  11.374
19704NA      NA29397   1.722  13.944  12.372
19705NA      NA29398   5.546  19.778  12.830
19706NA      NA29399  10.824   9.040   3.633
19707NA      NA29400   6.503  18.317   3.158
19708NA      NA29401  10.842   6.138   1.217
19709NA      NA29402   3.607  15.401  10.914
19710NA      NA29403   0.760   1.756   2.205
19711NA      NA29404   1.708   5.657   0.257
19712NA      NA29405   7.473   3.678  13.819
19713NA      NA29406   8.407  18.796  11.393
19714NA      NA29407   9.867  10.515   1.221
19715NA      NA29408   4.080   9.067  12.853
19716NA      NA29409   7.002   4.192   1.223
19717NA      NA29410  10.358  11.001   1.734
19718NA      NA29411   9.888   3.180   1.696
19719NA      NA29412   9.360  17.330  13.335
19720NA      NA29413  11.321  17.365  11.872
19721NA      NA29414   6.515   3.194   1.244
19722NA      NA29415   3.620   9.532   3.184
19723NA      NA29416   9.367  19.771  12.351
19724NA      NA29417   8.884  13.906  11.898
19725NA      NA29418   6.012  15.383  12.836
19726NA      NA29419   9.407  16.358   4.158
19727NA      NA29420   8.410  16.344  14.771
19728NA      NA29421  11.782  15.873   2.192
19729NA      NA29422  10.830  15.872   3.653
19730NA      NA29423   5.048   6.632  11.895
19731NA      NA29424   4.588   7.093   1.736
19732NA      NA29425   9.868   3.210   3.638
19733NA      NA29426   9.369  13.910   2.673
19734NA      NA29427   9.878  19.298  13.317
19735NA      NA29428   4.111   9.062  11.399
19736NA      NA29429   3.604   7.092   3.183
19737NA      NA29430   9.379  17.330   0.270
19738NA      NA29431   6.030   2.688  10.928
19739NA      NA29432   1.725  17.835  11.408
19740NA      NA29433  11.769  15.408   3.659
19741NA      NA29434   1.682  18.300   2.219
19742NA      NA29435   1.202  17.355   4.138
19743NA      NA29436   2.206  14.914  14.770
19744NA      NA29437   9.385   4.667  14.290
19745NA      NA29438   2.200   0.251   1.223
19746NA      NA29439   7.445  17.335   3.653
19747NA      NA29440   0.278  10.981  12.823
19748NA      NA29441   6.043  19.282  10.903
19749NA      NA29442   5.564   9.546  12.377
19750NA      NA29443   9.861  14.899   2.684
19751NA      NA29444   3.130  13.462  10.887
19752NA      NA29445   2.673  14.398  12.861
19753NA      NA29446   4.566  12.446   2.200
19754NA      NA29447   3.148  13.950   4.611
19755NA      NA29448   6.980  11.960   0.252
19756NA      NA29449   2.189   5.170   0.769
19757NA      NA29450   0.282   8.068   3.632
19758NA      NA29451   2.206   8.566  13.791
19759NA      NA29452   0.241   1.253  12.851
19760NA      NA29453   6.986  14.889  11.380
19761NA      NA29454   7.004  11.471   1.714
19762NA      NA29455   6.481   7.601  11.890
19763NA      NA29456  10.361   4.640   3.673
19764NA      NA29457   2.644   9.055   0.269
19765NA      NA29458  11.291   7.582  13.307
19766NA      NA29459   3.631  11.957   3.172
19767NA      NA29460   8.407   5.639   3.637
19768NA      NA29461  10.355  11.956   0.760
19769NA      NA29462   0.728  19.302   2.214
19770NA      NA29463   6.521  12.934   3.664
19771NA      NA29464   3.157   4.168  10.913
19772NA      NA29465   6.491   5.152  10.919
19773NA      NA29466   2.646  15.864   2.216
19774NA      NA29467   6.977  19.800  14.773
19775NA      NA29468   7.942   8.092   4.159
19776NA      NA29469   7.477  18.802   4.148
19777NA      NA29470   1.208   0.749  11.418
19778NA      NA29471   8.415   6.119  14.776
19779NA      NA29472   6.509  15.858   1.710
19780NA      NA29473   3.150   4.670   5.125
19781NA      NA29474   2.188   2.724  13.800
19782NA      NA29475  10.838   0.250  12.837
19783NA      NA29476   3.150  18.801   0.270
19784NA      NA29477   2.168  17.844   3.637
19785NA      NA29478  10.825  16.386  13.821
19786NA      NA29479   4.578  14.398  11.880
19787NA      NA29480  10.843  16.858   2.196
19788NA      NA29481   8.887   0.740   4.608
19789NA      NA29482   3.149  13.938   0.728
19790NA      NA29483   8.442  14.907   2.697
19791NA      NA29484   6.026   1.236   2.215
19792NA      NA29485   3.636   3.698  12.382
19793NA      NA29486   2.176  17.337   4.126
19794NA      NA29487   0.245   3.671   0.740
19795NA      NA29488   2.195   0.261   4.116
19796NA      NA29489   6.968  19.294  12.831
19797NA      NA29490   3.156   0.744  13.836
19798NA      NA29491   1.225  13.443  13.352
19799NA      NA29492   2.169  11.484  12.867
19800NA      NA29493  10.825   1.249  13.332
19801NA      NA29494   6.003   1.258   1.252
19802NA      NA29495  10.354   0.757   0.739
19803NA      NA29496   0.274  10.525  12.839
19804NA      NA29497   7.482   6.620   1.720
19805NA      NA29498   1.727  10.990  12.863
19806NA      NA29499   5.537   5.628  14.767
19807NA      NA29500   6.009   9.060   4.116
19808NA      NA29501   3.627   4.665   4.640
19809NA      NA29502   9.401  11.480  14.774
19810NA      NA29503   5.078  18.781   1.220
19811NA      NA29504   1.723   8.574   2.692
19812NA      NA29505   6.024   4.192   3.671
19813NA      NA29506   2.652  13.913  13.812
19814NA      NA29507   2.190  14.423  14.288
19815NA      NA29508   5.559  10.047  10.893
19816NA      NA29509  10.321   1.251   3.630
19817NA      NA29510   2.670   7.085   0.256
19818NA      NA29511   4.090  13.915   2.204
19819NA      NA29512   0.723   0.772  14.314
19820NA      NA29513   0.270  12.939   1.232
19821NA      NA29514   5.063  13.423   0.738
19822NA      NA29515   6.020   5.160  14.298
19823NA      NA29516  11.311  13.437   4.617
19824NA      NA29517   4.096   7.109   1.213
19825NA      NA29518   9.844   6.599  13.821
19826NA      NA29519   6.523  18.306   1.703
19827NA      NA29520   4.104  17.364  12.850
19828NA      NA29521   9.368  16.342  12.374
19829NA      NA29522   6.966   3.188   1.256
19830NA      NA29523   9.871   3.182   0.745
19831NA      NA29524   2.667   7.113  11.409
19832NA      NA29525   4.594   1.241   3.664
19833NA      NA29526   4.561  17.826  12.369
19834NA      NA29527   0.269  17.853   0.266
19835NA      NA29528   8.883  10.045  12.825
19836NA      NA29529   7.001   8.058  12.340
19837NA      NA29530   0.754   5.657   3.156
19838NA      NA29531   8.909   9.549   3.192
19839NA      NA29532   1.720   1.711  10.905
19840NA      NA29533   1.247   1.719   0.284
19841NA      NA29534   2.188   2.689  12.829
19842NA      NA29535   3.134  15.865  11.406
19843NA      NA29536  11.291   3.701  13.800
19844NA      NA29537   3.165  17.831   0.747
19845NA      NA29538   3.152   2.685   0.751
19846NA      NA29539   7.949  10.514  11.388
19847NA      NA29540   6.044   3.218   2.219
19848NA      NA29541   6.013  10.010  10.906
19849NA      NA29542   1.681   2.233   2.708
19850NA      NA29543   3.607  19.316  10.908
19851NA      NA29544   3.614  13.440  11.894
19852NA      NA29545   5.057  13.463  13.826
19853NA      NA29546   2.204   4.658  11.871
19854NA      NA29547   0.733  14.393   3.629
19855NA      NA29548   2.666   8.581  11.898
19856NA      NA29549   2.207   3.668  11.387
19857NA      NA29550   9.854   9.529  14.790
19858NA      NA29551   8.445  11.467  12.838
19859NA      NA29552   6.982  12.449  12.371
19860NA      NA29553   6.021  14.899   2.677
19861NA      NA29554   1.700   0.246   0.254
19862NA      NA29555   6.038  18.326   1.228
19863NA      NA29556  10.804   1.720   4.123
19864NA      NA29557   9.856   7.603  11.382
19865NA      NA29558   3.632   5.615   2.666
19866NA      NA29559  10.337   7.113   1.717
19867NA      NA29560   9.378  19.761  12.824
19868NA      NA29561   5.052  19.281  11.868
19869NA      NA29562   6.007   4.154   1.740
19870NA      NA29563   6.974   6.125  12.382
19871NA      NA29564   4.589  13.919   3.659
19872NA      NA29565  11.798   3.199  13.332
19873NA      NA29566   5.530  13.902  13.833
19874NA      NA29567   2.196   5.615   3.188
19875NA      NA29568   6.485   5.641  11.886
19876NA      NA29569   4.126   3.202  12.347
19877NA      NA29570   8.405   8.584  10.890
19878NA      NA29571   6.483   0.269   3.157
19879NA      NA29572   4.572  18.294   0.738
19880NA      NA29573   6.489  17.805  12.859
19881NA      NA29574   1.699   7.090  10.913
19882NA      NA29575   7.950   3.219  14.806
19883NA      NA29576   7.482  19.780  14.313
19884NA      NA29577   1.233   3.175  10.888
19885NA      NA29578   6.038   4.671   0.768
19886NA      NA29579   5.524   4.191   3.629
19887NA      NA29580   6.028   2.237   4.161
19888NA      NA29581  10.804  10.519  12.852
19889NA      NA29582   8.913  16.388  10.925
19890NA      NA29583   0.250   0.291   3.161
19891NA      NA29584   4.081   5.634   1.221
19892NA      NA29585   8.445  15.372   3.181
19893NA      NA29586   6.006  18.304   4.133
19894NA      NA29587   6.977   0.761   3.175
19895NA      NA29588   3.642   2.723  11.399
19896NA      NA29589  10.832   0.760   4.610
19897NA      NA29590   8.406  11.977  10.930
19898NA      NA29591   4.590  14.436   3.185
19899NA      NA29592   2.649   2.712   2.194
19900NA      NA29593   7.951   8.083   0.261
19901NA      NA29594   9.369   8.579  12.347
19902NA      NA29595  11.286  10.013  11.869
19903NA      NA29596   0.265  18.826  14.305
19904NA      NA29597  11.306   0.751  14.797
19905NA      NA29598   2.669   0.746   0.771
19906NA      NA29599  10.817   5.641  11.897
19907NA      NA29600   6.519  13.947  11.868
19908NA      NA29601  11.299  12.951  12.345
19909NA      NA29602   6.494  12.473   3.633
19910NA      NA29603   0.260  13.435   1.702
19911NA      NA29604   6.989   9.524  11.408
19912NA      NA29605   7.465  19.287  11.397
19913NA      NA29606   7.478  12.938   3.174
19914NA      NA29607   3.140  10.527  14.798
19915NA      NA29608   8.916   2.701   3.675
19916NA      NA29609   6.509   9.518  11.374
19917NA      NA29610  11.787  11.978   3.179
19918NA      NA29611   6.998  12.949   1.715
19919NA      NA29612   6.513  17.342   2.665
19920NA      NA29613   1.728   2.196  12.856
19921NA      NA29614   1.690  17.844   3.148
19922NA      NA29615   6.494  19.285  11.416
19923NA      NA29616  11.283   9.044  11.864
19924NA      NA29617   8.880   3.668   0.734
19925NA      NA29618   2.178   8.554   1.243
19926NA      NA29619   3.151   8.565   4.125
19927NA      NA29620   6.507   6.110   3.673
19928NA      NA29621   4.578  16.349   1.223
19929NA      NA29622   1.720   9.532  14.779
19930NA      NA29623  10.338  18.800   4.624
19931NA      NA29624   5.552  15.894   1.226
19932NA      NA29625   3.149   8.562   3.148
19933NA      NA29626   7.462   3.697   2.669
19934NA      NA29627   6.969  19.781   4.627
19935NA      NA29628   7.447   8.550  11.866
19936NA      NA29629   6.024   6.624  12.349
19937NA      NA29630   4.580   1.724  11.894
19938NA      NA29631  10.342   8.093  10.931
19939NA      NA29632   4.115   2.237   3.191
19940NA      NA29633   8.405   6.632   0.761
19941NA      NA29634   8.924  11.494   1.250
19942NA      NA29635   9.847  19.309   0.727
19943NA      NA29636   5.065  18.784   0.248
19944NA      NA29637  11.289   3.659  13.318
19945NA      NA29638   4.097  18.313   3.661
19946NA      NA29639   4.577   2.234  14.788
19947NA      NA29640  11.770   8.582  12.346
19948NA      NA29641   5.550  15.898   0.278
19949NA      NA29642   2.650  12.964  10.911
19950NA      NA29643   6.046   0.733  14.795
19951NA      NA29644  11.784  12.468   0.254
19952NA      NA29645   1.231  10.986  13.348
19953NA      NA29646   9.389   4.183  11.873
19954NA      NA29647   6.029   7.088  13.330
19955NA      NA29648   1.703  15.410  14.786
19956NA      NA29649  10.814   1.753   0.266
19957NA      NA29650   1.714  11.479  13.826
19958NA      NA29651  10.847   2.716  10.920
19959NA      NA29652  10.338  11.485   0.276
19960NA      NA29653   5.082   1.235   1.244
19961NA      NA29654   2.178  12.461  14.783
19962NA      NA29655   3.637   3.703  11.871
19963NA      NA29656   4.578  15.897  12.386
19964NA      NA29657   6.486   2.204   4.629
19965NA      NA29658   6.046   7.112   2.693
19966NA      NA29659  11.781  15.898   3.161
19967NA      NA29660   7.457   0.285   2.213
19968NA      NA29661   6.482  16.851   1.231
19969NA      NA29662   8.910   0.761   3.175
19970NA      NA29663   9.387  14.421  12.353
19971NA      NA29664   1.212   0.264  13.328
19972NA      NA29665   7.932  17.841   3.673
19973NA      NA29666   0.263  11.963  12.855
19974NA      NA29667   1.230   2.688  12.375
19975NA      NA29668   9.375  11.008   3.630
19976NA      NA29669   2.171  17.356   3.673
19977NA      NA29670   8.905  12.450  13.803
19978NA      NA29671  10.332   2.228  14.764
19979NA      NA29672   5.533   6.587   3.656
19980NA      NA29673   2.643   6.131   2.225
19981NA      NA29674   5.056   0.270   2.200
19982NA      NA29675   1.711  14.915   1.242
19983NA      NA29676  10.817   0.776  13.838
19984NA      NA29677   0.280  13.922   3.172
19985NA      NA29678   9.847   6.119   4.150
19986NA      NA29679  10.801  18.330  12.841
19987NA      NA29680   1.201  11.489  10.887
19988NA      NA29681   8.915  18.784  11.418
19989NA      NA29682   7.447  10.536   4.632
19990NA      NA29683  11.289  14.902  13.795
19991NA      NA29684   5.551   9.033  13.350
19992NA      NA29685   4.093  15.406  14.310
19993NA      NA29686   9.850   2.232  13.796
19994NA      NA29687   7.937   5.611   3.659
19995NA      NA29688   0.249  12.487  11.899
19996NA      NA29689   5.072  10.507  11.375
19997NA      NA29690  11.794  19.271  11.889
19998NA      NA29691   8.412   7.115   1.731
19999NA      NA29692   1.242   7.570   2.218
20000NA      NA29693   9.369  11.013  11.896
20001NA      NA29694   0.728  11.490  13.825
20002NA      NA29695   5.068  11.982  14.780
20003NA      NA29696   5.064  13.918   1.226
20004NA      NA29697   4.086   0.258   2.195
20005NA      NA29698   0.252   4.148   4.150
20006NA      NA29699   2.179   1.263   3.677
20007NA      NA29700   7.487  12.973  12.868
20008NA      NA29701   6.495  12.957   4.125
20009NA      NA29702   1.214  10.505  11.403
20010NA      NA29703   7.962   5.148  14.778
20011NA      NA29704   0.282  16.355  10.907
20012NA      NA29705   7.944  16.847   3.654
20013NA      NA29706   3.646  14.900   2.707
20014NA      NA29707   4.113  14.415  11.418
20015NA      NA29708   9.878   9.047  11.382
20016NA      NA29709   5.557   2.216   1.211
20017NA      NA29710   9.369   0.247  13.816
20018NA      NA29711   9.406   7.589   1.700
20019NA      NA29712   4.592  16.370  11.407
20020NA      NA29713   1.233  18.302  10.899
20021NA      NA29714   4.572  10.018   2.217
20022NA      NA29715   4.598  17.322  13.796
20023NA      NA29716  10.355  11.960  14.803
20024NA      NA29717   6.990  19.757   1.738
20025NA      NA29718   0.260   9.028   3.671
20026NA      NA29719   5.066   8.052   3.168
20027NA      NA29720   1.241  11.002   4.127
20028NA      NA29721   9.853  10.533  11.397
20029NA      NA29722  10.815   9.549   4.601
20030NA      NA29723   4.601   6.117   1.243
20031NA      NA29724  11.319  15.861   0.733
20032NA      NA29725   7.968  13.907  14.766
20033NA      NA29726   2.161   7.076  13.326
20034NA      NA29727   8.898   8.059   0.264
20035NA      NA29728   4.597  11.984  10.926
20036NA      NA29729  10.357   6.108   2.681
20037NA      NA29730   2.677  14.427   0.767
20038NA      NA29731   0.748   0.269   3.182
20039NA      NA29732   7.485   6.602  14.790
20040NA      NA29733   9.395  19.283   2.189
20041NA      NA29734   6.524  18.799  14.787
20042NA      NA29735  10.350  10.512  13.327
20043NA      NA29736   5.059   1.257  10.927
20044NA      NA29737   0.280  13.461   0.772
20045NA      NA29738  10.841   0.740  11.397
20046NA      NA29739   5.555  10.011  11.900
20047NA      NA29740   2.674  15.880   1.734
20048NA      NA29741   9.362  19.780   2.692
20049NA      NA29742   5.045  13.424  13.329
20050NA      NA29743  11.807  19.315   1.233
20051NA      NA29744   5.567   0.741  11.888
20052NA      NA29745   7.484   6.591   2.178
20053NA      NA29746  11.790  13.904  12.356
20054NA      NA29747  11.280   7.096   1.737
20055NA      NA29748   2.185  13.450  11.375
20056NA      NA29749   2.191  18.320  12.847
20057NA      NA29750   1.210   1.230   3.673
20058NA      NA29751  11.311  12.966  14.805
20059NA      NA29752   6.015   2.699   3.163
20060NA      NA29753   8.443  13.944   1.230
20061NA      NA29754   6.990   3.668  13.327
20062NA      NA29755   3.132  17.336   3.161
20063NA      NA29756  10.841   2.224  10.909
20064NA      NA29757   7.453  15.367  13.811
20065NA      NA29758   0.726   7.598   2.687
20066NA      NA29759   0.721  10.998   4.124
20067NA      NA29760   2.187   5.612  14.759
20068NA      NA29761   7.926  12.453   2.678
20069NA      NA29762   2.659   3.184   4.138
20070NA      NA29763   8.429  12.441  13.837
20071NA      NA29764   2.652   0.259   1.738
20072NA      NA29765   6.488   3.673   2.693
20073NA      NA29766   5.061  12.971   1.721
20074NA      NA29767   0.261   4.194   0.274
20075NA      NA29768   0.261   6.613   3.188
20076NA      NA29769   9.853  15.873  13.318
20077NA      NA29770   8.917   5.636   1.702
20078NA      NA29771   3.642   9.031  14.313
20079NA      NA29772   3.607  13.950  14.295
20080NA      NA29773   6.006   5.127  13.812
20081NA      NA29774   4.568  19.779  12.856
20082NA      NA29775  10.352  16.388   1.702
20083NA      NA29776   8.925   2.242   1.734
20084NA      NA29777   2.175   4.176   4.124
20085NA      NA29778   8.920  10.529   3.173
20086NA      NA29779  11.314  14.428   4.606
20087NA      NA29780   1.709  19.292   4.149
20088NA      NA29781   2.672  11.504  13.827
20089NA      NA29782   1.700  16.353  11.383
20090NA      NA29783   9.886  17.321  12.384
20091NA      NA29784   9.366   4.167   0.738
20092NA      NA29785   1.237   9.066  14.781
20093NA      NA29786  11.296  11.492  10.927
20094NA      NA29787   9.861   6.144  12.346
20095NA      NA29788   7.949  17.344   4.634
20096NA      NA29789   4.093  11.963  14.310
20097NA      NA29790   1.203   9.519   4.119
20098NA      NA29791  10.361  14.396  10.917
20099NA      NA29792  10.362  18.808   2.680
20100NA      NA29793   4.107  10.017   3.646
20101NA      NA29794  10.838  10.491   3.191
20102NA      NA29795   9.865  14.426   3.182
20103NA      NA29796   4.116  19.312  12.851
20104NA      NA29797   4.605  10.014  13.821
20105NA      NA29798   7.453   3.673   4.605
20106NA      NA29799   8.918  12.486   4.607
20107NA      NA29800   1.720  13.944   4.136
20108NA      NA29801   9.852  18.308   3.670
20109NA      NA29802   5.533   6.596  13.834
20110NA      NA29803   6.030   8.076  12.858
20111NA      NA29804   6.961  10.514   4.605
20112NA      NA29805  11.767  13.438  14.302
20113NA      NA29806   6.028  11.494  13.347
20114NA      NA29807   6.026  14.436  14.287
20115NA      NA29808   3.615  13.415  11.414
20116NA      NA29809   8.420   5.125   1.215
20117POPI    C129810  17.356  11.231   9.450
20117POPI    C229811  17.395  11.176   9.750
20117POPI    C329812  17.236  11.231   9.750
20117POPI   PO429813  17.215  11.244   9.150
20117POPI   GL129814  17.246  11.193   8.850
20117POPI   GL229815  17.377  11.196   8.850
20117POPI   C1A29816  17.277  11.169   8.550
20117POPI   D2A29817  17.276  11.202   8.250
20117POPI   C3A29818  17.268  11.225   7.950
20117POPI   C4A29819  17.242  11.179   7.650
20117POPI   C1B29820  17.455  11.235   8.550
20117POPI   C2B29821  17.463  11.175   8.250
20117POPI   C3B29822  17.467  11.198   7.950
20117POPI   C4B29823  17.459  11.222   7.650
20118POPI    C129824  14.901   7.245   9.450
20118POPI    C229825  14.900   7.209   9.750
20118POPI    C329826  14.824   7.356   9.750
20118POPI   PO429827  14.868   7.325   9.150
20118POPI   GL129828  14.876   7.320   8.850
20118POPI   GL229829  14.915   7.220   8.850
20118POPI   C1A29830  14.888   7.324   8.550
20118POPI   D2A29831  14.879   7.391   8.250
20118POPI   C3A29832  14.856   7.406   7.950
20118POPI   C4A29833  14.815   7.327   7.650
20118POPI   C1B29834  14.934   7.098   8.550
20118POPI   C2B29835  14.927   7.137   8.250
20118POPI   C3B29836  14.916   7.156   7.950
20118POPI   C4B29837  14.911   7.094   7.650
20119POPI    C129838  14.675  12.026   9.450
20119POPI    C229839  14.731  12.013   9.750
20119POPI    C329840  14.820  12.020   9.750
20119POPI   PO429841  14.896  11.982   9.150
20119POPI   GL129842  14.809  11.971   8.850
20119POPI   GL229843  14.686  12.027   8.850
20119POPI   C1A29844  14.829  11.930   8.550
20119POPI   D2A29845  14.840  11.959   8.250
20119POPI   C3A29846  14.859  11.969   7.950
20119POPI   C4A29847  14.819  11.993   7.650
20119POPI   C1B29848  14.556  12.007   8.550
20119POPI   C2B29849  14.597  12.035   8.250
20119POPI   C3B29850  14.610  12.022   7.950
20119POPI   C4B29851  14.588  12.025   7.650
20120POPI    C129852  17.153   8.168   9.450
20120POPI    C229853  17.148   8.199   9.750
20120POPI    C329854  17.261   8.111   9.750
20120POPI   PO429855  17.209   8.172   9.150
20120POPI   GL129856  17.295   8.165   8.850
20120POPI   GL229857  17.117   8.187   8.850
20120POPI   C1A29858  17.206   8.095   8.550
20120POPI   D2A29859  17.286   8.175   8.250
20120POPI   C3A29860  17.259   8.163   7.950
20120POPI   C4A29861  17.202   8.096   7.650
20120POPI   C1B29862  16.973   8.216   8.550
20120POPI   C2B29863  16.968   8.254   8.250
20120POPI   C3B29864  16.984   8.178   7.950
20120POPI   C4B29865  17.034   8.180   7.650
20121POPI    C129866  15.732   2.110   9.450
20121POPI    C229867  15.702   2.121   9.750
20121POPI    C329868  15.643   2.012   9.750
20121POPI   PO429869  15.669   1.964   9.150
20121POPI   GL129870  15.602   1.977   8.850
20121POPI   GL229871  15.717   2.066   8.850
20121POPI   C1A29872  15.677   1.954   8.550
20121POPI   D2A29873  15.646   1.955   8.250
20121POPI   C3A29874  15.620   1.970   7.950
20121POPI   C4A29875  15.630   1.962   7.650
20121POPI   C1B29876  15.778   2.191   8.550
20121POPI   C2B29877  15.814   2.236   8.250
20121POPI   C3B29878  15.794   2.178   7.950
20121POPI   C4B29879  15.730   2.161   7.650
20122POPI    C129880  14.026   9.517   9.450
20122POPI    C229881  14.028   9.593   9.750
20122POPI    C329882  14.058   9.704   9.750
20122POPI   PO429883  14.062   9.655   9.150
20122POPI   GL129884  14.038   9.710   8.850
20122POPI   GL229885  14.032   9.523   8.850
20122POPI   C1A29886  14.082   9.668   8.550
20122POPI   D2A29887  14.004   9.655   8.250
20122POPI   C3A29888  14.050   9.690   7.950
20122POPI   C4A29889  14.072   9.674   7.650
20122POPI   C1B29890  13.933   9.471   8.550
20122POPI   C2B29891  13.999   9.428   8.250
20122POPI   C3B29892  13.925   9.461   7.950
20122POPI   C4B29893  13.956   9.483   7.650
20123POPI    C129894  19.586   8.829   9.450
20123POPI    C229895  19.563   8.843   9.750
20123POPI    C329896  19.634   8.916   9.750
20123POPI   PO429897  19.622   8.926   9.150
20123POPI   GL129898  19.628   8.919   8.850
20123POPI   GL229899  19.542   8.801   8.850
20123POPI   C1A29900  19.697   8.935   8.550
20123POPI   D2A29901  19.613   8.924   8.250
20123POPI   C3A29902  19.668   8.853   7.950
20123POPI   C4A29903  19.655   8.875   7.650
20123POPI   C1B29904  19.476   8.759   8.550
20123POPI   C2B29905  19.445   8.743   8.250
20123POPI   C3B29906  19.513   8.726   7.950
20123POPI   C4B29907  19.485   8.751   7.650
20124POPI    C129908  18.871   9.822   9.450
20124POPI    C229909  18.879   9.736   9.750
20124POPI    C329910  18.824   9.669   9.750
20124POPI   PO429911  18.849   9.639   9.150
20124POPI   GL129912  18.813   9.648   8.850
20124POPI   GL229913  18.943   9.816   8.850
20124POPI   C1A29914  18.819   9.685   8.550
20124POPI   D2A29915  18.801   9.664   8.250
20124POPI   C3A29916  18.840   9.697   7.950
20124POPI   C4A29917  18.898   9.642   7.650
20124POPI   C1B29918  18.926   9.934   8.550
20124POPI   C2B29919  18.970   9.928   8.250
20124POPI   C3B29920  18.904   9.894   7.950
20124POPI   C4B29921  18.955   9.906   7.650
20125POPI    C129922  16.315   0.388   9.450
20125POPI    C229923  16.332   0.373   9.750
20125POPI    C329924  16.460   0.430   9.750
20125POPI   PO429925  16.461   0.442   9.150
20125POPI   GL129926  16.485   0.450   8.850
20125POPI   GL229927  16.393   0.365   8.850
20125POPI   C1A29928  16.455   0.397   8.550
20125POPI   D2A29929  16.464   0.414   8.250
20125POPI   C3A29930  16.490   0.466   7.950
20125POPI   C4A29931  16.471   0.479   7.650
20125POPI   C1B29932  16.224   0.250   8.550
20125POPI   C2B29933  16.212   0.331   8.250
20125POPI   C3B29934  16.280   0.324   7.950
20125POPI   C4B29935  16.208   0.294   7.650
20126POPI    C129936  19.729   1.866   9.450
20126POPI    C229937  19.720   1.928   9.750
20126POPI    C329938  19.696   2.009   9.750
20126POPI   PO429939  19.634   2.019   9.150
20126POPI   GL129940  19.657   1.945   8.850
20126POPI   GL229941  19.781   1.866   8.850
20126POPI   C1A29942  19.654   1.941   8.550
20126POPI   D2A29943  19.617   2.017   8.250
20126POPI   C3A29944  19.647   1.929   7.950
20126POPI   C4A29945  19.686   1.994   7.650
20126POPI   C1B29946  19.855   1.881   8.550
20126POPI   C2B29947  19.815   1.842   8.250
20126POPI   C3B29948  19.822   1.800   7.950
20126POPI   C4B29949  19.893   1.835   7.650
20127POPI    C129950  18.122   8.933   9.450
20127POPI    C229951  18.098   9.019   9.750
20127POPI    C329952  18.059   8.894   9.750
20127POPI   PO429953  18.045   8.846   9.150
20127POPI   GL129954  18.033   8.934   8.850
20127POPI   GL229955  18.188   8.934   8.850
20127POPI   C1A29956  18.095   8.897   8.550
20127POPI   D2A29957  18.011   8.858   8.250
20127POPI   C3A29958  18.021   8.885   7.950
20127POPI   C4A29959  18.035   8.847   7.650
20127POPI   C1B29960  18.191   9.056   8.550
20127POPI   C2B29961  18.268   9.096   8.250
20127POPI   C3B29962  18.260   9.099   7.950
20127POPI   C4B29963  18.227   9.055   7.650
20128POPI    C129964  13.179  11.097   9.450
20128POPI    C229965  13.166  11.154   9.750
20128POPI    C329966  13.257  11.173   9.750
20128POPI   PO429967  13.241  11.162   9.150
20128POPI   GL129968  13.287  11.160   8.850
20128POPI   GL229969  13.222  11.144   8.850
20128POPI   C1A29970  13.290  11.188   8.550
20128POPI   D2A29971  13.299  11.191   8.250
20128POPI   C3A29972  13.218  11.246   7.950
20128POPI   C4A29973  13.281  11.249   7.650
20128POPI   C1B29974  13.061  11.025   8.550
20128POPI   C2B29975  13.134  11.032   8.250
20128POPI   C3B29976  13.115  11.019   7.950
20128POPI   C4B29977  13.124  10.969   7.650
20129POPI    C129978  17.346   8.844   9.450
20129POPI    C229979  17.387   8.884   9.750
20129POPI    C329980  17.230   8.891   9.750
20129POPI   PO429981  17.269   8.935   9.150
20129POPI   GL129982  17.276   8.938   8.850
20129POPI   GL229983  17.326   8.866   8.850
20129POPI   C1A29984  17.206   8.910   8.550
20129POPI   D2A29985  17.203   8.928   8.250
20129POPI   C3A29986  17.288   8.926   7.950
20129POPI   C4A29987  17.221   8.934   7.650
20129POPI   C1B29988  17.468   8.810   8.550
20129POPI   C2B29989  17.479   8.767   8.250
20129POPI   C3B29990  17.428   8.821   7.950
20129POPI   C4B29991  17.493   8.769   7.650
20130POPI    C129992  15.572  12.594   9.450
20130POPI    C229993  15.622  12.661   9.750
20130POPI    C329994  15.672  12.754   9.750
20130POPI   PO429995  15.612  12.723   9.150
20130POPI   GL129996  15.635  12.781   8.850
20130POPI   GL229997  15.599  12.678   8.850
20130POPI   C1A29998  15.674  12.746   8.550
20130POPI   D2A29999  15.629  12.703   8.250
20130POPI   C3A30000  15.627  12.738   7.950
20130POPI   C4A30001  15.669  12.694   7.650
20130POPI   C1B30002  15.533  12.587   8.550
20130POPI   C2B30003  15.463  12.579   8.250
20130POPI   C3B30004  15.506  12.590   7.950
20130POPI   C4B30005  15.545  12.550   7.650
20131POPI    C130006  12.310  14.286   9.450
20131POPI    C230007  12.292  14.273   9.750
20131POPI    C330008  12.490  14.312   9.750
20131POPI   PO430009  12.414  14.290   9.150
20131POPI   GL130010  12.453  14.245   8.850
20131POPI   GL230011  12.334  14.286   8.850
20131POPI   C1A30012  12.493  14.266   8.550
20131POPI   D2A30013  12.462  14.237   8.250
20131POPI   C3A30014  12.481  14.322   7.950
20131POPI   C4A30015  12.493  14.325   7.650
20131POPI   C1B30016  12.200  14.284   8.550
20131POPI   C2B30017  12.190  14.348   8.250
20131POPI   C3B30018  12.226  14.347   7.950
20131POPI   C4B30019  12.200  14.275   7.650
20132POPI    C130020  17.293  13.422   9.450
20132POPI    C230021  17.362  13.385   9.750
20132POPI    C330022  17.268  13.476   9.750
20132POPI   PO430023  17.259  13.561   9.150
20132POPI   GL130024  17.273  13.463   8.850
20132POPI   GL230025  17.303  13.440   8.850
20132POPI   C1A30026  17.255  13.484   8.550
20132POPI   D2A30027  17.280  13.479   8.250
20132POPI   C3A30028  17.278  13.498   7.950
20132POPI   C4A30029  17.267  13.498   7.650
20132POPI   C1B30030  17.400  13.352   8.550
20132POPI   C2B30031  17.460  13.286   8.250
20132POPI   C3B30032  17.430  13.310   7.950
20132POPI   C4B30033  17.381  13.357   7.650
20133POPI    C130034  14.163   3.592   9.450
20133POPI    C230035  14.182   3.631   9.750
20133POPI    C330036  14.098   3.516   9.750
20133POPI   PO430037  14.093   3.488   9.150
20133POPI   GL130038  14.094   3.526   8.850
20133POPI   GL230039  14.154   3.583   8.850
20133POPI   C1A30040  14.013   3.492   8.550
20133POPI   D2A30041  14.005   3.482   8.250
20133POPI   C3A30042  14.055   3.519   7.950
20133POPI   C4A30043  14.046   3.546   7.650
20133POPI   C1B30044  14.218   3.656   8.550
20133POPI   C2B30045  14.182   3.733   8.250
20133POPI   C3B30046  14.267   3.648   7.950
20133POPI   C4B30047  14.263   3.722   7.650
20134POPI    C130048  18.873  10.314   9.450
20134POPI    C230049  18.928  10.315   9.750
20134POPI    C330050  18.855  10.411   9.750
20134POPI   PO430051  18.862  10.385   9.150
20134POPI   GL130052  18.833  10.433   8.850
20134POPI   GL230053  18.872  10.334   8.850
20134POPI   C1A30054  18.870  10.470   8.550
20134POPI   D2A30055  18.824  10.470   8.250
20134POPI   C3A30056  18.822  10.411   7.950
20134POPI   C4A30057  18.898  10.393   7.650
20134POPI   C1B30058  18.960  10.173   8.550
20134POPI   C2B30059  18.908  10.191   8.250
20134POPI   C3B30060  18.921  10.162   7.950
20134POPI   C4B30061  18.871  10.242   7.650
20135POPI    C130062  14.068   5.183   9.450
20135POPI    C230063  14.052   5.157   9.750
20135POPI    C330064  14.081   5.028   9.750
20135POPI   PO430065  14.037   5.059   9.150
20135POPI   GL130066  14.096   5.081   8.850
20135POPI   GL230067  14.036   5.207   8.850
20135POPI   C1A30068  14.019   5.047   8.550
20135POPI   D2A30069  14.099   5.027   8.250
20135POPI   C3A30070  14.045   5.046   7.950
20135POPI   C4A30071  14.091   5.057   7.650
20135POPI   C1B30072  14.042   5.305   8.550
20135POPI   C2B30073  14.041   5.307   8.250
20135POPI   C3B30074  14.034   5.336   7.950
20135POPI   C4B30075  14.050   5.300   7.650
20136POPI    C130076  16.466  16.697   9.450
20136POPI    C230077  16.451  16.759   9.750
20136POPI    C330078  16.410  16.622   9.750
20136POPI   PO430079  16.449  16.551   9.150
20136POPI   GL130080  16.410  16.576   8.850
20136POPI   GL230081  16.463  16.739   8.850
20136POPI   C1A30082  16.404  16.623   8.550
20136POPI   D2A30083  16.466  16.594   8.250
20136POPI   C3A30084  16.401  16.561   7.950
20136POPI   C4A30085  16.470  16.617   7.650
20136POPI   C1B30086  16.502  16.801   8.550
20136POPI   C2B30087  16.472  16.878   8.250
20136POPI   C3B30088  16.498  16.878   7.950
20136POPI   C4B30089  16.494  16.847   7.650
20137POPI    C130090  14.912  15.697   9.450
20137POPI    C230091  14.920  15.686   9.750
20137POPI    C330092  14.829  15.772   9.750
20137POPI   PO430093  14.876  15.771   9.150
20137POPI   GL130094  14.856  15.819   8.850
20137POPI   GL230095  14.919  15.697   8.850
20137POPI   C1A30096  14.854  15.844   8.550
20137POPI   D2A30097  14.855  15.868   8.250
20137POPI   C3A30098  14.853  15.778   7.950
20137POPI   C4A30099  14.887  15.787   7.650
20137POPI   C1B30100  14.958  15.598   8.550
20137POPI   C2B30101  14.894  15.577   8.250
20137POPI   C3B30102  14.962  15.604   7.950
20137POPI   C4B30103  14.914  15.594   7.650
20138POPI    C130104  14.714   3.583   9.450
20138POPI    C230105  14.747   3.594   9.750
20138POPI    C330106  14.807   3.504   9.750
20138POPI   PO430107  14.841   3.532   9.150
20138POPI   GL130108  14.840   3.526   8.850
20138POPI   GL230109  14.776   3.565   8.850
20138POPI   C1A30110  14.854   3.501   8.550
20138POPI   D2A30111  14.873   3.505   8.250
20138POPI   C3A30112  14.842   3.481   7.950
20138POPI   C4A30113  14.816   3.519   7.650
20138POPI   C1B30114  14.652   3.589   8.550
20138POPI   C2B30115  14.625   3.579   8.250
20138POPI   C3B30116  14.597   3.629   7.950
20138POPI   C4B30117  14.666   3.629   7.650
20139POPI    C130118  17.935  14.345   9.450
20139POPI    C230119  17.934  14.267   9.750
20139POPI    C330120  18.086  14.290   9.750
20139POPI   PO430121  18.072  14.275   9.150
20139POPI   GL130122  18.082  14.323   8.850
20139POPI   GL230123  17.969  14.313   8.850
20139POPI   C1A30124  18.084  14.295   8.550
20139POPI   D2A30125  18.059  14.239   8.250
20139POPI   C3A30126  18.094  14.312   7.950
20139POPI   C4A30127  18.016  14.330   7.650
20139POPI   C1B30128  17.853  14.353   8.550
20139POPI   C2B30129  17.778  14.337   8.250
20139POPI   C3B30130  17.786  14.378   7.950
20139POPI   C4B30131  17.779  14.341   7.650
20140POPI    C130132  18.941  13.605   9.450
20140POPI    C230133  18.888  13.594   9.750
20140POPI    C330134  18.863  13.471   9.750
20140POPI   PO430135  18.826  13.505   9.150
20140POPI   GL130136  18.823  13.495   8.850
20140POPI   GL230137  18.909  13.643   8.850
20140POPI   C1A30138  18.816  13.531   8.550
20140POPI   D2A30139  18.828  13.521   8.250
20140POPI   C3A30140  18.836  13.511   7.950
20140POPI   C4A30141  18.868  13.496   7.650
20140POPI   C1B30142  18.990  13.644   8.550
20140POPI   C2B30143  19.071  13.724   8.250
20140POPI   C3B30144  18.998  13.687   7.950
20140POPI   C4B30145  19.057  13.699   7.650
20141POPI    C130146  17.958  15.789   9.450
20141POPI    C230147  17.904  15.833   9.750
20141POPI    C330148  18.069  15.790   9.750
20141POPI   PO430149  18.085  15.829   9.150
20141POPI   GL130150  18.051  15.846   8.850
20141POPI   GL230151  17.909  15.850   8.850
20141POPI   C1A30152  18.048  15.780   8.550
20141POPI   D2A30153  18.026  15.857   8.250
20141POPI   C3A30154  18.045  15.839   7.950
20141POPI   C4A30155  18.096  15.826   7.650
20141POPI   C1B30156  17.786  15.777   8.550
20141POPI   C2B30157  17.769  15.808   8.250
20141POPI   C3B30158  17.799  15.843   7.950
20141POPI   C4B30159  17.847  15.866   7.650
20142POPI    C130160  16.364   3.618   9.450
20142POPI    C230161  16.377   3.599   9.750
20142POPI    C330162  16.451   3.473   9.750
20142POPI   PO430163  16.430   3.493   9.150
20142POPI   GL130164  16.494   3.479   8.850
20142POPI   GL230165  16.438   3.599   8.850
20142POPI   C1A30166  16.420   3.553   8.550
20142POPI   D2A30167  16.458   3.550   8.250
20142POPI   C3A30168  16.476   3.538   7.950
20142POPI   C4A30169  16.456   3.552   7.650
20142POPI   C1B30170  16.352   3.736   8.550
20142POPI   C2B30171  16.337   3.695   8.250
20142POPI   C3B30172  16.331   3.780   7.950
20142POPI   C4B30173  16.331   3.712   7.650
20143POPI    C130174  18.897  11.071   9.450
20143POPI    C230175  18.882  11.049   9.750
20143POPI    C330176  18.876  11.230   9.750
20143POPI   PO430177  18.818  11.165   9.150
20143POPI   GL130178  18.804  11.201   8.850
20143POPI   GL230179  18.828  11.068   8.850
20143POPI   C1A30180  18.875  11.240   8.550
20143POPI   D2A30181  18.891  11.197   8.250
20143POPI   C3A30182  18.833  11.224   7.950
20143POPI   C4A30183  18.826  11.223   7.650
20143POPI   C1B30184  18.900  10.988   8.550
20143POPI   C2B30185  18.931  10.928   8.250
20143POPI   C3B30186  18.921  10.976   7.950
20143POPI   C4B30187  18.869  10.923   7.650
20144POPI    C130188  16.357  11.344   9.450
20144POPI    C230189  16.362  11.329   9.750
20144POPI    C330190  16.478  11.197   9.750
20144POPI   PO430191  16.484  11.252   9.150
20144POPI   GL130192  16.422  11.217   8.850
20144POPI   GL230193  16.413  11.279   8.850
20144POPI   C1A30194  16.482  11.229   8.550
20144POPI   D2A30195  16.440  11.189   8.250
20144POPI   C3A30196  16.436  11.173   7.950
20144POPI   C4A30197  16.466  11.233   7.650
20144POPI   C1B30198  16.293  11.432   8.550
20144POPI   C2B30199  16.345  11.406   8.250
20144POPI   C3B30200  16.324  11.363   7.950
20144POPI   C4B30201  16.328  11.416   7.650
20145POPI    C130202  19.556  16.731   9.450
20145POPI    C230203  19.613  16.656   9.750
20145POPI    C330204  19.667  16.554   9.750
20145POPI   PO430205  19.674  16.633   9.150
20145POPI   GL130206  19.696  16.633   8.850
20145POPI   GL230207  19.635  16.701   8.850
20145POPI   C1A30208  19.681  16.564   8.550
20145POPI   D2A30209  19.664  16.597   8.250
20145POPI   C3A30210  19.642  16.600   7.950
20145POPI   C4A30211  19.619  16.565   7.650
20145POPI   C1B30212  19.508  16.764   8.550
20145POPI   C2B30213  19.555  16.795   8.250
20145POPI   C3B30214  19.543  16.824   7.950
20145POPI   C4B30215  19.551  16.822   7.650
20146POPI    C130216  16.514  13.411   9.450
20146POPI    C230217  16.522  13.463   9.750
20146POPI    C330218  16.487  13.553   9.750
20146POPI   PO430219  16.449  13.494   9.150
20146POPI   GL130220  16.425  13.554   8.850
20146POPI   GL230221  16.539  13.467   8.850
20146POPI   C1A30222  16.473  13.494   8.550
20146POPI   D2A30223  16.412  13.535   8.250
20146POPI   C3A30224  16.458  13.502   7.950
20146POPI   C4A30225  16.401  13.529   7.650
20146POPI   C1B30226  16.584  13.291   8.550
20146POPI   C2B30227  16.582  13.291   8.250
20146POPI   C3B30228  16.627  13.317   7.950
20146POPI   C4B30229  16.584  13.287   7.650
20147POPI    C130230  15.663   1.034   9.450
20147POPI    C230231  15.716   1.053   9.750
20147POPI    C330232  15.630   1.164   9.750
20147POPI   PO430233  15.615   1.177   9.150
20147POPI   GL130234  15.630   1.154   8.850
20147POPI   GL230235  15.676   1.121   8.850
20147POPI   C1A30236  15.601   1.176   8.550
20147POPI   D2A30237  15.615   1.186   8.250
20147POPI   C3A30238  15.609   1.233   7.950
20147POPI   C4A30239  15.603   1.160   7.650
20147POPI   C1B30240  15.684   0.918   8.550
20147POPI   C2B30241  15.651   0.936   8.250
20147POPI   C3B30242  15.666   0.924   7.950
20147POPI   C4B30243  15.695   0.979   7.650
20148POPI    C130244  17.315   1.114   9.450
20148POPI    C230245  17.366   1.124   9.750
20148POPI    C330246  17.237   1.228   9.750
20148POPI   PO430247  17.287   1.199   9.150
20148POPI   GL130248  17.235   1.245   8.850
20148POPI   GL230249  17.406   1.127   8.850
20148POPI   C1A30250  17.292   1.157   8.550
20148POPI   D2A30251  17.268   1.166   8.250
20148POPI   C3A30252  17.243   1.205   7.950
20148POPI   C4A30253  17.226   1.169   7.650
20148POPI   C1B30254  17.496   1.138   8.550
20148POPI   C2B30255  17.439   1.105   8.250
20148POPI   C3B30256  17.472   1.108   7.950
20148POPI   C4B30257  17.458   1.106   7.650
20149POPI    C130258  19.600  18.804   9.450
20149POPI    C230259  19.581  18.795   9.750
20149POPI    C330260  19.624  18.921   9.750
20149POPI   PO430261  19.644  18.906   9.150
20149POPI   GL130262  19.615  18.906   8.850
20149POPI   GL230263  19.644  18.773   8.850
20149POPI   C1A30264  19.699  18.899   8.550
20149POPI   D2A30265  19.676  18.899   8.250
20149POPI   C3A30266  19.632  18.859   7.950
20149POPI   C4A30267  19.662  18.879   7.650
20149POPI   C1B30268  19.554  18.697   8.550
20149POPI   C2B30269  19.571  18.645   8.250
20149POPI   C3B30270  19.507  18.683   7.950
20149POPI   C4B30271  19.557  18.639   7.650
20150POPI    C130272  16.616   7.386   9.450
20150POPI    C230273  16.583   7.406   9.750
20150POPI    C330274  16.456   7.393   9.750
20150POPI   PO430275  16.475   7.407   9.150
20150POPI   GL130276  16.406   7.367   8.850
20150POPI   GL230277  16.599   7.370   8.850
20150POPI   C1A30278  16.446   7.382   8.550
20150POPI   D2A30279  16.411   7.385   8.250
20150POPI   C3A30280  16.434   7.322   7.950
20150POPI   C4A30281  16.428   7.373   7.650
20150POPI   C1B30282  16.691   7.424   8.550
20150POPI   C2B30283  16.646   7.465   8.250
20150POPI   C3B30284  16.658   7.413   7.950
20150POPI   C4B30285  16.730   7.494   7.650
20151POPI    C130286  19.619   7.973   9.450
20151POPI    C230287  19.638   7.987   9.750
20151POPI    C330288  19.623   8.106   9.750
20151POPI   PO430289  19.686   8.174   9.150
20151POPI   GL130290  19.661   8.143   8.850
20151POPI   GL230291  19.569   8.051   8.850
20151POPI   C1A30292  19.664   8.100   8.550
20151POPI   D2A30293  19.620   8.167   8.250
20151POPI   C3A30294  19.692   8.113   7.950
20151POPI   C4A30295  19.668   8.092   7.650
20151POPI   C1B30296  19.519   7.934   8.550
20151POPI   C2B30297  19.552   7.873   8.250
20151POPI   C3B30298  19.545   7.863   7.950
20151POPI   C4B30299  19.604   7.916   7.650
20152POPI    C130300  16.542   5.048   9.450
20152POPI    C230301  16.583   5.077   9.750
20152POPI    C330302  16.496   5.073   9.750
20152POPI   PO430303  16.432   5.082   9.150
20152POPI   GL130304  16.442   5.048   8.850
20152POPI   GL230305  16.559   5.052   8.850
20152POPI   C1A30306  16.480   5.068   8.550
20152POPI   D2A30307  16.483   5.068   8.250
20152POPI   C3A30308  16.419   5.061   7.950
20152POPI   C4A30309  16.460   5.025   7.650
20152POPI   C1B30310  16.726   5.037   8.550
20152POPI   C2B30311  16.694   5.040   8.250
20152POPI   C3B30312  16.694   5.115   7.950
20152POPI   C4B30313  16.657   5.062   7.650
20153POPI    C130314  17.116  14.974   9.450
20153POPI    C230315  17.138  14.991   9.750
20153POPI    C330316  17.251  15.041   9.750
20153POPI   PO430317  17.270  15.013   9.150
20153POPI   GL130318  17.267  15.029   8.850
20153POPI   GL230319  17.151  14.999   8.850
20153POPI   C1A30320  17.208  15.094   8.550
20153POPI   D2A30321  17.238  15.062   8.250
20153POPI   C3A30322  17.279  15.038   7.950
20153POPI   C4A30323  17.220  15.092   7.650
20153POPI   C1B30324  17.009  15.005   8.550
20153POPI   C2B30325  17.012  14.950   8.250
20153POPI   C3B30326  17.006  14.934   7.950
20153POPI   C4B30327  17.028  14.951   7.650
20154POPI    C130328  18.893  15.184   9.450
20154POPI    C230329  18.907  15.216   9.750
20154POPI    C330330  18.881  15.046   9.750
20154POPI   PO430331  18.837  15.053   9.150
20154POPI   GL130332  18.810  15.037   8.850
20154POPI   GL230333  18.929  15.121   8.850
20154POPI   C1A30334  18.813  15.094   8.550
20154POPI   D2A30335  18.860  15.004   8.250
20154POPI   C3A30336  18.879  15.085   7.950
20154POPI   C4A30337  18.881  15.090   7.650
20154POPI   C1B30338  18.957  15.239   8.550
20154POPI   C2B30339  18.876  15.320   8.250
20154POPI   C3B30340  18.931  15.287   7.950
20154POPI   C4B30341  18.958  15.332   7.650
20155POPI    C130342  16.368  17.317   9.450
20155POPI    C230343  16.305  17.323   9.750
20155POPI    C330344  16.464  17.371   9.750
20155POPI   PO430345  16.438  17.373   9.150
20155POPI   GL130346  16.415  17.385   8.850
20155POPI   GL230347  16.340  17.382   8.850
20155POPI   C1A30348  16.469  17.323   8.550
20155POPI   D2A30349  16.475  17.345   8.250
20155POPI   C3A30350  16.418  17.366   7.950
20155POPI   C4A30351  16.451  17.364   7.650
20155POPI   C1B30352  16.209  17.300   8.550
20155POPI   C2B30353  16.191  17.338   8.250
20155POPI   C3B30354  16.232  17.326   7.950
20155POPI   C4B30355  16.156  17.281   7.650
20156POPI    C130356  17.229  19.542   9.450
20156POPI    C230357  17.223  19.529   9.750
20156POPI    C330358  17.299  19.709   9.750
20156POPI   PO430359  17.275  19.640   9.150
20156POPI   GL130360  17.223  19.644   8.850
20156POPI   GL230361  17.257  19.516   8.850
20156POPI   C1A30362  17.242  19.699   8.550
20156POPI   D2A30363  17.212  19.659   8.250
20156POPI   C3A30364  17.274  19.683   7.950
20156POPI   C4A30365  17.281  19.627   7.650
20156POPI   C1B30366  17.206  19.445   8.550
20156POPI   C2B30367  17.285  19.421   8.250
20156POPI   C3B30368  17.269  19.446   7.950
20156POPI   C4B30369  17.222  19.394   7.650
20157POPI    C130370  18.735  17.307   9.450
20157POPI    C230371  18.717  17.259   9.750
20157POPI    C330372  18.844  17.391   9.750
20157POPI   PO430373  18.823  17.363   9.150
20157POPI   GL130374  18.852  17.332   8.850
20157POPI   GL230375  18.766  17.259   8.850
20157POPI   C1A30376  18.839  17.333   8.550
20157POPI   D2A30377  18.864  17.317   8.250
20157POPI   C3A30378  18.847  17.309   7.950
20157POPI   C4A30379  18.859  17.371   7.650
20157POPI   C1B30380  18.700  17.128   8.550
20157POPI   C2B30381  18.727  17.157   8.250
20157POPI   C3B30382  18.728  17.143   7.950
20157POPI   C4B30383  18.668  17.173   7.650
20158POPI    C130384  13.344  14.277   9.450
20158POPI    C230385  13.351  14.268   9.750
20158POPI    C330386  13.276  14.298   9.750
20158POPI   PO430387  13.263  14.288   9.150
20158POPI   GL130388  13.266  14.284   8.850
20158POPI   GL230389  13.364  14.309   8.850
20158POPI   C1A30390  13.223  14.261   8.550
20158POPI   D2A30391  13.244  14.289   8.250
20158POPI   C3A30392  13.287  14.282   7.950
20158POPI   C4A30393  13.204  14.315   7.650
20158POPI   C1B30394  13.541  14.299   8.550
20158POPI   C2B30395  13.471  14.329   8.250
20158POPI   C3B30396  13.536  14.294   7.950
20158POPI   C4B30397  13.491  14.319   7.650
20159POPI    C130398  19.518   5.808   9.450
20159POPI    C230399  19.508   5.745   9.750
20159POPI    C330400  19.622   5.841   9.750
20159POPI   PO430401  19.689   5.825   9.150
20159POPI   GL130402  19.700   5.832   8.850
20159POPI   GL230403  19.544   5.738   8.850
20159POPI   C1A30404  19.671   5.780   8.550
20159POPI   D2A30405  19.687   5.794   8.250
20159POPI   C3A30406  19.602   5.866   7.950
20159POPI   C4A30407  19.615   5.852   7.650
20159POPI   C1B30408  19.454   5.694   8.550
20159POPI   C2B30409  19.391   5.715   8.250
20159POPI   C3B30410  19.399   5.680   7.950
20159POPI   C4B30411  19.417   5.737   7.650
20160POPI    C130412  17.251  10.281   9.450
20160POPI    C230413  17.214  10.347   9.750
20160POPI    C330414  17.222  10.472   9.750
20160POPI   PO430415  17.283  10.465   9.150
20160POPI   GL130416  17.262  10.419   8.850
20160POPI   GL230417  17.212  10.299   8.850
20160POPI   C1A30418  17.236  10.482   8.550
20160POPI   D2A30419  17.278  10.457   8.250
20160POPI   C3A30420  17.214  10.477   7.950
20160POPI   C4A30421  17.213  10.442   7.650
20160POPI   C1B30422  17.278  10.234   8.550
20160POPI   C2B30423  17.236  10.221   8.250
20160POPI   C3B30424  17.290  10.158   7.950
20160POPI   C4B30425  17.232  10.219   7.650
20161POPI    C130426  18.726   8.963   9.450
20161POPI    C230427  18.758   9.016   9.750
20161POPI    C330428  18.818   8.856   9.750
20161POPI   PO430429  18.879   8.870   9.150
20161POPI   GL130430  18.868   8.914   8.850
20161POPI   GL230431  18.722   9.000   8.850
20161POPI   C1A30432  18.839   8.922   8.550
20161POPI   D2A30433  18.893   8.924   8.250
20161POPI   C3A30434  18.880   8.939   7.950
20161POPI   C4A30435  18.886   8.886   7.650
20161POPI   C1B30436  18.693   9.049   8.550
20161POPI   C2B30437  18.717   9.060   8.250
20161POPI   C3B30438  18.691   9.074   7.950
20161POPI   C4B30439  18.693   9.091   7.650
20162POPI    C130440  18.748   2.028   9.450
20162POPI    C230441  18.715   2.056   9.750
20162POPI    C330442  18.824   1.995   9.750
20162POPI   PO430443  18.805   1.992   9.150
20162POPI   GL130444  18.852   2.009   8.850
20162POPI   GL230445  18.751   2.020   8.850
20162POPI   C1A30446  18.808   2.013   8.550
20162POPI   D2A30447  18.832   1.982   8.250
20162POPI   C3A30448  18.895   2.014   7.950
20162POPI   C4A30449  18.803   1.949   7.650
20162POPI   C1B30450  18.683   2.093   8.550
20162POPI   C2B30451  18.683   2.122   8.250
20162POPI   C3B30452  18.664   2.149   7.950
20162POPI   C4B30453  18.607   2.097   7.650
20163POPI    C130454  14.010   8.025   9.450
20163POPI    C230455  14.026   8.007   9.750
20163POPI    C330456  14.095   8.147   9.750
20163POPI   PO430457  14.041   8.147   9.150
20163POPI   GL130458  14.097   8.106   8.850
20163POPI   GL230459  14.038   8.056   8.850
20163POPI   C1A30460  14.030   8.122   8.550
20163POPI   D2A30461  14.006   8.082   8.250
20163POPI   C3A30462  14.043   8.093   7.950
20163POPI   C4A30463  14.029   8.097   7.650
20163POPI   C1B30464  13.928   7.900   8.550
20163POPI   C2B30465  13.926   7.846   8.250
20163POPI   C3B30466  13.954   7.901   7.950
20163POPI   C4B30467  13.999   7.841   7.650
20164POPI    C130468  17.295   7.486   9.450
20164POPI    C230469  17.337   7.481   9.750
20164POPI    C330470  17.231   7.318   9.750
20164POPI   PO430471  17.294   7.354   9.150
20164POPI   GL130472  17.218   7.368   8.850
20164POPI   GL230473  17.319   7.449   8.850
20164POPI   C1A30474  17.214   7.370   8.550
20164POPI   D2A30475  17.232   7.375   8.250
20164POPI   C3A30476  17.278   7.342   7.950
20164POPI   C4A30477  17.273   7.317   7.650
20164POPI   C1B30478  17.401   7.622   8.550
20164POPI   C2B30479  17.346   7.541   8.250
20164POPI   C3B30480  17.388   7.612   7.950
20164POPI   C4B30481  17.405   7.612   7.650
20165POPI    C130482  18.679   5.811   9.450
20165POPI    C230483  18.729   5.790   9.750
20165POPI    C330484  18.896   5.799   9.750
20165POPI   PO430485  18.883   5.858   9.150
20165POPI   GL130486  18.818   5.850   8.850
20165POPI   GL230487  18.735   5.801   8.850
20165POPI   C1A30488  18.831   5.838   8.550
20165POPI   D2A30489  18.882   5.786   8.250
20165POPI   C3A30490  18.846   5.801   7.950
20165POPI   C4A30491  18.837   5.822   7.650
20165POPI   C1B30492  18.607   5.838   8.550
20165POPI   C2B30493  18.606   5.808   8.250
20165POPI   C3B30494  18.581   5.817   7.950
20165POPI   C4B30495  18.580   5.763   7.650
20166POPI    C130496  18.037  18.756   9.450
20166POPI    C230497  18.073  18.812   9.750
20166POPI    C330498  18.030  18.900   9.750
20166POPI   PO430499  18.002  18.896   9.150
20166POPI   GL130500  18.006  18.850   8.850
20166POPI   GL230501  18.041  18.775   8.850
20166POPI   C1A30502  18.022  18.889   8.550
20166POPI   D2A30503  18.067  18.924   8.250
20166POPI   C3A30504  18.078  18.921   7.950
20166POPI   C4A30505  18.024  18.917   7.650
20166POPI   C1B30506  18.141  18.624   8.550
20166POPI   C2B30507  18.107  18.688   8.250
20166POPI   C3B30508  18.127  18.698   7.950
20166POPI   C4B30509  18.144  18.686   7.650
20167POPI    C130510  13.990   4.184   9.450
20167POPI    C230511  14.027   4.128   9.750
20167POPI    C330512  14.072   4.268   9.750
20167POPI   PO430513  14.069   4.289   9.150
20167POPI   GL130514  14.076   4.310   8.850
20167POPI   GL230515  13.955   4.146   8.850
20167POPI   C1A30516  14.013   4.261   8.550
20167POPI   D2A30517  14.037   4.305   8.250
20167POPI   C3A30518  14.058   4.280   7.950
20167POPI   C4A30519  14.090   4.290   7.650
20167POPI   C1B30520  13.876   4.034   8.550
20167POPI   C2B30521  13.874   4.024   8.250
20167POPI   C3B30522  13.905   4.092   7.950
20167POPI   C4B30523  13.902   4.026   7.650
20168POPI    C130524  16.328  15.843   9.450
20168POPI    C230525  16.367  15.832   9.750
20168POPI    C330526  16.484  15.773   9.750
20168POPI   PO430527  16.485  15.837   9.150
20168POPI   GL130528  16.428  15.823   8.850
20168POPI   GL230529  16.330  15.842   8.850
20168POPI   C1A30530  16.420  15.844   8.550
20168POPI   D2A30531  16.455  15.797   8.250
20168POPI   C3A30532  16.485  15.834   7.950
20168POPI   C4A30533  16.431  15.835   7.650
20168POPI   C1B30534  16.170  15.855   8.550
20168POPI   C2B30535  16.178  15.891   8.250
20168POPI   C3B30536  16.166  15.878   7.950
20168POPI   C4B30537  16.242  15.908   7.650
20169POPI    C130538  19.786  11.951   9.450
20169POPI    C230539  19.765  11.988   9.750
20169POPI    C330540  19.661  11.961   9.750
20169POPI   PO430541  19.608  11.949   9.150
20169POPI   GL130542  19.668  11.986   8.850
20169POPI   GL230543  19.743  11.946   8.850
20169POPI   C1A30544  19.693  11.939   8.550
20169POPI   D2A30545  19.631  11.950   8.250
20169POPI   C3A30546  19.685  11.955   7.950
20169POPI   C4A30547  19.650  11.976   7.650
20169POPI   C1B30548  19.943  11.981   8.550
20169POPI   C2B30549  19.870  12.034   8.250
20169POPI   C3B30550  19.893  12.011   7.950
20169POPI   C4B30551  19.885  12.003   7.650
20170POPI    C130552  18.178   0.403   9.450
20170POPI    C230553  18.188   0.360   9.750
20170POPI    C330554  18.078   0.426   9.750
20170POPI   PO430555  18.057   0.468   9.150
20170POPI   GL130556  18.050   0.464   8.850
20170POPI   GL230557  18.148   0.330   8.850
20170POPI   C1A30558  18.074   0.443   8.550
20170POPI   D2A30559  18.040   0.443   8.250
20170POPI   C3A30560  18.095   0.394   7.950
20170POPI   C4A30561  18.060   0.428   7.650
20170POPI   C1B30562  18.227   0.239   8.550
20170POPI   C2B30563  18.253   0.306   8.250
20170POPI   C3B30564  18.297   0.243   7.950
20170POPI   C4B30565  18.240   0.290   7.650
20171POPI    C130566  12.498   8.019   9.450
20171POPI    C230567  12.564   8.033   9.750
20171POPI    C330568  12.443   8.168   9.750
20171POPI   PO430569  12.444   8.130   9.150
20171POPI   GL130570  12.451   8.083   8.850
20171POPI   GL230571  12.508   8.006   8.850
20171POPI   C1A30572  12.413   8.113   8.550
20171POPI   D2A30573  12.412   8.101   8.250
20171POPI   C3A30574  12.446   8.133   7.950
20171POPI   C4A30575  12.456   8.116   7.650
20171POPI   C1B30576  12.643   7.975   8.550
20171POPI   C2B30577  12.630   7.977   8.250
20171POPI   C3B30578  12.642   7.895   7.950
20171POPI   C4B30579  12.610   7.901   7.650
20172POPI    C130580  18.765  18.035   9.450
20172POPI    C230581  18.824  18.035   9.750
20172POPI    C330582  18.884  18.115   9.750
20172POPI   PO430583  18.838  18.145   9.150
20172POPI   GL130584  18.873  18.095   8.850
20172POPI   GL230585  18.810  17.967   8.850
20172POPI   C1A30586  18.852  18.086   8.550
20172POPI   D2A30587  18.864  18.108   8.250
20172POPI   C3A30588  18.843  18.091   7.950
20172POPI   C4A30589  18.898  18.140   7.650
20172POPI   C1B30590  18.744  17.840   8.550
20172POPI   C2B30591  18.760  17.922   8.250
20172POPI   C3B30592  18.764  17.850   7.950
20172POPI   C4B30593  18.764  17.839   7.650
20173POPI    C130594  18.917  19.557   9.450
20173POPI    C230595  18.934  19.586   9.750
20173POPI    C330596  18.866  19.634   9.750
20173POPI   PO430597  18.895  19.706   9.150
20173POPI   GL130598  18.893  19.624   8.850
20173POPI   GL230599  18.986  19.621   8.850
20173POPI   C1A30600  18.810  19.694   8.550
20173POPI   D2A30601  18.869  19.707   8.250
20173POPI   C3A30602  18.847  19.711   7.950
20173POPI   C4A30603  18.872  19.679   7.650
20173POPI   C1B30604  19.012  19.501   8.550
20173POPI   C2B30605  19.020  19.521   8.250
20173POPI   C3B30606  19.023  19.506   7.950
20173POPI   C4B30607  19.090  19.542   7.650
20174POPI    C130608  13.144  12.100   9.450
20174POPI    C230609  13.165  12.038   9.750
20174POPI    C330610  13.214  12.011   9.750
20174POPI   PO430611  13.270  11.977   9.150
20174POPI   GL130612  13.277  12.000   8.850
20174POPI   GL230613  13.189  12.094   8.850
20174POPI   C1A30614  13.294  11.955   8.550
20174POPI   D2A30615  13.251  11.962   8.250
20174POPI   C3A30616  13.254  11.970   7.950
20174POPI   C4A30617  13.240  12.004   7.650
20174POPI   C1B30618  13.036  12.177   8.550
20174POPI   C2B30619  13.020  12.129   8.250
20174POPI   C3B30620  13.018  12.165   7.950
20174POPI   C4B30621  13.049  12.130   7.650
20175POPI    C130622  14.804   8.790   9.450
20175POPI    C230623  14.773   8.793   9.750
20175POPI    C330624  14.854   8.920   9.750
20175POPI   PO430625  14.810   8.922   9.150
20175POPI   GL130626  14.900   8.930   8.850
20175POPI   GL230627  14.737   8.769   8.850
20175POPI   C1A30628  14.819   8.904   8.550
20175POPI   D2A30629  14.806   8.933   8.250
20175POPI   C3A30630  14.824   8.902   7.950
20175POPI   C4A30631  14.830   8.851   7.650
20175POPI   C1B30632  14.683   8.707   8.550
20175POPI   C2B30633  14.715   8.672   8.250
20175POPI   C3B30634  14.711   8.715   7.950
20175POPI   C4B30635  14.633   8.748   7.650
20176POPI    C130636  19.542   3.553   9.450
20176POPI    C230637  19.566   3.574   9.750
20176POPI    C330638  19.645   3.548   9.750
20176POPI   PO430639  19.695   3.515   9.150
20176POPI   GL130640  19.666   3.527   8.850
20176POPI   GL230641  19.535   3.597   8.850
20176POPI   C1A30642  19.674   3.544   8.550
20176POPI   D2A30643  19.621   3.466   8.250
20176POPI   C3A30644  19.676   3.475   7.950
20176POPI   C4A30645  19.620   3.504   7.650
20176POPI   C1B30646  19.429   3.611   8.550
20176POPI   C2B30647  19.458   3.643   8.250
20176POPI   C3B30648  19.449   3.660   7.950
20176POPI   C4B30649  19.438   3.618   7.650
20177POPI    C130650  17.994  13.457   9.450
20177POPI    C230651  17.927  13.390   9.750
20177POPI    C330652  18.001  13.501   9.750
20177POPI   PO430653  18.018  13.464   9.150
20177POPI   GL130654  18.049  13.478   8.850
20177POPI   GL230655  17.966  13.422   8.850
20177POPI   C1A30656  18.003  13.536   8.550
20177POPI   D2A30657  18.077  13.478   8.250
20177POPI   C3A30658  18.049  13.529   7.950
20177POPI   C4A30659  18.039  13.496   7.650
20177POPI   C1B30660  17.929  13.310   8.550
20177POPI   C2B30661  17.860  13.355   8.250
20177POPI   C3B30662  17.866  13.331   7.950
20177POPI   C4B30663  17.879  13.339   7.650
20178POPI    C130664  16.305  14.945   9.450
20178POPI    C230665  16.324  14.991   9.750
20178POPI    C330666  16.493  15.086   9.750
20178POPI   PO430667  16.471  15.086   9.150
20178POPI   GL130668  16.475  15.094   8.850
20178POPI   GL230669  16.368  14.925   8.850
20178POPI   C1A30670  16.500  15.055   8.550
20178POPI   D2A30671  16.443  15.048   8.250
20178POPI   C3A30672  16.488  15.060   7.950
20178POPI   C4A30673  16.430  15.034   7.650
20178POPI   C1B30674  16.214  14.856   8.550
20178POPI   C2B30675  16.280  14.906   8.250
20178POPI   C3B30676  16.219  14.842   7.950
20178POPI   C4B30677  16.298  14.883   7.650
20179POPI    C130678  15.008  14.250   9.450
20179POPI    C230679  14.960  14.221   9.750
20179POPI    C330680  14.814  14.301   9.750
20179POPI   PO430681  14.872  14.308   9.150
20179POPI   GL130682  14.841  14.285   8.850
20179POPI   GL230683  14.987  14.191   8.850
20179POPI   C1A30684  14.815  14.267   8.550
20179POPI   D2A30685  14.847  14.316   8.250
20179POPI   C3A30686  14.871  14.279   7.950
20179POPI   C4A30687  14.852  14.247   7.650
20179POPI   C1B30688  15.052  14.189   8.550
20179POPI   C2B30689  15.067  14.204   8.250
20179POPI   C3B30690  15.116  14.212   7.950
20179POPI   C4B30691  15.051  14.232   7.650
20180POPI    C130692  14.881   5.706   9.450
20180POPI    C230693  14.850   5.727   9.750
20180POPI    C330694  14.880   5.803   9.750
20180POPI   PO430695  14.870   5.774   9.150
20180POPI   GL130696  14.871   5.803   8.850
20180POPI   GL230697  14.910   5.744   8.850
20180POPI   C1A30698  14.826   5.828   8.550
20180POPI   D2A30699  14.892   5.774   8.250
20180POPI   C3A30700  14.889   5.796   7.950
20180POPI   C4A30701  14.833   5.843   7.650
20180POPI   C1B30702  14.905   5.551   8.550
20180POPI   C2B30703  14.983   5.633   8.250
20180POPI   C3B30704  14.951   5.551   7.950
20180POPI   C4B30705  14.944   5.607   7.650
20181POPI    C130706  18.885  18.763   9.450
20181POPI    C230707  18.890  18.776   9.750
20181POPI    C330708  18.841  18.932   9.750
20181POPI   PO430709  18.844  18.932   9.150
20181POPI   GL130710  18.887  18.930   8.850
20181POPI   GL230711  18.830  18.731   8.850
20181POPI   C1A30712  18.841  18.869   8.550
20181POPI   D2A30713  18.827  18.874   8.250
20181POPI   C3A30714  18.817  18.927   7.950
20181POPI   C4A30715  18.813  18.851   7.650
20181POPI   C1B30716  18.834  18.663   8.550
20181POPI   C2B30717  18.886  18.680   8.250
20181POPI   C3B30718  18.829  18.660   7.950
20181POPI   C4B30719  18.856  18.618   7.650
20182DPPI    C130720  13.352   3.546   9.450
20182DPPI    C230721  13.364   3.592   9.750
20182DPPI    C330722  13.240   3.557   9.750
20182DPPI   PO430723  13.217   3.464   9.150
20182DPPI   GL130724  13.235   3.468   8.850
20182DPPI   GL230725  13.370   3.588   8.850
20182DPPI   C1A30726  13.244   3.462   8.550
20182DPPI   C2A30727  13.292   3.512   8.250
20182DPPI   C3A30728  13.288   3.529   7.950
20182DPPI   C4A30729  13.231   3.531   7.650
20182DPPI   C1B30730  13.536   3.613   8.550
20182DPPI   C2B30731  13.445   3.618   8.250
20182DPPI   C3B30732  13.532   3.591   7.950
20182DPPI   C4B30733  13.529   3.594   7.650
20183DPPI    C130734  12.341   4.205   9.450
20183DPPI    C230735  12.379   4.155   9.750
20183DPPI    C330736  12.477   4.329   9.750
20183DPPI   PO430737  12.417   4.296   9.150
20183DPPI   GL130738  12.419   4.261   8.850
20183DPPI   GL230739  12.306   4.204   8.850
20183DPPI   C1A30740  12.452   4.259   8.550
20183DPPI   C2A30741  12.470   4.238   8.250
20183DPPI   C3A30742  12.466   4.318   7.950
20183DPPI   C4A30743  12.415   4.321   7.650
20183DPPI   C1B30744  12.238   4.102   8.550
20183DPPI   C2B30745  12.284   4.120   8.250
20183DPPI   C3B30746  12.271   4.169   7.950
20183DPPI   C4B30747  12.253   4.158   7.650
20184DPPI    C130748  13.176  15.190   9.450
20184DPPI    C230749  13.188  15.158   9.750
20184DPPI    C330750  13.215  15.093   9.750
20184DPPI   PO430751  13.276  15.075   9.150
20184DPPI   GL130752  13.203  15.072   8.850
20184DPPI   GL230753  13.220  15.181   8.850
20184DPPI   C1A30754  13.284  15.091   8.550
20184DPPI   C2A30755  13.239  15.082   8.250
20184DPPI   C3A30756  13.232  15.006   7.950
20184DPPI   C4A30757  13.262  15.012   7.650
20184DPPI   C1B30758  13.174  15.302   8.550
20184DPPI   C2B30759  13.140  15.327   8.250
20184DPPI   C3B30760  13.160  15.252   7.950
20184DPPI   C4B30761  13.134  15.336   7.650
20185DPPI    C130762  13.952   5.765   9.450
20185DPPI    C230763  14.019   5.709   9.750
20185DPPI    C330764  14.022   5.840   9.750
20185DPPI   PO430765  14.054   5.834   9.150
20185DPPI   GL130766  14.085   5.799   8.850
20185DPPI   GL230767  13.997   5.766   8.850
20185DPPI   C1A30768  14.047   5.822   8.550
20185DPPI   C2A30769  14.050   5.779   8.250
20185DPPI   C3A30770  14.001   5.857   7.950
20185DPPI   C4A30771  14.026   5.846   7.650
20185DPPI   C1B30772  13.923   5.594   8.550
20185DPPI   C2B30773  13.889   5.627   8.250
20185DPPI   C3B30774  13.937   5.602   7.950
20185DPPI   C4B30775  13.865   5.630   7.650
20186DPPI    C130776  18.122   1.362   9.450
20186DPPI    C230777  18.050   1.336   9.750
20186DPPI    C330778  18.091   1.216   9.750
20186DPPI   PO430779  18.042   1.167   9.150
20186DPPI   GL130780  18.041   1.244   8.850
20186DPPI   GL230781  18.052   1.336   8.850
20186DPPI   C1A30782  18.003   1.248   8.550
20186DPPI   C2A30783  18.051   1.248   8.250
20186DPPI   C3A30784  18.084   1.188   7.950
20186DPPI   C4A30785  18.092   1.204   7.650
20186DPPI   C1B30786  18.169   1.394   8.550
20186DPPI   C2B30787  18.094   1.423   8.250
20186DPPI   C3B30788  18.154   1.435   7.950
20186DPPI   C4B30789  18.176   1.471   7.650
20187DPPI    C130790  14.913   8.235   9.450
20187DPPI    C230791  14.933   8.210   9.750
20187DPPI    C330792  14.877   8.123   9.750
20187DPPI   PO430793  14.890   8.156   9.150
20187DPPI   GL130794  14.855   8.100   8.850
20187DPPI   GL230795  14.942   8.249   8.850
20187DPPI   C1A30796  14.875   8.081   8.550
20187DPPI   C2A30797  14.861   8.167   8.250
20187DPPI   C3A30798  14.820   8.084   7.950
20187DPPI   C4A30799  14.886   8.139   7.650
20187DPPI   C1B30800  14.972   8.334   8.550
20187DPPI   C2B30801  14.964   8.387   8.250
20187DPPI   C3B30802  15.024   8.334   7.950
20187DPPI   C4B30803  14.990   8.324   7.650
20188DPPI    C130804  19.722  15.163   9.450
20188DPPI    C230805  19.686  15.195   9.750
20188DPPI    C330806  19.684  15.069   9.750
20188DPPI   PO430807  19.662  15.050   9.150
20188DPPI   GL130808  19.656  15.013   8.850
20188DPPI   GL230809  19.701  15.125   8.850
20188DPPI   C1A30810  19.659  15.046   8.550
20188DPPI   C2A30811  19.635  15.016   8.250
20188DPPI   C3A30812  19.688  15.027   7.950
20188DPPI   C4A30813  19.653  15.051   7.650
20188DPPI   C1B30814  19.719  15.323   8.550
20188DPPI   C2B30815  19.717  15.271   8.250
20188DPPI   C3B30816  19.702  15.248   7.950
20188DPPI   C4B30817  19.745  15.262   7.650
20189DPPI    C130818  13.997   8.853   9.450
20189DPPI    C230819  13.948   8.771   9.750
20189DPPI    C330820  14.062   8.859   9.750
20189DPPI   PO430821  14.023   8.943   9.150
20189DPPI   GL130822  14.089   8.848   8.850
20189DPPI   GL230823  13.945   8.846   8.850
20189DPPI   C1A30824  14.057   8.932   8.550
20189DPPI   C2A30825  14.033   8.895   8.250
20189DPPI   C3A30826  14.088   8.901   7.950
20189DPPI   C4A30827  14.007   8.945   7.650
20189DPPI   C1B30828  13.894   8.679   8.550
20189DPPI   C2B30829  13.850   8.749   8.250
20189DPPI   C3B30830  13.836   8.741   7.950
20189DPPI   C4B30831  13.876   8.760   7.650
20190DPPI    C130832  12.499   3.364   9.450
20190DPPI    C230833  12.501   3.370   9.750
20190DPPI    C330834  12.477   3.539   9.750
20190DPPI   PO430835  12.450   3.486   9.150
20190DPPI   GL130836  12.464   3.506   8.850
20190DPPI   GL230837  12.443   3.404   8.850
20190DPPI   C1A30838  12.438   3.470   8.550
20190DPPI   C2A30839  12.473   3.462   8.250
20190DPPI   C3A30840  12.403   3.502   7.950
20190DPPI   C4A30841  12.412   3.520   7.650
20190DPPI   C1B30842  12.472   3.270   8.550
20190DPPI   C2B30843  12.527   3.224   8.250
20190DPPI   C3B30844  12.506   3.253   7.950
20190DPPI   C4B30845  12.485   3.298   7.650
20191DPPI    C130846  19.820   9.631   9.450
20191DPPI    C230847  19.796   9.688   9.750
20191DPPI    C330848  19.632   9.635   9.750
20191DPPI   PO430849  19.669   9.618   9.150
20191DPPI   GL130850  19.683   9.626   8.850
20191DPPI   GL230851  19.792   9.673   8.850
20191DPPI   C1A30852  19.636   9.634   8.550
20191DPPI   C2A30853  19.612   9.635   8.250
20191DPPI   C3A30854  19.688   9.627   7.950
20191DPPI   C4A30855  19.639   9.620   7.650
20191DPPI   C1B30856  19.917   9.658   8.550
20191DPPI   C2B30857  19.864   9.667   8.250
20191DPPI   C3B30858  19.854   9.639   7.950
20191DPPI   C4B30859  19.857   9.621   7.650
20192DPPI    C130860  12.537  17.263   9.450
20192DPPI    C230861  12.574  17.281   9.750
20192DPPI    C330862  12.425  17.400   9.750
20192DPPI   PO430863  12.464  17.389   9.150
20192DPPI   GL130864  12.436  17.354   8.850
20192DPPI   GL230865  12.527  17.239   8.850
20192DPPI   C1A30866  12.489  17.368   8.550
20192DPPI   C2A30867  12.450  17.371   8.250
20192DPPI   C3A30868  12.489  17.381   7.950
20192DPPI   C4A30869  12.475  17.322   7.650
20192DPPI   C1B30870  12.660  17.163   8.550
20192DPPI   C2B30871  12.596  17.213   8.250
20192DPPI   C3B30872  12.602  17.122   7.950
20192DPPI   C4B30873  12.639  17.175   7.650
20193DPPI    C130874  14.142  18.094   9.450
20193DPPI    C230875  14.137  18.123   9.750
20193DPPI    C330876  14.037  18.104   9.750
20193DPPI   PO430877  14.002  18.133   9.150
20193DPPI   GL130878  14.079  18.134   8.850
20193DPPI   GL230879  14.192  18.159   8.850
20193DPPI   C1A30880  14.068  18.170   8.550
20193DPPI   C2A30881  14.057  18.176   8.250
20193DPPI   C3A30882  14.030  18.174   7.950
20193DPPI   C4A30883  14.093  18.175   7.650
20193DPPI   C1B30884  14.260  18.169   8.550
20193DPPI   C2B30885  14.310  18.155   8.250
20193DPPI   C3B30886  14.251  18.109   7.950
20193DPPI   C4B30887  14.328  18.172   7.650
20194DPPI    C130888  13.908  11.869   9.450
20194DPPI    C230889  13.921  11.925   9.750
20194DPPI    C330890  14.031  12.021   9.750
20194DPPI   PO430891  14.058  11.979   9.150
20194DPPI   GL130892  14.032  11.936   8.850
20194DPPI   GL230893  13.966  11.896   8.850
20194DPPI   C1A30894  14.055  11.961   8.550
20194DPPI   C2A30895  14.015  11.982   8.250
20194DPPI   C3A30896  14.078  11.939   7.950
20194DPPI   C4A30897  14.079  11.975   7.650
20194DPPI   C1B30898  13.796  11.847   8.550
20194DPPI   C2B30899  13.797  11.859   8.250
20194DPPI   C3B30900  13.853  11.862   7.950
20194DPPI   C4B30901  13.853  11.835   7.650
20195DPPI    C130902  12.382  16.694   9.450
20195DPPI    C230903  12.318  16.691   9.750
20195DPPI    C330904  12.432  16.585   9.750
20195DPPI   PO430905  12.464  16.629   9.150
20195DPPI   GL130906  12.469  16.607   8.850
20195DPPI   GL230907  12.334  16.602   8.850
20195DPPI   C1A30908  12.436  16.615   8.550
20195DPPI   C2A30909  12.443  16.625   8.250
20195DPPI   C3A30910  12.482  16.582   7.950
20195DPPI   C4A30911  12.410  16.608   7.650
20195DPPI   C1B30912  12.200  16.730   8.550
20195DPPI   C2B30913  12.267  16.746   8.250
20195DPPI   C3B30914  12.245  16.709   7.950
20195DPPI   C4B30915  12.267  16.700   7.650
20196DPPI    C130916  19.566  19.609   9.450
20196DPPI    C230917  19.568  19.522   9.750
20196DPPI    C330918  19.662  19.679   9.750
20196DPPI   PO430919  19.668  19.659   9.150
20196DPPI   GL130920  19.627  19.624   8.850
20196DPPI   GL230921  19.560  19.587   8.850
20196DPPI   C1A30922  19.648  19.690   8.550
20196DPPI   C2A30923  19.652  19.695   8.250
20196DPPI   C3A30924  19.693  19.661   7.950
20196DPPI   C4A30925  19.650  19.655   7.650
20196DPPI   C1B30926  19.457  19.482   8.550
20196DPPI   C2B30927  19.537  19.483   8.250
20196DPPI   C3B30928  19.467  19.431   7.950
20196DPPI   C4B30929  19.452  19.439   7.650
20197DPPI    C130930  13.961  10.361   9.450
20197DPPI    C230931  13.934  10.376   9.750
20197DPPI    C330932  14.085  10.415   9.750
20197DPPI   PO430933  14.049  10.469   9.150
20197DPPI   GL130934  14.025  10.418   8.850
20197DPPI   GL230935  13.900  10.373   8.850
20197DPPI   C1A30936  14.099  10.418   8.550
20197DPPI   C2A30937  14.088  10.414   8.250
20197DPPI   C3A30938  14.063  10.474   7.950
20197DPPI   C4A30939  14.072  10.470   7.650
20197DPPI   C1B30940  13.785  10.302   8.550
20197DPPI   C2B30941  13.810  10.303   8.250
20197DPPI   C3B30942  13.836  10.334   7.950
20197DPPI   C4B30943  13.820  10.331   7.650
20198DPPI    C130944  15.623  18.977   9.450
20198DPPI    C230945  15.631  19.049   9.750
20198DPPI    C330946  15.611  18.944   9.750
20198DPPI   PO430947  15.625  18.849   9.150
20198DPPI   GL130948  15.680  18.942   8.850
20198DPPI   GL230949  15.666  18.975   8.850
20198DPPI   C1A30950  15.624  18.904   8.550
20198DPPI   C2A30951  15.612  18.859   8.250
20198DPPI   C3A30952  15.697  18.944   7.950
20198DPPI   C4A30953  15.660  18.847   7.650
20198DPPI   C1B30954  15.631  19.150   8.550
20198DPPI   C2B30955  15.690  19.174   8.250
20198DPPI   C3B30956  15.671  19.145   7.950
20198DPPI   C4B30957  15.648  19.125   7.650
20199DPPI    C130958  15.574  19.717   9.450
20199DPPI    C230959  15.505  19.727   9.750
20199DPPI    C330960  15.633  19.686   9.750
20199DPPI   PO430961  15.613  19.631   9.150
20199DPPI   GL130962  15.691  19.666   8.850
20199DPPI   GL230963  15.481  19.676   8.850
20199DPPI   C1A30964  15.687  19.648   8.550
20199DPPI   C2A30965  15.671  19.615   8.250
20199DPPI   C3A30966  15.639  19.685   7.950
20199DPPI   C4A30967  15.607  19.699   7.650
20199DPPI   C1B30968  15.451  19.694   8.550
20199DPPI   C2B30969  15.359  19.642   8.250
20199DPPI   C3B30970  15.441  19.677   7.950
20199DPPI   C4B30971  15.403  19.696   7.650
20200DPPI    C130972  13.147   7.303   9.450
20200DPPI    C230973  13.115   7.297   9.750
20200DPPI    C330974  13.256   7.333   9.750
20200DPPI   PO430975  13.263   7.320   9.150
20200DPPI   GL130976  13.234   7.320   8.850
20200DPPI   GL230977  13.174   7.339   8.850
20200DPPI   C1A30978  13.271   7.389   8.550
20200DPPI   C2A30979  13.298   7.311   8.250
20200DPPI   C3A30980  13.299   7.393   7.950
20200DPPI   C4A30981  13.254   7.371   7.650
20200DPPI   C1B30982  13.070   7.275   8.550
20200DPPI   C2B30983  13.048   7.194   8.250
20200DPPI   C3B30984  12.993   7.239   7.950
20200DPPI   C4B30985  13.006   7.233   7.650
20201DPPI    C130986  18.127   5.188   9.450
20201DPPI    C230987  18.072   5.184   9.750
20201DPPI    C330988  18.083   5.038   9.750
20201DPPI   PO430989  18.082   5.055   9.150
20201DPPI   GL130990  18.075   5.030   8.850
20201DPPI   GL230991  18.038   5.147   8.850
20201DPPI   C1A30992  18.048   5.098   8.550
20201DPPI   C2A30993  18.068   5.012   8.250
20201DPPI   C3A30994  18.063   5.095   7.950
20201DPPI   C4A30995  18.071   5.025   7.650
20201DPPI   C1B30996  18.165   5.320   8.550
20201DPPI   C2B30997  18.158   5.310   8.250
20201DPPI   C3B30998  18.068   5.331   7.950
20201DPPI   C4B30999  18.125   5.304   7.650
20202DPPI    C131000  17.361  14.202   9.450
20202DPPI    C231001  17.379  14.241   9.750
20202DPPI    C331002  17.222  14.272   9.750
20202DPPI   PO431003  17.230  14.258   9.150
20202DPPI   GL131004  17.200  14.309   8.850
20202DPPI   GL231005  17.363  14.175   8.850
20202DPPI   C1A31006  17.284  14.233   8.550
20202DPPI   C2A31007  17.277  14.270   8.250
20202DPPI   C3A31008  17.214  14.297   7.950
20202DPPI   C4A31009  17.209  14.316   7.650
20202DPPI   C1B31010  17.484  14.131   8.550
20202DPPI   C2B31011  17.462  14.206   8.250
20202DPPI   C3B31012  17.451  14.140   7.950
20202DPPI   C4B31013  17.476  14.171   7.650
20203DPPI    C131014  12.516   8.985   9.450
20203DPPI    C231015  12.478   8.990   9.750
20203DPPI    C331016  12.479   8.898   9.750
20203DPPI   PO431017  12.494   8.860   9.150
20203DPPI   GL131018  12.435   8.880   8.850
20203DPPI   GL231019  12.450   9.001   8.850
20203DPPI   C1A31020  12.422   8.896   8.550
20203DPPI   C2A31021  12.402   8.927   8.250
20203DPPI   C3A31022  12.469   8.877   7.950
20203DPPI   C4A31023  12.459   8.860   7.650
20203DPPI   C1B31024  12.462   9.095   8.550
20203DPPI   C2B31025  12.454   9.160   8.250
20203DPPI   C3B31026  12.480   9.106   7.950
20203DPPI   C4B31027  12.496   9.180   7.650
20204DPPI    C131028  17.322   6.429   9.450
20204DPPI    C231029  17.329   6.503   9.750
20204DPPI    C331030  17.295   6.566   9.750
20204DPPI   PO431031  17.223   6.575   9.150
20204DPPI   GL131032  17.273   6.560   8.850
20204DPPI   GL231033  17.331   6.430   8.850
20204DPPI   C1A31034  17.231   6.568   8.550
20204DPPI   C2A31035  17.299   6.599   8.250
20204DPPI   C3A31036  17.203   6.577   7.950
20204DPPI   C4A31037  17.248   6.601   7.650
20204DPPI   C1B31038  17.298   6.393   8.550
20204DPPI   C2B31039  17.316   6.313   8.250
20204DPPI   C3B31040  17.305   6.350   7.950
20204DPPI   C4B31041  17.293   6.316   7.650
20205DPPI    C131042  19.501   1.185   9.450
20205DPPI    C231043  19.509   1.206   9.750
20205DPPI    C331044  19.687   1.235   9.750
20205DPPI   PO431045  19.681   1.223   9.150
20205DPPI   GL131046  19.654   1.209   8.850
20205DPPI   GL231047  19.531   1.113   8.850
20205DPPI   C1A31048  19.639   1.200   8.550
20205DPPI   C2A31049  19.611   1.250   8.250
20205DPPI   C3A31050  19.611   1.248   7.950
20205DPPI   C4A31051  19.625   1.171   7.650
20205DPPI   C1B31052  19.444   1.098   8.550
20205DPPI   C2B31053  19.397   1.111   8.250
20205DPPI   C3B31054  19.409   1.073   7.950
20205DPPI   C4B31055  19.409   1.152   7.650
20206DPPI    C131056  16.332  18.958   9.450
20206DPPI    C231057  16.311  18.927   9.750
20206DPPI    C331058  16.432  18.928   9.750
20206DPPI   PO431059  16.454  18.918   9.150
20206DPPI   GL131060  16.473  18.907   8.850
20206DPPI   GL231061  16.317  18.974   8.850
20206DPPI   C1A31062  16.487  18.857   8.550
20206DPPI   C2A31063  16.444  18.928   8.250
20206DPPI   C3A31064  16.428  18.935   7.950
20206DPPI   C4A31065  16.495  18.923   7.650
20206DPPI   C1B31066  16.219  18.977   8.550
20206DPPI   C2B31067  16.191  18.990   8.250
20206DPPI   C3B31068  16.175  19.011   7.950
20206DPPI   C4B31069  16.174  18.970   7.650
20207DPPI    C131070  19.013  12.039   9.450
20207DPPI    C231071  18.926  11.972   9.750
20207DPPI    C331072  18.813  12.008   9.750
20207DPPI   PO431073  18.804  11.942   9.150
20207DPPI   GL131074  18.857  11.977   8.850
20207DPPI   GL231075  18.966  12.031   8.850
20207DPPI   C1A31076  18.877  12.016   8.550
20207DPPI   C2A31077  18.834  11.932   8.250
20207DPPI   C3A31078  18.833  11.950   7.950
20207DPPI   C4A31079  18.876  11.958   7.650
20207DPPI   C1B31080  19.117  12.086   8.550
20207DPPI   C2B31081  19.073  12.061   8.250
20207DPPI   C3B31082  19.059  12.089   7.950
20207DPPI   C4B31083  19.100  12.011   7.650
20208DPPI    C131084  14.142  15.012   9.450
20208DPPI    C231085  14.127  15.071   9.750
20208DPPI    C331086  14.019  15.095   9.750
20208DPPI   PO431087  14.069  15.087   9.150
20208DPPI   GL131088  14.057  15.052   8.850
20208DPPI   GL231089  14.203  15.018   8.850
20208DPPI   C1A31090  14.024  15.096   8.550
20208DPPI   C2A31091  14.089  15.004   8.250
20208DPPI   C3A31092  14.039  15.060   7.950
20208DPPI   C4A31093  14.069  15.064   7.650
20208DPPI   C1B31094  14.345  15.007   8.550
20208DPPI   C2B31095  14.266  15.055   8.250
20208DPPI   C3B31096  14.304  15.066   7.950
20208DPPI   C4B31097  14.273  15.019   7.650
20209DPPI    C131098  18.829   1.324   9.450
20209DPPI    C231099  18.778   1.352   9.750
20209DPPI    C331100  18.808   1.187   9.750
20209DPPI   PO431101  18.804   1.160   9.150
20209DPPI   GL131102  18.866   1.243   8.850
20209DPPI   GL231103  18.754   1.321   8.850
20209DPPI   C1A31104  18.829   1.178   8.550
20209DPPI   C2A31105  18.849   1.251   8.250
20209DPPI   C3A31106  18.848   1.233   7.950
20209DPPI   C4A31107  18.853   1.170   7.650
20209DPPI   C1B31108  18.745   1.402   8.550
20209DPPI   C2B31109  18.726   1.448   8.250
20209DPPI   C3B31110  18.778   1.421   7.950
20209DPPI   C4B31111  18.709   1.393   7.650
20210DPPI    C131112  19.758  18.025   9.450
20210DPPI    C231113  19.708  18.012   9.750
20210DPPI    C331114  19.660  18.118   9.750
20210DPPI   PO431115  19.628  18.117   9.150
20210DPPI   GL131116  19.694  18.144   8.850
20210DPPI   GL231117  19.768  18.001   8.850
20210DPPI   C1A31118  19.627  18.140   8.550
20210DPPI   C2A31119  19.663  18.079   8.250
20210DPPI   C3A31120  19.660  18.139   7.950
20210DPPI   C4A31121  19.641  18.103   7.650
20210DPPI   C1B31122  19.872  17.952   8.550
20210DPPI   C2B31123  19.823  17.943   8.250
20210DPPI   C3B31124  19.832  17.925   7.950
20210DPPI   C4B31125  19.874  17.977   7.650
20211DPPI    C131126  12.415  15.918   9.450
20211DPPI    C231127  12.351  15.898   9.750
20211DPPI    C331128  12.471  15.799   9.750
20211DPPI   PO431129  12.481  15.778   9.150
20211DPPI   GL131130  12.490  15.781   8.850
20211DPPI   GL231131  12.364  15.977   8.850
20211DPPI   C1A31132  12.462  15.831   8.550
20211DPPI   C2A31133  12.443  15.833   8.250
20211DPPI   C3A31134  12.484  15.859   7.950
20211DPPI   C4A31135  12.498  15.819   7.650
20211DPPI   C1B31136  12.340  16.031   8.550
20211DPPI   C2B31137  12.359  16.046   8.250
20211DPPI   C3B31138  12.334  16.024   7.950
20211DPPI   C4B31139  12.361  16.071   7.650
20212DPPI    C131140  19.684   5.108   9.450
20212DPPI    C231141  19.752   5.188   9.750
20212DPPI    C331142  19.616   5.004   9.750
20212DPPI   PO431143  19.633   5.048   9.150
20212DPPI   GL131144  19.648   5.047   8.850
20212DPPI   GL231145  19.709   5.122   8.850
20212DPPI   C1A31146  19.626   5.065   8.550
20212DPPI   C2A31147  19.602   5.012   8.250
20212DPPI   C3A31148  19.643   5.044   7.950
20212DPPI   C4A31149  19.691   5.038   7.650
20212DPPI   C1B31150  19.733   5.297   8.550
20212DPPI   C2B31151  19.765   5.306   8.250
20212DPPI   C3B31152  19.767   5.304   7.950
20212DPPI   C4B31153  19.820   5.271   7.650
20213DPPI    C131154  13.262  17.485   9.450
20213DPPI    C231155  13.208  17.516   9.750
20213DPPI    C331156  13.200  17.406   9.750
20213DPPI   PO431157  13.233  17.405   9.150
20213DPPI   GL131158  13.263  17.359   8.850
20213DPPI   GL231159  13.239  17.435   8.850
20213DPPI   C1A31160  13.297  17.366   8.550
20213DPPI   C2A31161  13.223  17.334   8.250
20213DPPI   C3A31162  13.222  17.351   7.950
20213DPPI   C4A31163  13.201  17.348   7.650
20213DPPI   C1B31164  13.266  17.575   8.550
20213DPPI   C2B31165  13.263  17.559   8.250
20213DPPI   C3B31166  13.203  17.574   7.950
20213DPPI   C4B31167  13.214  17.557   7.650
20214DPPI    C131168  12.601   7.357   9.450
20214DPPI    C231169  12.597   7.315   9.750
20214DPPI    C331170  12.425   7.345   9.750
20214DPPI   PO431171  12.421   7.342   9.150
20214DPPI   GL131172  12.415   7.401   8.850
20214DPPI   GL231173  12.552   7.348   8.850
20214DPPI   C1A31174  12.479   7.349   8.550
20214DPPI   C2A31175  12.464   7.364   8.250
20214DPPI   C3A31176  12.488   7.400   7.950
20214DPPI   C4A31177  12.415   7.343   7.650
20214DPPI   C1B31178  12.650   7.285   8.550
20214DPPI   C2B31179  12.705   7.287   8.250
20214DPPI   C3B31180  12.644   7.260   7.950
20214DPPI   C4B31181  12.720   7.300   7.650
20215DPPI    C131182  17.384   4.202   9.450
20215DPPI    C231183  17.416   4.196   9.750
20215DPPI    C331184  17.219   4.282   9.750
20215DPPI   PO431185  17.279   4.232   9.150
20215DPPI   GL131186  17.225   4.302   8.850
20215DPPI   GL231187  17.335   4.245   8.850
20215DPPI   C1A31188  17.216   4.289   8.550
20215DPPI   C2A31189  17.216   4.235   8.250
20215DPPI   C3A31190  17.298   4.243   7.950
20215DPPI   C4A31191  17.294   4.304   7.650
20215DPPI   C1B31192  17.489   4.229   8.550
20215DPPI   C2B31193  17.512   4.217   8.250
20215DPPI   C3B31194  17.441   4.172   7.950
20215DPPI   C4B31195  17.437   4.161   7.650
20216DPPI    C131196  13.180  12.823   9.450
20216DPPI    C231197  13.244  12.815   9.750
20216DPPI    C331198  13.292  12.752   9.750
20216DPPI   PO431199  13.251  12.775   9.150
20216DPPI   GL131200  13.260  12.708   8.850
20216DPPI   GL231201  13.233  12.869   8.850
20216DPPI   C1A31202  13.299  12.731   8.550
20216DPPI   C2A31203  13.202  12.732   8.250
20216DPPI   C3A31204  13.221  12.719   7.950
20216DPPI   C4A31205  13.209  12.748   7.650
20216DPPI   C1B31206  13.168  12.970   8.550
20216DPPI   C2B31207  13.122  12.947   8.250
20216DPPI   C3B31208  13.183  12.943   7.950
20216DPPI   C4B31209  13.127  13.015   7.650
20217DPPI    C131210  14.174  14.235   9.450
20217DPPI    C231211  14.208  14.250   9.750
20217DPPI    C331212  14.066  14.234   9.750
20217DPPI   PO431213  14.020  14.314   9.150
20217DPPI   GL131214  14.053  14.286   8.850
20217DPPI   GL231215  14.148  14.229   8.850
20217DPPI   C1A31216  14.030  14.261   8.550
20217DPPI   C2A31217  14.055  14.277   8.250
20217DPPI   C3A31218  14.045  14.284   7.950
20217DPPI   C4A31219  14.079  14.272   7.650
20217DPPI   C1B31220  14.290  14.180   8.550
20217DPPI   C2B31221  14.272  14.178   8.250
20217DPPI   C3B31222  14.277  14.260   7.950
20217DPPI   C4B31223  14.257  14.192   7.650
20218DPPI    C131224  15.570  11.112   9.450
20218DPPI    C231225  15.522  11.123   9.750
20218DPPI    C331226  15.696  11.218   9.750
20218DPPI   PO431227  15.629  11.165   9.150
20218DPPI   GL131228  15.645  11.235   8.850
20218DPPI   GL231229  15.503  11.141   8.850
20218DPPI   C1A31230  15.618  11.208   8.550
20218DPPI   C2A31231  15.684  11.213   8.250
20218DPPI   C3A31232  15.670  11.178   7.950
20218DPPI   C4A31233  15.604  11.166   7.650
20218DPPI   C1B31234  15.435  11.077   8.550
20218DPPI   C2B31235  15.415  11.086   8.250
20218DPPI   C3B31236  15.396  11.108   7.950
20218DPPI   C4B31237  15.474  11.079   7.650
20219DPPI    C131238  14.956   4.298   9.450
20219DPPI    C231239  15.001   4.378   9.750
20219DPPI    C331240  14.830   4.288   9.750
20219DPPI   PO431241  14.867   4.246   9.150
20219DPPI   GL131242  14.841   4.266   8.850
20219DPPI   GL231243  14.966   4.319   8.850
20219DPPI   C1A31244  14.868   4.305   8.550
20219DPPI   C2A31245  14.843   4.318   8.250
20219DPPI   C3A31246  14.869   4.299   7.950
20219DPPI   C4A31247  14.862   4.272   7.650
20219DPPI   C1B31248  15.124   4.350   8.550
20219DPPI   C2B31249  15.121   4.363   8.250
20219DPPI   C3B31250  15.096   4.395   7.950
20219DPPI   C4B31251  15.099   4.359   7.650
20220DPPI    C131252  16.366   2.740   9.450
20220DPPI    C231253  16.304   2.675   9.750
20220DPPI    C331254  16.463   2.754   9.750
20220DPPI   PO431255  16.472   2.756   9.150
20220DPPI   GL131256  16.419   2.705   8.850
20220DPPI   GL231257  16.290   2.743   8.850
20220DPPI   C1A31258  16.451   2.725   8.550
20220DPPI   C2A31259  16.469   2.723   8.250
20220DPPI   C3A31260  16.434   2.739   7.950
20220DPPI   C4A31261  16.447   2.775   7.650
20220DPPI   C1B31262  16.233   2.699   8.550
20220DPPI   C2B31263  16.216   2.673   8.250
20220DPPI   C3B31264  16.208   2.675   7.950
20220DPPI   C4B31265  16.211   2.731   7.650
20221PYPI    C131266  14.858   2.073   9.450
20221PYPI    C231267  14.910   2.053   9.750
20221PYPI    C331268  14.853   1.963   9.750
20221PYPI   PO431269  14.831   1.984   9.150
20221PYPI   GL131270  14.836   1.946   8.850
20221PYPI   GL231271  14.912   2.060   8.850
20221PYPI   C1A31272  14.816   2.003   8.550
20221PYPI   C2A31273  14.847   1.987   8.250
20221PYPI   D3A31274  14.811   1.946   7.950
20221PYPI   C4A31275  14.869   1.943   7.650
20221PYPI   C1B31276  14.924   2.185   8.550
20221PYPI   C2B31277  14.953   2.244   8.250
20221PYPI   C3B31278  14.985   2.235   7.950
20221PYPI   C4B31279  14.960   2.214   7.650
20222PYPI    C131280  13.358  15.851   9.450
20222PYPI    C231281  13.405  15.842   9.750
20222PYPI    C331282  13.279  15.771   9.750
20222PYPI   PO431283  13.284  15.778   9.150
20222PYPI   GL131284  13.242  15.814   8.850
20222PYPI   GL231285  13.345  15.820   8.850
20222PYPI   C1A31286  13.202  15.850   8.550
20222PYPI   C2A31287  13.291  15.802   8.250
20222PYPI   D3A31288  13.214  15.855   7.950
20222PYPI   C4A31289  13.234  15.778   7.650
20222PYPI   C1B31290  13.512  15.859   8.550
20222PYPI   C2B31291  13.484  15.885   8.250
20222PYPI   C3B31292  13.477  15.902   7.950
20222PYPI   C4B31293  13.470  15.849   7.650
20223PYPI    C131294  17.185   2.677   9.450
20223PYPI    C231295  17.213   2.668   9.750
20223PYPI    C331296  17.288   2.737   9.750
20223PYPI   PO431297  17.221   2.722   9.150
20223PYPI   GL131298  17.279   2.715   8.850
20223PYPI   GL231299  17.174   2.641   8.850
20223PYPI   C1A31300  17.277   2.752   8.550
20223PYPI   C2A31301  17.270   2.703   8.250
20223PYPI   D3A31302  17.205   2.785   7.950
20223PYPI   C4A31303  17.277   2.720   7.650
20223PYPI   C1B31304  17.063   2.585   8.550
20223PYPI   C2B31305  17.128   2.574   8.250
20223PYPI   C3B31306  17.111   2.532   7.950
20223PYPI   C4B31307  17.058   2.513   7.650
20224PYPI    C131308  16.342  10.283   9.450
20224PYPI    C231309  16.357  10.295   9.750
20224PYPI    C331310  16.477  10.436   9.750
20224PYPI   PO431311  16.423  10.481   9.150
20224PYPI   GL131312  16.431  10.388   8.850
20224PYPI   GL231313  16.392  10.313   8.850
20224PYPI   C1A31314  16.476  10.468   8.550
20224PYPI   C2A31315  16.482  10.400   8.250
20224PYPI   D3A31316  16.419  10.408   7.950
20224PYPI   C4A31317  16.488  10.424   7.650
20224PYPI   C1B31318  16.276  10.249   8.550
20224PYPI   C2B31319  16.329  10.242   8.250
20224PYPI   C3B31320  16.340  10.195   7.950
20224PYPI   C4B31321  16.277  10.240   7.650
20225PYPI    C131322  18.133  11.226   9.450
20225PYPI    C231323  18.206  11.250   9.750
20225PYPI    C331324  18.042  11.157   9.750
20225PYPI   PO431325  18.064  11.156   9.150
20225PYPI   GL131326  18.058  11.217   8.850
20225PYPI   GL231327  18.164  11.192   8.850
20225PYPI   C1A31328  18.090  11.203   8.550
20225PYPI   C2A31329  18.009  11.222   8.250
20225PYPI   D3A31330  18.077  11.186   7.950
20225PYPI   C4A31331  18.064  11.169   7.650
20225PYPI   C1B31332  18.270  11.174   8.550
20225PYPI   C2B31333  18.303  11.199   8.250
20225PYPI   C3B31334  18.339  11.249   7.950
20225PYPI   C4B31335  18.344  11.204   7.650
20226PYPI    C131336  18.859  16.725   9.450
20226PYPI    C231337  18.906  16.715   9.750
20226PYPI    C331338  18.889  16.546   9.750
20226PYPI   PO431339  18.892  16.607   9.150
20226PYPI   GL131340  18.880  16.622   8.850
20226PYPI   GL231341  18.916  16.664   8.850
20226PYPI   C1A31342  18.832  16.598   8.550
20226PYPI   C2A31343  18.804  16.626   8.250
20226PYPI   D3A31344  18.841  16.634   7.950
20226PYPI   C4A31345  18.874  16.542   7.650
20226PYPI   C1B31346  18.962  16.829   8.550
20226PYPI   C2B31347  18.976  16.813   8.250
20226PYPI   C3B31348  18.998  16.788   7.950
20226PYPI   C4B31349  19.002  16.788   7.650
20227PYPI    C131350  17.337   2.000   9.450
20227PYPI    C231351  17.356   1.993   9.750
20227PYPI    C331352  17.231   1.942   9.750
20227PYPI   PO431353  17.276   1.935   9.150
20227PYPI   GL131354  17.290   1.924   8.850
20227PYPI   GL231355  17.338   1.981   8.850
20227PYPI   C1A31356  17.212   2.020   8.550
20227PYPI   C2A31357  17.238   2.012   8.250
20227PYPI   D3A31358  17.287   2.012   7.950
20227PYPI   C4A31359  17.225   1.942   7.650
20227PYPI   C1B31360  17.522   2.016   8.550
20227PYPI   C2B31361  17.510   2.006   8.250
20227PYPI   C3B31362  17.537   2.019   7.950
20227PYPI   C4B31363  17.466   2.009   7.650
20228PYPI    C131364  15.540   8.138   9.450
20228PYPI    C231365  15.512   8.210   9.750
20228PYPI    C331366  15.631   8.124   9.750
20228PYPI   PO431367  15.654   8.108   9.150
20228PYPI   GL131368  15.623   8.143   8.850
20228PYPI   GL231369  15.522   8.141   8.850
20228PYPI   C1A31370  15.630   8.098   8.550
20228PYPI   C2A31371  15.616   8.078   8.250
20228PYPI   D3A31372  15.688   8.168   7.950
20228PYPI   C4A31373  15.685   8.109   7.650
20228PYPI   C1B31374  15.414   8.209   8.550
20228PYPI   C2B31375  15.440   8.274   8.250
20228PYPI   C3B31376  15.377   8.251   7.950
20228PYPI   C4B31377  15.381   8.255   7.650
20229PYPI    C131378  13.202   1.079   9.450
20229PYPI    C231379  13.222   1.050   9.750
20229PYPI    C331380  13.284   1.219   9.750
20229PYPI   PO431381  13.227   1.203   9.150
20229PYPI   GL131382  13.201   1.211   8.850
20229PYPI   GL231383  13.275   1.096   8.850
20229PYPI   C1A31384  13.267   1.176   8.550
20229PYPI   C2A31385  13.276   1.225   8.250
20229PYPI   D3A31386  13.258   1.219   7.950
20229PYPI   C4A31387  13.212   1.166   7.650
20229PYPI   C1B31388  13.254   0.928   8.550
20229PYPI   C2B31389  13.261   0.921   8.250
20229PYPI   C3B31390  13.209   1.000   7.950
20229PYPI   C4B31391  13.204   0.952   7.650
20230PYPI    C131392  15.018   6.515   9.450
20230PYPI    C231393  14.926   6.560   9.750
20230PYPI    C331394  14.832   6.543   9.750
20230PYPI   PO431395  14.856   6.569   9.150
20230PYPI   GL131396  14.850   6.549   8.850
20230PYPI   GL231397  15.013   6.600   8.850
20230PYPI   C1A31398  14.817   6.635   8.550
20230PYPI   C2A31399  14.865   6.603   8.250
20230PYPI   D3A31400  14.878   6.597   7.950
20230PYPI   C4A31401  14.826   6.583   7.650
20230PYPI   C1B31402  15.065   6.514   8.550
20230PYPI   C2B31403  15.129   6.544   8.250
20230PYPI   C3B31404  15.140   6.495   7.950
20230PYPI   C4B31405  15.104   6.499   7.650
20231PYPI    C131406  14.946  18.109   9.450
20231PYPI    C231407  14.997  18.137   9.750
20231PYPI    C331408  14.851  18.159   9.750
20231PYPI   PO431409  14.869  18.091   9.150
20231PYPI   GL131410  14.866  18.116   8.850
20231PYPI   GL231411  14.991  18.134   8.850
20231PYPI   C1A31412  14.895  18.121   8.550
20231PYPI   C2A31413  14.876  18.114   8.250
20231PYPI   D3A31414  14.882  18.098   7.950
20231PYPI   C4A31415  14.884  18.174   7.650
20231PYPI   C1B31416  15.074  18.159   8.550
20231PYPI   C2B31417  15.115  18.094   8.250
20231PYPI   C3B31418  15.091  18.088   7.950
20231PYPI   C4B31419  15.093  18.136   7.650
20232PYPI    C131420  12.572  19.640   9.450
20232PYPI    C231421  12.531  19.669   9.750
20232PYPI    C331422  12.453  19.693   9.750
20232PYPI   PO431423  12.413  19.634   9.150
20232PYPI   GL131424  12.467  19.655   8.850
20232PYPI   GL231425  12.586  19.651   8.850
20232PYPI   C1A31426  12.468  19.646   8.550
20232PYPI   C2A31427  12.442  19.707   8.250
20232PYPI   D3A31428  12.455  19.619   7.950
20232PYPI   C4A31429  12.477  19.654   7.650
20232PYPI   C1B31430  12.707  19.673   8.550
20232PYPI   C2B31431  12.725  19.621   8.250
20232PYPI   C3B31432  12.726  19.584   7.950
20232PYPI   C4B31433  12.709  19.608   7.650
20233PYPI    C131434  14.051   1.093   9.450
20233PYPI    C231435  13.982   1.099   9.750
20233PYPI    C331436  14.051   1.192   9.750
20233PYPI   PO431437  14.077   1.183   9.150
20233PYPI   GL131438  14.018   1.229   8.850
20233PYPI   GL231439  14.035   1.125   8.850
20233PYPI   C1A31440  14.010   1.211   8.550
20233PYPI   C2A31441  14.017   1.244   8.250
20233PYPI   D3A31442  14.010   1.170   7.950
20233PYPI   C4A31443  14.088   1.161   7.650
20233PYPI   C1B31444  13.952   0.968   8.550
20233PYPI   C2B31445  13.986   1.006   8.250
20233PYPI   C3B31446  13.953   0.990   7.950
20233PYPI   C4B31447  13.984   1.003   7.650
20234PYPI    C131448  17.333  11.924   9.450
20234PYPI    C231449  17.348  11.888   9.750
20234PYPI    C331450  17.237  12.007   9.750
20234PYPI   PO431451  17.201  11.959   9.150
20234PYPI   GL131452  17.300  12.016   8.850
20234PYPI   GL231453  17.340  11.876   8.850
20234PYPI   C1A31454  17.238  11.931   8.550
20234PYPI   C2A31455  17.203  11.924   8.250
20234PYPI   D3A31456  17.292  11.949   7.950
20234PYPI   C4A31457  17.295  11.941   7.650
20234PYPI   C1B31458  17.423  11.862   8.550
20234PYPI   C2B31459  17.424  11.785   8.250
20234PYPI   C3B31460  17.468  11.864   7.950
20234PYPI   C4B31461  17.463  11.842   7.650
20235PYPI    C131462  13.132   0.381   9.450
20235PYPI    C231463  13.186   0.377   9.750
20235PYPI    C331464  13.257   0.402   9.750
20235PYPI   PO431465  13.274   0.434   9.150
20235PYPI   GL131466  13.272   0.444   8.850
20235PYPI   GL231467  13.143   0.346   8.850
20235PYPI   C1A31468  13.242   0.446   8.550
20235PYPI   C2A31469  13.221   0.424   8.250
20235PYPI   D3A31470  13.279   0.482   7.950
20235PYPI   C4A31471  13.274   0.439   7.650
20235PYPI   C1B31472  13.066   0.337   8.550
20235PYPI   C2B31473  13.047   0.292   8.250
20235PYPI   C3B31474  13.055   0.354   7.950
20235PYPI   C4B31475  13.034   0.301   7.650
20236PYPI    C131476  13.295   8.762   9.450
20236PYPI    C231477  13.215   8.791   9.750
20236PYPI    C331478  13.258   8.936   9.750
20236PYPI   PO431479  13.270   8.862   9.150
20236PYPI   GL131480  13.235   8.855   8.850
20236PYPI   GL231481  13.293   8.748   8.850
20236PYPI   C1A31482  13.281   8.860   8.550
20236PYPI   C2A31483  13.259   8.893   8.250
20236PYPI   D3A31484  13.297   8.856   7.950
20236PYPI   C4A31485  13.210   8.874   7.650
20236PYPI   C1B31486  13.280   8.692   8.550
20236PYPI   C2B31487  13.273   8.634   8.250
20236PYPI   C3B31488  13.272   8.608   7.950
20236PYPI   C4B31489  13.266   8.656   7.650
20237PYPI    C131490  12.559  15.078   9.450
20237PYPI    C231491  12.552  15.144   9.750
20237PYPI    C331492  12.459  15.002   9.750
20237PYPI   PO431493  12.462  15.053   9.150
20237PYPI   GL131494  12.421  15.073   8.850
20237PYPI   GL231495  12.581  15.061   8.850
20237PYPI   C1A31496  12.428  15.008   8.550
20237PYPI   C2A31497  12.427  15.093   8.250
20237PYPI   D3A31498  12.472  15.088   7.950
20237PYPI   C4A31499  12.455  15.031   7.650
20237PYPI   C1B31500  12.685  15.170   8.550
20237PYPI   C2B31501  12.626  15.113   8.250
20237PYPI   C3B31502  12.698  15.122   7.950
20237PYPI   C4B31503  12.704  15.162   7.650
20238PYPI    C131504  12.434  12.844   9.450
20238PYPI    C231505  12.443  12.877   9.750
20238PYPI    C331506  12.457  12.728   9.750
20238PYPI   PO431507  12.409  12.698   9.150
20238PYPI   GL131508  12.488  12.764   8.850
20238PYPI   GL231509  12.402  12.881   8.850
20238PYPI   C1A31510  12.449  12.699   8.550
20238PYPI   C2A31511  12.426  12.713   8.250
20238PYPI   D3A31512  12.441  12.722   7.950
20238PYPI   C4A31513  12.411  12.698   7.650
20238PYPI   C1B31514  12.387  12.990   8.550
20238PYPI   C2B31515  12.424  13.033   8.250
20238PYPI   C3B31516  12.384  13.028   7.950
20238PYPI   C4B31517  12.469  12.992   7.650
20239PYPI    C131518  18.111   2.652   9.450
20239PYPI    C231519  18.116   2.704   9.750
20239PYPI    C331520  18.060   2.783   9.750
20239PYPI   PO431521  18.029   2.705   9.150
20239PYPI   GL131522  18.099   2.728   8.850
20239PYPI   GL231523  18.201   2.674   8.850
20239PYPI   C1A31524  18.008   2.714   8.550
20239PYPI   C2A31525  18.088   2.781   8.250
20239PYPI   D3A31526  18.081   2.786   7.950
20239PYPI   C4A31527  18.057   2.752   7.650
20239PYPI   C1B31528  18.208   2.640   8.550
20239PYPI   C2B31529  18.238   2.613   8.250
20239PYPI   C3B31530  18.297   2.635   7.950
20239PYPI   C4B31531  18.270   2.580   7.650
20240PYPI    C131532  14.868  16.705   9.450
20240PYPI    C231533  14.838  16.703   9.750
20240PYPI    C331534  14.818  16.570   9.750
20240PYPI   PO431535  14.847  16.602   9.150
20240PYPI   GL131536  14.801  16.626   8.850
20240PYPI   GL231537  14.887  16.724   8.850
20240PYPI   C1A31538  14.801  16.544   8.550
20240PYPI   C2A31539  14.857  16.596   8.250
20240PYPI   D3A31540  14.862  16.545   7.950
20240PYPI   C4A31541  14.817  16.637   7.650
20240PYPI   C1B31542  14.935  16.821   8.550
20240PYPI   C2B31543  14.905  16.789   8.250
20240PYPI   C3B31544  14.913  16.819   7.950
20240PYPI   C4B31545  14.920  16.885   7.650
20241PYPI    C131546  16.431  19.757   9.450
20241PYPI    C231547  16.421  19.784   9.750
20241PYPI    C331548  16.456  19.623   9.750
20241PYPI   PO431549  16.436  19.694   9.150
20241PYPI   GL131550  16.450  19.702   8.850
20241PYPI   GL231551  16.405  19.827   8.850
20241PYPI   C1A31552  16.421  19.635   8.550
20241PYPI   C2A31553  16.437  19.662   8.250
20241PYPI   D3A31554  16.411  19.623   7.950
20241PYPI   C4A31555  16.437  19.632   7.650
20241PYPI   C1B31556  16.406  19.924   8.550
20241PYPI   C2B31557  16.423  19.905   8.250
20241PYPI   C3B31558  16.432  19.876   7.950
20241PYPI   C4B31559  16.498  19.954   7.650
20242PYPI    C131560  13.380   8.172   9.450
20242PYPI    C231561  13.407   8.159   9.750
20242PYPI    C331562  13.261   8.172   9.750
20242PYPI   PO431563  13.296   8.101   9.150
20242PYPI   GL131564  13.226   8.133   8.850
20242PYPI   GL231565  13.361   8.173   8.850
20242PYPI   C1A31566  13.255   8.163   8.550
20242PYPI   C2A31567  13.243   8.148   8.250
20242PYPI   D3A31568  13.228   8.083   7.950
20242PYPI   C4A31569  13.296   8.124   7.650
20242PYPI   C1B31570  13.513   8.210   8.550
20242PYPI   C2B31571  13.540   8.138   8.250
20242PYPI   C3B31572  13.508   8.167   7.950
20242PYPI   C4B31573  13.447   8.180   7.650
20243PYPI    C131574  14.094   0.352   9.450
20243PYPI    C231575  14.118   0.298   9.750
20243PYPI    C331576  14.037   0.385   9.750
20243PYPI   PO431577  14.029   0.418   9.150
20243PYPI   GL131578  14.008   0.473   8.850
20243PYPI   GL231579  14.141   0.317   8.850
20243PYPI   C1A31580  14.077   0.484   8.550
20243PYPI   C2A31581  14.051   0.412   8.250
20243PYPI   D3A31582  14.024   0.434   7.950
20243PYPI   C4A31583  14.030   0.446   7.650
20243PYPI   C1B31584  14.178   0.205   8.550
20243PYPI   C2B31585  14.192   0.248   8.250
20243PYPI   C3B31586  14.214   0.266   7.950
20243PYPI   C4B31587  14.238   0.268   7.650
20244PYPI    C131588  13.304  10.592   9.450
20244PYPI    C231589  13.274  10.585   9.750
20244PYPI    C331590  13.273  10.470   9.750
20244PYPI   PO431591  13.233  10.398   9.150
20244PYPI   GL131592  13.267  10.464   8.850
20244PYPI   GL231593  13.229  10.549   8.850
20244PYPI   C1A31594  13.267  10.401   8.550
20244PYPI   C2A31595  13.231  10.410   8.250
20244PYPI   D3A31596  13.265  10.435   7.950
20244PYPI   C4A31597  13.294  10.428   7.650
20244PYPI   C1B31598  13.315  10.662   8.550
20244PYPI   C2B31599  13.254  10.658   8.250
20244PYPI   C3B31600  13.241  10.664   7.950
20244PYPI   C4B31601  13.241  10.723   7.650
20245PYPI    C131602  17.397  17.447   9.450
20245PYPI    C231603  17.338  17.386   9.750
20245PYPI    C331604  17.289  17.389   9.750
20245PYPI   PO431605  17.234  17.318   9.150
20245PYPI   GL131606  17.290  17.309   8.850
20245PYPI   GL231607  17.349  17.449   8.850
20245PYPI   C1A31608  17.236  17.352   8.550
20245PYPI   C2A31609  17.270  17.386   8.250
20245PYPI   D3A31610  17.251  17.403   7.950
20245PYPI   C4A31611  17.275  17.382   7.650
20245PYPI   C1B31612  17.490  17.517   8.550
20245PYPI   C2B31613  17.476  17.518   8.250
20245PYPI   C3B31614  17.468  17.520   7.950
20245PYPI   C4B31615  17.466  17.438   7.650
20246PYPI    C131616  13.265  16.485   9.450
20246PYPI    C231617  13.245  16.487   9.750
20246PYPI    C331618  13.218  16.572   9.750
20246PYPI   PO431619  13.213  16.589   9.150
20246PYPI   GL131620  13.252  16.590   8.850
20246PYPI   GL231621  13.257  16.432   8.850
20246PYPI   C1A31622  13.235  16.605   8.550
20246PYPI   C2A31623  13.281  16.544   8.250
20246PYPI   D3A31624  13.234  16.584   7.950
20246PYPI   C4A31625  13.211  16.637   7.650
20246PYPI   C1B31626  13.321  16.334   8.550
20246PYPI   C2B31627  13.293  16.342   8.250
20246PYPI   C3B31628  13.332  16.300   7.950
20246PYPI   C4B31629  13.287  16.304   7.650
20247ERGO   ROH31630  14.826   5.058   9.240
20247ERGO    R131631  14.823   5.037   9.000
20247ERGO    R231632  14.599   5.094   8.820
20247ERGO    R331633  14.834   5.099   8.640
20247ERGO    R431634  14.618   5.029   8.550
20247ERGO    R531635  14.862   5.011   8.430
20247ERGO    C131636  14.870   5.013   8.070
20247ERGO    C231637  14.861   5.027   7.650
20248ERGO   ROH31638  14.833  12.712   9.240
20248ERGO    R131639  14.838  12.722   9.000
20248ERGO    R231640  14.613  12.851   8.820
20248ERGO    R331641  14.829  12.778   8.640
20248ERGO    R431642  14.623  12.865   8.550
20248ERGO    R531643  14.847  12.708   8.430
20248ERGO    C131644  14.895  12.744   8.070
20248ERGO    C231645  14.861  12.735   7.650
20249ERGO   ROH31646  17.239  12.780   9.240
20249ERGO    R131647  17.238  12.723   9.000
20249ERGO    R231648  17.246  12.487   8.820
20249ERGO    R331649  17.298  12.702   8.640
20249ERGO    R431650  17.259  12.520   8.550
20249ERGO    R531651  17.276  12.780   8.430
20249ERGO    C131652  17.266  12.739   8.070
20249ERGO    C231653  17.241  12.763   7.650
20250ERGO   ROH31654  18.004  12.696   9.240
20250ERGO    R131655  18.066  12.695   9.000
20250ERGO    R231656  17.787  12.839   8.820
20250ERGO    R331657  18.096  12.774   8.640
20250ERGO    R431658  17.807  12.818   8.550
20250ERGO    R531659  18.030  12.787   8.430
20250ERGO    C131660  18.057  12.786   8.070
20250ERGO    C231661  18.047  12.693   7.650
20251ERGO   ROH31662  12.419   2.023   9.240
20251ERGO    R131663  12.492   2.007   9.000
20251ERGO    R231664  12.165   1.859   8.820
20251ERGO    R331665  12.481   1.941   8.640
20251ERGO    R431666  12.193   1.842   8.550
20251ERGO    R531667  12.469   1.964   8.430
20251ERGO    C131668  12.417   2.011   8.070
20251ERGO    C231669  12.431   1.934   7.650
20252ERGO   ROH31670  19.624  11.220   9.240
20252ERGO    R131671  19.668  11.240   9.000
20252ERGO    R231672  19.475  11.409   8.820
20252ERGO    R331673  19.643  11.182   8.640
20252ERGO    R431674  19.506  11.418   8.550
20252ERGO    R531675  19.649  11.238   8.430
20252ERGO    C131676  19.609  11.155   8.070
20252ERGO    C231677  19.668  11.156   7.650
20253ERGO   ROH31678  18.053   7.371   9.240
20253ERGO    R131679  18.067   7.390   9.000
20253ERGO    R231680  18.226   7.190   8.820
20253ERGO    R331681  18.057   7.354   8.640
20253ERGO    R431682  18.249   7.253   8.550
20253ERGO    R531683  18.056   7.338   8.430
20253ERGO    C131684  18.022   7.354   8.070
20253ERGO    C231685  18.064   7.314   7.650
20254ERGO   ROH31686  15.639  15.776   9.240
20254ERGO    R131687  15.680  15.857   9.000
20254ERGO    R231688  15.733  16.027   8.820
20254ERGO    R331689  15.660  15.818   8.640
20254ERGO    R431690  15.724  16.038   8.550
20254ERGO    R531691  15.629  15.775   8.430
20254ERGO    C131692  15.652  15.849   8.070
20254ERGO    C231693  15.616  15.862   7.650
20255ERGO   ROH31694  15.699   5.028   9.240
20255ERGO    R131695  15.666   5.037   9.000
20255ERGO    R231696  15.834   4.817   8.820
20255ERGO    R331697  15.659   5.060   8.640
20255ERGO    R431698  15.804   4.847   8.550
20255ERGO    R531699  15.600   5.080   8.430
20255ERGO    C131700  15.611   5.068   8.070
20255ERGO    C231701  15.654   5.078   7.650
20256ERGO   ROH31702  18.846   3.485   9.240
20256ERGO    R131703  18.898   3.529   9.000
20256ERGO    R231704  18.587   3.422   8.820
20256ERGO    R331705  18.838   3.540   8.640
20256ERGO    R431706  18.655   3.441   8.550
20256ERGO    R531707  18.859   3.466   8.430
20256ERGO    C131708  18.881   3.482   8.070
20256ERGO    C231709  18.828   3.501   7.650
20257ERGO   ROH31710  14.816  19.627   9.240
20257ERGO    R131711  14.821  19.674   9.000
20257ERGO    R231712  14.805  19.431   8.820
20257ERGO    R331713  14.879  19.617   8.640
20257ERGO    R431714  14.756  19.433   8.550
20257ERGO    R531715  14.817  19.697   8.430
20257ERGO    C131716  14.869  19.692   8.070
20257ERGO    C231717  14.870  19.679   7.650
20258ERGO   ROH31718  17.227   3.498   9.240
20258ERGO    R131719  17.261   3.505   9.000
20258ERGO    R231720  17.034   3.466   8.820
20258ERGO    R331721  17.225   3.474   8.640
20258ERGO    R431722  17.004   3.465   8.550
20258ERGO    R531723  17.232   3.561   8.430
20258ERGO    C131724  17.218   3.526   8.070
20258ERGO    C231725  17.240   3.483   7.650
20259ERGO   ROH31726  14.828  10.473   9.240
20259ERGO    R131727  14.808  10.386   9.000
20259ERGO    R231728  14.857  10.184   8.820
20259ERGO    R331729  14.845  10.455   8.640
20259ERGO    R431730  14.866  10.213   8.550
20259ERGO    R531731  14.822  10.429   8.430
20259ERGO    C131732  14.880  10.423   8.070
20259ERGO    C231733  14.861  10.460   7.650
20260ERGO   ROH31734  17.253   0.398   9.240
20260ERGO    R131735  17.202   0.391   9.000
20260ERGO    R231736  17.504   0.370   8.820
20260ERGO    R331737  17.295   0.435   8.640
20260ERGO    R431738  17.469   0.316   8.550
20260ERGO    R531739  17.214   0.432   8.430
20260ERGO    C131740  17.206   0.424   8.070
20260ERGO    C231741  17.207   0.415   7.650
20261ERGO   ROH31742  19.625   4.236   9.240
20261ERGO    R131743  19.681   4.270   9.000
20261ERGO    R231744  19.478   4.161   8.820
20261ERGO    R331745  19.678   4.322   8.640
20261ERGO    R431746  19.438   4.081   8.550
20261ERGO    R531747  19.688   4.252   8.430
20261ERGO    C131748  19.682   4.253   8.070
20261ERGO    C231749  19.677   4.289   7.650
20262ERGO   ROH31750  17.246  16.616   9.240
20262ERGO    R131751  17.249  16.549   9.000
20262ERGO    R231752  17.433  16.746   8.820
20262ERGO    R331753  17.238  16.540   8.640
20262ERGO    R431754  17.411  16.804   8.550
20262ERGO    R531755  17.250  16.539   8.430
20262ERGO    C131756  17.223  16.557   8.070
20262ERGO    C231757  17.237  16.575   7.650
20263ERGO   ROH31758  18.012  15.081   9.240
20263ERGO    R131759  18.069  15.004   9.000
20263ERGO    R231760  17.833  15.213   8.820
20263ERGO    R331761  18.080  15.029   8.640
20263ERGO    R431762  17.803  15.197   8.550
20263ERGO    R531763  18.091  15.068   8.430
20263ERGO    C131764  18.021  15.007   8.070
20263ERGO    C231765  18.085  15.076   7.650
20264ERGO   ROH31766  14.093   6.561   9.240
20264ERGO    R131767  14.064   6.554   9.000
20264ERGO    R231768  13.797   6.667   8.820
20264ERGO    R331769  14.051   6.550   8.640
20264ERGO    R431770  13.832   6.655   8.550
20264ERGO    R531771  14.064   6.545   8.430
20264ERGO    C131772  14.073   6.557   8.070
20264ERGO    C231773  14.086   6.594   7.650
20265ERGO   ROH31774  18.066   8.169   9.240
20265ERGO    R131775  18.099   8.155   9.000
20265ERGO    R231776  18.298   8.112   8.820
20265ERGO    R331777  18.019   8.172   8.640
20265ERGO    R431778  18.299   8.112   8.550
20265ERGO    R531779  18.033   8.106   8.430
20265ERGO    C131780  18.098   8.102   8.070
20265ERGO    C231781  18.022   8.126   7.650
20266ERGO   ROH31782  19.604   2.770   9.240
20266ERGO    R131783  19.638   2.777   9.000
20266ERGO    R231784  19.779   2.930   8.820
20266ERGO    R331785  19.602   2.790   8.640
20266ERGO    R431786  19.770   2.979   8.550
20266ERGO    R531787  19.645   2.719   8.430
20266ERGO    C131788  19.604   2.736   8.070
20266ERGO    C231789  19.669   2.761   7.650
20267ERGO   ROH31790  14.022   7.378   9.240
20267ERGO    R131791  14.049   7.353   9.000
20267ERGO    R231792  14.159   7.097   8.820
20267ERGO    R331793  14.064   7.325   8.640
20267ERGO    R431794  14.120   7.107   8.550
20267ERGO    R531795  14.046   7.373   8.430
20267ERGO    C131796  14.036   7.372   8.070
20267ERGO    C231797  14.095   7.336   7.650
20268ERGO   ROH31798  18.086   9.626   9.240
20268ERGO    R131799  18.055   9.662   9.000
20268ERGO    R231800  18.136   9.401   8.820
20268ERGO    R331801  18.015   9.688   8.640
20268ERGO    R431802  18.139   9.411   8.550
20268ERGO    R531803  18.016   9.678   8.430
20268ERGO    C131804  18.037   9.648   8.070
20268ERGO    C231805  18.098   9.649   7.650
20269ERGO   ROH31806  14.068  18.933   9.240
20269ERGO    R131807  14.084  18.878   9.000
20269ERGO    R231808  14.337  18.966   8.820
20269ERGO    R331809  14.076  18.867   8.640
20269ERGO    R431810  14.252  18.915   8.550
20269ERGO    R531811  14.016  18.922   8.430
20269ERGO    C131812  14.071  18.895   8.070
20269ERGO    C231813  14.032  18.937   7.650
20270ERGO   ROH31814  18.046  17.347   9.240
20270ERGO    R131815  18.087  17.352   9.000
20270ERGO    R231816  18.288  17.268   8.820
20270ERGO    R331817  18.028  17.399   8.640
20270ERGO    R431818  18.345  17.286   8.550
20270ERGO    R531819  18.054  17.321   8.430
20270ERGO    C131820  18.020  17.359   8.070
20270ERGO    C231821  18.064  17.310   7.650
20271ERGO   ROH31822  12.493   5.017   9.240
20271ERGO    R131823  12.406   5.065   9.000
20271ERGO    R231824  12.647   4.897   8.820
20271ERGO    R331825  12.405   5.029   8.640
20271ERGO    R431826  12.637   4.807   8.550
20271ERGO    R531827  12.402   5.056   8.430
20271ERGO    C131828  12.422   5.025   8.070
20271ERGO    C231829  12.414   5.027   7.650
20272ERGO   ROH31830  15.603   8.910   9.240
20272ERGO    R131831  15.630   8.911   9.000
20272ERGO    R231832  15.430   8.847   8.820
20272ERGO    R331833  15.689   8.920   8.640
20272ERGO    R431834  15.424   8.842   8.550
20272ERGO    R531835  15.685   8.883   8.430
20272ERGO    C131836  15.680   8.912   8.070
20272ERGO    C231837  15.649   8.853   7.650
20273ERGO   ROH31838  16.405  14.271   9.240
20273ERGO    R131839  16.475  14.303   9.000
20273ERGO    R231840  16.689  14.261   8.820
20273ERGO    R331841  16.451  14.276   8.640
20273ERGO    R431842  16.647  14.220   8.550
20273ERGO    R531843  16.478  14.299   8.430
20273ERGO    C131844  16.444  14.239   8.070
20273ERGO    C231845  16.455  14.295   7.650
20274ERGO   ROH31846  14.812  18.878   9.240
20274ERGO    R131847  14.803  18.923   9.000
20274ERGO    R231848  14.766  18.657   8.820
20274ERGO    R331849  14.814  18.907   8.640
20274ERGO    R431850  14.800  18.652   8.550
20274ERGO    R531851  14.824  18.886   8.430
20274ERGO    C131852  14.867  18.867   8.070
20274ERGO    C231853  14.812  18.928   7.650
20275ERGO   ROH31854  18.086  10.466   9.240
20275ERGO    R131855  18.061  10.409   9.000
20275ERGO    R231856  18.125  10.177   8.820
20275ERGO    R331857  18.097  10.436   8.640
20275ERGO    R431858  18.188  10.258   8.550
20275ERGO    R531859  18.090  10.457   8.430
20275ERGO    C131860  18.048  10.469   8.070
20275ERGO    C231861  18.075  10.479   7.650
20276ERGO   ROH31862  14.037  16.595   9.240
20276ERGO    R131863  14.006  16.568   9.000
20276ERGO    R231864  14.155  16.315   8.820
20276ERGO    R331865  14.096  16.584   8.640
20276ERGO    R431866  14.148  16.300   8.550
20276ERGO    R531867  14.005  16.592   8.430
20276ERGO    C131868  14.043  16.546   8.070
20276ERGO    C231869  14.009  16.629   7.650
20277ERGO   ROH31870  15.684   4.238   9.240
20277ERGO    R131871  15.604   4.275   9.000
20277ERGO    R231872  15.885   4.199   8.820
20277ERGO    R331873  15.654   4.242   8.640
20277ERGO    R431874  15.888   4.185   8.550
20277ERGO    R531875  15.638   4.290   8.430
20277ERGO    C131876  15.624   4.314   8.070
20277ERGO    C231877  15.670   4.305   7.650
20278ERGO   ROH31878  14.034   2.781   9.240
20278ERGO    R131879  14.083   2.770   9.000
20278ERGO    R231880  13.970   2.541   8.820
20278ERGO    R331881  14.082   2.746   8.640
20278ERGO    R431882  13.965   2.479   8.550
20278ERGO    R531883  14.084   2.715   8.430
20278ERGO    C131884  14.058   2.769   8.070
20278ERGO    C231885  14.059   2.755   7.650
20279ERGO   ROH31886  18.810   7.359   9.240
20279ERGO    R131887  18.885   7.390   9.000
20279ERGO    R231888  18.977   7.577   8.820
20279ERGO    R331889  18.851   7.406   8.640
20279ERGO    R431890  19.027   7.515   8.550
20279ERGO    R531891  18.898   7.312   8.430
20279ERGO    C131892  18.862   7.380   8.070
20279ERGO    C231893  18.827   7.374   7.650
20280ERGO   ROH31894  12.422  10.446   9.240
20280ERGO    R131895  12.465  10.454   9.000
20280ERGO    R231896  12.170  10.505   8.820
20280ERGO    R331897  12.465  10.483   8.640
20280ERGO    R431898  12.166  10.514   8.550
20280ERGO    R531899  12.411  10.451   8.430
20280ERGO    C131900  12.437  10.431   8.070
20280ERGO    C231901  12.473  10.466   7.650
20281ERGO   ROH31902  14.017  12.744   9.240
20281ERGO    R131903  14.025  12.697   9.000
20281ERGO    R231904  14.178  12.524   8.820
20281ERGO    R331905  14.050  12.763   8.640
20281ERGO    R431906  14.156  12.513   8.550
20281ERGO    R531907  14.016  12.727   8.430
20281ERGO    C131908  14.053  12.722   8.070
20281ERGO    C231909  14.070  12.713   7.650
20282ERGO   ROH31910  18.832  14.306   9.240
20282ERGO    R131911  18.839  14.327   9.000
20282ERGO    R231912  18.850  14.499   8.820
20282ERGO    R331913  18.886  14.327   8.640
20282ERGO    R431914  18.868  14.560   8.550
20282ERGO    R531915  18.849  14.275   8.430
20282ERGO    C131916  18.811  14.237   8.070
20282ERGO    C231917  18.866  14.238   7.650
20283ERGO   ROH31918  18.846   5.098   9.240
20283ERGO    R131919  18.807   5.039   9.000
20283ERGO    R231920  18.696   5.189   8.820
20283ERGO    R331921  18.812   5.050   8.640
20283ERGO    R431922  18.654   5.206   8.550
20283ERGO    R531923  18.810   5.067   8.430
20283ERGO    C131924  18.807   5.001   8.070
20283ERGO    C231925  18.880   5.061   7.650
20284ERGO   ROH31926  17.233  18.101   9.240
20284ERGO    R131927  17.252  18.111   9.000
20284ERGO    R231928  17.513  18.230   8.820
20284ERGO    R331929  17.204  18.124   8.640
20284ERGO    R431930  17.492  18.279   8.550
20284ERGO    R531931  17.299  18.086   8.430
20284ERGO    C131932  17.258  18.111   8.070
20284ERGO    C231933  17.283  18.124   7.650
20285ERGO   ROH31934  15.606   2.771   9.240
20285ERGO    R131935  15.650   2.704   9.000
20285ERGO    R231936  15.429   2.821   8.820
20285ERGO    R331937  15.671   2.746   8.640
20285ERGO    R431938  15.449   2.766   8.550
20285ERGO    R531939  15.636   2.759   8.430
20285ERGO    C131940  15.634   2.775   8.070
20285ERGO    C231941  15.676   2.769   7.650
20286ERGO   ROH31942  15.620   6.623   9.240
20286ERGO    R131943  15.677   6.599   9.000
20286ERGO    R231944  15.763   6.382   8.820
20286ERGO    R331945  15.600   6.592   8.640
20286ERGO    R431946  15.685   6.387   8.550
20286ERGO    R531947  15.698   6.637   8.430
20286ERGO    C131948  15.674   6.562   8.070
20286ERGO    C231949  15.618   6.619   7.650
20287ERGO   ROH31950  18.822   2.760   9.240
20287ERGO    R131951  18.857   2.710   9.000
20287ERGO    R231952  18.771   2.928   8.820
20287ERGO    R331953  18.802   2.746   8.640
20287ERGO    R431954  18.753   2.971   8.550
20287ERGO    R531955  18.819   2.736   8.430
20287ERGO    C131956  18.848   2.787   8.070
20287ERGO    C231957  18.875   2.705   7.650
20288ERGO   ROH31958  12.413  11.967   9.240
20288ERGO    R131959  12.491  11.983   9.000
20288ERGO    R231960  12.267  12.219   8.820
20288ERGO    R331961  12.455  11.978   8.640
20288ERGO    R431962  12.293  12.215   8.550
20288ERGO    R531963  12.405  11.932   8.430
20288ERGO    C131964  12.494  11.941   8.070
20288ERGO    C231965  12.478  11.935   7.650
20289ERGO   ROH31966  15.602  16.554   9.240
20289ERGO    R131967  15.608  16.592   9.000
20289ERGO    R231968  15.385  16.512   8.820
20289ERGO    R331969  15.692  16.625   8.640
20289ERGO    R431970  15.435  16.555   8.550
20289ERGO    R531971  15.659  16.583   8.430
20289ERGO    C131972  15.659  16.583   8.070
20289ERGO    C231973  15.640  16.627   7.650
20290ERGO   ROH31974  19.632  10.479   9.240
20290ERGO    R131975  19.650  10.463   9.000
20290ERGO    R231976  19.871  10.448   8.820
20290ERGO    R331977  19.634  10.395   8.640
20290ERGO    R431978  19.869  10.387   8.550
20290ERGO    R531979  19.677  10.453   8.430
20290ERGO    C131980  19.683  10.448   8.070
20290ERGO    C231981  19.671  10.390   7.650
20291ERGO   ROH31982  13.204  18.082   9.240
20291ERGO    R131983  13.251  18.120   9.000
20291ERGO    R231984  13.075  18.303   8.820
20291ERGO    R331985  13.296  18.122   8.640
20291ERGO    R431986  13.046  18.310   8.550
20291ERGO    R531987  13.227  18.151   8.430
20291ERGO    C131988  13.238  18.120   8.070
20291ERGO    C231989  13.208  18.130   7.650
20292ERGO   ROH31990  16.481   6.593   9.240
20292ERGO    R131991  16.453   6.544   9.000
20292ERGO    R231992  16.742   6.607   8.820
20292ERGO    R331993  16.482   6.589   8.640
20292ERGO    R431994  16.709   6.610   8.550
20292ERGO    R531995  16.497   6.588   8.430
20292ERGO    C131996  16.430   6.557   8.070
20292ERGO    C231997  16.434   6.632   7.650
20293ERGO   ROH31998  15.621   5.867   9.240
20293ERGO    R131999  15.692   5.864   9.000
20293ERGO    R232000  15.936   5.779   8.820
20293ERGO    R332001  15.613   5.845   8.640
20293ERGO    R432002  15.853   5.747   8.550
20293ERGO    R532003  15.637   5.819   8.430
20293ERGO    C132004  15.637   5.826   8.070
20293ERGO    C232005  15.630   5.781   7.650
20294ERGO   ROH32006  16.485   8.125   9.240
20294ERGO    R132007  16.432   8.123   9.000
20294ERGO    R232008  16.734   8.193   8.820
20294ERGO    R332009  16.439   8.167   8.640
20294ERGO    R432010  16.734   8.164   8.550
20294ERGO    R532011  16.447   8.169   8.430
20294ERGO    C132012  16.427   8.119   8.070
20294ERGO    C232013  16.486   8.117   7.650
20295ERGO   ROH32014  18.010  12.007   9.240
20295ERGO    R132015  18.064  12.002   9.000
20295ERGO    R232016  18.307  11.882   8.820
20295ERGO    R332017  18.099  11.961   8.640
20295ERGO    R432018  18.307  11.867   8.550
20295ERGO    R532019  18.079  11.955   8.430
20295ERGO    C132020  18.062  11.987   8.070
20295ERGO    C232021  18.040  11.930   7.650
20296ERGO   ROH32022  17.225   9.627   9.240
20296ERGO    R132023  17.209   9.625   9.000
20296ERGO    R232024  17.349   9.426   8.820
20296ERGO    R332025  17.267   9.681   8.640
20296ERGO    R432026  17.327   9.419   8.550
20296ERGO    R532027  17.277   9.632   8.430
20296ERGO    C132028  17.298   9.647   8.070
20296ERGO    C232029  17.254   9.652   7.650
20297ERGO   ROH32030  14.822   9.686   9.240
20297ERGO    R132031  14.893   9.668   9.000
20297ERGO    R232032  14.661   9.839   8.820
20297ERGO    R332033  14.839   9.648   8.640
20297ERGO    R432034  14.634   9.775   8.550
20297ERGO    R532035  14.885   9.658   8.430
20297ERGO    C132036  14.883   9.632   8.070
20297ERGO    C232037  14.848   9.674   7.650
20298ERGO   ROH32038  14.846   1.222   9.240
20298ERGO    R132039  14.802   1.189   9.000
20298ERGO    R232040  15.075   1.208   8.820
20298ERGO    R332041  14.866   1.183   8.640
20298ERGO    R432042  15.075   1.179   8.550
20298ERGO    R532043  14.887   1.244   8.430
20298ERGO    C132044  14.889   1.207   8.070
20298ERGO    C232045  14.825   1.166   7.650
20299ERGO   ROH32046  19.680  15.813   9.240
20299ERGO    R132047  19.628  15.833   9.000
20299ERGO    R232048  19.471  15.707   8.820
20299ERGO    R332049  19.690  15.799   8.640
20299ERGO    R432050  19.416  15.715   8.550
20299ERGO    R532051  19.664  15.802   8.430
20299ERGO    C132052  19.614  15.830   8.070
20299ERGO    C232053  19.608  15.805   7.650
20300ERGO   ROH32054  15.669  10.443   9.240
20300ERGO    R132055  15.650  10.432   9.000
20300ERGO    R232056  15.425  10.394   8.820
20300ERGO    R332057  15.608  10.451   8.640
20300ERGO    R432058  15.378  10.387   8.550
20300ERGO    R532059  15.683  10.423   8.430
20300ERGO    C132060  15.646  10.466   8.070
20300ERGO    C232061  15.605  10.418   7.650
20301ERGO   ROH32062  16.471   5.820   9.240
20301ERGO    R132063  16.491   5.809   9.000
20301ERGO    R232064  16.745   5.845   8.820
20301ERGO    R332065  16.433   5.788   8.640
20301ERGO    R432066  16.687   5.864   8.550
20301ERGO    R532067  16.458   5.831   8.430
20301ERGO    C132068  16.424   5.812   8.070
20301ERGO    C232069  16.404   5.801   7.650
20302ERGO   ROH32070  13.234   5.836   9.240
20302ERGO    R132071  13.248   5.820   9.000
20302ERGO    R232072  13.154   5.630   8.820
20302ERGO    R332073  13.242   5.809   8.640
20302ERGO    R432074  13.125   5.547   8.550
20302ERGO    R532075  13.225   5.799   8.430
20302ERGO    C132076  13.267   5.770   8.070
20302ERGO    C232077  13.278   5.796   7.650
20303ERGO   ROH32078  14.887  15.060   9.240
20303ERGO    R132079  14.839  15.014   9.000
20303ERGO    R232080  14.633  14.992   8.820
20303ERGO    R332081  14.892  15.097   8.640
20303ERGO    R432082  14.575  14.966   8.550
20303ERGO    R532083  14.802  15.097   8.430
20303ERGO    C132084  14.812  15.067   8.070
20303ERGO    C232085  14.891  15.019   7.650
20304ERGO   ROH32086  13.248  13.487   9.240
20304ERGO    R132087  13.264  13.508   9.000
20304ERGO    R232088  13.265  13.309   8.820
20304ERGO    R332089  13.221  13.531   8.640
20304ERGO    R432090  13.291  13.235   8.550
20304ERGO    R532091  13.220  13.556   8.430
20304ERGO    C132092  13.265  13.513   8.070
20304ERGO    C232093  13.207  13.472   7.650
20305ERGO   ROH32094  12.464  18.923   9.240
20305ERGO    R132095  12.446  18.898   9.000
20305ERGO    R232096  12.612  19.083   8.820
20305ERGO    R332097  12.495  18.879   8.640
20305ERGO    R432098  12.576  19.114   8.550
20305ERGO    R532099  12.453  18.909   8.430
20305ERGO    C132100  12.412  18.912   8.070
20305ERGO    C232101  12.433  18.935   7.650
20306ERGO   ROH32102  12.450   9.675   9.240
20306ERGO    R132103  12.472   9.693   9.000
20306ERGO    R232104  12.308   9.437   8.820
20306ERGO    R332105  12.493   9.696   8.640
20306ERGO    R432106  12.274   9.523   8.550
20306ERGO    R532107  12.481   9.704   8.430
20306ERGO    C132108  12.406   9.700   8.070
20306ERGO    C232109  12.459   9.696   7.650
20307ERGO   ROH32110  18.857   8.079   9.240
20307ERGO    R132111  18.870   8.163   9.000
20307ERGO    R232112  19.121   8.015   8.820
20307ERGO    R332113  18.830   8.083   8.640
20307ERGO    R432114  19.093   7.997   8.550
20307ERGO    R532115  18.829   8.098   8.430
20307ERGO    C132116  18.800   8.162   8.070
20307ERGO    C232117  18.899   8.132   7.650
20308ERGO   ROH32118  18.842   0.482   9.240
20308ERGO    R132119  18.847   0.422   9.000
20308ERGO    R232120  18.766   0.177   8.820
20308ERGO    R332121  18.809   0.389   8.640
20308ERGO    R432122  18.742   0.257   8.550
20308ERGO    R532123  18.872   0.437   8.430
20308ERGO    C132124  18.885   0.387   8.070
20308ERGO    C232125  18.861   0.398   7.650
20309ERGO   ROH32126  15.690   9.652   9.240
20309ERGO    R132127  15.620   9.645   9.000
20309ERGO    R232128  15.463   9.809   8.820
20309ERGO    R332129  15.618   9.634   8.640
20309ERGO    R432130  15.445   9.847   8.550
20309ERGO    R532131  15.628   9.701   8.430
20309ERGO    C132132  15.619   9.647   8.070
20309ERGO    C232133  15.675   9.691   7.650
20310ERGO   ROH32134  14.009  19.663   9.240
20310ERGO    R132135  14.084  19.641   9.000
20310ERGO    R232136  14.181  19.434   8.820
20310ERGO    R332137  14.028  19.677   8.640
20310ERGO    R432138  14.171  19.388   8.550
20310ERGO    R532139  14.067  19.643   8.430
20310ERGO    C132140  14.009  19.694   8.070
20310ERGO    C232141  14.073  19.671   7.650
20311ERGO   ROH32142  17.228   5.780   9.240
20311ERGO    R132143  17.291   5.865   9.000
20311ERGO    R232144  17.450   5.859   8.820
20311ERGO    R332145  17.251   5.830   8.640
20311ERGO    R432146  17.479   5.838   8.550
20311ERGO    R532147  17.285   5.780   8.430
20311ERGO    C132148  17.211   5.782   8.070
20311ERGO    C232149  17.216   5.865   7.650
20312ERGO   ROH32150  12.433  13.476   9.240
20312ERGO    R132151  12.402  13.491   9.000
20312ERGO    R232152  12.373  13.233   8.820
20312ERGO    R332153  12.473  13.477   8.640
20312ERGO    R432154  12.427  13.268   8.550
20312ERGO    R532155  12.424  13.470   8.430
20312ERGO    C132156  12.445  13.534   8.070
20312ERGO    C232157  12.439  13.561   7.650
20313ERGO   ROH32158  15.633   0.391   9.240
20313ERGO    R132159  15.635   0.387   9.000
20313ERGO    R232160  15.544   0.174   8.820
20313ERGO    R332161  15.684   0.411   8.640
20313ERGO    R432162  15.613   0.237   8.550
20313ERGO    R532163  15.623   0.424   8.430
20313ERGO    C132164  15.659   0.469   8.070
20313ERGO    C232165  15.672   0.409   7.650
20314ERGO   ROH32166  16.426   9.710   9.240
20314ERGO    R132167  16.401   9.679   9.000
20314ERGO    R232168  16.462   9.464   8.820
20314ERGO    R332169  16.499   9.701   8.640
20314ERGO    R432170  16.443   9.399   8.550
20314ERGO    R532171  16.466   9.692   8.430
20314ERGO    C132172  16.464   9.653   8.070
20314ERGO    C232173  16.438   9.677   7.650
20315ERGO   ROH32174  14.071  17.338   9.240
20315ERGO    R132175  14.049  17.351   9.000
20315ERGO    R232176  14.146  17.605   8.820
20315ERGO    R332177  14.002  17.358   8.640
20315ERGO    R432178  14.163  17.543   8.550
20315ERGO    R532179  14.050  17.406   8.430
20315ERGO    C132180  14.053  17.313   8.070
20315ERGO    C232181  14.098  17.406   7.650
20316ERGO   ROH32182  16.443  12.727   9.240
20316ERGO    R132183  16.406  12.783   9.000
20316ERGO    R232184  16.653  12.712   8.820
20316ERGO    R332185  16.434  12.742   8.640
20316ERGO    R432186  16.703  12.704   8.550
20316ERGO    R532187  16.409  12.699   8.430
20316ERGO    C132188  16.430  12.706   8.070
20316ERGO    C232189  16.464  12.727   7.650
20317ERGO   ROH32190  13.291   6.593   9.240
20317ERGO    R132191  13.293   6.597   9.000
20317ERGO    R232192  13.444   6.663   8.820
20317ERGO    R332193  13.249   6.605   8.640
20317ERGO    R432194  13.492   6.666   8.550
20317ERGO    R532195  13.284   6.621   8.430
20317ERGO    C132196  13.252   6.589   8.070
20317ERGO    C232197  13.283   6.583   7.650
20318ERGO   ROH32198  19.692   0.435   9.240
20318ERGO    R132199  19.683   0.441   9.000
20318ERGO    R232200  19.498   0.209   8.820
20318ERGO    R332201  19.631   0.456   8.640
20318ERGO    R432202  19.498   0.222   8.550
20318ERGO    R532203  19.683   0.462   8.430
20318ERGO    C132204  19.663   0.389   8.070
20318ERGO    C232205  19.694   0.423   7.650
20319ERGO   ROH32206  19.691  17.365   9.240
20319ERGO    R132207  19.662  17.345   9.000
20319ERGO    R232208  19.568  17.112   8.820
20319ERGO    R332209  19.619  17.312   8.640
20319ERGO    R432210  19.491  17.177   8.550
20319ERGO    R532211  19.699  17.348   8.430
20319ERGO    C132212  19.672  17.317   8.070
20319ERGO    C232213  19.628  17.324   7.650
20320ERGO   ROH32214  13.259  19.686   9.240
20320ERGO    R132215  13.258  19.659   9.000
20320ERGO    R232216  13.447  19.549   8.820
20320ERGO    R332217  13.275  19.706   8.640
20320ERGO    R432218  13.513  19.628   8.550
20320ERGO    R532219  13.270  19.675   8.430
20320ERGO    C132220  13.232  19.638   8.070
20320ERGO    C232221  13.257  19.642   7.650
20321ERGO   ROH32222  19.677  12.756   9.240
20321ERGO    R132223  19.629  12.791   9.000
20321ERGO    R232224  19.386  12.623   8.820
20321ERGO    R332225  19.612  12.711   8.640
20321ERGO    R432226  19.448  12.648   8.550
20321ERGO    R532227  19.601  12.767   8.430
20321ERGO    C132228  19.649  12.720   8.070
20321ERGO    C232229  19.693  12.760   7.650
20322ERGO   ROH32230  14.838  13.524   9.240
20322ERGO    R132231  14.848  13.540   9.000
20322ERGO    R232232  14.994  13.779   8.820
20322ERGO    R332233  14.841  13.471   8.640
20322ERGO    R432234  14.975  13.701   8.550
20322ERGO    R532235  14.898  13.469   8.430
20322ERGO    C132236  14.881  13.559   8.070
20322ERGO    C232237  14.862  13.483   7.650
20323ERGO   ROH32238  12.486  18.121   9.240
20323ERGO    R132239  12.405  18.155   9.000
20323ERGO    R232240  12.621  17.953   8.820
20323ERGO    R332241  12.453  18.109   8.640
20323ERGO    R432242  12.641  17.946   8.550
20323ERGO    R532243  12.467  18.163   8.430
20323ERGO    C132244  12.447  18.095   8.070
20323ERGO    C232245  12.485  18.104   7.650
20324ERGO   ROH32246  19.650   7.392   9.240
20324ERGO    R132247  19.682   7.386   9.000
20324ERGO    R232248  19.479   7.549   8.820
20324ERGO    R332249  19.639   7.343   8.640
20324ERGO    R432250  19.524   7.546   8.550
20324ERGO    R532251  19.697   7.331   8.430
20324ERGO    C132252  19.697   7.372   8.070
20324ERGO    C232253  19.609   7.361   7.650
20325ERGO   ROH32254  13.216   9.708   9.240
20325ERGO    R132255  13.284   9.666   9.000
20325ERGO    R232256  13.247   9.908   8.820
20325ERGO    R332257  13.284   9.681   8.640
20325ERGO    R432258  13.227   9.947   8.550
20325ERGO    R532259  13.251   9.703   8.430
20325ERGO    C132260  13.283   9.625   8.070
20325ERGO    C232261  13.263   9.696   7.650
20326ERGO   ROH32262  16.442   1.976   9.240
20326ERGO    R132263  16.440   2.022   9.000
20326ERGO    R232264  16.457   1.734   8.820
20326ERGO    R332265  16.484   1.985   8.640
20326ERGO    R432266  16.466   1.738   8.550
20326ERGO    R532267  16.485   1.958   8.430
20326ERGO    C132268  16.455   1.949   8.070
20326ERGO    C232269  16.400   2.010   7.650
20327ERGO   ROH32270  13.287   5.085   9.240
20327ERGO    R132271  13.201   5.027   9.000
20327ERGO    R232272  13.208   5.330   8.820
20327ERGO    R332273  13.299   5.028   8.640
20327ERGO    R432274  13.185   5.274   8.550
20327ERGO    R532275  13.211   5.058   8.430
20327ERGO    C132276  13.252   5.026   8.070
20327ERGO    C232277  13.219   5.036   7.650
20328ERGO   ROH32278  17.300  15.775   9.240
20328ERGO    R132279  17.239  15.841   9.000
20328ERGO    R232280  17.068  15.588   8.820
20328ERGO    R332281  17.212  15.790   8.640
20328ERGO    R432282  17.031  15.655   8.550
20328ERGO    R532283  17.201  15.857   8.430
20328ERGO    C132284  17.222  15.821   8.070
20328ERGO    C232285  17.219  15.844   7.650
20329ERGO   ROH32286  12.454   2.780   9.240
20329ERGO    R132287  12.493   2.765   9.000
20329ERGO    R232288  12.328   2.939   8.820
20329ERGO    R332289  12.432   2.769   8.640
20329ERGO    R432290  12.365   2.955   8.550
20329ERGO    R532291  12.477   2.717   8.430
20329ERGO    C132292  12.484   2.764   8.070
20329ERGO    C232293  12.428   2.785   7.650
20330ERGO   ROH32294  18.873   4.238   9.240
20330ERGO    R132295  18.892   4.325   9.000
20330ERGO    R232296  19.018   4.097   8.820
20330ERGO    R332297  18.881   4.244   8.640
20330ERGO    R432298  19.027   4.127   8.550
20330ERGO    R532299  18.855   4.326   8.430
20330ERGO    C132300  18.803   4.273   8.070
20330ERGO    C232301  18.831   4.266   7.650
20331ERGO   ROH32302  14.836  11.248   9.240
20331ERGO    R132303  14.807  11.189   9.000
20331ERGO    R232304  14.588  11.246   8.820
20331ERGO    R332305  14.827  11.173   8.640
20331ERGO    R432306  14.577  11.271   8.550
20331ERGO    R532307  14.849  11.163   8.430
20331ERGO    C132308  14.859  11.204   8.070
20331ERGO    C232309  14.837  11.243   7.650
20332ERGO   ROH32310  12.456   1.231   9.240
20332ERGO    R132311  12.469   1.249   9.000
20332ERGO    R232312  12.570   0.963   8.820
20332ERGO    R332313  12.496   1.229   8.640
20332ERGO    R432314  12.569   0.975   8.550
20332ERGO    R532315  12.400   1.227   8.430
20332ERGO    C132316  12.415   1.161   8.070
20332ERGO    C232317  12.401   1.221   7.650
20333ERGO   ROH32318  16.407   1.186   9.240
20333ERGO    R132319  16.401   1.219   9.000
20333ERGO    R232320  16.197   1.279   8.820
20333ERGO    R332321  16.430   1.176   8.640
20333ERGO    R432322  16.190   1.282   8.550
20333ERGO    R532323  16.473   1.204   8.430
20333ERGO    C132324  16.496   1.232   8.070
20333ERGO    C232325  16.425   1.159   7.650
20334ERGO   ROH32326  12.442   6.631   9.240
20334ERGO    R132327  12.429   6.618   9.000
20334ERGO    R232328  12.186   6.455   8.820
20334ERGO    R332329  12.421   6.602   8.640
20334ERGO    R432330  12.191   6.489   8.550
20334ERGO    R532331  12.494   6.561   8.430
20334ERGO    C132332  12.456   6.561   8.070
20334ERGO    C232333  12.403   6.556   7.650
20335ERGO   ROH32334  18.892   6.612   9.240
20335ERGO    R132335  18.804   6.624   9.000
20335ERGO    R232336  19.037   6.697   8.820
20335ERGO    R332337  18.865   6.624   8.640
20335ERGO    R432338  19.093   6.681   8.550
20335ERGO    R532339  18.839   6.550   8.430
20335ERGO    C132340  18.899   6.550   8.070
20335ERGO    C232341  18.880   6.568   7.650
20336ERGO   ROH32342  18.857  15.782   9.240
20336ERGO    R132343  18.803  15.839   9.000
20336ERGO    R232344  19.020  15.967   8.820
20336ERGO    R332345  18.843  15.840   8.640
20336ERGO    R432346  19.032  16.012   8.550
20336ERGO    R532347  18.864  15.780   8.430
20336ERGO    C132348  18.880  15.855   8.070
20336ERGO    C232349  18.815  15.849   7.650
20337ERGO   ROH32350  19.627  14.321   9.240
20337ERGO    R132351  19.623  14.328   9.000
20337ERGO    R232352  19.821  14.520   8.820
20337ERGO    R332353  19.662  14.291   8.640
20337ERGO    R432354  19.836  14.445   8.550
20337ERGO    R532355  19.640  14.301   8.430
20337ERGO    C132356  19.668  14.266   8.070
20337ERGO    C232357  19.609  14.243   7.650
20338ERGO   ROH32358  15.611   3.534   9.240
20338ERGO    R132359  15.663   3.513   9.000
20338ERGO    R232360  15.490   3.335   8.820
20338ERGO    R332361  15.687   3.483   8.640
20338ERGO    R432362  15.448   3.318   8.550
20338ERGO    R532363  15.642   3.491   8.430
20338ERGO    C132364  15.630   3.502   8.070
20338ERGO    C232365  15.666   3.561   7.650
20339ERGO   ROH32366  13.215   2.746   9.240
20339ERGO    R132367  13.255   2.771   9.000
20339ERGO    R232368  13.154   2.539   8.820
20339ERGO    R332369  13.246   2.767   8.640
20339ERGO    R432370  13.154   2.478   8.550
20339ERGO    R532371  13.280   2.773   8.430
20339ERGO    C132372  13.288   2.716   8.070
20339ERGO    C232373  13.223   2.747   7.650
20340ERGO   ROH32374  18.085   4.318   9.240
20340ERGO    R132375  18.029   4.251   9.000
20340ERGO    R232376  17.891   4.155   8.820
20340ERGO    R332377  18.014   4.262   8.640
20340ERGO    R432378  17.819   4.159   8.550
20340ERGO    R532379  18.023   4.252   8.430
20340ERGO    C132380  18.089   4.302   8.070
20340ERGO    C232381  18.068   4.323   7.650
20341ERGO   ROH32382  13.284  18.871   9.240
20341ERGO    R132383  13.249  18.946   9.000
20341ERGO    R232384  13.397  18.665   8.820
20341ERGO    R332385  13.255  18.933   8.640
20341ERGO    R432386  13.361  18.647   8.550
20341ERGO    R532387  13.203  18.864   8.430
20341ERGO    C132388  13.244  18.905   8.070
20341ERGO    C232389  13.241  18.883   7.650
20342ERGO   ROH32390  15.691  14.235   9.240
20342ERGO    R132391  15.634  14.288   9.000
20342ERGO    R232392  15.923  14.393   8.820
20342ERGO    R332393  15.615  14.317   8.640
20342ERGO    R432394  15.846  14.333   8.550
20342ERGO    R532395  15.691  14.247   8.430
20342ERGO    C132396  15.600  14.271   8.070
20342ERGO    C232397  15.652  14.292   7.650
20343ERGO   ROH32398  19.603  13.550   9.240
20343ERGO    R132399  19.622  13.496   9.000
20343ERGO    R232400  19.422  13.504   8.820
20343ERGO    R332401  19.632  13.557   8.640
20343ERGO    R432402  19.406  13.474   8.550
20343ERGO    R532403  19.620  13.544   8.430
20343ERGO    C132404  19.613  13.529   8.070
20343ERGO    C232405  19.669  13.474   7.650
20344ERGO   ROH32406  14.899   2.718   9.240
20344ERGO    R132407  14.847   2.746   9.000
20344ERGO    R232408  14.560   2.734   8.820
20344ERGO    R332409  14.833   2.757   8.640
20344ERGO    R432410  14.614   2.739   8.550
20344ERGO    R532411  14.885   2.770   8.430
20344ERGO    C132412  14.864   2.741   8.070
20344ERGO    C232413  14.896   2.705   7.650
20345ERGO   ROH32414  16.468   8.907   9.240
20345ERGO    R132415  16.492   8.889   9.000
20345ERGO    R232416  16.695   9.011   8.820
20345ERGO    R332417  16.446   8.918   8.640
20345ERGO    R432418  16.672   8.993   8.550
20345ERGO    R532419  16.483   8.856   8.430
20345ERGO    C132420  16.473   8.931   8.070
20345ERGO    C232421  16.458   8.867   7.650
20346ERGO   ROH32422  18.871  12.698   9.240
20346ERGO    R132423  18.895  12.735   9.000
20346ERGO    R232424  19.084  12.776   8.820
20346ERGO    R332425  18.835  12.727   8.640
20346ERGO    R432426  19.119  12.846   8.550
20346ERGO    R532427  18.810  12.720   8.430
20346ERGO    C132428  18.877  12.747   8.070
20346ERGO    C232429  18.863  12.738   7.650
20347ERGO   ROH32430  19.694   6.583   9.240
20347ERGO    R132431  19.632   6.626   9.000
20347ERGO    R232432  19.357   6.639   8.820
20347ERGO    R332433  19.612   6.544   8.640
20347ERGO    R432434  19.437   6.623   8.550
20347ERGO    R532435  19.686   6.586   8.430
20347ERGO    C132436  19.641   6.565   8.070
20347ERGO    C232437  19.663   6.548   7.650
20348ERGO   ROH32438  15.608  11.971   9.240
20348ERGO    R132439  15.615  12.013   9.000
20348ERGO    R232440  15.875  12.167   8.820
20348ERGO    R332441  15.647  11.955   8.640
20348ERGO    R432442  15.889  12.090   8.550
20348ERGO    R532443  15.683  11.950   8.430
20348ERGO    C132444  15.623  11.975   8.070
20348ERGO    C232445  15.661  12.008   7.650
20349ERGO   ROH32446  18.085   3.504   9.240
20349ERGO    R132447  18.040   3.463   9.000
20349ERGO    R232448  17.987   3.720   8.820
20349ERGO    R332449  18.005   3.472   8.640
20349ERGO    R432450  17.996   3.746   8.550
20349ERGO    R532451  18.064   3.550   8.430
20349ERGO    C132452  18.025   3.466   8.070
20349ERGO    C232453  18.024   3.487   7.650
20350ERGO   ROH32454  18.059   5.830   9.240
20350ERGO    R132455  18.015   5.818   9.000
20350ERGO    R232456  17.791   5.828   8.820
20350ERGO    R332457  18.005   5.817   8.640
20350ERGO    R432458  17.765   5.842   8.550
20350ERGO    R532459  18.034   5.820   8.430
20350ERGO    C132460  18.023   5.800   8.070
20350ERGO    C232461  18.003   5.857   7.650
20351ERGO   ROH32462  14.064  15.826   9.240
20351ERGO    R132463  14.085  15.800   9.000
20351ERGO    R232464  14.153  16.018   8.820
20351ERGO    R332465  14.072  15.787   8.640
20351ERGO    R432466  14.111  16.016   8.550
20351ERGO    R532467  14.045  15.787   8.430
20351ERGO    C132468  14.086  15.818   8.070
20351ERGO    C232469  14.022  15.810   7.650
20352ERGO   ROH32470  15.611  15.052   9.240
20352ERGO    R132471  15.680  15.042   9.000
20352ERGO    R232472  15.727  14.846   8.820
20352ERGO    R332473  15.654  15.026   8.640
20352ERGO    R432474  15.668  14.850   8.550
20352ERGO    R532475  15.608  15.001   8.430
20352ERGO    C132476  15.644  15.004   8.070
20352ERGO    C232477  15.647  15.061   7.650
20353ERGO   ROH32478  15.634  13.538   9.240
20353ERGO    R132479  15.619  13.475   9.000
20353ERGO    R232480  15.754  13.728   8.820
20353ERGO    R332481  15.603  13.507   8.640
20353ERGO    R432482  15.703  13.776   8.550
20353ERGO    R532483  15.671  13.540   8.430
20353ERGO    C132484  15.699  13.516   8.070
20353ERGO    C232485  15.642  13.511   7.650
20354ERGO   ROH32486  14.023  13.494   9.240
20354ERGO    R132487  14.097  13.546   9.000
20354ERGO    R232488  13.834  13.710   8.820
20354ERGO    R332489  14.069  13.552   8.640
20354ERGO    R432490  13.853  13.650   8.550
20354ERGO    R532491  14.042  13.513   8.430
20354ERGO    C132492  14.039  13.541   8.070
20354ERGO    C232493  14.073  13.463   7.650
20355ERGO   ROH32494  14.049  11.250   9.240
20355ERGO    R132495  14.045  11.196   9.000
20355ERGO    R232496  13.819  11.070   8.820
20355ERGO    R332497  14.040  11.226   8.640
20355ERGO    R432498  13.799  11.102   8.550
20355ERGO    R532499  14.002  11.190   8.430
20355ERGO    C132500  14.008  11.160   8.070
20355ERGO    C232501  14.093  11.225   7.650
20356ERGO   ROH32502  13.274   2.009   9.240
20356ERGO    R132503  13.262   2.022   9.000
20356ERGO    R232504  13.435   1.810   8.820
20356ERGO    R332505  13.237   1.980   8.640
20356ERGO    R432506  13.390   1.757   8.550
20356ERGO    R532507  13.218   2.013   8.430
20356ERGO    C132508  13.247   1.970   8.070
20356ERGO    C232509  13.275   1.941   7.650
20357ERGO   ROH32510  15.603   7.397   9.240
20357ERGO    R132511  15.671   7.407   9.000
20357ERGO    R232512  15.676   7.616   8.820
20357ERGO    R332513  15.674   7.341   8.640
20357ERGO    R432514  15.611   7.649   8.550
20357ERGO    R532515  15.680   7.353   8.430
20357ERGO    C132516  15.660   7.396   8.070
20357ERGO    C232517  15.626   7.404   7.650
20358ERGO   ROH32518  18.051  18.122   9.240
20358ERGO    R132519  18.097  18.128   9.000
20358ERGO    R232520  18.320  18.051   8.820
20358ERGO    R332521  18.013  18.123   8.640
20358ERGO    R432522  18.289  18.079   8.550
20358ERGO    R532523  18.089  18.153   8.430
20358ERGO    C132524  18.093  18.129   8.070
20358ERGO    C232525  18.060  18.167   7.650
20359ERGO   ROH32526  15.657  18.152   9.240
20359ERGO    R132527  15.633  18.163   9.000
20359ERGO    R232528  15.431  18.179   8.820
20359ERGO    R332529  15.628  18.168   8.640
20359ERGO    R432530  15.385  18.164   8.550
20359ERGO    R532531  15.632  18.141   8.430
20359ERGO    C132532  15.631  18.168   8.070
20359ERGO    C232533  15.660  18.121   7.650
20360ERGO   ROH32534  12.419  11.168   9.240
20360ERGO    R132535  12.499  11.220   9.000
20360ERGO    R232536  12.362  10.986   8.820
20360ERGO    R332537  12.484  11.186   8.640
20360ERGO    R432538  12.301  11.016   8.550
20360ERGO    R532539  12.424  11.181   8.430
20360ERGO    C132540  12.413  11.216   8.070
20360ERGO    C232541  12.408  11.240   7.650
20361ERGO   ROH32542  12.494   5.829   9.240
20361ERGO    R132543  12.480   5.826   9.000
20361ERGO    R232544  12.437   6.035   8.820
20361ERGO    R332545  12.497   5.865   8.640
20361ERGO    R432546  12.476   6.051   8.550
20361ERGO    R532547  12.457   5.773   8.430
20361ERGO    C132548  12.483   5.824   8.070
20361ERGO    C232549  12.461   5.817   7.650
20362ERGO   ROH32550  16.483   4.256   9.240
20362ERGO    R132551  16.416   4.322   9.000
20362ERGO    R232552  16.281   4.452   8.820
20362ERGO    R332553  16.430   4.297   8.640
20362ERGO    R432554  16.313   4.501   8.550
20362ERGO    R532555  16.499   4.250   8.430
20362ERGO    C132556  16.460   4.262   8.070
20362ERGO    C232557  16.430   4.251   7.650
20363ERGO   ROH32558  15.674  17.354   9.240
20363ERGO    R132559  15.634  17.345   9.000
20363ERGO    R232560  15.813  17.560   8.820
20363ERGO    R332561  15.683  17.346   8.640
20363ERGO    R432562  15.795  17.583   8.550
20363ERGO    R532563  15.664  17.325   8.430
20363ERGO    C132564  15.671  17.311   8.070
20363ERGO    C232565  15.683  17.319   7.650
20364ERGO   ROH32566  17.239   5.065   9.240
20364ERGO    R132567  17.230   5.078   9.000
20364ERGO    R232568  17.308   4.791   8.820
20364ERGO    R332569  17.259   5.002   8.640
20364ERGO    R432570  17.244   4.851   8.550
20364ERGO    R532571  17.213   5.049   8.430
20364ERGO    C132572  17.280   5.048   8.070
20364ERGO    C232573  17.276   5.096   7.650
20365ERGO   ROH32574  18.076  19.618   9.240
20365ERGO    R132575  18.007  19.664   9.000
20365ERGO    R232576  18.291  19.706   8.820
20365ERGO    R332577  18.098  19.699   8.640
20365ERGO    R432578  18.298  19.639   8.550
20365ERGO    R532579  18.071  19.663   8.430
20365ERGO    C132580  18.078  19.697   8.070
20365ERGO    C232581  18.057  19.667   7.650
20366ERGO   ROH32582  14.073   1.998   9.240
20366ERGO    R132583  14.077   1.982   9.000
20366ERGO    R232584  14.127   2.148   8.820
20366ERGO    R332585  14.033   1.930   8.640
20366ERGO    R432586  14.143   2.211   8.550
20366ERGO    R532587  14.027   2.017   8.430
20366ERGO    C132588  14.071   1.993   8.070
20366ERGO    C232589  14.001   1.938   7.650
20367ERGO   ROH32590  12.465   0.471   9.240
20367ERGO    R132591  12.405   0.420   9.000
20367ERGO    R232592  12.248   0.424   8.820
20367ERGO    R332593  12.414   0.467   8.640
20367ERGO    R432594  12.248   0.491   8.550
20367ERGO    R532595  12.438   0.459   8.430
20367ERGO    C132596  12.481   0.391   8.070
20367ERGO    C232597  12.469   0.409   7.650
20368ERGO   ROH32598  14.823  17.339   9.240
20368ERGO    R132599  14.895  17.404   9.000
20368ERGO    R232600  14.860  17.565   8.820
20368ERGO    R332601  14.852  17.377   8.640
20368ERGO    R432602  14.889  17.624   8.550
20368ERGO    R532603  14.899  17.309   8.430
20368ERGO    C132604  14.843  17.368   8.070
20368ERGO    C232605  14.866  17.330   7.650
20369ERGO   ROH32606  14.895   0.465   9.240
20369ERGO    R132607  14.857   0.401   9.000
20369ERGO    R232608  14.737   0.635   8.820
20369ERGO    R332609  14.860   0.484   8.640
20369ERGO    R432610  14.711   0.632   8.550
20369ERGO    R532611  14.893   0.388   8.430
20369ERGO    C132612  14.859   0.435   8.070
20369ERGO    C232613  14.812   0.435   7.650
20370ERGO   ROH32614  16.429  18.102   9.240
20370ERGO    R132615  16.481  18.110   9.000
20370ERGO    R232616  16.178  18.210   8.820
20370ERGO    R332617  16.452  18.141   8.640
20370ERGO    R432618  16.173  18.207   8.550
20370ERGO    R532619  16.402  18.095   8.430
20370ERGO    C132620  16.402  18.084   8.070
20370ERGO    C232621  16.447  18.083   7.650
20371ERGO   ROH32622  18.070   6.638   9.240
20371ERGO    R132623  18.022   6.558   9.000
20371ERGO    R232624  18.328   6.524   8.820
20371ERGO    R332625  18.006   6.541   8.640
20371ERGO    R432626  18.329   6.530   8.550
20371ERGO    R532627  18.062   6.602   8.430
20371ERGO    C132628  18.071   6.572   8.070
20371ERGO    C232629  18.034   6.553   7.650
20372ERGO   ROH32630  13.264   4.283   9.240
20372ERGO    R132631  13.268   4.315   9.000
20372ERGO    R232632  13.080   4.485   8.820
20372ERGO    R332633  13.200   4.272   8.640
20372ERGO    R432634  13.142   4.472   8.550
20372ERGO    R532635  13.268   4.308   8.430
20372ERGO    C132636  13.253   4.251   8.070
20372ERGO    C232637  13.288   4.273   7.650
20373ERGO   ROH32638  18.011  16.546   9.240
20373ERGO    R132639  18.063  16.615   9.000
20373ERGO    R232640  18.166  16.752   8.820
20373ERGO    R332641  18.050  16.569   8.640
20373ERGO    R432642  18.237  16.786   8.550
20373ERGO    R532643  18.072  16.626   8.430
20373ERGO    C132644  18.085  16.589   8.070
20373ERGO    C232645  18.060  16.596   7.650
20374ERGO   ROH32646  16.425  11.951   9.240
20374ERGO    R132647  16.431  12.003   9.000
20374ERGO    R232648  16.168  11.972   8.820
20374ERGO    R332649  16.445  11.968   8.640
20374ERGO    R432650  16.153  11.970   8.550
20374ERGO    R532651  16.452  11.933   8.430
20374ERGO    C132652  16.428  11.934   8.070
20374ERGO    C232653  16.482  11.982   7.650
20375ERGO   ROH32654  17.208  18.939   9.240
20375ERGO    R132655  17.289  18.878   9.000
20375ERGO    R232656  17.157  19.121   8.820
20375ERGO    R332657  17.286  18.872   8.640
20375ERGO    R432658  17.175  19.155   8.550
20375ERGO    R532659  17.256  18.892   8.430
20375ERGO    C132660  17.266  18.912   8.070
20375ERGO    C232661  17.241  18.896   7.650
20376ERGO   ROH32662  18.027   1.931   9.240
20376ERGO    R132663  18.022   1.928   9.000
20376ERGO    R232664  17.770   2.015   8.820
20376ERGO    R332665  18.005   1.994   8.640
20376ERGO    R432666  17.816   2.019   8.550
20376ERGO    R532667  18.053   2.013   8.430
20376ERGO    C132668  18.023   1.975   8.070
20376ERGO    C232669  18.024   1.975   7.650
20377PSPI    C132670  14.825   8.760   5.550
20377PSPI    C232671  14.881   8.816   5.250
20377PSPI    C332672  14.810   8.920   5.250
20377PSPI   PO432673  14.900   8.930   5.850
20377PSPI   GL132674  14.822   8.884   6.150
20377PSPI   GL232675  14.817   8.746   6.150
20377PSPI   C1A32676  14.893   8.859   6.450
20377PSPI   C2A32677  14.893   8.883   6.750
20377PSPI   C3A32678  14.892   8.931   7.050
20377PSPI   C4A32679  14.838   8.910   7.350
20377PSPI   C1B32680  14.803   8.686   6.450
20377PSPI   C2B32681  14.812   8.604   6.750
20377PSPI   C3B32682  14.828   8.627   7.050
20377PSPI   C4B32683  14.819   8.634   7.350
20378PSPI    C132684  17.154   9.770   5.550
20378PSPI    C232685  17.197   9.771   5.250
20378PSPI    C332686  17.268   9.661   5.250
20378PSPI   PO432687  17.286   9.665   5.850
20378PSPI   GL132688  17.259   9.676   6.150
20378PSPI   GL232689  17.211   9.789   6.150
20378PSPI   C1A32690  17.223   9.705   6.450
20378PSPI   C2A32691  17.255   9.681   6.750
20378PSPI   C3A32692  17.230   9.656   7.050
20378PSPI   C4A32693  17.240   9.708   7.350
20378PSPI   C1B32694  17.083   9.838   6.450
20378PSPI   C2B32695  17.113   9.840   6.750
20378PSPI   C3B32696  17.064   9.855   7.050
20378PSPI   C4B32697  17.072   9.889   7.350
20379PSPI    C132698  14.015   5.689   5.550
20379PSPI    C232699  13.990   5.734   5.250
20379PSPI    C332700  14.024   5.804   5.250
20379PSPI   PO432701  14.017   5.790   5.850
20379PSPI   GL132702  14.022   5.826   6.150
20379PSPI   GL232703  13.958   5.743   6.150
20379PSPI   C1A32704  14.097   5.858   6.450
20379PSPI   C2A32705  14.031   5.863   6.750
20379PSPI   C3A32706  14.044   5.855   7.050
20379PSPI   C4A32707  14.091   5.791   7.350
20379PSPI   C1B32708  13.893   5.555   6.450
20379PSPI   C2B32709  13.919   5.594   6.750
20379PSPI   C3B32710  13.958   5.623   7.050
20379PSPI   C4B32711  13.958   5.643   7.350
20380PSPI    C132712  19.757  18.093   5.550
20380PSPI    C232713  19.730  18.046   5.250
20380PSPI    C332714  19.687  18.174   5.250
20380PSPI   PO432715  19.618  18.098   5.850
20380PSPI   GL132716  19.629  18.161   6.150
20380PSPI   GL232717  19.765  18.065   6.150
20380PSPI   C1A32718  19.620  18.138   6.450
20380PSPI   C2A32719  19.650  18.091   6.750
20380PSPI   C3A32720  19.637  18.111   7.050
20380PSPI   C4A32721  19.614  18.150   7.350
20380PSPI   C1B32722  19.901  17.953   6.450
20380PSPI   C2B32723  19.895  17.933   6.750
20380PSPI   C3B32724  19.891  17.970   7.050
20380PSPI   C4B32725  19.898  18.019   7.350
20381PSPI    C132726  18.113  15.000   5.550
20381PSPI    C232727  18.120  14.989   5.250
20381PSPI    C332728  18.033  15.006   5.250
20381PSPI   PO432729  18.090  15.059   5.850
20381PSPI   GL132730  18.050  15.053   6.150
20381PSPI   GL232731  18.109  15.006   6.150
20381PSPI   C1A32732  18.009  15.008   6.450
20381PSPI   C2A32733  18.072  15.019   6.750
20381PSPI   C3A32734  18.031  15.077   7.050
20381PSPI   C4A32735  18.055  15.038   7.350
20381PSPI   C1B32736  18.203  14.830   6.450
20381PSPI   C2B32737  18.194  14.898   6.750
20381PSPI   C3B32738  18.269  14.896   7.050
20381PSPI   C4B32739  18.260  14.917   7.350
20382PSPI    C132740  16.544   5.822   5.550
20382PSPI    C232741  16.552   5.876   5.250
20382PSPI    C332742  16.439   5.795   5.250
20382PSPI   PO432743  16.494   5.829   5.850
20382PSPI   GL132744  16.492   5.865   6.150
20382PSPI   GL232745  16.573   5.841   6.150
20382PSPI   C1A32746  16.473   5.830   6.450
20382PSPI   C2A32747  16.490   5.794   6.750
20382PSPI   C3A32748  16.465   5.802   7.050
20382PSPI   C4A32749  16.498   5.776   7.350
20382PSPI   C1B32750  16.710   5.935   6.450
20382PSPI   C2B32751  16.651   5.861   6.750
20382PSPI   C3B32752  16.693   5.863   7.050
20382PSPI   C4B32753  16.687   5.912   7.350
20383PSPI    C132754  16.561  18.146   5.550
20383PSPI    C232755  16.624  18.116   5.250
20383PSPI    C332756  16.438  18.127   5.250
20383PSPI   PO432757  16.481  18.081   5.850
20383PSPI   GL132758  16.432  18.081   6.150
20383PSPI   GL232759  16.556  18.127   6.150
20383PSPI   C1A32760  16.406  18.107   6.450
20383PSPI   C2A32761  16.422  18.119   6.750
20383PSPI   C3A32762  16.455  18.094   7.050
20383PSPI   C4A32763  16.446  18.094   7.350
20383PSPI   C1B32764  16.680  18.080   6.450
20383PSPI   C2B32765  16.696  18.149   6.750
20383PSPI   C3B32766  16.728  18.106   7.050
20383PSPI   C4B32767  16.690  18.092   7.350
20384POPI    C132768  17.324   3.389   5.550
20384POPI    C232769  17.384   3.410   5.250
20384POPI    C332770  17.299   3.522   5.250
20384POPI   PO432771  17.243   3.496   5.850
20384POPI   GL132772  17.290   3.559   6.150
20384POPI   GL232773  17.325   3.416   6.150
20384POPI   C1A32774  17.268   3.464   6.450
20384POPI   D2A32775  17.266   3.468   6.750
20384POPI   C3A32776  17.293   3.552   7.050
20384POPI   C4A32777  17.250   3.476   7.350
20384POPI   C1B32778  17.387   3.345   6.450
20384POPI   C2B32779  17.443   3.384   6.750
20384POPI   C3B32780  17.385   3.353   7.050
20384POPI   C4B32781  17.407   3.298   7.350
20385POPI    C132782  17.173  19.003   5.550
20385POPI    C232783  17.140  18.969   5.250
20385POPI    C332784  17.226  18.921   5.250
20385POPI   PO432785  17.219  18.915   5.850
20385POPI   GL132786  17.226  18.899   6.150
20385POPI   GL232787  17.211  19.009   6.150
20385POPI   C1A32788  17.298  18.902   6.450
20385POPI   D2A32789  17.248  18.913   6.750
20385POPI   C3A32790  17.229  18.933   7.050
20385POPI   C4A32791  17.264  18.908   7.350
20385POPI   C1B32792  17.120  19.134   6.450
20385POPI   C2B32793  17.151  19.106   6.750
20385POPI   C3B32794  17.057  19.049   7.050
20385POPI   C4B32795  17.149  19.106   7.350
20386POPI    C132796  18.777   0.540   5.550
20386POPI    C232797  18.754   0.535   5.250
20386POPI    C332798  18.890   0.442   5.250
20386POPI   PO432799  18.817   0.471   5.850
20386POPI   GL132800  18.874   0.456   6.150
20386POPI   GL232801  18.818   0.497   6.150
20386POPI   C1A32802  18.883   0.400   6.450
20386POPI   D2A32803  18.880   0.390   6.750
20386POPI   C3A32804  18.894   0.422   7.050
20386POPI   C4A32805  18.884   0.411   7.350
20386POPI   C1B32806  18.688   0.626   6.450
20386POPI   C2B32807  18.691   0.607   6.750
20386POPI   C3B32808  18.776   0.608   7.050
20386POPI   C4B32809  18.720   0.695   7.350
20387POPI    C132810  16.430   3.389   5.550
20387POPI    C232811  16.462   3.412   5.250
20387POPI    C332812  16.494   3.506   5.250
20387POPI   PO432813  16.457   3.483   5.850
20387POPI   GL132814  16.488   3.552   6.150
20387POPI   GL232815  16.529   3.362   6.150
20387POPI   C1A32816  16.450   3.529   6.450
20387POPI   D2A32817  16.446   3.539   6.750
20387POPI   C3A32818  16.430   3.518   7.050
20387POPI   C4A32819  16.429   3.535   7.350
20387POPI   C1B32820  16.532   3.239   6.450
20387POPI   C2B32821  16.532   3.228   6.750
20387POPI   C3B32822  16.509   3.297   7.050
20387POPI   C4B32823  16.524   3.308   7.350
20388POPI    C132824  19.496  13.482   5.550
20388POPI    C232825  19.479  13.518   5.250
20388POPI    C332826  19.603  13.505   5.250
20388POPI   PO432827  19.619  13.499   5.850
20388POPI   GL132828  19.606  13.522   6.150
20388POPI   GL232829  19.481  13.533   6.150
20388POPI   C1A32830  19.636  13.472   6.450
20388POPI   D2A32831  19.667  13.493   6.750
20388POPI   C3A32832  19.684  13.548   7.050
20388POPI   C4A32833  19.609  13.500   7.350
20388POPI   C1B32834  19.407  13.563   6.450
20388POPI   C2B32835  19.374  13.556   6.750
20388POPI   C3B32836  19.424  13.537   7.050
20388POPI   C4B32837  19.368  13.548   7.350
20389POPI    C132838  12.368  17.490   5.550
20389POPI    C232839  12.388  17.492   5.250
20389POPI    C332840  12.407  17.337   5.250
20389POPI   PO432841  12.451  17.331   5.850
20389POPI   GL132842  12.435  17.407   6.150
20389POPI   GL232843  12.390  17.468   6.150
20389POPI   C1A32844  12.496  17.343   6.450
20389POPI   D2A32845  12.409  17.370   6.750
20389POPI   C3A32846  12.481  17.319   7.050
20389POPI   C4A32847  12.443  17.331   7.350
20389POPI   C1B32848  12.387  17.616   6.450
20389POPI   C2B32849  12.381  17.571   6.750
20389POPI   C3B32850  12.333  17.617   7.050
20389POPI   C4B32851  12.380  17.560   7.350
20390POPI    C132852  15.744  11.136   5.550
20390POPI    C232853  15.766  11.145   5.250
20390POPI    C332854  15.659  11.237   5.250
20390POPI   PO432855  15.611  11.219   5.850
20390POPI   GL132856  15.686  11.164   6.150
20390POPI   GL232857  15.717  11.142   6.150
20390POPI   C1A32858  15.690  11.188   6.450
20390POPI   D2A32859  15.609  11.191   6.750
20390POPI   C3A32860  15.672  11.185   7.050
20390POPI   C4A32861  15.646  11.229   7.350
20390POPI   C1B32862  15.774  10.949   6.450
20390POPI   C2B32863  15.790  10.950   6.750
20390POPI   C3B32864  15.752  11.002   7.050
20390POPI   C4B32865  15.748  10.956   7.350
20391POPI    C132866  14.178   7.438   5.550
20391POPI    C232867  14.147   7.463   5.250
20391POPI    C332868  14.068   7.377   5.250
20391POPI   PO432869  14.026   7.346   5.850
20391POPI   GL132870  14.014   7.403   6.150
20391POPI   GL232871  14.137   7.443   6.150
20391POPI   C1A32872  14.077   7.340   6.450
20391POPI   D2A32873  14.049   7.323   6.750
20391POPI   C3A32874  14.022   7.366   7.050
20391POPI   C4A32875  14.073   7.395   7.350
20391POPI   C1B32876  14.291   7.492   6.450
20391POPI   C2B32877  14.265   7.486   6.750
20391POPI   C3B32878  14.237   7.500   7.050
20391POPI   C4B32879  14.224   7.525   7.350
20392POPI    C132880  18.942   4.194   5.550
20392POPI    C232881  18.945   4.219   5.250
20392POPI    C332882  18.881   4.287   5.250
20392POPI   PO432883  18.894   4.328   5.850
20392POPI   GL132884  18.844   4.314   6.150
20392POPI   GL232885  18.918   4.162   6.150
20392POPI   C1A32886  18.889   4.282   6.450
20392POPI   D2A32887  18.889   4.238   6.750
20392POPI   C3A32888  18.839   4.231   7.050
20392POPI   C4A32889  18.826   4.282   7.350
20392POPI   C1B32890  18.968   4.090   6.450
20392POPI   C2B32891  19.012   4.132   6.750
20392POPI   C3B32892  19.037   4.081   7.050
20392POPI   C4B32893  19.012   4.136   7.350
20393POPI    C132894  15.761   2.680   5.550
20393POPI    C232895  15.802   2.724   5.250
20393POPI    C332896  15.644   2.782   5.250
20393POPI   PO432897  15.633   2.779   5.850
20393POPI   GL132898  15.653   2.776   6.150
20393POPI   GL232899  15.723   2.747   6.150
20393POPI   C1A32900  15.630   2.724   6.450
20393POPI   D2A32901  15.644   2.779   6.750
20393POPI   C3A32902  15.649   2.781   7.050
20393POPI   C4A32903  15.625   2.722   7.350
20393POPI   C1B32904  15.944   2.681   6.450
20393POPI   C2B32905  15.943   2.683   6.750
20393POPI   C3B32906  15.921   2.749   7.050
20393POPI   C4B32907  15.848   2.665   7.350
20394POPI    C132908  12.537  17.998   5.550
20394POPI    C232909  12.495  18.021   5.250
20394POPI    C332910  12.457  18.136   5.250
20394POPI   PO432911  12.416  18.160   5.850
20394POPI   GL132912  12.491  18.135   6.150
20394POPI   GL232913  12.458  18.034   6.150
20394POPI   C1A32914  12.468  18.089   6.450
20394POPI   D2A32915  12.403  18.091   6.750
20394POPI   C3A32916  12.493  18.163   7.050
20394POPI   C4A32917  12.463  18.165   7.350
20394POPI   C1B32918  12.506  17.886   6.450
20394POPI   C2B32919  12.540  17.887   6.750
20394POPI   C3B32920  12.577  17.916   7.050
20394POPI   C4B32921  12.567  17.857   7.350
20395POPI    C132922  13.949  16.561   5.550
20395POPI    C232923  13.981  16.514   5.250
20395POPI    C332924  14.052  16.601   5.250
20395POPI   PO432925  14.071  16.589   5.850
20395POPI   GL132926  14.023  16.559   6.150
20395POPI   GL232927  13.938  16.512   6.150
20395POPI   C1A32928  14.062  16.577   6.450
20395POPI   D2A32929  14.056  16.550   6.750
20395POPI   C3A32930  14.082  16.625   7.050
20395POPI   C4A32931  14.055  16.574   7.350
20395POPI   C1B32932  13.862  16.447   6.450
20395POPI   C2B32933  13.820  16.508   6.750
20395POPI   C3B32934  13.884  16.429   7.050
20395POPI   C4B32935  13.813  16.430   7.350
20396POPI    C132936  17.931  12.793   5.550
20396POPI    C232937  17.919  12.839   5.250
20396POPI    C332938  18.012  12.776   5.250
20396POPI   PO432939  18.051  12.737   5.850
20396POPI   GL132940  18.085  12.778   6.150
20396POPI   GL232941  17.907  12.807   6.150
20396POPI   C1A32942  18.023  12.791   6.450
20396POPI   D2A32943  18.046  12.693   6.750
20396POPI   C3A32944  18.065  12.721   7.050
20396POPI   C4A32945  18.088  12.756   7.350
20396POPI   C1B32946  17.788  12.906   6.450
20396POPI   C2B32947  17.790  12.891   6.750
20396POPI   C3B32948  17.807  12.889   7.050
20396POPI   C4B32949  17.794  12.895   7.350
20397POPI    C132950  18.803  17.449   5.550
20397POPI    C232951  18.862  17.496   5.250
20397POPI    C332952  18.809  17.367   5.250
20397POPI   PO432953  18.881  17.354   5.850
20397POPI   GL132954  18.850  17.337   6.150
20397POPI   GL232955  18.825  17.471   6.150
20397POPI   C1A32956  18.838  17.338   6.450
20397POPI   D2A32957  18.820  17.313   6.750
20397POPI   C3A32958  18.850  17.368   7.050
20397POPI   C4A32959  18.819  17.367   7.350
20397POPI   C1B32960  18.893  17.567   6.450
20397POPI   C2B32961  18.804  17.641   6.750
20397POPI   C3B32962  18.880  17.560   7.050
20397POPI   C4B32963  18.825  17.572   7.350
20398POPI    C132964  15.731  12.630   5.550
20398POPI    C232965  15.738  12.617   5.250
20398POPI    C332966  15.655  12.704   5.250
20398POPI   PO432967  15.694  12.722   5.850
20398POPI   GL132968  15.644  12.769   6.150
20398POPI   GL232969  15.775  12.691   6.150
20398POPI   C1A32970  15.677  12.771   6.450
20398POPI   D2A32971  15.646  12.762   6.750
20398POPI   C3A32972  15.681  12.699   7.050
20398POPI   C4A32973  15.631  12.719   7.350
20398POPI   C1B32974  15.852  12.557   6.450
20398POPI   C2B32975  15.803  12.561   6.750
20398POPI   C3B32976  15.840  12.597   7.050
20398POPI   C4B32977  15.824  12.601   7.350
20399POPI    C132978  13.138  15.138   5.550
20399POPI    C232979  13.179  15.112   5.250
20399POPI    C332980  13.286  15.034   5.250
20399POPI   PO432981  13.287  15.065   5.850
20399POPI   GL132982  13.264  15.002   6.150
20399POPI   GL232983  13.119  15.132   6.150
20399POPI   C1A32984  13.292  15.021   6.450
20399POPI   D2A32985  13.263  15.003   6.750
20399POPI   C3A32986  13.250  15.056   7.050
20399POPI   C4A32987  13.228  15.040   7.350
20399POPI   C1B32988  13.121  15.222   6.450
20399POPI   C2B32989  13.036  15.190   6.750
20399POPI   C3B32990  13.074  15.249   7.050
20399POPI   C4B32991  13.103  15.251   7.350
20400POPI    C132992  19.782  17.309   5.550
20400POPI    C232993  19.723  17.293   5.250
20400POPI    C332994  19.614  17.385   5.250
20400POPI   PO432995  19.653  17.357   5.850
20400POPI   GL132996  19.620  17.378   6.150
20400POPI   GL232997  19.800  17.290   6.150
20400POPI   C1A32998  19.660  17.347   6.450
20400POPI   D2A32999  19.627  17.352   6.750
20400POPI   C3A33000  19.638  17.349   7.050
20400POPI   C4A33001  19.650  17.323   7.350
20400POPI   C1B33002  19.921  17.285   6.450
20400POPI   C2B33003  19.868  17.236   6.750
20400POPI   C3B33004  19.861  17.303   7.050
20400POPI   C4B33005  19.902  17.294   7.350
20401POPI    C133006  13.200   8.980   5.550
20401POPI    C233007  13.238   9.036   5.250
20401POPI    C333008  13.208   8.936   5.250
20401POPI   PO433009  13.267   8.881   5.850
20401POPI   GL133010  13.232   8.886   6.150
20401POPI   GL233011  13.241   9.061   6.150
20401POPI   C1A33012  13.293   8.934   6.450
20401POPI   D2A33013  13.289   8.869   6.750
20401POPI   C3A33014  13.287   8.870   7.050
20401POPI   C4A33015  13.264   8.922   7.350
20401POPI   C1B33016  13.176   9.092   6.450
20401POPI   C2B33017  13.208   9.084   6.750
20401POPI   C3B33018  13.125   9.120   7.050
20401POPI   C4B33019  13.161   9.169   7.350
20402POPS   CNO33020  14.022   6.542   5.550
20402POPS   PO433021  14.091   6.556   5.850
20402POPS   GL133022  14.093   6.564   6.150
20402POPS   GL233023  14.084   6.478   6.150
20402POPS   C1A33024  14.049   6.615   6.450
20402POPS   D2A33025  14.097   6.616   6.750
20402POPS   C3A33026  14.002   6.561   7.050
20402POPS   C4A33027  14.012   6.580   7.350
20402POPS   C1B33028  14.018   6.370   6.450
20402POPS   C2B33029  14.088   6.332   6.750
20402POPS   C3B33030  14.059   6.387   7.050
20402POPS   C4B33031  14.038   6.374   7.350
20403POPS   CNO33032  13.216   2.744   5.550
20403POPS   PO433033  13.293   2.751   5.850
20403POPS   GL133034  13.268   2.713   6.150
20403POPS   GL233035  13.253   2.611   6.150
20403POPS   C1A33036  13.218   2.764   6.450
20403POPS   D2A33037  13.299   2.775   6.750
20403POPS   C3A33038  13.216   2.712   7.050
20403POPS   C4A33039  13.242   2.790   7.350
20403POPS   C1B33040  13.250   2.534   6.450
20403POPS   C2B33041  13.239   2.532   6.750
20403POPS   C3B33042  13.262   2.498   7.050
20403POPS   C4B33043  13.258   2.537   7.350
20404POPS   CNO33044  18.050   9.690   5.550
20404POPS   PO433045  18.083   9.644   5.850
20404POPS   GL133046  18.003   9.635   6.150
20404POPS   GL233047  17.893   9.615   6.150
20404POPS   C1A33048  18.016   9.651   6.450
20404POPS   D2A33049  18.003   9.639   6.750
20404POPS   C3A33050  18.059   9.680   7.050
20404POPS   C4A33051  18.009   9.686   7.350
20404POPS   C1B33052  17.800   9.601   6.450
20404POPS   C2B33053  17.791   9.541   6.750
20404POPS   C3B33054  17.844   9.573   7.050
20404POPS   C4B33055  17.865   9.510   7.350
20405POPS   CNO33056  18.846   5.065   5.550
20405POPS   PO433057  18.809   5.021   5.850
20405POPS   GL133058  18.817   5.051   6.150
20405POPS   GL233059  18.823   4.892   6.150
20405POPS   C1A33060  18.892   5.017   6.450
20405POPS   D2A33061  18.883   5.086   6.750
20405POPS   C3A33062  18.858   5.098   7.050
20405POPS   C4A33063  18.852   5.036   7.350
20405POPS   C1B33064  18.882   4.804   6.450
20405POPS   C2B33065  18.931   4.816   6.750
20405POPS   C3B33066  18.933   4.755   7.050
20405POPS   C4B33067  18.845   4.804   7.350
20406POPS   CNO33068  14.011  12.759   5.550
20406POPS   PO433069  14.022  12.762   5.850
20406POPS   GL133070  14.067  12.752   6.150
20406POPS   GL233071  14.211  12.662   6.150
20406POPS   C1A33072  14.058  12.778   6.450
20406POPS   D2A33073  14.002  12.745   6.750
20406POPS   C3A33074  14.017  12.774   7.050
20406POPS   C4A33075  14.077  12.722   7.350
20406POPS   C1B33076  14.249  12.652   6.450
20406POPS   C2B33077  14.248  12.656   6.750
20406POPS   C3B33078  14.309  12.647   7.050
20406POPS   C4B33079  14.255  12.687   7.350
20407POPS   CNO33080  19.661  14.308   5.550
20407POPS   PO433081  19.667  14.255   5.850
20407POPS   GL133082  19.673  14.285   6.150
20407POPS   GL233083  19.534  14.197   6.150
20407POPS   C1A33084  19.635  14.307   6.450
20407POPS   D2A33085  19.642  14.243   6.750
20407POPS   C3A33086  19.699  14.253   7.050
20407POPS   C4A33087  19.608  14.286   7.350
20407POPS   C1B33088  19.442  14.053   6.450
20407POPS   C2B33089  19.480  14.134   6.750
20407POPS   C3B33090  19.527  14.137   7.050
20407POPS   C4B33091  19.452  14.110   7.350
20408POPS   CNO33092  14.823  15.088   5.550
20408POPS   PO433093  14.865  15.001   5.850
20408POPS   GL133094  14.814  15.054   6.150
20408POPS   GL233095  14.949  15.114   6.150
20408POPS   C1A33096  14.850  15.060   6.450
20408POPS   D2A33097  14.847  15.071   6.750
20408POPS   C3A33098  14.884  15.066   7.050
20408POPS   C4A33099  14.830  15.044   7.350
20408POPS   C1B33100  15.064  15.118   6.450
20408POPS   C2B33101  15.116  15.177   6.750
20408POPS   C3B33102  15.055  15.180   7.050
20408POPS   C4B33103  15.073  15.172   7.350
20409POPS   CNO33104  17.279  15.051   5.550
20409POPS   PO433105  17.299  15.086   5.850
20409POPS   GL133106  17.255  15.046   6.150
20409POPS   GL233107  17.369  14.949   6.150
20409POPS   C1A33108  17.268  15.012   6.450
20409POPS   D2A33109  17.266  15.059   6.750
20409POPS   C3A33110  17.206  15.010   7.050
20409POPS   C4A33111  17.281  15.070   7.350
20409POPS   C1B33112  17.451  14.847   6.450
20409POPS   C2B33113  17.455  14.831   6.750
20409POPS   C3B33114  17.372  14.898   7.050
20409POPS   C4B33115  17.436  14.896   7.350
20410POPS   CNO33116  18.009   1.204   5.550
20410POPS   PO433117  18.094   1.163   5.850
20410POPS   GL133118  18.070   1.188   6.150
20410POPS   GL233119  18.147   1.217   6.150
20410POPS   C1A33120  18.047   1.235   6.450
20410POPS   D2A33121  18.083   1.205   6.750
20410POPS   C3A33122  18.083   1.176   7.050
20410POPS   C4A33123  18.089   1.166   7.350
20410POPS   C1B33124  18.287   1.375   6.450
20410POPS   C2B33125  18.255   1.331   6.750
20410POPS   C3B33126  18.258   1.284   7.050
20410POPS   C4B33127  18.222   1.365   7.350
20411POPS   CNO33128  18.886   2.702   5.550
20411POPS   PO433129  18.836   2.768   5.850
20411POPS   GL133130  18.899   2.759   6.150
20411POPS   GL233131  18.749   2.828   6.150
20411POPS   C1A33132  18.862   2.715   6.450
20411POPS   D2A33133  18.803   2.738   6.750
20411POPS   C3A33134  18.839   2.701   7.050
20411POPS   C4A33135  18.881   2.709   7.350
20411POPS   C1B33136  18.580   2.803   6.450
20411POPS   C2B33137  18.624   2.800   6.750
20411POPS   C3B33138  18.627   2.879   7.050
20411POPS   C4B33139  18.622   2.870   7.350
20412POPS   CNO33140  19.601  12.726   5.550
20412POPS   PO433141  19.631  12.701   5.850
20412POPS   GL133142  19.651  12.755   6.150
20412POPS   GL233143  19.730  12.696   6.150
20412POPS   C1A33144  19.623  12.768   6.450
20412POPS   D2A33145  19.698  12.758   6.750
20412POPS   C3A33146  19.636  12.715   7.050
20412POPS   C4A33147  19.669  12.701   7.350
20412POPS   C1B33148  19.858  12.617   6.450
20412POPS   C2B33149  19.823  12.576   6.750
20412POPS   C3B33150  19.791  12.599   7.050
20412POPS   C4B33151  19.842  12.540   7.350
20413POPS   CNO33152  15.637  18.902   5.550
20413POPS   PO433153  15.646  18.858   5.850
20413POPS   GL133154  15.615  18.929   6.150
20413POPS   GL233155  15.814  18.915   6.150
20413POPS   C1A33156  15.669  18.916   6.450
20413POPS   D2A33157  15.655  18.890   6.750
20413POPS   C3A33158  15.669  18.915   7.050
20413POPS   C4A33159  15.620  18.914   7.350
20413POPS   C1B33160  15.894  18.952   6.450
20413POPS   C2B33161  15.912  18.952   6.750
20413POPS   C3B33162  15.895  18.990   7.050
20413POPS   C4B33163  15.901  18.959   7.350
20414POPS   CNO33164  14.831  11.164   5.550
20414POPS   PO433165  14.805  11.202   5.850
20414POPS   GL133166  14.843  11.212   6.150
20414POPS   GL233167  14.920  11.291   6.150
20414POPS   C1A33168  14.838  11.202   6.450
20414POPS   D2A33169  14.811  11.191   6.750
20414POPS   C3A33170  14.892  11.199   7.050
20414POPS   C4A33171  14.872  11.230   7.350
20414POPS   C1B33172  14.954  11.446   6.450
20414POPS   C2B33173  14.968  11.441   6.750
20414POPS   C3B33174  15.008  11.374   7.050
20414POPS   C4B33175  15.006  11.397   7.350
20415POPS   CNO33176  18.010   8.860   5.550
20415POPS   PO433177  18.006   8.945   5.850
20415POPS   GL133178  18.011   8.931   6.150
20415POPS   GL233179  18.050   8.827   6.150
20415POPS   C1A33180  18.031   8.924   6.450
20415POPS   D2A33181  18.070   8.850   6.750
20415POPS   C3A33182  18.037   8.928   7.050
20415POPS   C4A33183  18.008   8.888   7.350
20415POPS   C1B33184  18.000   8.615   6.450
20415POPS   C2B33185  17.978   8.615   6.750
20415POPS   C3B33186  17.962   8.666   7.050
20415POPS   C4B33187  17.934   8.689   7.350
20416POPS   CNO33188  19.613   5.085   5.550
20416POPS   PO433189  19.699   5.053   5.850
20416POPS   GL133190  19.674   5.065   6.150
20416POPS   GL233191  19.743   4.890   6.150
20416POPS   C1A33192  19.636   5.020   6.450
20416POPS   D2A33193  19.690   5.060   6.750
20416POPS   C3A33194  19.654   5.047   7.050
20416POPS   C4A33195  19.619   5.052   7.350
20416POPS   C1B33196  19.766   4.791   6.450
20416POPS   C2B33197  19.763   4.854   6.750
20416POPS   C3B33198  19.754   4.862   7.050
20416POPS   C4B33199  19.735   4.781   7.350
20417POPS   CNO33200  15.653  16.576   5.550
20417POPS   PO433201  15.631  16.575   5.850
20417POPS   GL133202  15.677  16.548   6.150
20417POPS   GL233203  15.541  16.476   6.150
20417POPS   C1A33204  15.667  16.635   6.450
20417POPS   D2A33205  15.665  16.547   6.750
20417POPS   C3A33206  15.646  16.577   7.050
20417POPS   C4A33207  15.699  16.608   7.350
20417POPS   C1B33208  15.478  16.351   6.450
20417POPS   C2B33209  15.493  16.359   6.750
20417POPS   C3B33210  15.453  16.441   7.050
20417POPS   C4B33211  15.479  16.404   7.350
20418POPS   CNO33212  19.642   6.635   5.550
20418POPS   PO433213  19.659   6.630   5.850
20418POPS   GL133214  19.696   6.583   6.150
20418POPS   GL233215  19.674   6.431   6.150
20418POPS   C1A33216  19.682   6.540   6.450
20418POPS   D2A33217  19.614   6.566   6.750
20418POPS   C3A33218  19.637   6.603   7.050
20418POPS   C4A33219  19.695   6.621   7.350
20418POPS   C1B33220  19.627   6.387   6.450
20418POPS   C2B33221  19.658   6.345   6.750
20418POPS   C3B33222  19.651   6.321   7.050
20418POPS   C4B33223  19.674   6.369   7.350
20419POPS   CNO33224  18.020  10.449   5.550
20419POPS   PO433225  18.044  10.424   5.850
20419POPS   GL133226  18.013  10.419   6.150
20419POPS   GL233227  18.103  10.483   6.150
20419POPS   C1A33228  18.052  10.409   6.450
20419POPS   D2A33229  18.085  10.413   6.750
20419POPS   C3A33230  18.020  10.419   7.050
20419POPS   C4A33231  18.021  10.479   7.350
20419POPS   C1B33232  18.206  10.560   6.450
20419POPS   C2B33233  18.257  10.560   6.750
20419POPS   C3B33234  18.225  10.592   7.050
20419POPS   C4B33235  18.265  10.585   7.350
20420POPS   CNO33236  15.617  18.151   5.550
20420POPS   PO433237  15.631  18.098   5.850
20420POPS   GL133238  15.615  18.134   6.150
20420POPS   GL233239  15.704  18.041   6.150
20420POPS   C1A33240  15.606  18.176   6.450
20420POPS   D2A33241  15.664  18.089   6.750
20420POPS   C3A33242  15.672  18.131   7.050
20420POPS   C4A33243  15.661  18.154   7.350
20420POPS   C1B33244  15.824  17.988   6.450
20420POPS   C2B33245  15.848  17.904   6.750
20420POPS   C3B33246  15.813  17.934   7.050
20420POPS   C4B33247  15.807  17.948   7.350
20421POPS   CNO33248  18.833   8.166   5.550
20421POPS   PO433249  18.860   8.077   5.850
20421POPS   GL133250  18.878   8.143   6.150
20421POPS   GL233251  18.754   8.096   6.150
20421POPS   C1A33252  18.848   8.140   6.450
20421POPS   D2A33253  18.896   8.162   6.750
20421POPS   C3A33254  18.801   8.079   7.050
20421POPS   C4A33255  18.890   8.132   7.350
20421POPS   C1B33256  18.609   8.099   6.450
20421POPS   C2B33257  18.572   8.110   6.750
20421POPS   C3B33258  18.604   8.170   7.050
20421POPS   C4B33259  18.584   8.100   7.350
20422POPS   CNO33260  17.278  18.138   5.550
20422POPS   PO433261  17.291  18.161   5.850
20422POPS   GL133262  17.210  18.100   6.150
20422POPS   GL233263  17.360  18.233   6.150
20422POPS   C1A33264  17.246  18.150   6.450
20422POPS   D2A33265  17.264  18.119   6.750
20422POPS   C3A33266  17.290  18.175   7.050
20422POPS   C4A33267  17.287  18.175   7.350
20422POPS   C1B33268  17.472  18.201   6.450
20422POPS   C2B33269  17.451  18.237   6.750
20422POPS   C3B33270  17.476  18.266   7.050
20422POPS   C4B33271  17.482  18.249   7.350
20423POPS   CNO33272  18.862   9.621   5.550
20423POPS   PO433273  18.806   9.643   5.850
20423POPS   GL133274  18.843   9.622   6.150
20423POPS   GL233275  18.752   9.592   6.150
20423POPS   C1A33276  18.825   9.708   6.450
20423POPS   D2A33277  18.807   9.636   6.750
20423POPS   C3A33278  18.893   9.672   7.050
20423POPS   C4A33279  18.858   9.644   7.350
20423POPS   C1B33280  18.640   9.621   6.450
20423POPS   C2B33281  18.650   9.632   6.750
20423POPS   C3B33282  18.603   9.623   7.050
20423POPS   C4B33283  18.582   9.575   7.350
20424POPS   CNO33284  15.646  17.374   5.550
20424POPS   PO433285  15.620  17.375   5.850
20424POPS   GL133286  15.672  17.350   6.150
20424POPS   GL233287  15.729  17.238   6.150
20424POPS   C1A33288  15.601  17.372   6.450
20424POPS   D2A33289  15.633  17.360   6.750
20424POPS   C3A33290  15.693  17.321   7.050
20424POPS   C4A33291  15.638  17.335   7.350
20424POPS   C1B33292  15.794  17.148   6.450
20424POPS   C2B33293  15.840  17.155   6.750
20424POPS   C3B33294  15.826  17.179   7.050
20424POPS   C4B33295  15.821  17.204   7.350
20425POPS   CNO33296  12.494   8.896   5.550
20425POPS   PO433297  12.452   8.869   5.850
20425POPS   GL133298  12.450   8.923   6.150
20425POPS   GL233299  12.432   8.977   6.150
20425POPS   C1A33300  12.486   8.868   6.450
20425POPS   D2A33301  12.407   8.904   6.750
20425POPS   C3A33302  12.484   8.917   7.050
20425POPS   C4A33303  12.433   8.861   7.350
20425POPS   C1B33304  12.342   9.123   6.450
20425POPS   C2B33305  12.315   9.139   6.750
20425POPS   C3B33306  12.277   9.124   7.050
20425POPS   C4B33307  12.283   9.080   7.350
20426POPS   CNO33308  13.267  18.173   5.550
20426POPS   PO433309  13.266  18.139   5.850
20426POPS   GL133310  13.273  18.086   6.150
20426POPS   GL233311  13.360  18.251   6.150
20426POPS   C1A33312  13.240  18.152   6.450
20426POPS   D2A33313  13.300  18.149   6.750
20426POPS   C3A33314  13.295  18.142   7.050
20426POPS   C4A33315  13.206  18.080   7.350
20426POPS   C1B33316  13.364  18.294   6.450
20426POPS   C2B33317  13.435  18.342   6.750
20426POPS   C3B33318  13.399  18.296   7.050
20426POPS   C4B33319  13.445  18.341   7.350
20427POPS   CNO33320  18.827   7.404   5.550
20427POPS   PO433321  18.873   7.318   5.850
20427POPS   GL133322  18.840   7.328   6.150
20427POPS   GL233323  18.720   7.278   6.150
20427POPS   C1A33324  18.828   7.317   6.450
20427POPS   D2A33325  18.864   7.401   6.750
20427POPS   C3A33326  18.856   7.383   7.050
20427POPS   C4A33327  18.857   7.342   7.350
20427POPS   C1B33328  18.649   7.183   6.450
20427POPS   C2B33329  18.633   7.204   6.750
20427POPS   C3B33330  18.601   7.213   7.050
20427POPS   C4B33331  18.662   7.251   7.350
20428POPS   CNO33332  19.680  15.012   5.550
20428POPS   PO433333  19.653  15.063   5.850
20428POPS   GL133334  19.662  15.088   6.150
20428POPS   GL233335  19.775  14.983   6.150
20428POPS   C1A33336  19.638  15.062   6.450
20428POPS   D2A33337  19.669  15.019   6.750
20428POPS   C3A33338  19.624  15.030   7.050
20428POPS   C4A33339  19.655  15.085   7.350
20428POPS   C1B33340  19.872  14.935   6.450
20428POPS   C2B33341  19.848  14.949   6.750
20428POPS   C3B33342  19.831  14.897   7.050
20428POPS   C4B33343  19.870  14.965   7.350
20429YOPS   CNO33344  14.041  18.096   5.550
20429YOPS   PO433345  14.098  18.151   5.850
20429YOPS   GL133346  14.033  18.106   6.150
20429YOPS   GL233347  14.117  17.994   6.150
20429YOPS   C1A33348  14.076  18.137   6.450
20429YOPS   D2A33349  14.092  18.119   6.750
20429YOPS   C3A33350  14.038  18.099   7.050
20429YOPS   C4A33351  14.097  18.174   7.350
20429YOPS   C1B33352  14.201  17.912   6.450
20429YOPS   C2B33353  14.214  17.915   6.750
20429YOPS   D3B33354  14.233  17.895   7.050
20429YOPS   C4B33355  14.155  17.975   7.350
20430YOPS   CNO33356  13.221  18.867   5.550
20430YOPS   PO433357  13.251  18.867   5.850
20430YOPS   GL133358  13.236  18.945   6.150
20430YOPS   GL233359  13.419  18.900   6.150
20430YOPS   C1A33360  13.285  18.892   6.450
20430YOPS   D2A33361  13.239  18.889   6.750
20430YOPS   C3A33362  13.212  18.931   7.050
20430YOPS   C4A33363  13.264  18.883   7.350
20430YOPS   C1B33364  13.535  18.983   6.450
20430YOPS   C2B33365  13.510  18.972   6.750
20430YOPS   D3B33366  13.511  19.000   7.050
20430YOPS   C4B33367  13.485  18.917   7.350
20431YOPS   CNO33368  12.409  19.682   5.550
20431YOPS   PO433369  12.468  19.652   5.850
20431YOPS   GL133370  12.430  19.624   6.150
20431YOPS   GL233371  12.307  19.681   6.150
20431YOPS   C1A33372  12.431  19.620   6.450
20431YOPS   D2A33373  12.464  19.669   6.750
20431YOPS   C3A33374  12.415  19.671   7.050
20431YOPS   C4A33375  12.422  19.684   7.350
20431YOPS   C1B33376  12.234  19.625   6.450
20431YOPS   C2B33377  12.249  19.674   6.750
20431YOPS   D3B33378  12.244  19.611   7.050
20431YOPS   C4B33379  12.180  19.623   7.350
20432YOPS   CNO33380  17.210  17.348   5.550
20432YOPS   PO433381  17.259  17.369   5.850
20432YOPS   GL133382  17.278  17.377   6.150
20432YOPS   GL233383  17.303  17.254   6.150
20432YOPS   C1A33384  17.285  17.384   6.450
20432YOPS   D2A33385  17.281  17.359   6.750
20432YOPS   C3A33386  17.218  17.339   7.050
20432YOPS   C4A33387  17.215  17.332   7.350
20432YOPS   C1B33388  17.387  17.089   6.450
20432YOPS   C2B33389  17.308  17.076   6.750
20432YOPS   D3B33390  17.356  17.117   7.050
20432YOPS   C4B33391  17.371  17.136   7.350
20433YOPS   CNO33392  13.298   9.659   5.550
20433YOPS   PO433393  13.262   9.657   5.850
20433YOPS   GL133394  13.267   9.630   6.150
20433YOPS   GL233395  13.371   9.770   6.150
20433YOPS   C1A33396  13.285   9.695   6.450
20433YOPS   D2A33397  13.281   9.657   6.750
20433YOPS   C3A33398  13.256   9.618   7.050
20433YOPS   C4A33399  13.207   9.700   7.350
20433YOPS   C1B33400  13.378   9.834   6.450
20433YOPS   C2B33401  13.433   9.896   6.750
20433YOPS   D3B33402  13.439   9.869   7.050
20433YOPS   C4B33403  13.391   9.871   7.350
20434YOPS   CNO33404  14.859   8.146   5.550
20434YOPS   PO433405  14.836   8.093   5.850
20434YOPS   GL133406  14.830   8.174   6.150
20434YOPS   GL233407  14.776   8.012   6.150
20434YOPS   C1A33408  14.893   8.141   6.450
20434YOPS   D2A33409  14.889   8.096   6.750
20434YOPS   C3A33410  14.873   8.174   7.050
20434YOPS   C4A33411  14.805   8.100   7.350
20434YOPS   C1B33412  14.675   7.938   6.450
20434YOPS   C2B33413  14.680   7.984   6.750
20434YOPS   D3B33414  14.651   7.941   7.050
20434YOPS   C4B33415  14.655   7.979   7.350
20435YOPS   CNO33416  14.041   2.002   5.550
20435YOPS   PO433417  14.012   2.002   5.850
20435YOPS   GL133418  14.074   1.952   6.150
20435YOPS   GL233419  14.107   1.816   6.150
20435YOPS   C1A33420  14.089   1.936   6.450
20435YOPS   D2A33421  14.051   1.935   6.750
20435YOPS   C3A33422  14.084   1.937   7.050
20435YOPS   C4A33423  14.014   1.958   7.350
20435YOPS   C1B33424  14.096   1.689   6.450
20435YOPS   C2B33425  14.066   1.735   6.750
20435YOPS   D3B33426  14.139   1.715   7.050
20435YOPS   C4B33427  14.101   1.693   7.350
20436YOPS   CNO33428  17.247  15.836   5.550
20436YOPS   PO433429  17.299  15.836   5.850
20436YOPS   GL133430  17.227  15.780   6.150
20436YOPS   GL233431  17.332  15.814   6.150
20436YOPS   C1A33432  17.274  15.837   6.450
20436YOPS   D2A33433  17.238  15.857   6.750
20436YOPS   C3A33434  17.237  15.848   7.050
20436YOPS   C4A33435  17.250  15.798   7.350
20436YOPS   C1B33436  17.525  15.705   6.450
20436YOPS   C2B33437  17.430  15.703   6.750
20436YOPS   D3B33438  17.445  15.765   7.050
20436YOPS   C4B33439  17.461  15.671   7.350
20437YOPS   CNO33440  17.285  10.476   5.550
20437YOPS   PO433441  17.279  10.389   5.850
20437YOPS   GL133442  17.235  10.407   6.150
20437YOPS   GL233443  17.303  10.556   6.150
20437YOPS   C1A33444  17.287  10.450   6.450
20437YOPS   D2A33445  17.219  10.476   6.750
20437YOPS   C3A33446  17.258  10.465   7.050
20437YOPS   C4A33447  17.267  10.415   7.350
20437YOPS   C1B33448  17.402  10.578   6.450
20437YOPS   C2B33449  17.482  10.621   6.750
20437YOPS   D3B33450  17.457  10.586   7.050
20437YOPS   C4B33451  17.473  10.559   7.350
20438YOPS   CNO33452  19.608  11.983   5.550
20438YOPS   PO433453  19.661  11.959   5.850
20438YOPS   GL133454  19.602  12.001   6.150
20438YOPS   GL233455  19.780  12.005   6.150
20438YOPS   C1A33456  19.683  11.993   6.450
20438YOPS   D2A33457  19.653  11.975   6.750
20438YOPS   C3A33458  19.644  11.929   7.050
20438YOPS   C4A33459  19.642  11.973   7.350
20438YOPS   C1B33460  19.891  12.091   6.450
20438YOPS   C2B33461  19.909  12.136   6.750
20438YOPS   D3B33462  19.819  12.116   7.050
20438YOPS   C4B33463  19.897  12.142   7.350
20439YOPS   CNO33464  14.028  14.310   5.550
20439YOPS   PO433465  14.027  14.258   5.850
20439YOPS   GL133466  14.083  14.324   6.150
20439YOPS   GL233467  13.956  14.180   6.150
20439YOPS   C1A33468  14.031  14.307   6.450
20439YOPS   D2A33469  14.083  14.241   6.750
20439YOPS   C3A33470  14.043  14.232   7.050
20439YOPS   C4A33471  14.011  14.245   7.350
20439YOPS   C1B33472  13.891  14.050   6.450
20439YOPS   C2B33473  13.980  14.063   6.750
20439YOPS   D3B33474  13.905  14.050   7.050
20439YOPS   C4B33475  13.899  14.103   7.350
20440POPE   NH333476  18.044  11.933   5.550
20440POPE   PO433477  18.007  11.924   5.850
20440POPE   GL133478  18.065  11.980   6.150
20440POPE   GL233479  18.087  11.839   6.150
20440POPE   C1A33480  18.036  11.946   6.450
20440POPE   D2A33481  18.043  11.961   6.750
20440POPE   C3A33482  18.071  11.925   7.050
20440POPE   C4A33483  18.003  12.018   7.350
20440POPE   C1B33484  18.238  11.792   6.450
20440POPE   C2B33485  18.227  11.766   6.750
20440POPE   C3B33486  18.223  11.809   7.050
20440POPE   C4B33487  18.174  11.771   7.350
20441POPE   NH333488  13.244   3.546   5.550
20441POPE   PO433489  13.231   3.544   5.850
20441POPE   GL133490  13.270   3.555   6.150
20441POPE   GL233491  13.320   3.526   6.150
20441POPE   C1A33492  13.211   3.499   6.450
20441POPE   D2A33493  13.283   3.552   6.750
20441POPE   C3A33494  13.201   3.522   7.050
20441POPE   C4A33495  13.246   3.495   7.350
20441POPE   C1B33496  13.486   3.568   6.450
20441POPE   C2B33497  13.521   3.637   6.750
20441POPE   C3B33498  13.462   3.600   7.050
20441POPE   C4B33499  13.520   3.610   7.350
20442POPE   NH333500  13.232  15.827   5.550
20442POPE   PO433501  13.238  15.853   5.850
20442POPE   GL133502  13.221  15.837   6.150
20442POPE   GL233503  13.197  15.692   6.150
20442POPE   C1A33504  13.202  15.787   6.450
20442POPE   D2A33505  13.252  15.804   6.750
20442POPE   C3A33506  13.285  15.840   7.050
20442POPE   C4A33507  13.228  15.854   7.350
20442POPE   C1B33508  13.143  15.640   6.450
20442POPE   C2B33509  13.105  15.638   6.750
20442POPE   C3B33510  13.110  15.656   7.050
20442POPE   C4B33511  13.094  15.625   7.350
20443POPE   NH333512  17.224  19.625   5.550
20443POPE   PO433513  17.221  19.685   5.850
20443POPE   GL133514  17.232  19.643   6.150
20443POPE   GL233515  17.211  19.554   6.150
20443POPE   C1A33516  17.256  19.642   6.450
20443POPE   D2A33517  17.245  19.673   6.750
20443POPE   C3A33518  17.261  19.650   7.050
20443POPE   C4A33519  17.210  19.672   7.350
20443POPE   C1B33520  17.231  19.400   6.450
20443POPE   C2B33521  17.198  19.455   6.750
20443POPE   C3B33522  17.196  19.465   7.050
20443POPE   C4B33523  17.233  19.393   7.350
20444POPE   NH333524  14.041   3.478   5.550
20444POPE   PO433525  14.030   3.474   5.850
20444POPE   GL133526  14.003   3.474   6.150
20444POPE   GL233527  14.178   3.497   6.150
20444POPE   C1A33528  14.069   3.522   6.450
20444POPE   D2A33529  14.051   3.529   6.750
20444POPE   C3A33530  14.086   3.508   7.050
20444POPE   C4A33531  14.041   3.493   7.350
20444POPE   C1B33532  14.245   3.463   6.450
20444POPE   C2B33533  14.328   3.452   6.750
20444POPE   C3B33534  14.294   3.454   7.050
20444POPE   C4B33535  14.330   3.418   7.350
20445POPE   NH333536  18.054   5.002   5.550
20445POPE   PO433537  18.003   5.038   5.850
20445POPE   GL133538  18.078   5.074   6.150
20445POPE   GL233539  18.096   5.210   6.150
20445POPE   C1A33540  18.036   5.024   6.450
20445POPE   D2A33541  18.055   5.045   6.750
20445POPE   C3A33542  18.030   5.035   7.050
20445POPE   C4A33543  18.018   5.044   7.350
20445POPE   C1B33544  18.110   5.296   6.450
20445POPE   C2B33545  18.167   5.309   6.750
20445POPE   C3B33546  18.182   5.247   7.050
20445POPE   C4B33547  18.103   5.317   7.350
20446POPE   NH333548  19.602  10.470   5.550
20446POPE   PO433549  19.682  10.465   5.850
20446POPE   GL133550  19.665  10.419   6.150
20446POPE   GL233551  19.717  10.509   6.150
20446POPE   C1A33552  19.633  10.452   6.450
20446POPE   D2A33553  19.692  10.421   6.750
20446POPE   C3A33554  19.610  10.476   7.050
20446POPE   C4A33555  19.692  10.458   7.350
20446POPE   C1B33556  19.830  10.556   6.450
20446POPE   C2B33557  19.922  10.583   6.750
20446POPE   C3B33558  19.849  10.553   7.050
20446POPE   C4B33559  19.869  10.548   7.350
20447POPE   NH333560  15.628   6.569   5.550
20447POPE   PO433561  15.683   6.615   5.850
20447POPE   GL133562  15.638   6.624   6.150
20447POPE   GL233563  15.685   6.475   6.150
20447POPE   C1A33564  15.641   6.616   6.450
20447POPE   D2A33565  15.619   6.628   6.750
20447POPE   C3A33566  15.674   6.585   7.050
20447POPE   C4A33567  15.656   6.580   7.350
20447POPE   C1B33568  15.656   6.324   6.450
20447POPE   C2B33569  15.665   6.364   6.750
20447POPE   C3B33570  15.710   6.318   7.050
20447POPE   C4B33571  15.695   6.335   7.350
20448POPE   NH333572  14.814  18.897   5.550
20448POPE   PO433573  14.872  18.921   5.850
20448POPE   GL133574  14.847  18.886   6.150
20448POPE   GL233575  14.706  18.784   6.150
20448POPE   C1A33576  14.838  18.887   6.450
20448POPE   D2A33577  14.821  18.922   6.750
20448POPE   C3A33578  14.881  18.902   7.050
20448POPE   C4A33579  14.884  18.914   7.350
20448POPE   C1B33580  14.636  18.739   6.450
20448POPE   C2B33581  14.674  18.775   6.750
20448POPE   C3B33582  14.675  18.749   7.050
20448POPE   C4B33583  14.674  18.725   7.350
20449POPE   NH333584  18.052   3.545   5.550
20449POPE   PO433585  18.012   3.540   5.850
20449POPE   GL133586  18.098   3.509   6.150
20449POPE   GL233587  18.035   3.357   6.150
20449POPE   C1A33588  18.043   3.559   6.450
20449POPE   D2A33589  18.067   3.466   6.750
20449POPE   C3A33590  18.078   3.478   7.050
20449POPE   C4A33591  18.061   3.503   7.350
20449POPE   C1B33592  18.093   3.309   6.450
20449POPE   C2B33593  18.127   3.285   6.750
20449POPE   C3B33594  18.136   3.270   7.050
20449POPE   C4B33595  18.071   3.283   7.350
20450POPE   NH333596  14.802  16.575   5.550
20450POPE   PO433597  14.896  16.565   5.850
20450POPE   GL133598  14.822  16.541   6.150
20450POPE   GL233599  14.978  16.645   6.150
20450POPE   C1A33600  14.849  16.635   6.450
20450POPE   D2A33601  14.883  16.612   6.750
20450POPE   C3A33602  14.887  16.621   7.050
20450POPE   C4A33603  14.870  16.550   7.350
20450POPE   C1B33604  15.069  16.703   6.450
20450POPE   C2B33605  15.089  16.724   6.750
20450POPE   C3B33606  15.086  16.755   7.050
20450POPE   C4B33607  15.030  16.781   7.350
20451YOPE   NH333608  12.467   6.559   5.550
20451YOPE   PO433609  12.406   6.570   5.850
20451YOPE   GL133610  12.459   6.555   6.150
20451YOPE   GL233611  12.340   6.456   6.150
20451YOPE   C1A33612  12.463   6.539   6.450
20451YOPE   D2A33613  12.500   6.585   6.750
20451YOPE   C3A33614  12.483   6.585   7.050
20451YOPE   C4A33615  12.469   6.616   7.350
20451YOPE   C1B33616  12.308   6.399   6.450
20451YOPE   C2B33617  12.235   6.384   6.750
20451YOPE   D3B33618  12.255   6.402   7.050
20451YOPE   C4B33619  12.273   6.460   7.350
20452YOPE   NH333620  18.844  14.267   5.550
20452YOPE   PO433621  18.883  14.255   5.850
20452YOPE   GL133622  18.826  14.287   6.150
20452YOPE   GL233623  18.931  14.292   6.150
20452YOPE   C1A33624  18.815  14.319   6.450
20452YOPE   D2A33625  18.835  14.297   6.750
20452YOPE   C3A33626  18.871  14.273   7.050
20452YOPE   C4A33627  18.837  14.256   7.350
20452YOPE   C1B33628  19.143  14.271   6.450
20452YOPE   C2B33629  19.098  14.206   6.750
20452YOPE   D3B33630  19.086  14.212   7.050
20452YOPE   C4B33631  19.067  14.285   7.350
20453YOPE   NH333632  14.018  19.715   5.550
20453YOPE   PO433633  14.051  19.626   5.850
20453YOPE   GL133634  14.094  19.642   6.150
20453YOPE   GL233635  14.202  19.632   6.150
20453YOPE   C1A33636  14.081  19.676   6.450
20453YOPE   D2A33637  14.017  19.654   6.750
20453YOPE   C3A33638  14.090  19.707   7.050
20453YOPE   C4A33639  14.010  19.680   7.350
20453YOPE   C1B33640  14.232  19.571   6.450
20453YOPE   C2B33641  14.252  19.600   6.750
20453YOPE   D3B33642  14.249  19.590   7.050
20453YOPE   C4B33643  14.300  19.573   7.350
20454YOPE   NH333644  13.260   5.065   5.550
20454YOPE   PO433645  13.212   5.071   5.850
20454YOPE   GL133646  13.290   5.095   6.150
20454YOPE   GL233647  13.313   5.139   6.150
20454YOPE   C1A33648  13.298   5.060   6.450
20454YOPE   D2A33649  13.270   5.061   6.750
20454YOPE   C3A33650  13.264   5.074   7.050
20454YOPE   C4A33651  13.282   5.018   7.350
20454YOPE   C1B33652  13.429   5.281   6.450
20454YOPE   C2B33653  13.408   5.253   6.750
20454YOPE   D3B33654  13.398   5.210   7.050
20454YOPE   C4B33655  13.423   5.248   7.350
20455YOPE   NH333656  18.051  14.302   5.550
20455YOPE   PO433657  18.058  14.250   5.850
20455YOPE   GL133658  18.028  14.268   6.150
20455YOPE   GL233659  18.075  14.173   6.150
20455YOPE   C1A33660  18.075  14.244   6.450
20455YOPE   D2A33661  18.031  14.301   6.750
20455YOPE   C3A33662  18.095  14.330   7.050
20455YOPE   C4A33663  18.006  14.299   7.350
20455YOPE   C1B33664  18.148  14.107   6.450
20455YOPE   C2B33665  18.227  14.052   6.750
20455YOPE   D3B33666  18.203  14.060   7.050
20455YOPE   C4B33667  18.163  14.056   7.350
20456YOPE   NH333668  12.435  18.902   5.550
20456YOPE   PO433669  12.476  18.938   5.850
20456YOPE   GL133670  12.455  18.905   6.150
20456YOPE   GL233671  12.489  18.761   6.150
20456YOPE   C1A33672  12.424  18.921   6.450
20456YOPE   D2A33673  12.438  18.934   6.750
20456YOPE   C3A33674  12.428  18.862   7.050
20456YOPE   C4A33675  12.473  18.874   7.350
20456YOPE   C1B33676  12.440  18.669   6.450
20456YOPE   C2B33677  12.465  18.695   6.750
20456YOPE   D3B33678  12.478  18.688   7.050
20456YOPE   C4B33679  12.476  18.648   7.350
20457YOPE   NH333680  16.412   2.741   5.550
20457YOPE   PO433681  16.402   2.763   5.850
20457YOPE   GL133682  16.478   2.755   6.150
20457YOPE   GL233683  16.390   2.794   6.150
20457YOPE   C1A33684  16.472   2.721   6.450
20457YOPE   D2A33685  16.469   2.750   6.750
20457YOPE   C3A33686  16.403   2.701   7.050
20457YOPE   C4A33687  16.500   2.744   7.350
20457YOPE   C1B33688  16.279   2.923   6.450
20457YOPE   C2B33689  16.233   2.926   6.750
20457YOPE   D3B33690  16.266   2.877   7.050
20457YOPE   C4B33691  16.229   2.837   7.350
20458YOPE   NH333692  15.676   9.701   5.550
20458YOPE   PO433693  15.682   9.633   5.850
20458YOPE   GL133694  15.647   9.686   6.150
20458YOPE   GL233695  15.595   9.555   6.150
20458YOPE   C1A33696  15.607   9.662   6.450
20458YOPE   D2A33697  15.645   9.656   6.750
20458YOPE   C3A33698  15.635   9.654   7.050
20458YOPE   C4A33699  15.698   9.684   7.350
20458YOPE   C1B33700  15.644   9.406   6.450
20458YOPE   C2B33701  15.644   9.405   6.750
20458YOPE   D3B33702  15.573   9.469   7.050
20458YOPE   C4B33703  15.573   9.459   7.350
20459YOPE   NH333704  19.619  19.678   5.550
20459YOPE   PO433705  19.649  19.708   5.850
20459YOPE   GL133706  19.653  19.641   6.150
20459YOPE   GL233707  19.549  19.747   6.150
20459YOPE   C1A33708  19.672  19.620   6.450
20459YOPE   D2A33709  19.654  19.681   6.750
20459YOPE   C3A33710  19.642  19.618   7.050
20459YOPE   C4A33711  19.691  19.654   7.350
20459YOPE   C1B33712  19.394  19.824   6.450
20459YOPE   C2B33713  19.414  19.830   6.750
20459YOPE   D3B33714  19.402  19.769   7.050
20459YOPE   C4B33715  19.485  19.746   7.350
20460YOPE   NH333716  14.864   6.606   5.550
20460YOPE   PO433717  14.885   6.589   5.850
20460YOPE   GL133718  14.810   6.552   6.150
20460YOPE   GL233719  14.828   6.686   6.150
20460YOPE   C1A33720  14.821   6.610   6.450
20460YOPE   D2A33721  14.828   6.559   6.750
20460YOPE   C3A33722  14.837   6.567   7.050
20460YOPE   C4A33723  14.808   6.611   7.350
20460YOPE   C1B33724  14.897   6.867   6.450
20460YOPE   C2B33725  14.836   6.811   6.750
20460YOPE   D3B33726  14.845   6.795   7.050
20460YOPE   C4B33727  14.882   6.819   7.350
20461YOPE   NH333728  18.869   3.559   5.550
20461YOPE   PO433729  18.813   3.467   5.850
20461YOPE   GL133730  18.855   3.499   6.150
20461YOPE   GL233731  18.940   3.467   6.150
20461YOPE   C1A33732  18.807   3.531   6.450
20461YOPE   D2A33733  18.860   3.476   6.750
20461YOPE   C3A33734  18.852   3.504   7.050
20461YOPE   C4A33735  18.817   3.483   7.350
20461YOPE   C1B33736  19.074   3.458   6.450
20461YOPE   C2B33737  19.119   3.496   6.750
20461YOPE   D3B33738  19.066   3.491   7.050
20461YOPE   C4B33739  19.089   3.521   7.350
20462YOPE   NH333740  18.858  18.155   5.550
20462YOPE   PO433741  18.843  18.177   5.850
20462YOPE   GL133742  18.815  18.164   6.150
20462YOPE   GL233743  18.947  18.287   6.150
20462YOPE   C1A33744  18.801  18.096   6.450
20462YOPE   D2A33745  18.831  18.161   6.750
20462YOPE   C3A33746  18.806  18.106   7.050
20462YOPE   C4A33747  18.895  18.080   7.350
20462YOPE   C1B33748  18.941  18.380   6.450
20462YOPE   C2B33749  18.972  18.308   6.750
20462YOPE   D3B33750  18.964  18.399   7.050
20462YOPE   C4B33751  18.948  18.326   7.350
20463YOPE   NH333752  12.415   4.282   5.550
20463YOPE   PO433753  12.447   4.262   5.850
20463YOPE   GL133754  12.437   4.297   6.150
20463YOPE   GL233755  12.364   4.339   6.150
20463YOPE   C1A33756  12.417   4.331   6.450
20463YOPE   D2A33757  12.407   4.312   6.750
20463YOPE   C3A33758  12.446   4.311   7.050
20463YOPE   C4A33759  12.494   4.284   7.350
20463YOPE   C1B33760  12.164   4.354   6.450
20463YOPE   C2B33761  12.177   4.360   6.750
20463YOPE   D3B33762  12.166   4.336   7.050
20463YOPE   C4B33763  12.215   4.307   7.350
20464YOPE   NH333764  18.061   0.472   5.550
20464YOPE   PO433765  18.087   0.387   5.850
20464YOPE   GL133766  18.060   0.385   6.150
20464YOPE   GL233767  17.948   0.583   6.150
20464YOPE   C1A33768  18.086   0.420   6.450
20464YOPE   D2A33769  18.096   0.426   6.750
20464YOPE   C3A33770  18.071   0.407   7.050
20464YOPE   C4A33771  18.033   0.432   7.350
20464YOPE   C1B33772  17.969   0.632   6.450
20464YOPE   C2B33773  17.969   0.622   6.750
20464YOPE   D3B33774  17.976   0.688   7.050
20464YOPE   C4B33775  17.905   0.697   7.350
20465YOPE   NH333776  13.256   6.609   5.550
20465YOPE   PO433777  13.275   6.616   5.850
20465YOPE   GL133778  13.244   6.614   6.150
20465YOPE   GL233779  13.230   6.689   6.150
20465YOPE   C1A33780  13.235   6.632   6.450
20465YOPE   D2A33781  13.272   6.559   6.750
20465YOPE   C3A33782  13.269   6.636   7.050
20465YOPE   C4A33783  13.272   6.559   7.350
20465YOPE   C1B33784  13.225   6.819   6.450
20465YOPE   C2B33785  13.199   6.789   6.750
20465YOPE   D3B33786  13.187   6.816   7.050
20465YOPE   C4B33787  13.158   6.873   7.350
20466YOPE   NH333788  19.666   3.545   5.550
20466YOPE   PO433789  19.656   3.520   5.850
20466YOPE   GL133790  19.681   3.494   6.150
20466YOPE   GL233791  19.761   3.504   6.150
20466YOPE   C1A33792  19.629   3.557   6.450
20466YOPE   D2A33793  19.606   3.538   6.750
20466YOPE   C3A33794  19.611   3.472   7.050
20466YOPE   C4A33795  19.660   3.485   7.350
20466YOPE   C1B33796  19.924   3.507   6.450
20466YOPE   C2B33797  19.902   3.532   6.750
20466YOPE   D3B33798  19.878   3.546   7.050
20466YOPE   C4B33799  19.944   3.502   7.350
20467YOPE   NH333800  18.826  11.966   5.550
20467YOPE   PO433801  18.852  11.986   5.850
20467YOPE   GL133802  18.813  12.010   6.150
20467YOPE   GL233803  18.809  11.848   6.150
20467YOPE   C1A33804  18.836  11.985   6.450
20467YOPE   D2A33805  18.807  11.955   6.750
20467YOPE   C3A33806  18.882  11.986   7.050
20467YOPE   C4A33807  18.876  11.980   7.350
20467YOPE   C1B33808  18.784  11.739   6.450
20467YOPE   C2B33809  18.692  11.764   6.750
20467YOPE   D3B33810  18.764  11.780   7.050
20467YOPE   C4B33811  18.733  11.779   7.350
20468YOPE   NH333812  13.211   0.393   5.550
20468YOPE   PO433813  13.220   0.406   5.850
20468YOPE   GL133814  13.238   0.480   6.150
20468YOPE   GL233815  13.304   0.555   6.150
20468YOPE   C1A33816  13.280   0.482   6.450
20468YOPE   D2A33817  13.227   0.450   6.750
20468YOPE   C3A33818  13.236   0.442   7.050
20468YOPE   C4A33819  13.293   0.394   7.350
20468YOPE   C1B33820  13.401   0.660   6.450
20468YOPE   C2B33821  13.358   0.683   6.750
20468YOPE   D3B33822  13.430   0.670   7.050
20468YOPE   C4B33823  13.402   0.666   7.350
20469YOPE   NH333824  12.420  15.054   5.550
20469YOPE   PO433825  12.457  15.078   5.850
20469YOPE   GL133826  12.434  15.080   6.150
20469YOPE   GL233827  12.348  14.960   6.150
20469YOPE   C1A33828  12.472  15.047   6.450
20469YOPE   D2A33829  12.444  15.088   6.750
20469YOPE   C3A33830  12.409  15.049   7.050
20469YOPE   C4A33831  12.484  15.017   7.350
20469YOPE   C1B33832  12.271  14.881   6.450
20469YOPE   C2B33833  12.231  14.940   6.750
20469YOPE   D3B33834  12.221  14.878   7.050
20469YOPE   C4B33835  12.235  14.885   7.350
20470YOPE   NH333836  18.088   4.312   5.550
20470YOPE   PO433837  18.090   4.301   5.850
20470YOPE   GL133838  18.046   4.300   6.150
20470YOPE   GL233839  18.202   4.332   6.150
20470YOPE   C1A33840  18.055   4.242   6.450
20470YOPE   D2A33841  18.080   4.251   6.750
20470YOPE   C3A33842  18.075   4.300   7.050
20470YOPE   C4A33843  18.083   4.280   7.350
20470YOPE   C1B33844  18.292   4.327   6.450
20470YOPE   C2B33845  18.251   4.331   6.750
20470YOPE   D3B33846  18.289   4.345   7.050
20470YOPE   C4B33847  18.269   4.316   7.350
20471YOPE   NH333848  15.668   1.991   5.550
20471YOPE   PO433849  15.603   1.994   5.850
20471YOPE   GL133850  15.640   2.019   6.150
20471YOPE   GL233851  15.531   2.012   6.150
20471YOPE   C1A33852  15.623   1.952   6.450
20471YOPE   D2A33853  15.686   2.012   6.750
20471YOPE   C3A33854  15.698   2.022   7.050
20471YOPE   C4A33855  15.630   1.972   7.350
20471YOPE   C1B33856  15.426   2.031   6.450
20471YOPE   C2B33857  15.442   2.093   6.750
20471YOPE   D3B33858  15.369   2.037   7.050
20471YOPE   C4B33859  15.378   2.044   7.350
20472YOPE   NH333860  16.441   6.593   5.550
20472YOPE   PO433861  16.475   6.557   5.850
20472YOPE   GL133862  16.402   6.590   6.150
20472YOPE   GL233863  16.463   6.494   6.150
20472YOPE   C1A33864  16.456   6.604   6.450
20472YOPE   D2A33865  16.496   6.569   6.750
20472YOPE   C3A33866  16.459   6.541   7.050
20472YOPE   C4A33867  16.463   6.569   7.350
20472YOPE   C1B33868  16.515   6.346   6.450
20472YOPE   C2B33869  16.499   6.302   6.750
20472YOPE   D3B33870  16.513   6.362   7.050
20472YOPE   C4B33871  16.444   6.304   7.350
20473YOPE   NH333872  15.628   8.121   5.550
20473YOPE   PO433873  15.604   8.080   5.850
20473YOPE   GL133874  15.662   8.092   6.150
20473YOPE   GL233875  15.787   8.154   6.150
20473YOPE   C1A33876  15.670   8.175   6.450
20473YOPE   D2A33877  15.676   8.097   6.750
20473YOPE   C3A33878  15.664   8.086   7.050
20473YOPE   C4A33879  15.691   8.147   7.350
20473YOPE   C1B33880  15.867   8.268   6.450
20473YOPE   C2B33881  15.865   8.249   6.750
20473YOPE   D3B33882  15.819   8.309   7.050
20473YOPE   C4B33883  15.839   8.279   7.350
20474YOPE   NH333884  14.864  18.133   5.550
20474YOPE   PO433885  14.880  18.147   5.850
20474YOPE   GL133886  14.869  18.170   6.150
20474YOPE   GL233887  14.787  18.061   6.150
20474YOPE   C1A33888  14.874  18.133   6.450
20474YOPE   D2A33889  14.865  18.113   6.750
20474YOPE   C3A33890  14.847  18.114   7.050
20474YOPE   C4A33891  14.801  18.141   7.350
20474YOPE   C1B33892  14.730  17.907   6.450
20474YOPE   C2B33893  14.776  17.915   6.750
20474YOPE   D3B33894  14.730  17.931   7.050
20474YOPE   C4B33895  14.704  17.894   7.350
20475YOPE   NH333896  13.266   5.816   5.550
20475YOPE   PO433897  13.298   5.801   5.850
20475YOPE   GL133898  13.215   5.818   6.150
20475YOPE   GL233899  13.156   5.863   6.150
20475YOPE   C1A33900  13.277   5.865   6.450
20475YOPE   D2A33901  13.217   5.793   6.750
20475YOPE   C3A33902  13.254   5.861   7.050
20475YOPE   C4A33903  13.300   5.840   7.350
20475YOPE   C1B33904  13.021   5.847   6.450
20475YOPE   C2B33905  12.953   5.825   6.750
20475YOPE   D3B33906  13.017   5.839   7.050
20475YOPE   C4B33907  13.023   5.843   7.350
20476YOPE   NH333908  15.696  19.623   5.550
20476YOPE   PO433909  15.675  19.659   5.850
20476YOPE   GL133910  15.634  19.634   6.150
20476YOPE   GL233911  15.821  19.649   6.150
20476YOPE   C1A33912  15.655  19.675   6.450
20476YOPE   D2A33913  15.650  19.707   6.750
20476YOPE   C3A33914  15.685  19.668   7.050
20476YOPE   C4A33915  15.688  19.630   7.350
20476YOPE   C1B33916  15.878  19.667   6.450
20476YOPE   C2B33917  15.893  19.727   6.750
20476YOPE   D3B33918  15.851  19.699   7.050
20476YOPE   C4B33919  15.883  19.696   7.350
20477YOPE   NH333920  14.887   1.949   5.550
20477YOPE   PO433921  14.837   1.986   5.850
20477YOPE   GL133922  14.815   1.937   6.150
20477YOPE   GL233923  14.989   1.891   6.150
20477YOPE   C1A33924  14.897   1.980   6.450
20477YOPE   D2A33925  14.855   1.998   6.750
20477YOPE   C3A33926  14.849   1.986   7.050
20477YOPE   C4A33927  14.862   1.982   7.350
20477YOPE   C1B33928  15.045   1.900   6.450
20477YOPE   C2B33929  15.114   1.892   6.750
20477YOPE   D3B33930  15.028   1.842   7.050
20477YOPE   C4B33931  15.062   1.857   7.350
20478POPC   NC333932  12.417   5.786   5.550
20478POPC   PO433933  12.450   5.799   5.850
20478POPC   GL133934  12.469   5.818   6.150
20478POPC   GL233935  12.604   5.829   6.150
20478POPC   C1A33936  12.480   5.856   6.450
20478POPC   D2A33937  12.490   5.847   6.750
20478POPC   C3A33938  12.401   5.786   7.050
20478POPC   C4A33939  12.449   5.783   7.350
20478POPC   C1B33940  12.662   5.898   6.450
20478POPC   C2B33941  12.654   5.893   6.750
20478POPC   C3B33942  12.651   5.819   7.050
20478POPC   C4B33943  12.721   5.881   7.350
20479POPC   NC333944  16.490  15.080   5.550
20479POPC   PO433945  16.419  15.066   5.850
20479POPC   GL133946  16.400  15.026   6.150
20479POPC   GL233947  16.564  14.946   6.150
20479POPC   C1A33948  16.445  15.049   6.450
20479POPC   D2A33949  16.459  15.081   6.750
20479POPC   C3A33950  16.422  15.063   7.050
20479POPC   C4A33951  16.422  15.075   7.350
20479POPC   C1B33952  16.605  14.838   6.450
20479POPC   C2B33953  16.618  14.861   6.750
20479POPC   C3B33954  16.605  14.856   7.050
20479POPC   C4B33955  16.632  14.870   7.350
20480POPC   NC333956  17.267  12.754   5.550
20480POPC   PO433957  17.272  12.738   5.850
20480POPC   GL133958  17.286  12.705   6.150
20480POPC   GL233959  17.320  12.770   6.150
20480POPC   C1A33960  17.294  12.723   6.450
20480POPC   D2A33961  17.270  12.749   6.750
20480POPC   C3A33962  17.297  12.727   7.050
20480POPC   C4A33963  17.298  12.786   7.350
20480POPC   C1B33964  17.508  12.855   6.450
20480POPC   C2B33965  17.473  12.891   6.750
20480POPC   C3B33966  17.521  12.887   7.050
20480POPC   C4B33967  17.517  12.868   7.350
20481POPC   NC333968  13.288   1.179   5.550
20481POPC   PO433969  13.288   1.205   5.850
20481POPC   GL133970  13.222   1.182   6.150
20481POPC   GL233971  13.219   1.279   6.150
20481POPC   C1A33972  13.215   1.172   6.450
20481POPC   D2A33973  13.206   1.171   6.750
20481POPC   C3A33974  13.214   1.208   7.050
20481POPC   C4A33975  13.224   1.235   7.350
20481POPC   C1B33976  13.073   1.451   6.450
20481POPC   C2B33977  13.061   1.403   6.750
20481POPC   C3B33978  13.101   1.397   7.050
20481POPC   C4B33979  13.056   1.450   7.350
20482POPC   NC333980  18.073  11.193   5.550
20482POPC   PO433981  18.002  11.227   5.850
20482POPC   GL133982  18.001  11.202   6.150
20482POPC   GL233983  17.899  11.287   6.150
20482POPC   C1A33984  18.091  11.236   6.450
20482POPC   D2A33985  18.053  11.234   6.750
20482POPC   C3A33986  18.023  11.161   7.050
20482POPC   C4A33987  18.098  11.233   7.350
20482POPC   C1B33988  17.778  11.323   6.450
20482POPC   C2B33989  17.844  11.279   6.750
20482POPC   C3B33990  17.851  11.230   7.050
20482POPC   C4B33991  17.794  11.236   7.350
20483POPC   NC333992  18.876   1.249   5.550
20483POPC   PO433993  18.893   1.156   5.850
20483POPC   GL133994  18.898   1.247   6.150
20483POPC   GL233995  18.818   1.326   6.150
20483POPC   C1A33996  18.849   1.234   6.450
20483POPC   D2A33997  18.889   1.242   6.750
20483POPC   C3A33998  18.816   1.207   7.050
20483POPC   C4A33999  18.857   1.229   7.350
20483POPC   C1B34000  18.735   1.392   6.450
20483POPC   C2B34001  18.677   1.441   6.750
20483POPC   C3B34002  18.665   1.377   7.050
20483POPC   C4B34003  18.702   1.392   7.350
20484POPC   NC334004  14.095   4.294   5.550
20484POPC   PO434005  14.080   4.330   5.850
20484POPC   GL134006  14.094   4.314   6.150
20484POPC   GL234007  14.184   4.305   6.150
20484POPC   C1A34008  14.035   4.261   6.450
20484POPC   D2A34009  14.040   4.266   6.750
20484POPC   C3A34010  14.002   4.314   7.050
20484POPC   C4A34011  14.099   4.248   7.350
20484POPC   C1B34012  14.267   4.221   6.450
20484POPC   C2B34013  14.252   4.298   6.750
20484POPC   C3B34014  14.271   4.210   7.050
20484POPC   C4B34015  14.293   4.242   7.350
20485POPC   NC334016  18.028   2.742   5.550
20485POPC   PO434017  18.037   2.738   5.850
20485POPC   GL134018  18.019   2.699   6.150
20485POPC   GL234019  18.103   2.643   6.150
20485POPC   C1A34020  18.007   2.757   6.450
20485POPC   D2A34021  18.020   2.711   6.750
20485POPC   C3A34022  18.090   2.739   7.050
20485POPC   C4A34023  18.050   2.708   7.350
20485POPC   C1B34024  18.175   2.543   6.450
20485POPC   C2B34025  18.232   2.570   6.750
20485POPC   C3B34026  18.211   2.539   7.050
20485POPC   C4B34027  18.174   2.570   7.350
20486POPC   NC334028  15.606  15.830   5.550
20486POPC   PO434029  15.665  15.821   5.850
20486POPC   GL134030  15.649  15.826   6.150
20486POPC   GL234031  15.679  15.893   6.150
20486POPC   C1A34032  15.634  15.789   6.450
20486POPC   D2A34033  15.690  15.846   6.750
20486POPC   C3A34034  15.606  15.865   7.050
20486POPC   C4A34035  15.639  15.780   7.350
20486POPC   C1B34036  15.747  16.088   6.450
20486POPC   C2B34037  15.685  16.075   6.750
20486POPC   C3B34038  15.726  16.023   7.050
20486POPC   C4B34039  15.744  16.063   7.350
20487POPC   NC334040  14.853  19.699   5.550
20487POPC   PO434041  14.831  19.714   5.850
20487POPC   GL134042  14.838  19.652   6.150
20487POPC   GL234043  14.958  19.626   6.150
20487POPC   C1A34044  14.879  19.697   6.450
20487POPC   D2A34045  14.827  19.662   6.750
20487POPC   C3A34046  14.825  19.642   7.050
20487POPC   C4A34047  14.875  19.704   7.350
20487POPC   C1B34048  15.125  19.527   6.450
20487POPC   C2B34049  15.121  19.595   6.750
20487POPC   C3B34050  15.101  19.584   7.050
20487POPC   C4B34051  15.106  19.592   7.350
20488POPC   NC334052  17.238   7.371   5.550
20488POPC   PO434053  17.233   7.308   5.850
20488POPC   GL134054  17.264   7.314   6.150
20488POPC   GL234055  17.265   7.219   6.150
20488POPC   C1A34056  17.253   7.343   6.450
20488POPC   D2A34057  17.237   7.368   6.750
20488POPC   C3A34058  17.274   7.358   7.050
20488POPC   C4A34059  17.257   7.336   7.350
20488POPC   C1B34060  17.315   7.160   6.450
20488POPC   C2B34061  17.335   7.154   6.750
20488POPC   C3B34062  17.254   7.088   7.050
20488POPC   C4B34063  17.330   7.159   7.350
20489POPC   NC334064  17.287  11.970   5.550
20489POPC   PO434065  17.290  11.967   5.850
20489POPC   GL134066  17.256  11.975   6.150
20489POPC   GL234067  17.360  12.122   6.150
20489POPC   C1A34068  17.225  11.962   6.450
20489POPC   D2A34069  17.276  12.020   6.750
20489POPC   C3A34070  17.229  11.938   7.050
20489POPC   C4A34071  17.237  11.934   7.350
20489POPC   C1B34072  17.351  12.200   6.450
20489POPC   C2B34073  17.335  12.186   6.750
20489POPC   C3B34074  17.340  12.186   7.050
20489POPC   C4B34075  17.423  12.153   7.350
20490POPC   NC334076  18.056  13.487   5.550
20490POPC   PO434077  18.080  13.559   5.850
20490POPC   GL134078  18.036  13.473   6.150
20490POPC   GL234079  18.024  13.420   6.150
20490POPC   C1A34080  18.074  13.473   6.450
20490POPC   D2A34081  18.011  13.511   6.750
20490POPC   C3A34082  18.076  13.517   7.050
20490POPC   C4A34083  18.076  13.553   7.350
20490POPC   C1B34084  17.904  13.296   6.450
20490POPC   C2B34085  17.875  13.354   6.750
20490POPC   C3B34086  17.851  13.315   7.050
20490POPC   C4B34087  17.900  13.340   7.350
20491POPC   NC334088  18.892  15.068   5.550
20491POPC   PO434089  18.853  15.082   5.850
20491POPC   GL134090  18.828  15.029   6.150
20491POPC   GL234091  18.943  15.133   6.150
20491POPC   C1A34092  18.897  15.034   6.450
20491POPC   D2A34093  18.890  15.048   6.750
20491POPC   C3A34094  18.866  15.028   7.050
20491POPC   C4A34095  18.837  15.024   7.350
20491POPC   C1B34096  19.107  15.187   6.450
20491POPC   C2B34097  19.048  15.165   6.750
20491POPC   C3B34098  19.076  15.189   7.050
20491POPC   C4B34099  19.074  15.214   7.350
20492POPC   NC334100  14.058   5.092   5.550
20492POPC   PO434101  14.076   5.014   5.850
20492POPC   GL134102  14.038   5.099   6.150
20492POPC   GL234103  13.974   5.024   6.150
20492POPC   C1A34104  14.093   5.004   6.450
20492POPC   D2A34105  14.050   5.035   6.750
20492POPC   C3A34106  14.078   5.048   7.050
20492POPC   C4A34107  14.023   5.058   7.350
20492POPC   C1B34108  13.756   4.954   6.450
20492POPC   C2B34109  13.840   4.959   6.750
20492POPC   C3B34110  13.827   5.025   7.050
20492POPC   C4B34111  13.759   4.994   7.350
20493YOPC   NC334112  13.248   7.312   5.550
20493YOPC   PO434113  13.238   7.402   5.850
20493YOPC   GL134114  13.289   7.407   6.150
20493YOPC   GL234115  13.401   7.323   6.150
20493YOPC   C1A34116  13.266   7.397   6.450
20493YOPC   D2A34117  13.287   7.343   6.750
20493YOPC   C3A34118  13.239   7.361   7.050
20493YOPC   C4A34119  13.227   7.405   7.350
20493YOPC   C1B34120  13.471   7.366   6.450
20493YOPC   C2B34121  13.520   7.402   6.750
20493YOPC   D3B34122  13.462   7.410   7.050
20493YOPC   C4B34123  13.465   7.361   7.350
20494YOPC   NC334124  18.051  18.885   5.550
20494YOPC   PO434125  18.078  18.906   5.850
20494YOPC   GL134126  18.027  18.930   6.150
20494YOPC   GL234127  17.883  18.936   6.150
20494YOPC   C1A34128  18.012  18.905   6.450
20494YOPC   D2A34129  18.011  18.860   6.750
20494YOPC   C3A34130  18.062  18.882   7.050
20494YOPC   C4A34131  18.027  18.945   7.350
20494YOPC   C1B34132  17.799  18.895   6.450
20494YOPC   C2B34133  17.838  18.886   6.750
20494YOPC   D3B34134  17.782  18.895   7.050
20494YOPC   C4B34135  17.800  18.939   7.350
20495YOPC   NC334136  15.694  14.237   5.550
20495YOPC   PO434137  15.691  14.260   5.850
20495YOPC   GL134138  15.662  14.257   6.150
20495YOPC   GL234139  15.694  14.220   6.150
20495YOPC   C1A34140  15.686  14.316   6.450
20495YOPC   D2A34141  15.626  14.317   6.750
20495YOPC   C3A34142  15.682  14.251   7.050
20495YOPC   C4A34143  15.604  14.292   7.350
20495YOPC   C1B34144  15.787  14.033   6.450
20495YOPC   C2B34145  15.831  14.054   6.750
20495YOPC   D3B34146  15.792  14.049   7.050
20495YOPC   C4B34147  15.775  14.102   7.350
20496YOPC   NC334148  15.695   5.004   5.550
20496YOPC   PO434149  15.683   5.055   5.850
20496YOPC   GL134150  15.640   5.020   6.150
20496YOPC   GL234151  15.647   5.157   6.150
20496YOPC   C1A34152  15.662   5.088   6.450
20496YOPC   D2A34153  15.607   5.036   6.750
20496YOPC   C3A34154  15.674   5.030   7.050
20496YOPC   C4A34155  15.655   5.074   7.350
20496YOPC   C1B34156  15.665   5.329   6.450
20496YOPC   C2B34157  15.712   5.319   6.750
20496YOPC   D3B34158  15.666   5.244   7.050
20496YOPC   C4B34159  15.679   5.260   7.350
20497YOPC   NC334160  14.077  10.439   5.550
20497YOPC   PO434161  14.072  10.395   5.850
20497YOPC   GL134162  14.098  10.479   6.150
20497YOPC   GL234163  14.075  10.574   6.150
20497YOPC   C1A34164  14.069  10.448   6.450
20497YOPC   D2A34165  14.071  10.463   6.750
20497YOPC   C3A34166  14.046  10.412   7.050
20497YOPC   C4A34167  14.099  10.479   7.350
20497YOPC   C1B34168  14.190  10.669   6.450
20497YOPC   C2B34169  14.158  10.620   6.750
20497YOPC   D3B34170  14.223  10.673   7.050
20497YOPC   C4B34171  14.159  10.644   7.350
20498YOPC   NC334172  14.854  11.996   5.550
20498YOPC   PO434173  14.827  11.961   5.850
20498YOPC   GL134174  14.820  11.950   6.150
20498YOPC   GL234175  14.765  11.846   6.150
20498YOPC   C1A34176  14.868  11.958   6.450
20498YOPC   D2A34177  14.852  11.942   6.750
20498YOPC   C3A34178  14.895  12.002   7.050
20498YOPC   C4A34179  14.884  12.019   7.350
20498YOPC   C1B34180  14.692  11.799   6.450
20498YOPC   C2B34181  14.668  11.740   6.750
20498YOPC   D3B34182  14.702  11.780   7.050
20498YOPC   C4B34183  14.641  11.754   7.350
20499YOPC   NC334184  19.605   2.739   5.550
20499YOPC   PO434185  19.603   2.763   5.850
20499YOPC   GL134186  19.664   2.791   6.150
20499YOPC   GL234187  19.672   2.649   6.150
20499YOPC   C1A34188  19.614   2.730   6.450
20499YOPC   D2A34189  19.670   2.696   6.750
20499YOPC   C3A34190  19.662   2.707   7.050
20499YOPC   C4A34191  19.698   2.762   7.350
20499YOPC   C1B34192  19.706   2.520   6.450
20499YOPC   C2B34193  19.659   2.446   6.750
20499YOPC   D3B34194  19.651   2.480   7.050
20499YOPC   C4B34195  19.670   2.458   7.350
20500YOPC   NC334196  12.494   1.974   5.550
20500YOPC   PO434197  12.407   2.010   5.850
20500YOPC   GL134198  12.402   1.940   6.150
20500YOPC   GL234199  12.516   2.109   6.150
20500YOPC   C1A34200  12.407   1.946   6.450
20500YOPC   D2A34201  12.410   2.016   6.750
20500YOPC   C3A34202  12.445   1.950   7.050
20500YOPC   C4A34203  12.453   2.000   7.350
20500YOPC   C1B34204  12.509   2.207   6.450
20500YOPC   C2B34205  12.518   2.236   6.750
20500YOPC   D3B34206  12.570   2.217   7.050
20500YOPC   C4B34207  12.504   2.231   7.350
20501YOPC   NC334208  14.042  15.065   5.550
20501YOPC   PO434209  14.092  15.046   5.850
20501YOPC   GL134210  14.082  15.014   6.150
20501YOPC   GL234211  13.916  15.088   6.150
20501YOPC   C1A34212  14.034  15.092   6.450
20501YOPC   D2A34213  14.037  15.030   6.750
20501YOPC   C3A34214  14.095  15.059   7.050
20501YOPC   C4A34215  14.016  15.088   7.350
20501YOPC   C1B34216  13.844  15.016   6.450
20501YOPC   C2B34217  13.764  14.999   6.750
20501YOPC   D3B34218  13.831  15.033   7.050
20501YOPC   C4B34219  13.846  15.078   7.350
20502YOPC   NC334220  16.457   1.969   5.550
20502YOPC   PO434221  16.486   1.949   5.850
20502YOPC   GL134222  16.475   1.978   6.150
20502YOPC   GL234223  16.329   1.854   6.150
20502YOPC   C1A34224  16.421   1.930   6.450
20502YOPC   D2A34225  16.468   2.022   6.750
20502YOPC   C3A34226  16.444   2.013   7.050
20502YOPC   C4A34227  16.495   1.955   7.350
20502YOPC   C1B34228  16.312   1.824   6.450
20502YOPC   C2B34229  16.300   1.760   6.750
20502YOPC   D3B34230  16.245   1.840   7.050
20502YOPC   C4B34231  16.250   1.762   7.350
20503YOPC   NC334232  15.647   1.168   5.550
20503YOPC   PO434233  15.678   1.234   5.850
20503YOPC   GL134234  15.649   1.232   6.150
20503YOPC   GL234235  15.737   1.195   6.150
20503YOPC   C1A34236  15.655   1.221   6.450
20503YOPC   D2A34237  15.625   1.179   6.750
20503YOPC   C3A34238  15.611   1.196   7.050
20503YOPC   C4A34239  15.655   1.252   7.350
20503YOPC   C1B34240  15.855   1.124   6.450
20503YOPC   C2B34241  15.861   1.148   6.750
20503YOPC   D3B34242  15.879   1.158   7.050
20503YOPC   C4B34243  15.858   1.112   7.350
20504YOPC   NC334244  16.488   5.046   5.550
20504YOPC   PO434245  16.497   5.094   5.850
20504YOPC   GL134246  16.418   5.044   6.150
20504YOPC   GL234247  16.356   5.073   6.150
20504YOPC   C1A34248  16.482   5.021   6.450
20504YOPC   D2A34249  16.463   5.024   6.750
20504YOPC   C3A34250  16.436   5.080   7.050
20504YOPC   C4A34251  16.458   5.033   7.350
20504YOPC   C1B34252  16.252   5.155   6.450
20504YOPC   C2B34253  16.228   5.070   6.750
20504YOPC   D3B34254  16.163   5.080   7.050
20504YOPC   C4B34255  16.190   5.137   7.350
20505YOPC   NC334256  15.624   3.483   5.550
20505YOPC   PO434257  15.623   3.475   5.850
20505YOPC   GL134258  15.607   3.506   6.150
20505YOPC   GL234259  15.677   3.635   6.150
20505YOPC   C1A34260  15.688   3.502   6.450
20505YOPC   D2A34261  15.652   3.493   6.750
20505YOPC   C3A34262  15.619   3.554   7.050
20505YOPC   C4A34263  15.639   3.536   7.350
20505YOPC   C1B34264  15.795   3.768   6.450
20505YOPC   C2B34265  15.752   3.760   6.750
20505YOPC   D3B34266  15.796   3.722   7.050
20505YOPC   C4B34267  15.727   3.761   7.350
20506YOPC   NC334268  16.444  13.472   5.550
20506YOPC   PO434269  16.486  13.483   5.850
20506YOPC   GL134270  16.404  13.514   6.150
20506YOPC   GL234271  16.434  13.681   6.150
20506YOPC   C1A34272  16.443  13.472   6.450
20506YOPC   D2A34273  16.439  13.550   6.750
20506YOPC   C3A34274  16.444  13.535   7.050
20506YOPC   C4A34275  16.419  13.511   7.350
20506YOPC   C1B34276  16.412  13.753   6.450
20506YOPC   C2B34277  16.364  13.724   6.750
20506YOPC   D3B34278  16.376  13.781   7.050
20506YOPC   C4B34279  16.421  13.714   7.350
20507YOPC   NC334280  18.861  13.524   5.550
20507YOPC   PO434281  18.848  13.533   5.850
20507YOPC   GL134282  18.854  13.468   6.150
20507YOPC   GL234283  18.909  13.623   6.150
20507YOPC   C1A34284  18.874  13.525   6.450
20507YOPC   D2A34285  18.844  13.480   6.750
20507YOPC   C3A34286  18.856  13.463   7.050
20507YOPC   C4A34287  18.849  13.480   7.350
20507YOPC   C1B34288  18.940  13.737   6.450
20507YOPC   C2B34289  18.872  13.796   6.750
20507YOPC   D3B34290  18.959  13.799   7.050
20507YOPC   C4B34291  18.912  13.729   7.350
20508YOPC   NC334292  12.466  11.207   5.550
20508YOPC   PO434293  12.442  11.189   5.850
20508YOPC   GL134294  12.453  11.204   6.150
20508YOPC   GL234295  12.391  11.323   6.150
20508YOPC   C1A34296  12.431  11.254   6.450
20508YOPC   D2A34297  12.440  11.158   6.750
20508YOPC   C3A34298  12.426  11.217   7.050
20508YOPC   C4A34299  12.473  11.159   7.350
20508YOPC   C1B34300  12.385  11.462   6.450
20508YOPC   C2B34301  12.364  11.452   6.750
20508YOPC   D3B34302  12.324  11.458   7.050
20508YOPC   C4B34303  12.332  11.419   7.350
20509YOPC   NC334304  14.059  11.967   5.550
20509YOPC   PO434305  14.049  11.995   5.850
20509YOPC   GL134306  14.001  11.935   6.150
20509YOPC   GL234307  13.895  11.998   6.150
20509YOPC   C1A34308  14.032  12.001   6.450
20509YOPC   D2A34309  14.050  11.966   6.750
20509YOPC   C3A34310  14.092  12.008   7.050
20509YOPC   C4A34311  14.077  11.993   7.350
20509YOPC   C1B34312  13.785  12.063   6.450
20509YOPC   C2B34313  13.826  12.123   6.750
20509YOPC   D3B34314  13.868  12.128   7.050
20509YOPC   C4B34315  13.852  12.113   7.350
20510YOPC   NC334316  14.883  12.713   5.550
20510YOPC   PO434317  14.837  12.757   5.850
20510YOPC   GL134318  14.858  12.695   6.150
20510YOPC   GL234319  14.810  12.605   6.150
20510YOPC   C1A34320  14.833  12.711   6.450
20510YOPC   D2A34321  14.852  12.723   6.750
20510YOPC   C3A34322  14.858  12.789   7.050
20510YOPC   C4A34323  14.813  12.741   7.350
20510YOPC   C1B34324  14.845  12.514   6.450
20510YOPC   C2B34325  14.836  12.523   6.750
20510YOPC   D3B34326  14.821  12.453   7.050
20510YOPC   C4B34327  14.825  12.493   7.350
20511YOPC   NC334328  18.031  18.146   5.550
20511YOPC   PO434329  18.075  18.105   5.850
20511YOPC   GL134330  18.022  18.125   6.150
20511YOPC   GL234331  18.004  18.201   6.150
20511YOPC   C1A34332  18.087  18.125   6.450
20511YOPC   D2A34333  18.000  18.144   6.750
20511YOPC   C3A34334  18.062  18.166   7.050
20511YOPC   C4A34335  18.059  18.091   7.350
20511YOPC   C1B34336  18.004  18.358   6.450
20511YOPC   C2B34337  18.001  18.413   6.750
20511YOPC   D3B34338  17.962  18.364   7.050
20511YOPC   C4B34339  17.944  18.375   7.350
20512YOPC   NC334340  18.801   5.864   5.550
20512YOPC   PO434341  18.840   5.775   5.850
20512YOPC   GL134342  18.856   5.853   6.150
20512YOPC   GL234343  18.786   5.897   6.150
20512YOPC   C1A34344  18.844   5.859   6.450
20512YOPC   D2A34345  18.822   5.827   6.750
20512YOPC   C3A34346  18.889   5.770   7.050
20512YOPC   C4A34347  18.888   5.775   7.350
20512YOPC   C1B34348  18.691   6.052   6.450
20512YOPC   C2B34349  18.692   5.978   6.750
20512YOPC   D3B34350  18.691   6.072   7.050
20512YOPC   C4B34351  18.691   6.033   7.350
20513YOPC   NC334352  13.285   4.303   5.550
20513YOPC   PO434353  13.298   4.295   5.850
20513YOPC   GL134354  13.282   4.295   6.150
20513YOPC   GL234355  13.100   4.255   6.150
20513YOPC   C1A34356  13.280   4.330   6.450
20513YOPC   D2A34357  13.202   4.281   6.750
20513YOPC   C3A34358  13.230   4.289   7.050
20513YOPC   C4A34359  13.256   4.308   7.350
20513YOPC   C1B34360  13.018   4.344   6.450
20513YOPC   C2B34361  13.048   4.284   6.750
20513YOPC   D3B34362  12.979   4.300   7.050
20513YOPC   C4B34363  13.026   4.318   7.350
20514YOPC   NC334364  14.886   3.550   5.550
20514YOPC   PO434365  14.811   3.519   5.850
20514YOPC   GL134366  14.803   3.475   6.150
20514YOPC   GL234367  14.932   3.367   6.150
20514YOPC   C1A34368  14.850   3.546   6.450
20514YOPC   D2A34369  14.885   3.513   6.750
20514YOPC   C3A34370  14.835   3.542   7.050
20514YOPC   C4A34371  14.800   3.473   7.350
20514YOPC   C1B34372  14.890   3.236   6.450
20514YOPC   C2B34373  14.973   3.312   6.750
20514YOPC   D3B34374  14.966   3.261   7.050
20514YOPC   C4B34375  14.882   3.275   7.350
20515YOPC   NC334376  14.837  17.338   5.550
20515YOPC   PO434377  14.880  17.329   5.850
20515YOPC   GL134378  14.808  17.367   6.150
20515YOPC   GL234379  14.847  17.199   6.150
20515YOPC   C1A34380  14.856  17.392   6.450
20515YOPC   D2A34381  14.885  17.314   6.750
20515YOPC   C3A34382  14.812  17.390   7.050
20515YOPC   C4A34383  14.851  17.364   7.350
20515YOPC   C1B34384  14.860  17.089   6.450
20515YOPC   C2B34385  14.920  17.099   6.750
20515YOPC   D3B34386  14.875  17.144   7.050
20515YOPC   C4B34387  14.858  17.154   7.350
20516YOPC   NC334388  14.006   1.220   5.550
20516YOPC   PO434389  14.059   1.175   5.850
20516YOPC   GL134390  14.011   1.179   6.150
20516YOPC   GL234391  13.992   1.098   6.150
20516YOPC   C1A34392  14.065   1.240   6.450
20516YOPC   D2A34393  14.020   1.205   6.750
20516YOPC   C3A34394  14.060   1.215   7.050
20516YOPC   C4A34395  14.055   1.218   7.350
20516YOPC   C1B34396  14.000   0.965   6.450
20516YOPC   C2B34397  14.063   0.999   6.750
20516YOPC   D3B34398  14.062   0.918   7.050
20516YOPC   C4B34399  14.044   0.964   7.350
20517YOPC   NC334400  16.404  11.173   5.550
20517YOPC   PO434401  16.486  11.231   5.850
20517YOPC   GL134402  16.410  11.225   6.150
20517YOPC   GL234403  16.536  11.223   6.150
20517YOPC   C1A34404  16.478  11.163   6.450
20517YOPC   D2A34405  16.481  11.180   6.750
20517YOPC   C3A34406  16.460  11.226   7.050
20517YOPC   C4A34407  16.454  11.252   7.350
20517YOPC   C1B34408  16.696  11.273   6.450
20517YOPC   C2B34409  16.686  11.264   6.750
20517YOPC   D3B34410  16.697  11.320   7.050
20517YOPC   C4B34411  16.656  11.320   7.350
20518YOPC   NC334412  14.847   0.475   5.550
20518YOPC   PO434413  14.869   0.399   5.850
20518YOPC   GL134414  14.856   0.387   6.150
20518YOPC   GL234415  14.771   0.351   6.150
20518YOPC   C1A34416  14.873   0.483   6.450
20518YOPC   D2A34417  14.826   0.465   6.750
20518YOPC   C3A34418  14.807   0.421   7.050
20518YOPC   C4A34419  14.823   0.459   7.350
20518YOPC   C1B34420  14.759   0.260   6.450
20518YOPC   C2B34421  14.758   0.266   6.750
20518YOPC   D3B34422  14.738   0.188   7.050
20518YOPC   C4B34423  14.752   0.256   7.350
20519YOPC   NC334424  15.644  11.948   5.550
20519YOPC   PO434425  15.606  11.986   5.850
20519YOPC   GL134426  15.603  12.002   6.150
20519YOPC   GL234427  15.569  11.861   6.150
20519YOPC   C1A34428  15.609  11.934   6.450
20519YOPC   D2A34429  15.658  11.930   6.750
20519YOPC   C3A34430  15.662  11.995   7.050
20519YOPC   C4A34431  15.659  11.987   7.350
20519YOPC   C1B34432  15.474  11.820   6.450
20519YOPC   C2B34433  15.471  11.813   6.750
20519YOPC   D3B34434  15.399  11.873   7.050
20519YOPC   C4B34435  15.399  11.806   7.350
20520YOPC   NC334436  14.832   5.085   5.550
20520YOPC   PO434437  14.808   5.052   5.850
20520YOPC   GL134438  14.875   5.006   6.150
20520YOPC   GL234439  14.980   4.993   6.150
20520YOPC   C1A34440  14.898   5.058   6.450
20520YOPC   D2A34441  14.879   5.094   6.750
20520YOPC   C3A34442  14.876   5.023   7.050
20520YOPC   C4A34443  14.895   5.056   7.350
20520YOPC   C1B34444  15.023   4.968   6.450
20520YOPC   C2B34445  15.094   4.946   6.750
20520YOPC   D3B34446  15.068   4.905   7.050
20520YOPC   C4B34447  15.095   4.929   7.350
20521YOPC   NC334448  13.264  10.438   5.550
20521YOPC   PO434449  13.289  10.440   5.850
20521YOPC   GL134450  13.288  10.477   6.150
20521YOPC   GL234451  13.106  10.389   6.150
20521YOPC   C1A34452  13.236  10.391   6.450
20521YOPC   D2A34453  13.251  10.431   6.750
20521YOPC   C3A34454  13.236  10.399   7.050
20521YOPC   C4A34455  13.225  10.457   7.350
20521YOPC   C1B34456  12.958  10.400   6.450
20521YOPC   C2B34457  13.014  10.333   6.750
20521YOPC   D3B34458  13.051  10.361   7.050
20521YOPC   C4B34459  13.028  10.367   7.350
20522YOPC   NC334460  17.280   6.588   5.550
20522YOPC   PO434461  17.255   6.620   5.850
20522YOPC   GL134462  17.270   6.586   6.150
20522YOPC   GL234463  17.328   6.487   6.150
20522YOPC   C1A34464  17.216   6.620   6.450
20522YOPC   D2A34465  17.282   6.604   6.750
20522YOPC   C3A34466  17.245   6.614   7.050
20522YOPC   C4A34467  17.238   6.610   7.350
20522YOPC   C1B34468  17.475   6.421   6.450
20522YOPC   C2B34469  17.443   6.508   6.750
20522YOPC   D3B34470  17.481   6.438   7.050
20522YOPC   C4B34471  17.497   6.456   7.350
20523YOPC   NC334472  15.662   5.803   5.550
20523YOPC   PO434473  15.657   5.845   5.850
20523YOPC   GL134474  15.666   5.827   6.150
20523YOPC   GL234475  15.599   5.697   6.150
20523YOPC   C1A34476  15.665   5.848   6.450
20523YOPC   D2A34477  15.632   5.771   6.750
20523YOPC   C3A34478  15.619   5.863   7.050
20523YOPC   C4A34479  15.678   5.812   7.350
20523YOPC   C1B34480  15.602   5.582   6.450
20523YOPC   C2B34481  15.656   5.605   6.750
20523YOPC   D3B34482  15.594   5.570   7.050
20523YOPC   C4B34483  15.649   5.615   7.350
20524YOPC   NC334484  17.297   2.708   5.550
20524YOPC   PO434485  17.252   2.762   5.850
20524YOPC   GL134486  17.215   2.710   6.150
20524YOPC   GL234487  17.268   2.832   6.150
20524YOPC   C1A34488  17.250   2.754   6.450
20524YOPC   D2A34489  17.275   2.758   6.750
20524YOPC   C3A34490  17.251   2.748   7.050
20524YOPC   C4A34491  17.241   2.719   7.350
20524YOPC   C1B34492  17.163   2.963   6.450
20524YOPC   C2B34493  17.138   3.007   6.750
20524YOPC   D3B34494  17.173   3.023   7.050
20524YOPC   C4B34495  17.237   3.002   7.350
20525YOPC   NC334496  14.893   5.775   5.550
20525YOPC   PO434497  14.828   5.783   5.850
20525YOPC   GL134498  14.810   5.809   6.150
20525YOPC   GL234499  14.915   5.949   6.150
20525YOPC   C1A34500  14.817   5.819   6.450
20525YOPC   D2A34501  14.837   5.825   6.750
20525YOPC   C3A34502  14.822   5.844   7.050
20525YOPC   C4A34503  14.835   5.798   7.350
20525YOPC   C1B34504  15.010   6.023   6.450
20525YOPC   C2B34505  14.980   5.972   6.750
20525YOPC   D3B34506  15.046   5.964   7.050
20525YOPC   C4B34507  15.013   6.022   7.350
20526YOPC   NC334508  14.846   4.283   5.550
20526YOPC   PO434509  14.889   4.285   5.850
20526YOPC   GL134510  14.812   4.293   6.150
20526YOPC   GL234511  14.718   4.328   6.150
20526YOPC   C1A34512  14.880   4.265   6.450
20526YOPC   D2A34513  14.874   4.324   6.750
20526YOPC   C3A34514  14.803   4.242   7.050
20526YOPC   C4A34515  14.829   4.267   7.350
20526YOPC   C1B34516  14.593   4.368   6.450
20526YOPC   C2B34517  14.575   4.313   6.750
20526YOPC   D3B34518  14.563   4.286   7.050
20526YOPC   C4B34519  14.572   4.307   7.350
20527YOPC   NC334520  14.900  15.812   5.550
20527YOPC   PO434521  14.872  15.809   5.850
20527YOPC   GL134522  14.892  15.790   6.150
20527YOPC   GL234523  14.887  15.660   6.150
20527YOPC   C1A34524  14.864  15.861   6.450
20527YOPC   D2A34525  14.846  15.769   6.750
20527YOPC   C3A34526  14.832  15.824   7.050
20527YOPC   C4A34527  14.850  15.805   7.350
20527YOPC   C1B34528  14.907  15.572   6.450
20527YOPC   C2B34529  14.882  15.578   6.750
20527YOPC   D3B34530  14.934  15.585   7.050
20527YOPC   C4B34531  14.906  15.625   7.350
20528YOPC   NC334532  16.409   0.411   5.550
20528YOPC   PO434533  16.488   0.441   5.850
20528YOPC   GL134534  16.481   0.393   6.150
20528YOPC   GL234535  16.398   0.275   6.150
20528YOPC   C1A34536  16.433   0.459   6.450
20528YOPC   D2A34537  16.427   0.407   6.750
20528YOPC   C3A34538  16.481   0.403   7.050
20528YOPC   C4A34539  16.410   0.440   7.350
20528YOPC   C1B34540  16.400   0.202   6.450
20528YOPC   C2B34541  16.401   0.196   6.750
20528YOPC   D3B34542  16.383   0.223   7.050
20528YOPC   C4B34543  16.417   0.157   7.350
20529YOPC   NC334544  17.284  14.288   5.550
20529YOPC   PO434545  17.223  14.265   5.850
20529YOPC   GL134546  17.284  14.328   6.150
20529YOPC   GL234547  17.390  14.322   6.150
20529YOPC   C1A34548  17.212  14.322   6.450
20529YOPC   D2A34549  17.285  14.235   6.750
20529YOPC   C3A34550  17.220  14.290   7.050
20529YOPC   C4A34551  17.291  14.247   7.350
20529YOPC   C1B34552  17.523  14.291   6.450
20529YOPC   C2B34553  17.493  14.325   6.750
20529YOPC   D3B34554  17.522  14.289   7.050
20529YOPC   C4B34555  17.492  14.347   7.350
20530YOPC   NC334556  13.224  11.966   5.550
20530YOPC   PO434557  13.234  11.988   5.850
20530YOPC   GL134558  13.273  11.988   6.150
20530YOPC   GL234559  13.143  12.030   6.150
20530YOPC   C1A34560  13.292  11.966   6.450
20530YOPC   D2A34561  13.268  12.007   6.750
20530YOPC   C3A34562  13.294  11.954   7.050
20530YOPC   C4A34563  13.288  11.978   7.350
20530YOPC   C1B34564  13.059  12.167   6.450
20530YOPC   C2B34565  13.037  12.085   6.750
20530YOPC   D3B34566  13.071  12.177   7.050
20530YOPC   C4B34567  13.058  12.181   7.350
20531YOPC   NC334568  18.035  17.405   5.550
20531YOPC   PO434569  18.088  17.355   5.850
20531YOPC   GL134570  18.019  17.401   6.150
20531YOPC   GL234571  18.121  17.341   6.150
20531YOPC   C1A34572  18.050  17.392   6.450
20531YOPC   D2A34573  18.026  17.388   6.750
20531YOPC   C3A34574  18.066  17.321   7.050
20531YOPC   C4A34575  18.078  17.398   7.350
20531YOPC   C1B34576  18.264  17.233   6.450
20531YOPC   C2B34577  18.322  17.298   6.750
20531YOPC   D3B34578  18.297  17.244   7.050
20531YOPC   C4B34579  18.292  17.287   7.350
20532YOPC   NC334580  18.060   7.401   5.550
20532YOPC   PO434581  18.039   7.321   5.850
20532YOPC   GL134582  18.030   7.354   6.150
20532YOPC   GL234583  17.921   7.409   6.150
20532YOPC   C1A34584  18.046   7.371   6.450
20532YOPC   D2A34585  18.100   7.393   6.750
20532YOPC   C3A34586  18.007   7.394   7.050
20532YOPC   C4A34587  18.004   7.310   7.350
20532YOPC   C1B34588  17.820   7.499   6.450
20532YOPC   C2B34589  17.807   7.534   6.750
20532YOPC   D3B34590  17.860   7.535   7.050
20532YOPC   C4B34591  17.864   7.548   7.350
20533YOPC   NC334592  15.680  10.448   5.550
20533YOPC   PO434593  15.695  10.445   5.850
20533YOPC   GL134594  15.604  10.464   6.150
20533YOPC   GL234595  15.598  10.336   6.150
20533YOPC   C1A34596  15.624  10.403   6.450
20533YOPC   D2A34597  15.622  10.484   6.750
20533YOPC   C3A34598  15.666  10.387   7.050
20533YOPC   C4A34599  15.608  10.401   7.350
20533YOPC   C1B34600  15.543  10.197   6.450
20533YOPC   C2B34601  15.525  10.230   6.750
20533YOPC   D3B34602  15.539  10.247   7.050
20533YOPC   C4B34603  15.502  10.231   7.350
20534YOPC   NC334604  16.427  18.926   5.550
20534YOPC   PO434605  16.458  18.946   5.850
20534YOPC   GL134606  16.461  18.857   6.150
20534YOPC   GL234607  16.318  18.875   6.150
20534YOPC   C1A34608  16.492  18.905   6.450
20534YOPC   D2A34609  16.469  18.860   6.750
20534YOPC   C3A34610  16.467  18.916   7.050
20534YOPC   C4A34611  16.494  18.934   7.350
20534YOPC   C1B34612  16.249  18.883   6.450
20534YOPC   C2B34613  16.165  18.874   6.750
20534YOPC   D3B34614  16.170  18.825   7.050
20534YOPC   C4B34615  16.195  18.819   7.350
20535YOPC   NC334616  18.026   8.153   5.550
20535YOPC   PO434617  18.003   8.174   5.850
20535YOPC   GL134618  18.007   8.126   6.150
20535YOPC   GL234619  17.912   8.151   6.150
20535YOPC   C1A34620  18.041   8.148   6.450
20535YOPC   D2A34621  18.033   8.078   6.750
20535YOPC   C3A34622  18.063   8.110   7.050
20535YOPC   C4A34623  18.032   8.086   7.350
20535YOPC   C1B34624  17.793   8.213   6.450
20535YOPC   C2B34625  17.884   8.294   6.750
20535YOPC   D3B34626  17.855   8.217   7.050
20535YOPC   C4B34627  17.862   8.240   7.350
20536YOPC   NC334628  12.428   0.444   5.550
20536YOPC   PO434629  12.428   0.425   5.850
20536YOPC   GL134630  12.448   0.477   6.150
20536YOPC   GL234631  12.352   0.383   6.150
20536YOPC   C1A34632  12.477   0.389   6.450
20536YOPC   D2A34633  12.410   0.424   6.750
20536YOPC   C3A34634  12.492   0.388   7.050
20536YOPC   C4A34635  12.490   0.469   7.350
20536YOPC   C1B34636  12.194   0.374   6.450
20536YOPC   C2B34637  12.219   0.338   6.750
20536YOPC   D3B34638  12.188   0.330   7.050
20536YOPC   C4B34639  12.183   0.373   7.350
20537YOPC   NC334640  14.035   2.725   5.550
20537YOPC   PO434641  14.016   2.771   5.850
20537YOPC   GL134642  14.016   2.730   6.150
20537YOPC   GL234643  14.147   2.746   6.150
20537YOPC   C1A34644  14.074   2.761   6.450
20537YOPC   D2A34645  14.018   2.714   6.750
20537YOPC   C3A34646  14.073   2.785   7.050
20537YOPC   C4A34647  14.071   2.724   7.350
20537YOPC   C1B34648  14.270   2.739   6.450
20537YOPC   C2B34649  14.252   2.741   6.750
20537YOPC   D3B34650  14.346   2.747   7.050
20537YOPC   C4B34651  14.262   2.749   7.350
20538YOPC   NC334652  12.408   1.231   5.550
20538YOPC   PO434653  12.497   1.232   5.850
20538YOPC   GL134654  12.474   1.253   6.150
20538YOPC   GL234655  12.557   1.126   6.150
20538YOPC   C1A34656  12.454   1.165   6.450
20538YOPC   D2A34657  12.421   1.208   6.750
20538YOPC   C3A34658  12.431   1.179   7.050
20538YOPC   C4A34659  12.461   1.164   7.350
20538YOPC   C1B34660  12.661   1.131   6.450
20538YOPC   C2B34661  12.666   1.170   6.750
20538YOPC   D3B34662  12.691   1.189   7.050
20538YOPC   C4B34663  12.653   1.134   7.350
20539YOPC   NC334664  19.659   1.157   5.550
20539YOPC   PO434665  19.664   1.180   5.850
20539YOPC   GL134666  19.687   1.172   6.150
20539YOPC   GL234667  19.603   1.049   6.150
20539YOPC   C1A34668  19.605   1.166   6.450
20539YOPC   D2A34669  19.623   1.167   6.750
20539YOPC   C3A34670  19.639   1.188   7.050
20539YOPC   C4A34671  19.648   1.170   7.350
20539YOPC   C1B34672  19.668   0.934   6.450
20539YOPC   C2B34673  19.677   0.952   6.750
20539YOPC   D3B34674  19.606   0.915   7.050
20539YOPC   C4B34675  19.698   0.913   7.350
20540YOPC   NC334676  17.203   1.977   5.550
20540YOPC   PO434677  17.245   2.013   5.850
20540YOPC   GL134678  17.208   1.978   6.150
20540YOPC   GL234679  17.339   1.877   6.150
20540YOPC   C1A34680  17.275   1.985   6.450
20540YOPC   D2A34681  17.296   1.986   6.750
20540YOPC   C3A34682  17.202   1.963   7.050
20540YOPC   C4A34683  17.281   1.940   7.350
20540YOPC   C1B34684  17.457   1.859   6.450
20540YOPC   C2B34685  17.417   1.818   6.750
20540YOPC   D3B34686  17.466   1.867   7.050
20540YOPC   C4B34687  17.467   1.862   7.350
20541YOPC   NC334688  16.459  10.411   5.550
20541YOPC   PO434689  16.461  10.397   5.850
20541YOPC   GL134690  16.477  10.426   6.150
20541YOPC   GL234691  16.326  10.352   6.150
20541YOPC   C1A34692  16.444  10.423   6.450
20541YOPC   D2A34693  16.401  10.462   6.750
20541YOPC   C3A34694  16.408  10.406   7.050
20541YOPC   C4A34695  16.453  10.439   7.350
20541YOPC   C1B34696  16.315  10.271   6.450
20541YOPC   C2B34697  16.227  10.299   6.750
20541YOPC   D3B34698  16.310  10.300   7.050
20541YOPC   C4B34699  16.290  10.209   7.350
20542YOPC   NC334700  14.014  17.399   5.550
20542YOPC   PO434701  14.011  17.310   5.850
20542YOPC   GL134702  14.070  17.322   6.150
20542YOPC   GL234703  14.099  17.225   6.150
20542YOPC   C1A34704  14.035  17.348   6.450
20542YOPC   D2A34705  14.098  17.397   6.750
20542YOPC   C3A34706  14.061  17.373   7.050
20542YOPC   C4A34707  14.094  17.364   7.350
20542YOPC   C1B34708  14.112  17.099   6.450
20542YOPC   C2B34709  14.113  17.117   6.750
20542YOPC   D3B34710  14.163  17.137   7.050
20542YOPC   C4B34711  14.094  17.076   7.350
20543YOPC   NC334712  17.278  13.514   5.550
20543YOPC   PO434713  17.254  13.530   5.850
20543YOPC   GL134714  17.205  13.498   6.150
20543YOPC   GL234715  17.212  13.655   6.150
20543YOPC   C1A34716  17.299  13.499   6.450
20543YOPC   D2A34717  17.238  13.476   6.750
20543YOPC   C3A34718  17.287  13.475   7.050
20543YOPC   C4A34719  17.254  13.510   7.350
20543YOPC   C1B34720  17.157  13.783   6.450
20543YOPC   C2B34721  17.157  13.717   6.750
20543YOPC   D3B34722  17.126  13.739   7.050
20543YOPC   C4B34723  17.152  13.734   7.350
20544YOPC   NC334724  17.257   5.092   5.550
20544YOPC   PO434725  17.208   5.015   5.850
20544YOPC   GL134726  17.225   5.086   6.150
20544YOPC   GL234727  17.269   4.930   6.150
20544YOPC   C1A34728  17.236   5.060   6.450
20544YOPC   D2A34729  17.295   5.045   6.750
20544YOPC   C3A34730  17.282   5.012   7.050
20544YOPC   C4A34731  17.236   5.026   7.350
20544YOPC   C1B34732  17.288   4.787   6.450
20544YOPC   C2B34733  17.329   4.839   6.750
20544YOPC   D3B34734  17.289   4.829   7.050
20544YOPC   C4B34735  17.244   4.801   7.350
20545YOPC   NC334736  18.883   8.852   5.550
20545YOPC   PO434737  18.840   8.917   5.850
20545YOPC   GL134738  18.879   8.943   6.150
20545YOPC   GL234739  18.790   8.755   6.150
20545YOPC   C1A34740  18.850   8.908   6.450
20545YOPC   D2A34741  18.879   8.869   6.750
20545YOPC   C3A34742  18.801   8.908   7.050
20545YOPC   C4A34743  18.830   8.863   7.350
20545YOPC   C1B34744  18.839   8.621   6.450
20545YOPC   C2B34745  18.848   8.643   6.750
20545YOPC   D3B34746  18.847   8.673   7.050
20545YOPC   C4B34747  18.799   8.679   7.350
20546YOPC   NC334748  16.410   8.087   5.550
20546YOPC   PO434749  16.401   8.112   5.850
20546YOPC   GL134750  16.473   8.169   6.150
20546YOPC   GL234751  16.556   8.165   6.150
20546YOPC   C1A34752  16.447   8.132   6.450
20546YOPC   D2A34753  16.408   8.112   6.750
20546YOPC   C3A34754  16.451   8.105   7.050
20546YOPC   C4A34755  16.419   8.142   7.350
20546YOPC   C1B34756  16.717   8.169   6.450
20546YOPC   C2B34757  16.700   8.096   6.750
20546YOPC   D3B34758  16.674   8.131   7.050
20546YOPC   C4B34759  16.706   8.107   7.350
20547YOPC   NC334760  14.855  14.281   5.550
20547YOPC   PO434761  14.839  14.308   5.850
20547YOPC   GL134762  14.826  14.280   6.150
20547YOPC   GL234763  14.759  14.373   6.150
20547YOPC   C1A34764  14.871  14.273   6.450
20547YOPC   D2A34765  14.817  14.282   6.750
20547YOPC   C3A34766  14.853  14.295   7.050
20547YOPC   C4A34767  14.855  14.324   7.350
20547YOPC   C1B34768  14.635  14.462   6.450
20547YOPC   C2B34769  14.616  14.387   6.750
20547YOPC   D3B34770  14.644  14.375   7.050
20547YOPC   C4B34771  14.659  14.452   7.350
20548YOPC   NC334772  14.005  13.466   5.550
20548YOPC   PO434773  14.007  13.479   5.850
20548YOPC   GL134774  14.000  13.477   6.150
20548YOPC   GL234775  14.187  13.540   6.150
20548YOPC   C1A34776  14.062  13.506   6.450
20548YOPC   D2A34777  14.074  13.468   6.750
20548YOPC   C3A34778  14.031  13.517   7.050
20548YOPC   C4A34779  14.044  13.481   7.350
20548YOPC   C1B34780  14.249  13.624   6.450
20548YOPC   C2B34781  14.299  13.604   6.750
20548YOPC   D3B34782  14.275  13.629   7.050
20548YOPC   C4B34783  14.290  13.667   7.350
20549YOPC   NC334784  14.876   2.748   5.550
20549YOPC   PO434785  14.838   2.733   5.850
20549YOPC   GL134786  14.847   2.739   6.150
20549YOPC   GL234787  14.890   2.854   6.150
20549YOPC   C1A34788  14.845   2.696   6.450
20549YOPC   D2A34789  14.824   2.762   6.750
20549YOPC   C3A34790  14.816   2.708   7.050
20549YOPC   C4A34791  14.834   2.701   7.350
20549YOPC   C1B34792  14.814   3.025   6.450
20549YOPC   C2B34793  14.790   3.033   6.750
20549YOPC   D3B34794  14.797   3.010   7.050
20549YOPC   C4B34795  14.794   2.981   7.350
20550YOPC   NC334796  13.238  14.270   5.550
20550YOPC   PO434797  13.225  14.244   5.850
20550YOPC   GL134798  13.218  14.250   6.150
20550YOPC   GL234799  13.279  14.173   6.150
20550YOPC   C1A34800  13.246  14.263   6.450
20550YOPC   D2A34801  13.221  14.251   6.750
20550YOPC   C3A34802  13.272  14.279   7.050
20550YOPC   C4A34803  13.240  14.315   7.350
20550YOPC   C1B34804  13.367  14.011   6.450
20550YOPC   C2B34805  13.371  14.066   6.750
20550YOPC   D3B34806  13.310  14.032   7.050
20550YOPC   C4B34807  13.304  14.084   7.350
20551YOPC   NC334808  13.289  13.537   5.550
20551YOPC   PO434809  13.298  13.476   5.850
20551YOPC   GL134810  13.208  13.515   6.150
20551YOPC   GL234811  13.143  13.415   6.150
20551YOPC   C1A34812  13.278  13.516   6.450
20551YOPC   D2A34813  13.294  13.472   6.750
20551YOPC   C3A34814  13.274  13.467   7.050
20551YOPC   C4A34815  13.287  13.499   7.350
20551YOPC   C1B34816  13.056  13.366   6.450
20551YOPC   C2B34817  13.015  13.380   6.750
20551YOPC   D3B34818  12.987  13.414   7.050
20551YOPC   C4B34819  13.011  13.376   7.350
20552YOPC   NC334820  16.416   9.644   5.550
20552YOPC   PO434821  16.448   9.662   5.850
20552YOPC   GL134822  16.497   9.711   6.150
20552YOPC   GL234823  16.360   9.684   6.150
20552YOPC   C1A34824  16.498   9.657   6.450
20552YOPC   D2A34825  16.432   9.646   6.750
20552YOPC   C3A34826  16.494   9.659   7.050
20552YOPC   C4A34827  16.429   9.668   7.350
20552YOPC   C1B34828  16.227   9.758   6.450
20552YOPC   C2B34829  16.253   9.723   6.750
20552YOPC   D3B34830  16.238   9.781   7.050
20552YOPC   C4B34831  16.261   9.771   7.350
20553YOPC   NC334832  14.813  10.432   5.550
20553YOPC   PO434833  14.827  10.469   5.850
20553YOPC   GL134834  14.874  10.438   6.150
20553YOPC   GL234835  15.006  10.431   6.150
20553YOPC   C1A34836  14.823  10.476   6.450
20553YOPC   D2A34837  14.887  10.441   6.750
20553YOPC   C3A34838  14.883  10.460   7.050
20553YOPC   C4A34839  14.899  10.442   7.350
20553YOPC   C1B34840  15.117  10.371   6.450
20553YOPC   C2B34841  15.071  10.403   6.750
20553YOPC   D3B34842  15.075  10.360   7.050
20553YOPC   C4B34843  15.104  10.354   7.350
20554YOPC   NC334844  12.443  11.952   5.550
20554YOPC   PO434845  12.425  11.997   5.850
20554YOPC   GL134846  12.458  12.011   6.150
20554YOPC   GL234847  12.498  12.114   6.150
20554YOPC   C1A34848  12.419  11.955   6.450
20554YOPC   D2A34849  12.412  11.997   6.750
20554YOPC   C3A34850  12.489  11.946   7.050
20554YOPC   C4A34851  12.449  12.014   7.350
20554YOPC   C1B34852  12.539  12.252   6.450
20554YOPC   C2B34853  12.575  12.230   6.750
20554YOPC   D3B34854  12.578  12.237   7.050
20554YOPC   C4B34855  12.504  12.260   7.350
20555ERGO   ROH34856  16.411  15.824   5.760
20555ERGO    R134857  16.455  15.859   6.000
20555ERGO    R234858  16.311  16.019   6.180
20555ERGO    R334859  16.499  15.792   6.360
20555ERGO    R434860  16.380  16.042   6.450
20555ERGO    R534861  16.422  15.840   6.570
20555ERGO    C134862  16.421  15.783   6.930
20555ERGO    C234863  16.404  15.794   7.350
20556ERGO   ROH34864  19.655   0.416   5.760
20556ERGO    R134865  19.631   0.402   6.000
20556ERGO    R234866  19.620   0.655   6.180
20556ERGO    R334867  19.611   0.421   6.360
20556ERGO    R434868  19.571   0.637   6.450
20556ERGO    R534869  19.692   0.475   6.570
20556ERGO    C134870  19.606   0.446   6.930
20556ERGO    C234871  19.653   0.439   7.350
20557ERGO   ROH34872  12.403   9.667   5.760
20557ERGO    R134873  12.460   9.708   6.000
20557ERGO    R234874  12.183   9.655   6.180
20557ERGO    R334875  12.444   9.700   6.360
20557ERGO    R434876  12.216   9.562   6.450
20557ERGO    R534877  12.439   9.704   6.570
20557ERGO    C134878  12.484   9.672   6.930
20557ERGO    C234879  12.477   9.709   7.350
20558ERGO   ROH34880  15.682  15.079   5.760
20558ERGO    R134881  15.625  15.034   6.000
20558ERGO    R234882  15.428  15.029   6.180
20558ERGO    R334883  15.623  15.065   6.360
20558ERGO    R434884  15.444  15.010   6.450
20558ERGO    R534885  15.651  15.069   6.570
20558ERGO    C134886  15.621  15.062   6.930
20558ERGO    C234887  15.629  15.029   7.350
20559ERGO   ROH34888  18.042  16.632   5.760
20559ERGO    R134889  18.059  16.539   6.000
20559ERGO    R234890  18.308  16.585   6.180
20559ERGO    R334891  18.095  16.617   6.360
20559ERGO    R434892  18.303  16.519   6.450
20559ERGO    R534893  18.086  16.539   6.570
20559ERGO    C134894  18.069  16.567   6.930
20559ERGO    C234895  18.075  16.598   7.350
20560ERGO   ROH34896  12.423  16.597   5.760
20560ERGO    R134897  12.472  16.596   6.000
20560ERGO    R234898  12.236  16.633   6.180
20560ERGO    R334899  12.410  16.548   6.360
20560ERGO    R434900  12.223  16.661   6.450
20560ERGO    R534901  12.473  16.565   6.570
20560ERGO    C134902  12.490  16.579   6.930
20560ERGO    C234903  12.406  16.553   7.350
20561ERGO   ROH34904  18.003  15.774   5.760
20561ERGO    R134905  18.001  15.855   6.000
20561ERGO    R234906  17.867  16.000   6.180
20561ERGO    R334907  18.022  15.841   6.360
20561ERGO    R434908  17.938  15.982   6.450
20561ERGO    R534909  18.035  15.863   6.570
20561ERGO    C134910  18.034  15.774   6.930
20561ERGO    C234911  18.057  15.838   7.350
20562ERGO   ROH34912  18.033   6.601   5.760
20562ERGO    R134913  18.050   6.617   6.000
20562ERGO    R234914  17.777   6.550   6.180
20562ERGO    R334915  18.085   6.638   6.360
20562ERGO    R434916  17.840   6.560   6.450
20562ERGO    R534917  18.052   6.560   6.570
20562ERGO    C134918  18.091   6.545   6.930
20562ERGO    C234919  18.061   6.631   7.350
20563ERGO   ROH34920  16.431  19.715   5.760
20563ERGO    R134921  16.488  19.666   6.000
20563ERGO    R234922  16.721  19.577   6.180
20563ERGO    R334923  16.458  19.655   6.360
20563ERGO    R434924  16.666  19.549   6.450
20563ERGO    R534925  16.427  19.646   6.570
20563ERGO    C134926  16.486  19.699   6.930
20563ERGO    C234927  16.404  19.676   7.350
20564ERGO   ROH34928  18.082   1.942   5.760
20564ERGO    R134929  18.043   1.950   6.000
20564ERGO    R234930  18.117   1.766   6.180
20564ERGO    R334931  18.064   1.961   6.360
20564ERGO    R434932  18.120   1.789   6.450
20564ERGO    R534933  18.031   1.992   6.570
20564ERGO    C134934  18.019   2.023   6.930
20564ERGO    C234935  18.071   2.016   7.350
20565ERGO   ROH34936  14.896  13.491   5.760
20565ERGO    R134937  14.850  13.532   6.000
20565ERGO    R234938  14.669  13.724   6.180
20565ERGO    R334939  14.822  13.483   6.360
20565ERGO    R434940  14.667  13.723   6.450
20565ERGO    R534941  14.868  13.559   6.570
20565ERGO    C134942  14.808  13.506   6.930
20565ERGO    C234943  14.815  13.475   7.350
20566ERGO   ROH34944  14.860   1.242   5.760
20566ERGO    R134945  14.893   1.205   6.000
20566ERGO    R234946  15.093   1.231   6.180
20566ERGO    R334947  14.889   1.181   6.360
20566ERGO    R434948  15.105   1.199   6.450
20566ERGO    R534949  14.886   1.195   6.570
20566ERGO    C134950  14.806   1.234   6.930
20566ERGO    C234951  14.826   1.211   7.350
20567ERGO   ROH34952  18.883  16.576   5.760
20567ERGO    R134953  18.875  16.573   6.000
20567ERGO    R234954  18.705  16.833   6.180
20567ERGO    R334955  18.878  16.595   6.360
20567ERGO    R434956  18.683  16.764   6.450
20567ERGO    R534957  18.899  16.602   6.570
20567ERGO    C134958  18.889  16.563   6.930
20567ERGO    C234959  18.832  16.554   7.350
20568ERGO   ROH34960  18.067   5.850   5.760
20568ERGO    R134961  18.025   5.849   6.000
20568ERGO    R234962  18.191   5.600   6.180
20568ERGO    R334963  18.009   5.825   6.360
20568ERGO    R434964  18.193   5.575   6.450
20568ERGO    R534965  18.073   5.791   6.570
20568ERGO    C134966  18.034   5.821   6.930
20568ERGO    C234967  18.057   5.842   7.350
20569ERGO   ROH34968  19.692   8.851   5.760
20569ERGO    R134969  19.698   8.943   6.000
20569ERGO    R234970  19.804   9.118   6.180
20569ERGO    R334971  19.624   8.918   6.360
20569ERGO    R434972  19.777   9.116   6.450
20569ERGO    R534973  19.691   8.863   6.570
20569ERGO    C134974  19.639   8.915   6.930
20569ERGO    C234975  19.600   8.850   7.350
20570ERGO   ROH34976  12.439   2.697   5.760
20570ERGO    R134977  12.405   2.699   6.000
20570ERGO    R234978  12.616   2.898   6.180
20570ERGO    R334979  12.496   2.766   6.360
20570ERGO    R434980  12.629   2.913   6.450
20570ERGO    R534981  12.408   2.723   6.570
20570ERGO    C134982  12.440   2.710   6.930
20570ERGO    C234983  12.433   2.693   7.350
20571ERGO   ROH34984  13.270  17.371   5.760
20571ERGO    R134985  13.268  17.365   6.000
20571ERGO    R234986  12.961  17.333   6.180
20571ERGO    R334987  13.214  17.317   6.360
20571ERGO    R434988  13.042  17.341   6.450
20571ERGO    R534989  13.212  17.404   6.570
20571ERGO    C134990  13.274  17.374   6.930
20571ERGO    C234991  13.268  17.326   7.350
20572ERGO   ROH34992  14.049   9.709   5.760
20572ERGO    R134993  14.016   9.631   6.000
20572ERGO    R234994  14.289   9.738   6.180
20572ERGO    R334995  14.033   9.688   6.360
20572ERGO    R434996  14.314   9.719   6.450
20572ERGO    R534997  14.048   9.668   6.570
20572ERGO    C134998  14.018   9.669   6.930
20572ERGO    C234999  14.022   9.702   7.350
20573ERGO   ROH35000  15.671   4.326   5.760
20573ERGO    R135001  15.623   4.307   6.000
20573ERGO    R235002  15.744   4.551   6.180
20573ERGO    R335003  15.667   4.298   6.360
20573ERGO    R435004  15.773   4.490   6.450
20573ERGO    R535005  15.610   4.283   6.570
20573ERGO    C135006  15.603   4.269   6.930
20573ERGO    C235007  15.691   4.262   7.350
20574ERGO   ROH35008  19.644  15.866   5.760
20574ERGO    R135009  19.633  15.829   6.000
20574ERGO    R235010  19.674  15.568   6.180
20574ERGO    R335011  19.620  15.851   6.360
20574ERGO    R435012  19.637  15.596   6.450
20574ERGO    R535013  19.672  15.865   6.570
20574ERGO    C135014  19.669  15.827   6.930
20574ERGO    C235015  19.655  15.838   7.350
20575ERGO   ROH35016  12.414   5.011   5.760
20575ERGO    R135017  12.438   5.036   6.000
20575ERGO    R235018  12.586   4.922   6.180
20575ERGO    R335019  12.468   5.052   6.360
20575ERGO    R435020  12.639   4.890   6.450
20575ERGO    R535021  12.433   5.099   6.570
20575ERGO    C135022  12.450   5.064   6.930
20575ERGO    C235023  12.449   5.037   7.350
20576ERGO   ROH35024  13.278  11.250   5.760
20576ERGO    R135025  13.243  11.173   6.000
20576ERGO    R235026  13.508  11.267   6.180
20576ERGO    R335027  13.208  11.158   6.360
20576ERGO    R435028  13.476  11.331   6.450
20576ERGO    R535029  13.282  11.202   6.570
20576ERGO    C135030  13.208  11.175   6.930
20576ERGO    C235031  13.270  11.179   7.350
20577ERGO   ROH35032  17.210   5.791   5.760
20577ERGO    R135033  17.243   5.809   6.000
20577ERGO    R235034  17.276   5.573   6.180
20577ERGO    R335035  17.235   5.841   6.360
20577ERGO    R435036  17.252   5.548   6.450
20577ERGO    R535037  17.236   5.868   6.570
20577ERGO    C135038  17.269   5.782   6.930
20577ERGO    C235039  17.287   5.814   7.350
20578ERGO   ROH35040  12.485  10.459   5.760
20578ERGO    R135041  12.478  10.400   6.000
20578ERGO    R235042  12.268  10.526   6.180
20578ERGO    R335043  12.435  10.436   6.360
20578ERGO    R435044  12.220  10.545   6.450
20578ERGO    R535045  12.499  10.417   6.570
20578ERGO    C135046  12.429  10.411   6.930
20578ERGO    C235047  12.439  10.448   7.350
20579ERGO   ROH35048  14.082   0.411   5.760
20579ERGO    R135049  14.004   0.465   6.000
20579ERGO    R235050  13.893   0.587   6.180
20579ERGO    R335051  14.082   0.481   6.360
20579ERGO    R435052  13.823   0.564   6.450
20579ERGO    R535053  14.061   0.444   6.570
20579ERGO    C135054  14.024   0.447   6.930
20579ERGO    C235055  14.017   0.393   7.350
20580ERGO   ROH35056  12.422   3.519   5.760
20580ERGO    R135057  12.466   3.500   6.000
20580ERGO    R235058  12.243   3.422   6.180
20580ERGO    R335059  12.475   3.549   6.360
20580ERGO    R435060  12.203   3.431   6.450
20580ERGO    R535061  12.441   3.505   6.570
20580ERGO    C135062  12.428   3.479   6.930
20580ERGO    C235063  12.462   3.481   7.350
20581ERGO   ROH35064  14.082  15.821   5.760
20581ERGO    R135065  14.047  15.809   6.000
20581ERGO    R235066  13.896  15.603   6.180
20581ERGO    R335067  14.060  15.783   6.360
20581ERGO    R435068  13.874  15.624   6.450
20581ERGO    R535069  14.030  15.800   6.570
20581ERGO    C135070  14.095  15.775   6.930
20581ERGO    C235071  14.082  15.799   7.350
20582ERGO   ROH35072  17.277   0.413   5.760
20582ERGO    R135073  17.236   0.453   6.000
20582ERGO    R235074  17.279   0.234   6.180
20582ERGO    R335075  17.296   0.467   6.360
20582ERGO    R435076  17.316   0.150   6.450
20582ERGO    R535077  17.218   0.433   6.570
20582ERGO    C135078  17.275   0.390   6.930
20582ERGO    C235079  17.234   0.392   7.350
20583ERGO   ROH35080  15.635   8.859   5.760
20583ERGO    R135081  15.653   8.875   6.000
20583ERGO    R235082  15.405   9.041   6.180
20583ERGO    R335083  15.605   8.911   6.360
20583ERGO    R435084  15.403   8.981   6.450
20583ERGO    R535085  15.678   8.904   6.570
20583ERGO    C135086  15.624   8.904   6.930
20583ERGO    C235087  15.653   8.892   7.350
20584ERGO   ROH35088  14.888   7.328   5.760
20584ERGO    R135089  14.845   7.311   6.000
20584ERGO    R235090  14.832   7.617   6.180
20584ERGO    R335091  14.881   7.326   6.360
20584ERGO    R435092  14.859   7.583   6.450
20584ERGO    R535093  14.861   7.308   6.570
20584ERGO    C135094  14.889   7.342   6.930
20584ERGO    C235095  14.835   7.318   7.350
20585ERGO   ROH35096  16.478  16.615   5.760
20585ERGO    R135097  16.488  16.544   6.000
20585ERGO    R235098  16.339  16.344   6.180
20585ERGO    R335099  16.470  16.568   6.360
20585ERGO    R435100  16.400  16.365   6.450
20585ERGO    R535101  16.443  16.569   6.570
20585ERGO    C135102  16.418  16.626   6.930
20585ERGO    C235103  16.416  16.611   7.350
20586ERGO   ROH35104  19.687   7.315   5.760
20586ERGO    R135105  19.628   7.379   6.000
20586ERGO    R235106  19.890   7.274   6.180
20586ERGO    R335107  19.634   7.356   6.360
20586ERGO    R435108  19.857   7.283   6.450
20586ERGO    R535109  19.680   7.352   6.570
20586ERGO    C135110  19.627   7.396   6.930
20586ERGO    C235111  19.689   7.386   7.350
20587ERGO   ROH35112  12.408   8.174   5.760
20587ERGO    R135113  12.447   8.102   6.000
20587ERGO    R235114  12.230   8.312   6.180
20587ERGO    R335115  12.420   8.167   6.360
20587ERGO    R435116  12.274   8.230   6.450
20587ERGO    R535117  12.406   8.167   6.570
20587ERGO    C135118  12.462   8.137   6.930
20587ERGO    C235119  12.485   8.081   7.350
20588ERGO   ROH35120  18.829  19.627   5.760
20588ERGO    R135121  18.864  19.672   6.000
20588ERGO    R235122  18.729  19.470   6.180
20588ERGO    R335123  18.878  19.649   6.360
20588ERGO    R435124  18.749  19.471   6.450
20588ERGO    R535125  18.884  19.628   6.570
20588ERGO    C135126  18.871  19.643   6.930
20588ERGO    C235127  18.850  19.700   7.350
20589ERGO   ROH35128  19.631   5.802   5.760
20589ERGO    R135129  19.610   5.794   6.000
20589ERGO    R235130  19.379   5.814   6.180
20589ERGO    R335131  19.619   5.813   6.360
20589ERGO    R435132  19.354   5.769   6.450
20589ERGO    R535133  19.676   5.787   6.570
20589ERGO    C135134  19.604   5.834   6.930
20589ERGO    C235135  19.643   5.844   7.350
20590ERGO   ROH35136  16.420   8.847   5.760
20590ERGO    R135137  16.432   8.918   6.000
20590ERGO    R235138  16.246   8.912   6.180
20590ERGO    R335139  16.488   8.921   6.360
20590ERGO    R435140  16.223   8.881   6.450
20590ERGO    R535141  16.466   8.903   6.570
20590ERGO    C135142  16.474   8.945   6.930
20590ERGO    C235143  16.484   8.884   7.350
20591ERGO   ROH35144  15.644   7.371   5.760
20591ERGO    R135145  15.635   7.390   6.000
20591ERGO    R235146  15.525   7.133   6.180
20591ERGO    R335147  15.631   7.359   6.360
20591ERGO    R435148  15.453   7.143   6.450
20591ERGO    R535149  15.694   7.374   6.570
20591ERGO    C135150  15.670   7.376   6.930
20591ERGO    C235151  15.641   7.389   7.350
20592ERGO   ROH35152  15.660   0.453   5.760
20592ERGO    R135153  15.600   0.470   6.000
20592ERGO    R235154  15.816   0.269   6.180
20592ERGO    R335155  15.681   0.418   6.360
20592ERGO    R435156  15.739   0.177   6.450
20592ERGO    R535157  15.604   0.403   6.570
20592ERGO    C135158  15.692   0.389   6.930
20592ERGO    C235159  15.694   0.439   7.350
20593ERGO   ROH35160  17.232   8.889   5.760
20593ERGO    R135161  17.280   8.918   6.000
20593ERGO    R235162  17.539   8.943   6.180
20593ERGO    R335163  17.277   8.859   6.360
20593ERGO    R435164  17.523   8.859   6.450
20593ERGO    R535165  17.205   8.878   6.570
20593ERGO    C135166  17.228   8.893   6.930
20593ERGO    C235167  17.262   8.884   7.350
20594ERGO   ROH35168  14.082  11.242   5.760
20594ERGO    R135169  14.026  11.247   6.000
20594ERGO    R235170  13.981  11.009   6.180
20594ERGO    R335171  14.007  11.250   6.360
20594ERGO    R435172  13.969  10.946   6.450
20594ERGO    R535173  14.057  11.246   6.570
20594ERGO    C135174  14.065  11.212   6.930
20594ERGO    C235175  14.027  11.154   7.350
20595ERGO   ROH35176  12.432  15.786   5.760
20595ERGO    R135177  12.462  15.809   6.000
20595ERGO    R235178  12.225  15.679   6.180
20595ERGO    R335179  12.491  15.841   6.360
20595ERGO    R435180  12.281  15.665   6.450
20595ERGO    R535181  12.464  15.814   6.570
20595ERGO    C135182  12.402  15.798   6.930
20595ERGO    C235183  12.457  15.778   7.350
20596ERGO   ROH35184  19.606   9.644   5.760
20596ERGO    R135185  19.669   9.667   6.000
20596ERGO    R235186  19.423   9.824   6.180
20596ERGO    R335187  19.609   9.643   6.360
20596ERGO    R435188  19.432   9.843   6.450
20596ERGO    R535189  19.664   9.626   6.570
20596ERGO    C135190  19.673   9.616   6.930
20596ERGO    C235191  19.678   9.705   7.350
20597ERGO   ROH35192  17.210  11.246   5.760
20597ERGO    R135193  17.286  11.226   6.000
20597ERGO    R235194  17.441  11.133   6.180
20597ERGO    R335195  17.242  11.201   6.360
20597ERGO    R435196  17.478  11.118   6.450
20597ERGO    R535197  17.225  11.226   6.570
20597ERGO    C135198  17.230  11.245   6.930
20597ERGO    C235199  17.239  11.220   7.350
20598ERGO   ROH35200  18.806   6.544   5.760
20598ERGO    R135201  18.857   6.578   6.000
20598ERGO    R235202  18.902   6.788   6.180
20598ERGO    R335203  18.803   6.548   6.360
20598ERGO    R435204  18.953   6.847   6.450
20598ERGO    R535205  18.834   6.560   6.570
20598ERGO    C135206  18.832   6.604   6.930
20598ERGO    C235207  18.883   6.576   7.350
20599ERGO   ROH35208  16.486   1.178   5.760
20599ERGO    R135209  16.402   1.235   6.000
20599ERGO    R235210  16.559   1.425   6.180
20599ERGO    R335211  16.494   1.161   6.360
20599ERGO    R435212  16.642   1.381   6.450
20599ERGO    R535213  16.452   1.159   6.570
20599ERGO    C135214  16.467   1.195   6.930
20599ERGO    C235215  16.479   1.184   7.350
20600ERGO   ROH35216  17.294  16.584   5.760
20600ERGO    R135217  17.292  16.583   6.000
20600ERGO    R235218  17.357  16.400   6.180
20600ERGO    R335219  17.215  16.605   6.360
20600ERGO    R435220  17.336  16.379   6.450
20600ERGO    R535221  17.202  16.575   6.570
20600ERGO    C135222  17.258  16.540   6.930
20600ERGO    C235223  17.216  16.539   7.350
20601ERGO   ROH35224  14.076   8.174   5.760
20601ERGO    R135225  14.095   8.127   6.000
20601ERGO    R235226  13.847   8.278   6.180
20601ERGO    R335227  14.025   8.125   6.360
20601ERGO    R435228  13.869   8.344   6.450
20601ERGO    R535229  14.048   8.160   6.570
20601ERGO    C135230  14.080   8.113   6.930
20601ERGO    C235231  14.000   8.118   7.350
20602ERGO   ROH35232  15.641  13.551   5.760
20602ERGO    R135233  15.689  13.548   6.000
20602ERGO    R235234  15.493  13.316   6.180
20602ERGO    R335235  15.686  13.546   6.360
20602ERGO    R435236  15.491  13.278   6.450
20602ERGO    R535237  15.661  13.472   6.570
20602ERGO    C135238  15.654  13.541   6.930
20602ERGO    C235239  15.676  13.475   7.350
20603ERGO   ROH35240  13.210   8.166   5.760
20603ERGO    R135241  13.285   8.177   6.000
20603ERGO    R235242  13.503   8.210   6.180
20603ERGO    R335243  13.266   8.148   6.360
20603ERGO    R435244  13.459   8.212   6.450
20603ERGO    R535245  13.202   8.167   6.570
20603ERGO    C135246  13.276   8.122   6.930
20603ERGO    C235247  13.251   8.104   7.350
20604ERGO   ROH35248  18.803   2.008   5.760
20604ERGO    R135249  18.889   1.948   6.000
20604ERGO    R235250  18.947   1.702   6.180
20604ERGO    R335251  18.821   1.958   6.360
20604ERGO    R435252  18.955   1.687   6.450
20604ERGO    R535253  18.819   1.926   6.570
20604ERGO    C135254  18.831   1.975   6.930
20604ERGO    C235255  18.894   1.978   7.350
20605ERGO   ROH35256  18.863  18.882   5.760
20605ERGO    R135257  18.882  18.934   6.000
20605ERGO    R235258  18.911  19.080   6.180
20605ERGO    R335259  18.819  18.887   6.360
20605ERGO    R435260  18.921  19.149   6.450
20605ERGO    R535261  18.835  18.865   6.570
20605ERGO    C135262  18.858  18.926   6.930
20605ERGO    C235263  18.883  18.860   7.350
20606ERGO   ROH35264  13.203  12.715   5.760
20606ERGO    R135265  13.273  12.760   6.000
20606ERGO    R235266  13.054  12.951   6.180
20606ERGO    R335267  13.202  12.694   6.360
20606ERGO    R435268  13.064  12.969   6.450
20606ERGO    R535269  13.235  12.702   6.570
20606ERGO    C135270  13.261  12.728   6.930
20606ERGO    C235271  13.225  12.769   7.350
20607ERGO   ROH35272  12.421  14.329   5.760
20607ERGO    R135273  12.431  14.286   6.000
20607ERGO    R235274  12.633  14.228   6.180
20607ERGO    R335275  12.441  14.297   6.360
20607ERGO    R435276  12.670  14.142   6.450
20607ERGO    R535277  12.459  14.305   6.570
20607ERGO    C135278  12.465  14.328   6.930
20607ERGO    C235279  12.468  14.308   7.350
20608ERGO   ROH35280  18.842  11.251   5.760
20608ERGO    R135281  18.899  11.164   6.000
20608ERGO    R235282  18.577  11.188   6.180
20608ERGO    R335283  18.869  11.205   6.360
20608ERGO    R435284  18.641  11.197   6.450
20608ERGO    R535285  18.855  11.199   6.570
20608ERGO    C135286  18.813  11.188   6.930
20608ERGO    C235287  18.873  11.226   7.350
20609ERGO   ROH35288  13.240   2.010   5.760
20609ERGO    R135289  13.252   1.938   6.000
20609ERGO    R235290  13.376   1.805   6.180
20609ERGO    R335291  13.204   2.000   6.360
20609ERGO    R435292  13.346   1.796   6.450
20609ERGO    R535293  13.233   2.015   6.570
20609ERGO    C135294  13.244   2.009   6.930
20609ERGO    C235295  13.283   1.962   7.350
20610ERGO   ROH35296  19.610  18.902   5.760
20610ERGO    R135297  19.666  18.854   6.000
20610ERGO    R235298  19.710  18.668   6.180
20610ERGO    R335299  19.660  18.939   6.360
20610ERGO    R435300  19.743  18.680   6.450
20610ERGO    R535301  19.684  18.897   6.570
20610ERGO    C135302  19.656  18.881   6.930
20610ERGO    C235303  19.672  18.924   7.350
20611ERGO   ROH35304  14.021  18.900   5.760
20611ERGO    R135305  14.019  18.931   6.000
20611ERGO    R235306  14.200  19.079   6.180
20611ERGO    R335307  14.083  18.920   6.360
20611ERGO    R435308  14.237  19.022   6.450
20611ERGO    R535309  14.086  18.884   6.570
20611ERGO    C135310  14.012  18.943   6.930
20611ERGO    C235311  14.065  18.920   7.350
20612ERGO   ROH35312  19.604   1.935   5.760
20612ERGO    R135313  19.652   1.996   6.000
20612ERGO    R235314  19.450   1.834   6.180
20612ERGO    R335315  19.620   1.931   6.360
20612ERGO    R435316  19.489   1.793   6.450
20612ERGO    R535317  19.626   1.955   6.570
20612ERGO    C135318  19.693   1.979   6.930
20612ERGO    C235319  19.630   2.010   7.350
20613ERGO   ROH35320  17.285   1.199   5.760
20613ERGO    R135321  17.228   1.232   6.000
20613ERGO    R235322  17.315   1.482   6.180
20613ERGO    R335323  17.224   1.203   6.360
20613ERGO    R435324  17.341   1.411   6.450
20613ERGO    R535325  17.289   1.224   6.570
20613ERGO    C135326  17.228   1.248   6.930
20613ERGO    C235327  17.248   1.197   7.350
20614ERGO   ROH35328  14.025   8.867   5.760
20614ERGO    R135329  14.057   8.925   6.000
20614ERGO    R235330  14.158   8.685   6.180
20614ERGO    R335331  14.073   8.853   6.360
20614ERGO    R435332  14.198   8.723   6.450
20614ERGO    R535333  14.029   8.848   6.570
20614ERGO    C135334  14.042   8.875   6.930
20614ERGO    C235335  14.004   8.867   7.350
20615ERGO   ROH35336  12.467  13.508   5.760
20615ERGO    R135337  12.455  13.524   6.000
20615ERGO    R235338  12.636  13.640   6.180
20615ERGO    R335339  12.443  13.483   6.360
20615ERGO    R435340  12.661  13.637   6.450
20615ERGO    R535341  12.493  13.479   6.570
20615ERGO    C135342  12.448  13.467   6.930
20615ERGO    C235343  12.425  13.470   7.350
20616ERGO   ROH35344  18.804  15.778   5.760
20616ERGO    R135345  18.877  15.866   6.000
20616ERGO    R235346  18.785  16.055   6.180
20616ERGO    R335347  18.877  15.822   6.360
20616ERGO    R435348  18.752  16.098   6.450
20616ERGO    R535349  18.809  15.836   6.570
20616ERGO    C135350  18.804  15.789   6.930
20616ERGO    C235351  18.853  15.807   7.350
20617ERGO   ROH35352  18.814  10.483   5.760
20617ERGO    R135353  18.822  10.411   6.000
20617ERGO    R235354  18.795  10.701   6.180
20617ERGO    R335355  18.861  10.426   6.360
20617ERGO    R435356  18.788  10.711   6.450
20617ERGO    R535357  18.830  10.416   6.570
20617ERGO    C135358  18.843  10.409   6.930
20617ERGO    C235359  18.830  10.403   7.350
20618ERGO   ROH35360  12.460  12.768   5.760
20618ERGO    R135361  12.480  12.735   6.000
20618ERGO    R235362  12.250  12.796   6.180
20618ERGO    R335363  12.494  12.751   6.360
20618ERGO    R435364  12.212  12.794   6.450
20618ERGO    R535365  12.401  12.703   6.570
20618ERGO    C135366  12.479  12.697   6.930
20618ERGO    C235367  12.429  12.709   7.350
20619ERGO   ROH35368  16.459   7.318   5.760
20619ERGO    R135369  16.443   7.387   6.000
20619ERGO    R235370  16.295   7.528   6.180
20619ERGO    R335371  16.479   7.349   6.360
20619ERGO    R435372  16.329   7.593   6.450
20619ERGO    R535373  16.459   7.356   6.570
20619ERGO    C135374  16.488   7.373   6.930
20619ERGO    C235375  16.443   7.349   7.350
20620ERGO   ROH35376  16.485  17.352   5.760
20620ERGO    R135377  16.497  17.382   6.000
20620ERGO    R235378  16.260  17.179   6.180
20620ERGO    R335379  16.432  17.313   6.360
20620ERGO    R435380  16.281  17.152   6.450
20620ERGO    R535381  16.497  17.355   6.570
20620ERGO    C135382  16.474  17.399   6.930
20620ERGO    C235383  16.493  17.397   7.350
20621ERGO   ROH35384  16.463  12.758   5.760
20621ERGO    R135385  16.412  12.780   6.000
20621ERGO    R235386  16.570  12.471   6.180
20621ERGO    R335387  16.460  12.726   6.360
20621ERGO    R435388  16.573  12.525   6.450
20621ERGO    R535389  16.425  12.697   6.570
20621ERGO    C135390  16.465  12.773   6.930
20621ERGO    C235391  16.499  12.702   7.350
20622ERGO   ROH35392  18.000  19.685   5.760
20622ERGO    R135393  18.014  19.680   6.000
20622ERGO    R235394  17.880  19.857   6.180
20622ERGO    R335395  18.079  19.643   6.360
20622ERGO    R435396  17.852  19.784   6.450
20622ERGO    R535397  18.058  19.617   6.570
20622ERGO    C135398  18.059  19.712   6.930
20622ERGO    C235399  18.073  19.692   7.350
20623ERGO   ROH35400  18.882  12.728   5.760
20623ERGO    R135401  18.883  12.735   6.000
20623ERGO    R235402  18.638  12.937   6.180
20623ERGO    R335403  18.886  12.696   6.360
20623ERGO    R435404  18.666  12.872   6.450
20623ERGO    R535405  18.870  12.759   6.570
20623ERGO    C135406  18.830  12.740   6.930
20623ERGO    C235407  18.875  12.757   7.350
20624ERGO   ROH35408  12.400   7.402   5.760
20624ERGO    R135409  12.433   7.309   6.000
20624ERGO    R235410  12.591   7.154   6.180
20624ERGO    R335411  12.451   7.394   6.360
20624ERGO    R435412  12.633   7.148   6.450
20624ERGO    R535413  12.481   7.327   6.570
20624ERGO    C135414  12.465   7.353   6.930
20624ERGO    C235415  12.454   7.348   7.350
20625ERGO   ROH35416  14.893   9.659   5.760
20625ERGO    R135417  14.831   9.668   6.000
20625ERGO    R235418  14.671   9.539   6.180
20625ERGO    R335419  14.872   9.695   6.360
20625ERGO    R435420  14.671   9.478   6.450
20625ERGO    R535421  14.884   9.649   6.570
20625ERGO    C135422  14.841   9.648   6.930
20625ERGO    C235423  14.858   9.647   7.350
20626ERGO   ROH35424  16.483  11.927   5.760
20626ERGO    R135425  16.487  11.962   6.000
20626ERGO    R235426  16.640  11.870   6.180
20626ERGO    R335427  16.464  12.016   6.360
20626ERGO    R435428  16.726  11.875   6.450
20626ERGO    R535429  16.465  11.992   6.570
20626ERGO    C135430  16.404  11.991   6.930
20626ERGO    C235431  16.500  11.956   7.350
20627ERGO   ROH35432  17.210   4.253   5.760
20627ERGO    R135433  17.252   4.263   6.000
20627ERGO    R235434  17.317   4.475   6.180
20627ERGO    R335435  17.249   4.270   6.360
20627ERGO    R435436  17.374   4.547   6.450
20627ERGO    R535437  17.232   4.318   6.570
20627ERGO    C135438  17.283   4.305   6.930
20627ERGO    C235439  17.299   4.249   7.350
20628ERGO   ROH35440  19.684  11.165   5.760
20628ERGO    R135441  19.670  11.238   6.000
20628ERGO    R235442  19.455  11.108   6.180
20628ERGO    R335443  19.624  11.235   6.360
20628ERGO    R435444  19.366  11.098   6.450
20628ERGO    R535445  19.686  11.179   6.570
20628ERGO    C135446  19.608  11.188   6.930
20628ERGO    C235447  19.609  11.159   7.350
20629ERGO   ROH35448  19.642  16.604   5.760
20629ERGO    R135449  19.674  16.599   6.000
20629ERGO    R235450  19.431  16.715   6.180
20629ERGO    R335451  19.663  16.559   6.360
20629ERGO    R435452  19.418  16.753   6.450
20629ERGO    R535453  19.600  16.606   6.570
20629ERGO    C135454  19.619  16.587   6.930
20629ERGO    C235455  19.683  16.585   7.350
20630ERGO   ROH35456  19.686   8.147   5.760
20630ERGO    R135457  19.639   8.147   6.000
20630ERGO    R235458  19.907   8.076   6.180
20630ERGO    R335459  19.632   8.112   6.360
20630ERGO    R435460  19.870   8.103   6.450
20630ERGO    R535461  19.641   8.139   6.570
20630ERGO    C135462  19.685   8.109   6.930
20630ERGO    C235463  19.618   8.110   7.350
20631ERGO   ROH35464  17.290   8.119   5.760
20631ERGO    R135465  17.295   8.126   6.000
20631ERGO    R235466  17.210   8.394   6.180
20631ERGO    R335467  17.285   8.110   6.360
20631ERGO    R435468  17.135   8.405   6.450
20631ERGO    R535469  17.294   8.096   6.570
20631ERGO    C135470  17.231   8.129   6.930
20631ERGO    C235471  17.234   8.131   7.350
20632ERGO   ROH35472  16.414   4.308   5.760
20632ERGO    R135473  16.496   4.271   6.000
20632ERGO    R235474  16.473   4.498   6.180
20632ERGO    R335475  16.421   4.272   6.360
20632ERGO    R435476  16.502   4.540   6.450
20632ERGO    R535477  16.473   4.238   6.570
20632ERGO    C135478  16.470   4.271   6.930
20632ERGO    C235479  16.477   4.281   7.350
20633W        W35480  17.911   0.281  12.342
20634W        W35481  17.435   4.152   2.187
20635W        W35482  13.223  15.385  10.427
20636W        W35483  17.891   5.646   1.231
20637W        W35484  17.450   9.543  10.421
20638W        W35485  12.244  16.389   3.166
20639W        W35486  16.957  12.471   2.178
20640W        W35487  19.312   0.292   1.228
20641W        W35488  13.670  11.018  14.283
20642W        W35489  19.338  10.043  11.392
20643W        W35490  14.139  16.382   3.658
20644W        W35491  14.137  12.473  10.451
20645W        W35492  18.828   6.614   2.694
20646W        W35493  19.781  15.858  14.792
20647W        W35494  14.591  16.870   2.676
20648W        W35495  16.037  16.362   3.655
20649W        W35496  17.412   7.120  14.781
20650W        W35497  13.182   2.690   1.737
20651W        W35498  13.178  12.973  11.870
20652W        W35499  14.605  14.413  14.312
20653W        W35500  16.013  12.931  11.391
20654W        W35501  18.393  18.318  13.353
20655W        W35502  16.509  17.351   5.112
20656W        W35503  16.034  12.971   0.252
20657W        W35504  18.362  11.998  11.873
20658W        W35505  12.713  17.357  14.316
20659W        W35506  13.669  19.770   2.704
20660W        W35507  15.106  16.375   5.105
20661W        W35508  15.106  11.956   2.699
20662W        W35509  18.372  16.355   2.686
20663W        W35510  14.134   4.183   3.167
20664W        W35511  19.336   5.653   0.766
20665W        W35512  13.655  10.529  10.925
20666W        W35513  18.856   2.687  14.312
20667W        W35514  14.598  15.867  11.373
20668W        W35515  18.826  12.480   2.709
20669W        W35516  18.824  13.461  11.407
20670W        W35517  13.223  18.297   4.118
20671W        W35518  18.831  19.782   5.107
20672W        W35519  17.435   5.132   3.630
20673W        W35520  12.238  18.320   4.135
20674W        W35521  14.635   7.577  10.441
20675W        W35522  16.476  18.807  14.784
20676W        W35523  16.019  19.291  11.397
20677W        W35524  15.546  17.318  10.930
20678W        W35525  15.104   0.776  12.383
20679W        W35526  12.739   9.525   0.253
20680W        W35527  12.248  15.403  10.450
20681W        W35528  19.323   2.219  11.890
20682W        W35529  14.144  10.522  11.386
20683W        W35530  17.922  17.334  13.813
20684W        W35531  14.158   9.062   2.677
20685W        W35532  13.652   3.672  10.431
20686W        W35533  14.139  13.905  13.806
20687W        W35534  15.556  11.498  11.404
20688W        W35535  17.903   9.528   1.226
20689W        W35536  16.021  13.433   4.153
20690W        W35537  18.829  13.449  14.779
20691W        W35538  15.556  15.398   9.939
20692W        W35539  18.398  15.412   1.214
20693W        W35540  13.177  11.976  13.342
20694W        W35541  15.078   0.743   2.693
20695W        W35542  18.862  15.413  13.343
20696W        W35543  17.892   6.603   1.250
20697W        W35544  19.774  18.334   3.661
20698W        W35545  12.737   9.053  12.363
20699W        W35546  12.710   7.082  10.931
20700W        W35547  17.883   1.733  10.414
20701W        W35548  17.892  17.361   3.168
20702W        W35549  17.884   5.133   3.635
20703W        W35550  15.102  19.762   4.616
20704W        W35551  17.883   4.656  10.927
20705W        W35552  19.793   8.070  12.376
20706W        W35553  17.920   6.122   4.137
20707W        W35554  16.984   1.743  14.297
20708W        W35555  15.533   8.068  13.319
20709W        W35556  13.693   6.631  13.827
20710W        W35557  13.211  12.450   5.085
20711W        W35558  18.378   2.699   3.659
20712W        W35559  13.183   6.607   4.602
20713W        W35560  18.354   5.152  12.851
20714W        W35561  12.718  16.848   4.148
20715W        W35562  13.183   0.284   4.145
20716W        W35563  16.032  14.404  11.879
20717W        W35564  19.324   1.227  14.305
20718W        W35565  16.009   6.139   4.619
20719W        W35566  12.713  14.400  11.409
20720W        W35567  12.281   8.063   3.176
20721W        W35568  19.298  14.407  10.915
20722W        W35569  12.247   6.098   9.959
20723W        W35570  12.250  13.919  13.331
20724W        W35571  12.265   6.137  10.434
20725W        W35572  16.007  14.888  10.929
20726W        W35573  16.488   5.168   3.187
20727W        W35574  13.178   0.285   3.146
20728W        W35575  19.317  14.404   1.243
20729W        W35576  18.837   1.245  13.315
20730W        W35577  15.557   7.598  13.314
20731W        W35578  16.044   5.135   2.205
20732W        W35579  15.535  14.394  14.768
20733W        W35580  13.677  12.959  11.374
20734W        W35581  14.158  16.370   4.128
20735W        W35582  16.027  17.828   1.722
20736W        W35583  16.030  10.492  14.294
20737W        W35584  12.269   5.622  13.346
20738W        W35585  18.395  10.524   0.747
20739W        W35586  15.546  14.906  12.846
20740W        W35587  12.237  11.485   4.609
20741W        W35588  19.298  16.371   5.118
20742W        W35589  12.730  10.026   2.677
20743W        W35590  19.800  17.321  12.379
20744W        W35591  13.196  13.925  12.355
20745W        W35592  13.687   5.151  10.887
20746W        W35593  16.986   9.525  13.793
20747W        W35594  16.963  13.451   3.668
20748W        W35595  17.447   5.639  12.852
20749W        W35596  13.668   9.553   2.202
20750W        W35597  17.922   4.190  14.805
20751W        W35598  18.855  10.494  11.409
20752W        W35599  16.036  14.916   2.706
20753W        W35600  17.457   0.251  11.864
20754W        W35601  19.791  15.858   2.188
20755W        W35602  18.857   6.610   1.733
20756W        W35603  12.724  17.812  11.879
20757W        W35604  14.161  11.008   4.132
20758W        W35605  16.954   4.150  11.897
20759W        W35606  13.188  19.297   9.957
20760W        W35607  15.560  15.374  13.326
20761W        W35608  14.164  12.955  10.421
20762W        W35609  13.658   6.602   1.256
20763W        W35610  16.986   9.557   4.625
20764W        W35611  16.042  11.467   0.771
20765W        W35612  14.603  10.496   0.772
20766W        W35613  18.826   7.599   4.636
20767W        W35614  17.452   8.064  14.764
20768W        W35615  16.033  19.270  14.291
20769W        W35616  16.987   0.249  14.275
20770W        W35617  15.078   1.223   3.662
20771W        W35618  18.827   7.117   0.740
20772W        W35619  12.733   1.723  13.832
20773W        W35620  14.160  16.846   0.760
20774W        W35621  13.692  12.449  11.885
20775W        W35622  16.962   0.247  13.837
20776W        W35623  18.852   4.189   4.124
20777W        W35624  18.370   8.583  13.820
20778W        W35625  18.361   2.228   0.759
20779W        W35626  18.382   5.622  10.928
20780W        W35627  19.780  18.808   3.157
20781W        W35628  17.914   3.189  12.843
20782W        W35629  16.487   4.662   2.203
20783W        W35630  15.084  15.873  10.891
20784W        W35631  14.135  14.886  14.318
20785W        W35632  14.145   3.705   1.248
20786W        W35633  15.561   1.752   2.185
20787W        W35634  13.652   4.167  14.778
20788W        W35635  19.791  17.824   2.216
20789W        W35636  13.177  16.869  11.388
20790W        W35637  15.060  18.828  13.309
20791W        W35638  12.277   0.289  11.892
20792W        W35639  15.082   4.152   4.633
20793W        W35640  17.439  10.029  14.764
20794W        W35641  18.834   9.537   0.245
20795W        W35642  15.548  10.535  11.875
20796W        W35643  13.182  10.533  10.442
20797W        W35644  14.593  15.391   4.606
20798W        W35645  15.563   2.694   0.268
20799W        W35646  14.600  11.952  10.918
20800W        W35647  14.147  16.371   4.636
20801W        W35648  15.530  17.821  10.923
20802W        W35649  17.416  15.391   2.224
20803W        W35650  18.854  12.470   1.712
20804W        W35651  14.623   1.713   1.238
20805W        W35652  15.096   4.185  10.892
20806W        W35653  18.393   7.083  14.309
20807W        W35654  19.801   3.191   2.218
20808W        W35655  17.899   4.174   0.287
20809W        W35656  17.432   6.634   0.274
20810W        W35657  17.453   4.152  11.892
20811W        W35658  16.026   2.731   1.244
20812W        W35659  16.971   6.115  12.366
20813W        W35660  18.848   3.177  13.811
20814W        W35661  17.446  10.525  11.862
20815W        W35662  17.433  17.837  11.418
20816W        W35663  12.246  12.967  11.865
20817W        W35664  12.710  13.910  10.436
20818W        W35665  15.576  14.913  14.293
20819W        W35666  17.897  17.342   2.204
20820W        W35667  12.731   6.138  11.869
20821W        W35668  15.073   9.067   0.285
20822W        W35669  16.980   4.159   3.165
20823W        W35670  15.550   6.634  14.781
20824W        W35671  12.751   6.142   2.687
20825W        W35672  15.534  11.484   0.287
20826W        W35673  19.335   9.056   3.636
20827W        W35674  18.366   4.663  10.407
20828W        W35675  17.414   1.250   3.150
20829W        W35676  12.282  14.899   1.251
20830W        W35677  12.255   5.159   5.123
20831W        W35678  19.807  14.904  13.307
20832W        W35679  13.219  19.291  11.397
20833W        W35680  17.909  15.869  12.865
20834W        W35681  12.262  11.966  11.879
20835W        W35682  15.075   1.268   4.605
20836W        W35683  12.262   8.555  11.402
20837W        W35684  16.503   9.526   4.623
20838W        W35685  16.946   1.753  12.837
20839W        W35686  17.454  16.354  13.332
20840W        W35687  14.139  19.295   9.925
20841W        W35688  18.825  13.946   2.190
20842W        W35689  14.153  11.485  13.798
20843W        W35690  18.386   6.121   1.722
20844W        W35691  17.423   8.061   1.218
20845W        W35692  17.900  18.310   4.627
20846W        W35693  16.491  14.426   1.695
20847W        W35694  14.162   9.035  14.787
20848W        W35695  16.503  18.783   3.188
20849W        W35696  12.717   3.175  13.328
20850W        W35697  16.508   7.604  12.836
20851W        W35698  18.868  19.284   2.220
20852W        W35699  14.607   6.138  13.354
20853W        W35700  14.622   2.713  13.342
20854W        W35701  16.987   5.166   4.149
20855W        W35702  19.800   8.574   4.145
20856W        W35703  14.160   0.733   3.159
20857W        W35704  18.824  13.463  12.378
20858W        W35705  17.434  11.998   3.636
20859W        W35706  19.339  13.905  11.416
20860W        W35707  13.212   2.705  11.419
20861W        W35708  19.340  15.884   5.128
20862W        W35709  16.022  16.389  12.868
20863W        W35710  13.204   6.116   3.665
20864W        W35711  18.841  13.451   0.771
20865W        W35712  14.635  13.429  12.364
20866W        W35713  18.867   1.725  12.373
20867W        W35714  16.018   3.211   2.704
20868W        W35715  14.603  14.405  12.364
20869W        W35716  19.339  16.837  11.887
20870W        W35717  19.331   1.726   1.705
20871W        W35718  16.987   8.097   4.160
20872W        W35719  16.970   9.522   2.701
20873W        W35720  16.028   1.719  12.363
20874W        W35721  13.198  19.779  10.905
20875W        W35722  16.945  16.845   0.287
20876W        W35723  18.355  18.327   0.263
20877W        W35724  12.276   1.255  14.801
20878W        W35725  16.022  19.773  11.418
20879W        W35726  16.038   0.291   4.121
20880W        W35727  19.800   5.649   4.117
20881W        W35728  16.960  11.955  13.822
20882W        W35729  14.136  14.901  14.767
20883W        W35730  15.063  15.398   1.701
20884W        W35731  14.155   0.764  10.935
20885W        W35732  17.887   6.100  12.370
20886W        W35733  18.357  18.293  13.806
20887W        W35734  18.356   5.611  11.882
20888W        W35735  15.576   5.630  11.377
20889W        W35736  12.731   4.186   2.689
20890W        W35737  13.676   3.202   2.197
20891W        W35738  18.375  13.918  12.847
20892W        W35739  15.075   3.695   4.613
20893W        W35740  16.514   2.220  13.329
20894W        W35741  15.574   0.755  13.805
20895W        W35742  16.031  18.298   2.178
20896W        W35743  16.511   6.142   1.724
20897W        W35744  16.031  18.829   0.765
20898W        W35745  19.792   6.135  14.787
20899W        W35746  12.710   3.700   0.266
20900W        W35747  16.508  11.507   2.669
20901W        W35748  12.715   9.025   0.736
20902W        W35749  15.548  16.362  13.795
20903W        W35750  16.960   2.717   0.761
20904W        W35751  16.041   3.706  10.892
20905W        W35752  17.440  18.791   2.203
20906W        W35753  12.745  18.302   2.678
20907W        W35754  18.837  15.888  14.804
20908W        W35755  12.719   2.720   2.687
20909W        W35756  19.327   6.612  12.856
20910W        W35757  17.439  16.384   2.190
20911W        W35758  15.548  11.967   0.754
20912W        W35759  15.072   5.624  12.852
20913W        W35760  14.600   3.177   0.751
20914W        W35761  14.161  10.979  11.884
20915W        W35762  16.036   8.547   0.279
20916W        W35763  15.083  11.954  12.866
20917W        W35764  12.273  10.523  11.389
20918W        W35765  14.146   5.647   0.760
20919W        W35766  12.269  11.956   4.599
20920W        W35767  13.669   9.027   0.748
20921W        W35768  17.909  12.953   0.258
20922W        W35769  18.375  17.831  14.793
20923W        W35770  15.541   8.076  14.772
20924W        W35771  19.767  18.827   1.232
20925W        W35772  17.457   9.062   1.239
20926W        W35773  14.622   1.729  13.811
20927W        W35774  19.800   5.159   3.188
20928W        W35775  16.511  12.944  11.885
20929W        W35776  16.949   9.053  10.934
20930W        W35777  16.001  13.910   5.099
20931W        W35778  19.796   0.270  10.417
20932W        W35779  15.077  19.286  13.796
20933W        W35780  15.085   5.126  12.342
20934W        W35781  15.571  13.418   3.662
20935W        W35782  16.016  14.391   4.114
20936W        W35783  13.677  17.818   3.167
20937W        W35784  12.263  15.412  12.823
20938W        W35785  15.537  13.934   3.187
20939W        W35786  17.452   7.588  13.312
20940W        W35787  19.803   9.524   0.262
20941W        W35788  13.191  16.865  11.889
20942W        W35789  18.846  18.298  10.410
20943W        W35790  13.694   0.753   4.116
20944W        W35791  18.852   9.537  12.372
20945W        W35792  13.650   5.633  12.869
20946W        W35793  18.386  17.332  12.866
20947W        W35794  15.571  19.767   0.737
20948W        W35795  17.903   1.712  12.372
20949W        W35796  15.575  14.409  10.907
20950W        W35797  17.458  15.377  13.321
20951W        W35798  15.532   8.571   1.717
20952W        W35799  19.335  19.298   0.250
20953W        W35800  19.810   2.199  14.762
20954W        W35801  12.265  18.803   9.962
20955W        W35802  16.512  10.496  10.893
20956W        W35803  14.590   2.691   4.644
20957W        W35804  17.418  14.879   1.212
20958W        W35805  16.003  13.452   2.687
20959W        W35806  19.781   9.071  10.895
20960W        W35807  19.299  17.827  11.874
20961W        W35808  14.129   4.670   4.135
20962W        W35809  16.043   5.656  10.901
20963W        W35810  17.438   5.123   0.756
20964W        W35811  17.414  12.465   0.249
20965W        W35812  17.901   7.092  11.380
20966W        W35813  13.674  10.002  11.875
20967W        W35814  13.660   4.663   0.245
20968W        W35815  12.737  17.847   3.650
20969W        W35816  18.853  12.477  13.310
20970W        W35817  18.864   4.640  11.857
20971W        W35818  13.203   8.558   4.617
20972W        W35819  17.888  14.922   3.164
20973W        W35820  14.142  16.870   9.921
20974W        W35821  12.714   8.060  10.909
20975W        W35822  15.089   3.186  10.448
20976W        W35823  17.456   7.592  11.373
20977W        W35824  19.767  11.502  11.883
20978W        W35825  14.122  10.495   0.243
20979W        W35826  16.511   1.242  11.405
20980W        W35827  13.222  14.899  11.402
20981W        W35828  16.009  10.529  13.795
20982W        W35829  12.735  17.352   4.634
20983W        W35830  17.434   6.607   2.694
20984W        W35831  18.384   1.227  12.380
20985W        W35832  12.241   6.608   0.254
20986W        W35833  15.567  13.904  11.900
20987W        W35834  19.779  12.469   1.250
20988W        W35835  14.609  18.309   1.212
20989W        W35836  16.489   2.196   3.655
20990W        W35837  17.426  11.487  13.323
20991W        W35838  15.069   4.680  14.276
20992W        W35839  16.002  12.929   0.732
20993W        W35840  12.273   8.061   2.663
20994W        W35841  15.530   0.255  10.911
20995W        W35842  15.573  18.800  11.879
20996W        W35843  14.143  11.475  12.363
20997W        W35844  17.427  11.473  10.934
20998W        W35845  14.592  10.006   2.190
20999W        W35846  12.261   4.657   4.134
21000W        W35847  16.482  19.770  12.382
21001W        W35848  14.126  11.464   0.740
21002W        W35849  12.750   3.195   1.727
21003W        W35850  16.017   6.124  10.901
21004W        W35851  19.326  15.406  12.384
21005W        W35852  18.856   0.278   2.708
21006W        W35853  16.044  18.823   1.711
21007W        W35854  18.355   4.148  11.887
21008W        W35855  16.962  16.351  12.833
21009W        W35856  16.038   9.050  14.791
21010W        W35857  16.023  10.043  13.320
21011W        W35858  12.720  16.376   1.705
21012W        W35859  19.310  18.801   0.279
21013W        W35860  19.780  19.313  13.313
21014W        W35861  14.135  14.407   2.208
21015W        W35862  15.541   9.049  11.866
21016W        W35863  12.716  11.022  11.859
21017W        W35864  16.954   9.546  14.313
21018W        W35865  17.423   3.192  11.413
21019W        W35866  16.967   8.546   0.284
21020W        W35867  16.007   1.235   2.693
21021W        W35868  18.372  11.958  14.801
21022W        W35869  12.253   3.669  10.919
21023W        W35870  12.275   6.129  14.794
21024W        W35871  14.151   1.737   4.630
21025W        W35872  18.390   6.595   4.130
21026W        W35873  19.800  11.968   0.738
21027W        W35874  14.133   2.198  13.354
21028W        W35875  17.420  19.311   0.274
21029W        W35876  14.141   1.244  14.280
21030W        W35877  19.784   8.063   2.187
21031W        W35878  19.772  18.805  14.773
21032W        W35879  17.889  14.905  13.350
21033W        W35880  18.846   2.201   5.084
21034W        W35881  15.072   9.062  13.796
21035W        W35882  14.122   2.732   2.676
21036W        W35883  17.904  15.891  12.359
21037W        W35884  12.719  11.020   3.192
21038W        W35885  13.209  10.511  12.859
21039W        W35886  13.223   3.207   1.720
21040W        W35887  13.655  13.460  14.775
21041W        W35888  19.340   5.147  10.414
21042W        W35889  14.143   5.162   4.153
21043W        W35890  18.854  15.870  10.449
21044W        W35891  16.956   5.161  13.323
21045W        W35892  12.729   7.575   0.276
21046W        W35893  18.826   5.613  14.291
21047W        W35894  15.094  19.306   2.225
21048W        W35895  13.678  10.039  14.778
21049W        W35896  17.434  19.788   0.256
21050W        W35897  17.444   1.715  12.829
21051W        W35898  18.362  12.449   0.255
21052W        W35899  18.838   5.167   0.285
21053W        W35900  17.415   3.675   3.156
21054W        W35901  17.886  17.342  10.893
21055W        W35902  14.123  13.440   0.739
21056W        W35903  17.923   1.727   4.114
21057W        W35904  15.072   6.114   1.211
21058W        W35905  14.625   9.552   2.674
21059W        W35906  19.799  10.518  13.805
21060W        W35907  16.016  11.957   9.947
21061W        W35908  15.572  16.837   0.768
21062W        W35909  12.250   1.711  10.906
21063W        W35910  18.361   4.676   4.624
21064W        W35911  18.359   2.226  12.839
21065W        W35912  18.848   1.712  13.791
21066W        W35913  13.198  11.479   4.135
21067W        W35914  16.008   6.616   1.216
21068W        W35915  17.889   7.586  10.911
21069W        W35916  14.164  10.015  13.351
21070W        W35917  17.445   9.061  13.331
21071W        W35918  16.023  14.424  14.786
21072W        W35919  13.188  10.521  13.311
21073W        W35920  15.102   7.567   4.632
21074W        W35921  18.370  12.443  12.825
21075W        W35922  14.150  15.414  10.893
21076W        W35923  15.071  10.989   0.276
21077W        W35924  14.598   2.235  13.347
21078W        W35925  15.538  15.865   3.178
21079W        W35926  15.539  10.504  13.804
21080W        W35927  18.377  12.943   0.243
21081W        W35928  12.730   9.538   0.766
21082W        W35929  19.328  12.972   3.146
21083W        W35930  16.038  10.498  14.782
21084W        W35931  12.733   3.191  10.915
21085W        W35932  19.303  15.873   4.608
21086W        W35933  17.905  19.790   4.134
21087W        W35934  16.942  10.029  10.450
21088W        W35935  13.206   7.590  11.413
21089W        W35936  14.598   6.128  14.305
21090W        W35937  15.563  12.482  14.760
21091W        W35938  19.338  19.771   3.670
21092W        W35939  19.788   3.218   3.675
21093W        W35940  14.147  18.811  12.857
21094W        W35941  16.492  18.810   1.235
21095W        W35942  14.614  17.358   3.154
21096W        W35943  14.144  17.853  13.330
21097W        W35944  13.670  19.299   3.170
21098W        W35945  13.676   3.178   2.679
21099W        W35946  16.036  17.825   3.152
21100W        W35947  15.101  16.836   3.642
21101W        W35948  18.870   0.276  12.823
21102W        W35949  17.885   2.697   2.208
21103W        W35950  15.568   0.760   4.148
21104W        W35951  16.477  18.788   4.640
21105W        W35952  18.861  18.805   0.255
21106W        W35953  13.692  18.294   1.221
21107W        W35954  14.122   3.177   4.153
21108W        W35955  16.967  11.020   2.669
21109W        W35956  12.710   7.081  11.876
21110W        W35957  16.027   4.644  13.328
21111W        W35958  18.375   8.076  10.442
21112W        W35959  14.125   8.572   0.773
21113W        W35960  12.746  16.366   2.190
21114W        W35961  12.265   1.240  11.857
21115W        W35962  17.445  11.962  13.791
21116W        W35963  16.026  10.004  13.832
21117W        W35964  18.861   8.578  14.277
21118W        W35965  16.481   2.233  13.791
21119W        W35966  15.541   2.242   2.181
21120W        W35967  16.004  10.002   1.237
21121W        W35968  14.594   1.236  12.367
21122W        W35969  13.648  11.482   4.116
21123W        W35970  18.841   6.099   1.221
21124W        W35971  17.417  14.908   0.245
21125W        W35972  14.599  14.900   3.669
21126W        W35973  13.223  13.430   2.199
21127W        W35974  15.069   3.662  10.916
21128W        W35975  18.387   0.769   2.701
21129W        W35976  19.327   1.715  14.784
21130W        W35977  13.189  10.506  11.885
21131W        W35978  19.800   6.105   4.144
21132W        W35979  13.199   3.674   1.706
21133W        W35980  12.268   7.098   5.115
21134W        W35981  19.790  17.352   2.209
21135W        W35982  18.369  15.387  12.835
21136W        W35983  16.478  13.940   3.177
21137W        W35984  13.217  19.305   0.254
21138W        W35985  13.688   3.661   2.700
21139W        W35986  16.005   1.721   3.665
21140W        W35987  15.572  18.312   1.234
21141W        W35988  18.855  13.430   2.695
21142W        W35989  14.126   8.577   3.668
21143W        W35990  15.078  18.330   4.619
21144W        W35991  12.248  10.020   1.696
21145W        W35992  15.541   1.746  13.345
21146W        W35993  16.482   0.771  11.895
21147W        W35994  16.947  11.006  14.797
21148W        W35995  12.725  14.426   4.126
21149W        W35996  14.127   8.062  11.881
21150W        W35997  13.668   1.755  14.319
21151W        W35998  14.119   7.587   1.252
21152W        W35999  19.338  19.286  12.843
21153W        W36000  12.716   1.261  14.292
21154W        W36001  18.847   6.115  12.360
21155W        W36002  18.384  12.961  11.384
21156W        W36003  18.854  18.796  14.772
21157W        W36004  15.530   2.198  11.868
21158W        W36005  17.438   6.106   1.707
21159W        W36006  19.779  10.030  11.411
21160W        W36007  16.949   3.177  11.872
21161W        W36008  14.632  16.852   4.623
21162W        W36009  17.895   6.630   9.948
21163W        W36010  16.034  13.938   9.935
21164W        W36011  16.943  12.452  11.374
21165W        W36012  17.454  12.465  12.375
21166W        W36013  13.198   3.184  12.385
21167W        W36014  17.447   1.731  14.768
21168W        W36015  15.076  16.363   4.645
21169W        W36016  13.198   6.586   0.260
21170W        W36017  16.031   2.220  10.423
21171W        W36018  19.315   2.218  11.410
21172W        W36019  13.667   0.753   3.640
21173W        W36020  16.513  13.945   0.767
21174W        W36021  14.150  14.901   1.211
21175W        W36022  19.320  10.513  11.894
21176W        W36023  19.315   1.220   4.151
21177W        W36024  19.779  11.496   3.670
21178W        W36025  16.044  18.295  14.780
21179W        W36026  16.490  16.862  10.414
21180W        W36027  15.537   6.112   1.698
21181W        W36028  13.195   8.580  14.310
21182W        W36029  16.985  17.852   0.242
21183W        W36030  15.552  12.460  12.838
21184W        W36031  16.950   4.188   1.224
21185W        W36032  16.967  12.445   2.686
21186W        W36033  13.218  10.977  12.354
21187W        W36034  17.451   0.275   2.662
21188W        W36035  19.804   3.700   3.182
21189W        W36036  18.390  13.444  12.832
21190W        W36037  16.005  11.476   4.129
21191W        W36038  12.277   1.258   1.715
21192W        W36039  17.883  15.405   3.633
21193W        W36040  14.130  16.838  14.294
21194W        W36041  19.783  13.458   4.598
21195W        W36042  18.398   6.598  13.323
21196W        W36043  16.942   1.240  11.900
21197W        W36044  13.204   6.127  11.411
21198W        W36045  15.092  16.354   4.129
21199W        W36046  13.689   2.222  10.423
21200W        W36047  19.786  15.857   0.734
21201W        W36048  14.612  14.883  10.440
21202W        W36049  16.480  15.399  13.811
21203W        W36050  15.545  19.767  10.438
21204W        W36051  16.003  10.046  10.424
21205W        W36052  14.633   5.612  13.814
21206W        W36053  14.161   3.181   3.638
21207W        W36054  13.191  13.949   3.191
21208W        W36055  15.530  14.915   4.158
21209W        W36056  15.066  19.285   9.926
21210W        W36057  13.203   6.104   4.148
21211W        W36058  14.134  19.314   1.244
21212W        W36059  19.795   9.036   0.730
21213W        W36060  17.923   9.066  13.794
21214W        W36061  12.247  19.792   3.666
21215W        W36062  14.118   9.552   3.661
21216W        W36063  12.728  19.797  13.825
21217W        W36064  15.097   3.699   3.659
21218W        W36065  14.140  13.435  13.829
21219W        W36066  14.135   4.187   0.251
21220W        W36067  16.035   4.188  11.903
21221W        W36068  16.958  13.945  11.867
21222W        W36069  19.297  10.532  13.798
21223W        W36070  16.968   2.233  13.833
21224W        W36071  19.310  10.492   2.219
21225W        W36072  19.298   8.579   1.740
21226W        W36073  19.316  10.017   1.729
21227W        W36074  16.041   9.539  12.850
21228W        W36075  17.901   1.713   0.249
21229W        W36076  16.513   5.162  14.779
21230W        W36077  19.327  19.789  14.764
21231W        W36078  13.692  16.389  11.414
21232W        W36079  19.777  19.302  10.915
21233W        W36080  14.611   7.095  14.312
21234W        W36081  16.489  13.419   1.250
21235W        W36082  15.078   6.595   3.156
21236W        W36083  16.013  10.489   1.733
21237W        W36084  16.954   4.639   5.081
21238W        W36085  13.214   0.279   1.226
21239W        W36086  17.883   1.737   2.218
21240W        W36087  12.749   2.731   3.656
21241W        W36088  18.841  16.875  12.833
21242W        W36089  18.354  15.871   2.696
21243W        W36090  15.092  15.408  10.892
21244W        W36091  13.664   5.615   1.729
21245W        W36092  14.132  16.353  14.765
21246W        W36093  15.539   8.094  10.926
21247W        W36094  15.094   2.202   1.736
21248W        W36095  15.071   0.764  12.861
21249W        W36096  12.236  17.325   3.654
21250W        W36097  17.905  16.842   1.704
21251W        W36098  13.662   9.524  10.935
21252W        W36099  13.657   6.604   3.157
21253W        W36100  17.928  16.377   3.149
21254W        W36101  16.484  16.374  13.342
21255W        W36102  15.097  17.819   0.267
21256W        W36103  17.928  14.404   3.666
21257W        W36104  18.359   2.685   3.186
21258W        W36105  15.079   2.216  11.855
21259W        W36106  13.214  15.882  10.415
21260W        W36107  18.863   2.690   2.701
21261W        W36108  15.089  12.941  11.418
21262W        W36109  16.979   0.252   0.731
21263W        W36110  17.416  17.360   3.174
21264W        W36111  13.668  13.928   2.696
21265W        W36112  16.978   8.585  13.332
21266W        W36113  12.258  14.434  14.795
21267W        W36114  16.943  11.995   4.131
21268W        W36115  15.545  13.423  10.888
21269W        W36116  19.320   7.607   2.190
21270W        W36117  19.806  10.499  11.401
21271W        W36118  15.099  16.377   2.691
21272W        W36119  13.216   5.626  10.415
21273W        W36120  14.622   5.167  12.852
21274W        W36121  19.771  18.805  10.410
21275W        W36122  16.043   7.102   1.217
21276W        W36123  16.474   6.598  10.917
21277W        W36124  16.964  12.464  14.313
21278W        W36125  15.073   9.049   3.655
21279W        W36126  19.775   3.695  10.419
21280W        W36127  17.895  10.518  14.791
21281W        W36128  16.988  17.845   4.122
21282W        W36129  19.775  18.789   1.704
21283W        W36130  18.384   1.715   2.200
21284W        W36131  17.909  11.961  12.344
21285W        W36132  13.660   1.225   3.673
21286W        W36133  12.257  15.385   2.204
21287W        W36134  19.783  14.400  13.791
21288W        W36135  16.037   7.564  13.337
21289W        W36136  12.744   9.538   2.698
21290W        W36137  15.067   9.531  10.404
21291W        W36138  17.450  13.430   3.672
21292W        W36139  14.138  10.509   4.605
21293W        W36140  15.533  17.331  13.829
21294W        W36141  12.708  18.328  12.357
21295W        W36142  17.895   4.649   3.153
21296W        W36143  18.867  17.853  11.395
21297W        W36144  18.358  17.353  13.793
21298W        W36145  19.312   6.622  14.307
21299W        W36146  16.039   9.042  13.350
21300W        W36147  13.676   0.747   5.123
21301W        W36148  15.067   1.717  13.349
21302W        W36149  17.419  18.312  10.925
21303W        W36150  17.909   8.072   1.724
21304W        W36151  15.576   4.157   0.745
21305W        W36152  13.653  14.415   2.675
21306W        W36153  18.835   6.629  11.892
21307W        W36154  16.961   1.733   1.696
21308W        W36155  18.384   2.201  13.331
21309W        W36156  17.443   3.209   2.667
21310W        W36157  17.914   1.249   2.671
21311W        W36158  18.841  11.955   2.222
21312W        W36159  12.256  18.311  14.279
21313W        W36160  18.357  10.514  10.923
21314W        W36161  13.669   9.044  12.841
21315W        W36162  16.963   4.678   1.730
21316W        W36163  16.971   8.069   0.741
21317W        W36164  14.619   4.661   2.707
21318W        W36165  18.380   6.119   3.163
21319W        W36166  13.183  18.819   4.629
21320W        W36167  12.726   8.091   0.276
21321W        W36168  15.552   6.111  12.857
21322W        W36169  19.310  16.390   2.210
21323W        W36170  14.132   3.681  12.347
21324W        W36171  12.239   2.731   4.149
21325W        W36172  15.072  17.328  12.369
21326W        W36173  13.682  14.911   2.687
21327W        W36174  15.104  14.924  14.299
21328W        W36175  16.019  11.979  12.855
21329W        W36176  13.206  11.984   2.184
21330W        W36177  16.478   8.068  10.439
21331W        W36178  19.805   6.137  11.378
21332W        W36179  15.102  16.366  14.787
21333W        W36180  13.181  19.792   0.732
21334W        W36181  12.243  11.489  13.837
21335W        W36182  16.016  11.024   3.155
21336W        W36183  19.790   2.727   4.131
21337W        W36184  12.710   8.096   4.135
21338W        W36185  17.458   7.083   1.238
21339W        W36186  14.149  16.874   0.267
21340W        W36187  17.440   0.751   2.697
21341W        W36188  17.920  14.409   1.710
21342W        W36189  13.664   7.562   1.704
21343W        W36190  13.197  15.381  14.316
21344W        W36191  18.385  10.532  12.380
21345W        W36192  19.771   0.260   1.221
21346W        W36193  14.128   3.210  13.341
21347W        W36194  13.667   2.697   9.950
21348W        W36195  12.246  11.016   0.769
21349W        W36196  18.861  19.774   2.183
21350W        W36197  14.152  16.854  11.866
21351W        W36198  16.472  11.024  12.865
21352W        W36199  17.451   2.712   4.134
21353W        W36200  14.130  13.919  14.767
21354W        W36201  19.791   6.624   9.930
21355W        W36202  14.148  13.443  13.332
21356W        W36203  12.271   2.242  11.401
21357W        W36204  12.748  18.783   3.641
21358W        W36205  16.472   1.709  11.401
21359W        W36206  18.377   0.245  14.799
21360W        W36207  16.498   7.107   3.146
21361W        W36208  17.426   8.584  13.833
21362W        W36209  15.065  15.855   2.686
21363W        W36210  19.328   9.033   1.230
21364W        W36211  15.558   5.122   3.156
21365W        W36212  16.948  17.337   0.243
21366W        W36213  18.865  11.983   0.768
21367W        W36214  12.720   8.068  10.409
21368W        W36215  12.249   7.608  11.893
21369W        W36216  18.849  10.033   1.718
21370W        W36217  12.240  15.857   4.636
21371W        W36218  17.897  16.346   1.708
21372W        W36219  16.487   9.552  14.304
21373W        W36220  18.392  18.782  13.837
21374W        W36221  16.015   9.035   1.715
21375W        W36222  13.207  16.852   3.187
21376W        W36223  16.003  11.486   4.625
21377W        W36224  18.372  13.951  11.903
21378W        W36225  13.660  12.487   4.626
21379W        W36226  12.243  14.402  10.929
21380W        W36227  18.398   2.212   0.255
21381W        W36228  16.512  19.315   2.194
21382W        W36229  17.441   5.621   4.118
21383W        W36230  17.413   1.245   1.741
21384W        W36231  16.034   3.665   2.704
21385W        W36232  17.446   4.675  10.921
21386W        W36233  13.693   3.179  12.356
21387W        W36234  12.716  12.441   0.257
21388W        W36235  14.631   3.191  12.358
21389W        W36236  13.180  14.911   2.193
21390W        W36237  12.257  19.801  11.405
21391W        W36238  15.562  14.395  10.425
21392W        W36239  17.444   9.527  14.314
21393W        W36240  13.672   7.112   1.700
21394W        W36241  15.100  13.931   3.169
21395W        W36242  18.379   3.695  11.419
21396W        W36243  19.802  16.382  13.340
21397W        W36244  14.126   9.026   0.290
21398W        W36245  16.000   1.246   4.146
21399W        W36246  17.907   5.627   0.254
21400W        W36247  17.425  11.975   3.188
21401W        W36248  14.621   3.669  10.916
21402W        W36249  12.722  10.507  11.379
21403W        W36250  15.094  14.879   2.678
21404W        W36251  17.919   2.219  12.366
21405W        W36252  13.682  15.873   0.249
21406W        W36253  14.160  14.903   3.645
21407W        W36254  12.717  11.506  13.811
21408W        W36255  18.372  14.398   2.210
21409W        W36256  12.724  17.831   4.629
21410W        W36257  18.849   8.063   0.760
21411W        W36258  12.744   4.167   4.152
21412W        W36259  15.561  10.507   1.728
21413W        W36260  14.605  11.981  14.305
21414W        W36261  13.223   8.078  11.385
21415W        W36262  18.356   7.601  14.323
21416W        W36263  16.018   2.700   3.147
21417W        W36264  17.900   6.614   0.760
21418W        W36265  17.417  12.463  11.419
21419W        W36266  18.855  19.314   5.094
21420W        W36267  12.242  12.486  13.345
21421W        W36268  16.987   2.235   0.257
21422W        W36269  17.423  13.929   2.205
21423W        W36270  16.474   5.629   1.229
21424W        W36271  15.067  16.344  11.381
21425W        W36272  12.249  13.905   3.664
21426W        W36273  14.130  11.007   2.214
21427W        W36274  16.483  11.476  14.792
21428W        W36275  16.958  10.494  14.320
21429W        W36276  16.486  10.519  13.812
21430W        W36277  13.181  16.364  10.893
21431W        W36278  14.156   8.543   0.265
21432W        W36279  16.041   6.610   1.707
21433W        W36280  14.141  10.976   2.667
21434W        W36281  13.679  14.927   0.257
21435W        W36282  19.787   1.708   1.241
21436W        W36283  16.982  16.356   4.145
21437W        W36284  12.281   2.697   5.128
21438W        W36285  13.185   2.223  14.758
21439W        W36286  15.531  16.854  13.315
21440W        W36287  16.969  16.383   2.693
21441W        W36288  17.443   0.275  10.448
21442W        W36289  12.248  14.896   2.697
21443W        W36290  13.664  19.799  11.859
21444W        W36291  14.605   0.252  12.847
21445W        W36292  16.490   7.076  14.278
21446W        W36293  17.921  10.516   1.257
21447W        W36294  19.770  19.783   4.129
21448W        W36295  14.624   7.106  10.928
21449W        W36296  19.324   0.763   2.183
21450W        W36297  19.308   9.530  14.774
21451W        W36298  13.213  16.841  12.350
21452W        W36299  14.602  10.023  14.784
21453W        W36300  17.890   8.061  13.344
21454W        W36301  17.438   1.747   0.739
21455W        W36302  17.919   2.702  10.405
21456W        W36303  13.692   6.623  11.390
21457W        W36304  15.565  15.855   0.746
21458W        W36305  15.558   3.210   4.620
21459W        W36306  14.616   6.587  14.307
21460W        W36307  19.781  18.330   2.202
21461W        W36308  12.736   7.607   2.683
21462W        W36309  15.091  11.481   3.155
21463W        W36310  19.317  10.026  10.913
21464W        W36311  12.279  19.288   3.673
21465W        W36312  13.667  19.305  14.300
21466W        W36313  13.678  14.421   4.135
21467W        W36314  17.916   8.566  11.393
21468W        W36315  15.535  18.824   1.223
21469W        W36316  19.325   7.604  12.385
21470W        W36317  17.902   9.064   1.213
21471W        W36318  15.535  19.304  14.312
21472W        W36319  16.510   1.750   1.252
21473W        W36320  18.841  14.917   2.214
21474W        W36321  12.260   0.779  13.831
21475W        W36322  18.389  13.424  12.355
21476W        W36323  14.122   1.745   3.662
21477W        W36324  17.444  15.402  12.852
21478W        W36325  15.075  13.427  10.432
21479W        W36326  19.316   2.686   3.166
21480W        W36327  17.432  17.345  10.436
21481W        W36328  15.532  15.885  12.844
21482W        W36329  15.086  18.788  12.385
21483W        W36330  16.947  11.498  10.919
21484W        W36331  15.070  18.786   3.647
21485W        W36332  12.727  11.488   3.644
21486W        W36333  14.134  16.850  10.438
21487W        W36334  19.332  15.869  12.370
21488W        W36335  14.626   8.540  12.860
21489W        W36336  18.847  16.866  13.322
21490W        W36337  16.957   8.054   5.107
21491W        W36338  16.988   6.114   4.113
21492W        W36339  12.260  16.356  10.427
21493W        W36340  14.136  17.323   9.949
21494W        W36341  15.549  13.941   2.203
21495W        W36342  13.210   6.629  14.797
21496W        W36343  16.038   4.680  10.417
21497W        W36344  19.325   9.028  12.832
21498W        W36345  19.334   3.684  13.815
21499W        W36346  12.719  11.490   0.258
21500W        W36347  17.458  16.851   1.250
21501W        W36348  16.970   9.525   4.125
21502W        W36349  14.143   1.244   2.696
21503W        W36350  16.472  14.910  14.798
21504W        W36351  18.867  10.013  12.368
21505W        W36352  12.737   1.719   0.728
21506W        W36353  13.190   5.154  10.891
21507W        W36354  14.634   6.145   4.157
21508W        W36355  19.793   7.570  13.329
21509W        W36356  19.810   9.042   1.217
21510W        W36357  15.550  12.476   0.762
21511W        W36358  14.621   7.102  14.802
21512W        W36359  16.953   4.668   1.249
21513W        W36360  19.324  10.981  14.321
21514W        W36361  17.924   8.066  11.402
21515W        W36362  15.538  17.358   2.677
21516W        W36363  17.450   7.106   3.647
21517W        W36364  16.952   0.266  11.870
21518W        W36365  17.924  13.456  14.763
21519W        W36366  12.259   8.068   0.754
21520W        W36367  16.978  18.333   1.227
21521W        W36368  18.865  14.393  11.893
21522W        W36369  12.725  10.990  13.815
21523W        W36370  17.927  15.868   0.282
21524W        W36371  19.796   5.139   1.700
21525W        W36372  14.161  18.819   2.708
21526W        W36373  12.240  12.484  10.438
21527W        W36374  16.947   7.567   2.213
21528W        W36375  12.273   9.058   2.200
21529W        W36376  18.824  10.512  14.776
21530W        W36377  17.919  12.467   0.284
21531W        W36378  12.246  18.797   3.147
21532W        W36379  14.595  13.456  12.859
21533W        W36380  16.043   7.597   2.225
21534W        W36381  12.272  13.446  12.869
21535W        W36382  12.282   6.586   3.147
21536W        W36383  17.412  11.495   2.210
21537W        W36384  13.204   7.606   1.210
21538W        W36385  15.088   6.115  11.382
21539W        W36386  12.730  14.878  14.313
21540W        W36387  14.164   8.077   3.664
21541W        W36388  16.002   9.529  11.876
21542W        W36389  12.251   1.225  13.317
21543W        W36390  17.420  11.007  10.905
21544W        W36391  12.264  15.893  11.410
21545W        W36392  16.012   6.115  13.801
21546W        W36393  12.716  16.355   2.702
21547W        W36394  14.605   5.624   4.598
21548W        W36395  13.211  13.920   1.725
21549W        W36396  14.137   4.153   3.630
21550W        W36397  16.018   8.053  10.406
21551W        W36398  12.745  15.372   0.750
21552W        W36399  12.250   7.082  11.404
21553W        W36400  13.678   4.194   1.717
21554W        W36401  19.774   4.672  13.833
21555W        W36402  16.004   8.571  14.783
21556W        W36403  16.487   9.043  14.778
21557W        W36404  13.680   2.729   5.083
21558W        W36405  15.076   9.514   1.735
21559W        W36406  17.887  12.971   4.125
21560W        W36407  12.236   5.149   1.211
21561W        W36408  19.802   9.517  11.379
21562W        W36409  18.355   7.598   2.203
21563W        W36410  19.781   2.219  13.329
21564W        W36411  18.858   4.154   4.610
21565W        W36412  13.210   4.664   9.944
21566W        W36413  13.216   7.575  13.345
21567W        W36414  13.221   7.110  13.322
21568W        W36415  19.790  13.938   3.673
21569W        W36416  17.424  10.010  12.356
21570W        W36417  19.778   5.624   2.212
21571W        W36418  13.664  19.794  13.342
21572W        W36419  18.830  13.925  12.863
21573W        W36420  12.726   0.767  13.309
21574W        W36421  13.683  10.029   4.599
21575W        W36422  18.855  13.421   4.125
21576W        W36423  15.554   4.186   4.643
21577W        W36424  17.428  13.923   1.256
21578W        W36425  18.387  10.525   1.233
21579W        W36426  17.419   8.572   3.658
21580W        W36427  18.358  10.019  11.393
21581W        W36428  19.295   4.180   1.211
21582W        W36429  13.218  19.773   5.596
21583W        W36430  17.917  11.499   0.742
21584W        W36431  18.378  18.334  11.388
21585W        W36432  15.073  10.500  12.362
21586W        W36433  15.558  13.442   1.227
21587W        W36434  19.805   1.712   3.637
21588W        W36435  16.003  11.487   0.246
21589W        W36436  12.242  18.322   1.703
21590W        W36437  13.197  19.797   4.609
21591W        W36438  15.090   6.619   4.146
21592W        W36439  13.212   1.743  11.892
21593W        W36440  17.914  16.371   0.751
21594W        W36441  12.711   1.230  10.907
21595W        W36442  13.185   6.627   3.669
21596W        W36443  19.794   4.650   0.246
21597W        W36444  19.305   8.085  13.325
21598W        W36445  16.489   2.701   0.243
21599W        W36446  13.659   9.033   2.695
21600W        W36447  18.855   3.663   3.187
21601W        W36448  13.210   3.194   5.095
21602W        W36449  15.541   4.674   4.117
21603W        W36450  12.269   0.285   1.712
21604W        W36451  16.494  11.990  13.309
21605W        W36452  19.776   6.616   1.231
21606W        W36453  14.592  18.332  14.764
21607W        W36454  18.384  18.814  14.322
21608W        W36455  16.972  19.783  13.325
21609W        W36456  15.097   0.745   4.612
21610W        W36457  17.435   5.164   9.936
21611W        W36458  19.337  14.924   0.244
21612W        W36459  13.182  13.911  12.843
21613W        W36460  14.634   9.532  14.301
21614W        W36461  13.670  11.478  10.421
21615W        W36462  14.144  12.973   1.218
21616W        W36463  18.834  18.806   3.666
21617W        W36464  16.006  13.432  13.811
21618W        W36465  13.187  11.981  10.889
21619W        W36466  13.668   1.264   3.174
21620W        W36467  19.308  10.023   2.691
21621W        W36468  15.105   6.125  10.905
21622W        W36469  14.148   6.115  14.285
21623W        W36470  16.942  17.810  13.345
21624W        W36471  16.036   4.651   3.159
21625W        W36472  16.976   3.702   4.133
21626W        W36473  19.302   6.142  11.406
21627W        W36474  18.824  19.306   4.605
21628W        W36475  17.451   7.101  11.882
21629W        W36476  14.630   2.199   2.207
21630W        W36477  17.436  14.915  13.344
21631W        W36478  14.119  12.459   0.251
21632W        W36479  16.490   7.595  11.869
21633W        W36480  19.339  10.045  13.331
21634W        W36481  15.565  16.832   3.168
21635W        W36482  14.147  10.009  12.358
21636W        W36483  12.275  17.337   0.735
21637W        W36484  15.082   1.739  12.350
21638W        W36485  16.022  12.484   0.765
21639W        W36486  14.599   3.670   1.709
21640W        W36487  16.949  10.534  13.312
21641W        W36488  19.304  16.857  12.361
21642W        W36489  18.866  10.026   1.226
21643W        W36490  12.277  18.338  13.792
21644W        W36491  15.569  13.425  10.406
21645W        W36492  15.569  14.925  11.388
21646W        W36493  12.282   1.267   3.646
21647W        W36494  16.955  15.405   0.750
21648W        W36495  16.953   6.597   3.190
21649W        W36496  17.422  17.826  14.800
21650W        W36497  18.832  11.473   0.257
21651W        W36498  18.857  15.872   1.739
21652W        W36499  16.030   1.224   3.174
21653W        W36500  15.094  19.286   1.730
21654W        W36501  16.964  17.821   0.774
21655W        W36502  15.088  19.289   4.150
21656W        W36503  16.040  19.780   3.168
21657W        W36504  15.566   8.540  10.415
21658W        W36505  18.357   8.566  11.880
21659W        W36506  15.535  11.010   2.706
21660W        W36507  17.909   4.678   2.183
21661W        W36508  19.313   0.777  10.422
21662W        W36509  12.752   9.025  10.910
21663W        W36510  16.948  13.441  14.304
21664W        W36511  16.485  13.422  13.324
21665W        W36512  15.068   6.140  13.311
21666W        W36513  19.336   5.171   3.151
21667W        W36514  14.127   5.160  11.881
21668W        W36515  13.689   1.225   4.156
21669W        W36516  16.485   2.708   2.216
21670W        W36517  14.628   2.690   0.280
21671W        W36518  15.082  19.312   0.754
21672W        W36519  15.086  16.842   1.727
21673W        W36520  12.237   2.699   2.703
21674W        W36521  15.558  14.882  11.866
21675W        W36522  12.240  14.890  10.917
21676W        W36523  12.267  13.433  11.404
21677W        W36524  17.450   4.663  13.346
21678W        W36525  17.902  18.828   2.690
21679W        W36526  19.796  12.958   0.255
21680W        W36527  13.665  11.958   3.187
21681W        W36528  19.298  17.838   2.666
21682W        W36529  15.534  14.434   2.684
21683W        W36530  13.655   6.622   4.156
21684W        W36531  18.844  19.291   3.145
21685W        W36532  18.851   3.197   1.247
21686W        W36533  18.848   1.745  14.760
21687W        W36534  14.635  11.980   3.175
21688W        W36535  16.037   0.255   0.248
21689W        W36536  14.611  15.856  14.801
21690W        W36537  13.683  18.800  11.856
21691W        W36538  17.894   3.662   2.224
21692W        W36539  16.044   6.630  10.408
21693W        W36540  16.047  18.306   4.619
21694W        W36541  12.720  10.024   9.935
21695W        W36542  12.248  19.757   1.698
21696W        W36543  13.201   1.238   3.653
21697W        W36544  14.631  13.944  10.417
21698W        W36545  19.810   9.534  13.318
21699W        W36546  15.561  12.448   2.199
21700W        W36547  19.338   6.634   0.732
21701W        W36548  19.799   2.231   3.666
21702W        W36549  18.384  12.943   3.673
21703W        W36550  13.202  12.938  11.374
21704W        W36551  12.736  13.426   3.667
21705W        W36552  16.950  16.350   1.242
21706W        W36553  16.471  16.361  12.343
21707W        W36554  17.424  10.979   1.737
21708W        W36555  19.321   6.620  10.928
21709W        W36556  14.129  14.406   1.238
21710W        W36557  12.745   3.668  12.361
21711W        W36558  16.011   2.698  14.290
21712W        W36559  18.360  16.385  13.311
21713W        W36560  15.540   9.523  12.857
21714W        W36561  16.019  19.767   1.714
21715W        W36562  16.046   7.109   0.738
21716W        W36563  12.718   0.249   1.729
21717W        W36564  16.473  12.970  11.384
21718W        W36565  17.435   3.213   4.626
21719W        W36566  16.510  17.825   3.663
21720W        W36567  14.591   4.648  13.329
21721W        W36568  14.618  17.329  10.418
21722W        W36569  18.835  16.369  12.370
21723W        W36570  19.787  11.997   4.146
21724W        W36571  14.144  13.452  12.825
21725W        W36572  14.629  12.451  13.321
21726W        W36573  16.481  19.302   4.130
21727W        W36574  16.036   6.621   4.601
21728W        W36575  16.035   1.235  12.833
21729W        W36576  13.674   8.071   3.669
21730W        W36577  18.867   0.261  13.818
21731W        W36578  14.611   2.688  12.377
21732W        W36579  16.512   1.708   3.676
21733W        W36580  13.188  14.409  13.331
21734W        W36581  12.274   2.216  12.866
21735W        W36582  13.188  13.436  10.932
21736W        W36583  18.842   1.730   1.258
21737W        W36584  18.360  16.370  14.760
21738W        W36585  16.964   3.675   0.727
21739W        W36586  17.922   6.609  10.436
21740W        W36587  17.457  10.048   0.765
21741W        W36588  18.834   0.251   4.613
21742W        W36589  16.945  19.279   1.725
21743W        W36590  16.021   0.759   1.722
21744W        W36591  18.836   0.256   4.143
21745W        W36592  16.944   6.142  13.307
21746W        W36593  15.537  14.395  14.276
21747W        W36594  18.354   7.566  10.447
21748W        W36595  15.082   4.659  13.817
21749W        W36596  16.965  14.434  13.812
21750W        W36597  17.917  16.375   1.242
21751W        W36598  14.595  11.489   1.703
21752W        W36599  18.832  18.805   1.230
21753W        W36600  15.060   9.040   1.740
21754W        W36601  18.839   1.259   2.678
21755W        W36602  15.552  10.493   3.644
21756W        W36603  16.487  18.793   1.722
21757W        W36604  16.979  12.946  12.355
21758W        W36605  17.445   8.585   1.726
21759W        W36606  12.266  18.789   3.655
21760W        W36607  16.952  13.420  12.383
21761W        W36608  17.906   9.043  11.865
21762W        W36609  16.515   2.720  11.390
21763W        W36610  18.842   4.170  12.864
21764W        W36611  19.315   9.527  11.381
21765W        W36612  19.326   8.074  11.896
21766W        W36613  18.372  11.505   1.249
21767W        W36614  18.386   7.084  10.449
21768W        W36615  12.264  11.488  12.853
21769W        W36616  18.372  17.352   4.632
21770W        W36617  15.067   3.692  10.408
21771W        W36618  15.084  10.992  13.815
21772W        W36619  17.924  15.373   0.284
21773W        W36620  18.366  17.344   3.642
21774W        W36621  19.785   3.173  13.322
21775W        W36622  13.692   0.761  11.379
21776W        W36623  19.307  12.960  12.866
21777W        W36624  12.237  12.461  11.414
21778W        W36625  14.145   4.160   2.668
21779W        W36626  13.204   7.091  10.913
21780W        W36627  18.355   5.631   2.705
21781W        W36628  14.139   0.740  13.341
21782W        W36629  15.061  10.530   3.182
21783W        W36630  19.786   0.278  11.880
21784W        W36631  15.562   0.256   0.732
21785W        W36632  16.037  15.858   0.247
21786W        W36633  17.427  12.467   4.128
21787W        W36634  16.513  10.987  11.383
21788W        W36635  12.247   4.156   1.700
21789W        W36636  17.925  19.288   4.130
21790W        W36637  12.740  14.408   2.684
21791W        W36638  19.781  16.858  11.879
21792W        W36639  16.966   2.196  10.428
21793W        W36640  15.081   1.728  10.921
21794W        W36641  15.538   3.690  12.830
21795W        W36642  16.039  13.928   4.610
21796W        W36643  19.805  19.281   4.628
21797W        W36644  17.413   7.096   0.733
21798W        W36645  15.060  18.322   1.221
21799W        W36646  14.147   4.647  14.277
21800W        W36647  15.551   1.254   0.760
21801W        W36648  16.975  12.951  12.870
21802W        W36649  14.609   1.261  11.856
21803W        W36650  14.149   6.607  10.925
21804W        W36651  15.563   7.589   1.229
21805W        W36652  13.178   5.125   2.670
21806W        W36653  14.161  19.780  14.295
21807W        W36654  17.433   0.260  12.855
21808W        W36655  19.323  15.854   0.266
21809W        W36656  12.711   0.272  14.295
21810W        W36657  13.222   9.025   2.188
21811W        W36658  17.883  10.492   2.698
21812W        W36659  13.679  18.320  12.380
21813W        W36660  16.984  10.997   1.727
21814W        W36661  15.065   5.137   9.945
21815W        W36662  15.546   2.716  14.773
21816W        W36663  14.125  18.332   2.706
21817W        W36664  19.770  19.289   0.736
21818W        W36665  13.677   7.602   4.601
21819W        W36666  15.086   0.780   3.646
21820W        W36667  14.125   8.570  14.304
21821W        W36668  14.629  12.967  10.441
21822W        W36669  12.746  19.788   3.666
21823W        W36670  17.892  14.405   0.766
21824W        W36671  19.300  16.863  12.835
21825W        W36672  13.662  11.023  13.315
21826W        W36673  15.080  10.032  10.903
21827W        W36674  14.159  10.516   1.697
21828W        W36675  15.076   1.740   1.737
21829W        W36676  19.304  11.968   0.271
21830W        W36677  16.973  16.387   3.157
21831W        W36678  18.383   9.531   0.270
21832W        W36679  12.749   3.211  12.355
21833W        W36680  16.971  18.807  10.406
21834W        W36681  19.769  18.297  13.320
21835W        W36682  18.855   3.174  14.780
21836W        W36683  17.900   0.771   4.161
21837W        W36684  19.319   7.081  11.861
21838W        W36685  18.357   1.250  13.826
21839W        W36686  15.562  17.349  11.407
21840W        W36687  15.094   8.538   2.214
21841W        W36688  13.195  16.851  10.930
21842W        W36689  17.926   2.704   0.271
21843W        W36690  18.385   7.575   0.281
21844W        W36691  16.014   5.633   1.729
21845W        W36692  16.513  12.484   2.707
21846W        W36693  17.907  14.904  12.844
21847W        W36694  17.905  18.341  14.783
21848W        W36695  15.089  19.763  14.806
21849W        W36696  16.005  16.351  10.406
21850W        W36697  14.147   6.607   2.214
21851W        W36698  17.417   5.648  13.829
21852W        W36699  13.651  10.523   4.161
21853W        W36700  13.220  17.321  14.289
21854W        W36701  16.033  18.315   0.754
21855W        W36702  18.871  10.001  14.277
21856W        W36703  15.077   0.740   9.934
21857W        W36704  15.535   9.036  10.912
21858W        W36705  19.795  16.378   3.646
21859W        W36706  12.238  18.818   0.734
21860W        W36707  12.734  10.016   1.742
21861W        W36708  14.608   2.242   5.121
21862W        W36709  19.806   9.514  12.342
21863W        W36710  13.674   0.775  10.428
21864W        W36711  18.824   0.278  11.374
21865W        W36712  15.084  16.843  14.291
21866W        W36713  14.593  10.019   0.258
21867W        W36714  18.859  11.960  11.876
21868W        W36715  12.255  17.852  11.371
21869W        W36716  15.077  17.821  12.830
21870W        W36717  12.249   7.595  14.796
21871W        W36718  14.630  13.420   2.695
21872W        W36719  16.485   8.064  10.918
21873W        W36720  16.011   8.074   2.697
21874W        W36721  18.382  14.403  14.790
21875W        W36722  13.221  18.819  14.791
21876W        W36723  19.804  15.870  14.292
21877W        W36724  17.907  12.461   2.223
21878W        W36725  12.237  15.378  13.345
21879W        W36726  16.044   6.145  12.347
21880W        W36727  18.377   7.578  11.864
21881W        W36728  13.208   1.252  10.434
21882W        W36729  17.899   0.745  10.414
21883W        W36730  12.715  11.956  12.829
21884W        W36731  19.309  18.825  12.387
21885W        W36732  15.088   3.674  13.308
21886W        W36733  16.503   3.204   3.668
21887W        W36734  19.811  15.870   5.089
21888W        W36735  19.299  16.351  13.316
21889W        W36736  17.919  10.518   0.752
21890W        W36737  17.414   4.675  12.374
21891W        W36738  13.670   6.141  11.403
21892W        W36739  15.565  17.829   0.287
21893W        W36740  12.271   0.255  14.791
21894W        W36741  13.207  10.011  13.808
21895W        W36742  19.332  13.919  13.346
21896W        W36743  13.184   2.220   4.629
21897W        W36744  19.785   3.199   0.288
21898W        W36745  15.536  16.344   0.279
21899W        W36746  17.448  14.395   1.713
21900W        W36747  19.318   4.654  14.768
21901W        W36748  12.746   3.215  13.833
21902W        W36749  14.613  18.324  10.422
21903W        W36750  12.746  12.935  10.919
21904W        W36751  14.629  12.943  13.838
21905W        W36752  18.831   3.694  12.847
21906W        W36753  15.549  12.957  13.311
21907W        W36754  15.101  14.920  12.361
21908W        W36755  19.765   0.738  11.378
21909W        W36756  13.193  15.405   3.154
21910W        W36757  16.013  17.841  13.799
21911W        W36758  14.130   6.624   4.144
21912W        W36759  13.686   5.138   0.277
21913W        W36760  12.734  18.789   2.215
21914W        W36761  13.219  13.914  10.916
21915W        W36762  17.929   4.649  14.302
21916W        W36763  14.626  16.381  11.414
21917W        W36764  14.596   9.070   0.747
21918W        W36765  15.564   4.163  13.816
21919W        W36766  15.553  18.824   0.737
21920W        W36767  12.241   9.536  14.799
21921W        W36768  18.388  11.477   3.164
21922W        W36769  15.064   1.716   3.670
21923W        W36770  16.988  11.505  14.761
21924W        W36771  15.563   6.132   1.217
21925W        W36772  19.329  14.404   2.686
21926W        W36773  12.248   3.216   0.736
21927W        W36774  16.476   3.216   1.224
21928W        W36775  14.158  16.868  14.791
21929W        W36776  13.654  16.390   3.676
21930W        W36777  19.341   2.228   1.241
21931W        W36778  15.085  11.465   2.186
21932W        W36779  14.119   7.604  11.402
21933W        W36780  17.920  11.970   2.698
21934W        W36781  19.297   4.189  14.310
21935W        W36782  16.516   0.740  14.785
21936W        W36783  15.548   5.123  13.803
21937W        W36784  16.033   9.534  12.360
21938W        W36785  19.770   0.266  12.832
21939W        W36786  15.082   1.258  12.840
21940W        W36787  18.383   1.749  11.902
21941W        W36788  19.782  11.953  12.855
21942W        W36789  12.252   5.156   2.216
21943W        W36790  15.091  14.398  14.766
21944W        W36791  16.002  18.337   9.931
21945W        W36792  13.662  12.452  10.412
21946W        W36793  12.240   4.160   1.253
21947W        W36794  17.892   2.200  14.288
21948W        W36795  15.102   3.702   4.130
21949W        W36796  16.498  13.905  12.823
21950W        W36797  15.077   4.183  11.860
21951W        W36798  19.307  11.475   0.242
21952W        W36799  16.030   5.164   1.247
21953W        W36800  17.445   2.209  13.353
21954W        W36801  12.718  18.304   3.645
21955W        W36802  19.302   1.258  13.799
21956W        W36803  14.622  19.314   2.710
21957W        W36804  16.974   6.114   3.642
21958W        W36805  16.012   2.715  12.828
21959W        W36806  13.653   3.185   0.728
21960W        W36807  18.391   4.678  10.900
21961W        W36808  18.846   9.030   0.732
21962W        W36809  19.775   9.033  13.797
21963W        W36810  12.735  15.395  13.313
21964W        W36811  16.020  13.441  11.410
21965W        W36812  13.192  12.453  14.795
21966W        W36813  19.778   7.590   4.137
21967W        W36814  15.547   3.679   0.277
21968W        W36815  16.954  19.775  11.898
21969W        W36816  18.824   6.602  11.419
21970W        W36817  16.509  15.391  11.383
21971W        W36818  15.550   7.582   3.647
21972W        W36819  17.888  11.989   4.618
21973W        W36820  13.207   4.659   4.637
21974W        W36821  19.329  14.926  11.864
21975W        W36822  17.909  11.967  14.771
21976W        W36823  15.105   4.639   2.667
21977W        W36824  15.069   6.106   2.218
21978W        W36825  17.443  10.047   3.655
21979W        W36826  18.839   5.163  11.886
21980W        W36827  17.925  10.004  10.889
21981W        W36828  17.909  14.427  11.398
21982W        W36829  14.144   4.660   2.195
21983W        W36830  17.915   5.613  13.347
21984W        W36831  15.065  12.968   2.186
21985W        W36832  12.720  17.354  10.915
21986W        W36833  16.002  11.004   2.693
21987W        W36834  12.722   6.128  13.821
21988W        W36835  16.962  10.988   2.206
21989W        W36836  12.737  16.861  11.397
21990W        W36837  13.188   8.583   1.250
21991W        W36838  12.737   0.759   1.712
21992W        W36839  19.769   5.652  13.329
21993W        W36840  12.724   5.149  13.819
21994W        W36841  13.678  17.834  12.384
21995W        W36842  18.392  16.830   5.101
21996W        W36843  16.969  19.780   3.167
21997W        W36844  15.092   1.229  14.313
21998W        W36845  16.024   4.674   0.285
21999W        W36846  13.681   8.546   2.225
22000W        W36847  15.551  17.814  10.445
22001W        W36848  12.248  12.450   4.128
22002W        W36849  15.079  10.040  10.431
22003W        W36850  18.386  17.827   3.146
22004W        W36851  14.597  13.919  11.895
22005W        W36852  15.545   0.779  12.853
22006W        W36853  18.858   7.590   2.690
22007W        W36854  17.890  17.814   4.133
22008W        W36855  16.500  13.913  14.770
22009W        W36856  13.664   3.667   5.102
22010W        W36857  19.786  13.941   1.741
22011W        W36858  15.546   8.581   2.708
22012W        W36859  15.068   5.146  11.883
22013W        W36860  17.445  19.298   2.222
22014W        W36861  17.917   4.172  10.451
22015W        W36862  12.245   3.673   3.158
22016W        W36863  16.947   0.758  14.287
22017W        W36864  16.504  11.012  13.812
22018W        W36865  17.418  14.408  10.421
22019W        W36866  17.893  19.274   1.229
22020W        W36867  12.270  16.864  14.787
22021W        W36868  13.207   9.047   0.743
22022W        W36869  17.424   9.062   0.767
22023W        W36870  14.134  10.533  12.367
22024W        W36871  17.451   8.564   4.632
22025W        W36872  16.013   8.566   1.705
22026W        W36873  14.602  18.303   0.289
22027W        W36874  16.030   2.716  12.368
22028W        W36875  17.900   1.239   1.220
22029W        W36876  19.795   6.135   3.171
22030W        W36877  15.075  10.488  11.868
22031W        W36878  15.072  12.478   3.153
22032W        W36879  12.748   0.771  10.929
22033W        W36880  16.036  13.460  10.439
22034W        W36881  19.777   8.097  13.338
22035W        W36882  16.499  17.808  13.316
22036W        W36883  19.783   8.550   2.220
22037W        W36884  12.273  17.839   2.219
22038W        W36885  17.895   5.164   3.148
22039W        W36886  13.199  18.815   2.186
22040W        W36887  15.574   2.696  13.325
22041W        W36888  17.916  15.383   0.745
22042W        W36889  13.223   2.707  10.419
22043W        W36890  15.569   4.172  11.873
22044W        W36891  17.443   1.735  11.901
22045W        W36892  16.498   7.587  14.783
22046W        W36893  19.335   0.279  13.319
22047W        W36894  14.143  19.767   4.130
22048W        W36895  13.213  10.535   2.702
22049W        W36896  12.750  16.370   1.256
22050W        W36897  12.273  15.899   3.646
22051W        W36898  17.415   1.241  12.838
22052W        W36899  17.455  17.849   4.134
22053W        W36900  15.534  13.430  13.810
22054W        W36901  16.942  12.956   2.688
22055W        W36902  14.132   9.526   3.178
22056W        W36903  18.861  15.402  10.418
22057W        W36904  15.567  11.018  12.379
22058W        W36905  16.480   4.152  10.920
22059W        W36906  15.072  13.453  14.799
22060W        W36907  15.568   0.258  11.895
22061W        W36908  18.857   5.651   4.149
22062W        W36909  14.610   7.568   2.200
22063W        W36910  12.252   9.068  13.814
22064W        W36911  17.894  15.902   1.251
22065W        W36912  19.323  19.298   3.672
22066W        W36913  17.924  16.876  14.290
22067W        W36914  12.256  18.321  10.440
22068W        W36915  16.961  18.327  12.339
22069W        W36916  17.450   0.259  12.385
22070W        W36917  17.928   3.189  13.310
22071W        W36918  18.377   5.161   3.639
22072W        W36919  16.020   7.604  10.419
22073W        W36920  18.373   1.260   2.670
22074W        W36921  15.084   2.223   1.223
22075W        W36922  16.013   9.060   2.191
22076W        W36923  14.122   2.688  10.890
22077W        W36924  18.378  14.409   3.169
22078W        W36925  17.906  14.888  12.348
22079W        W36926  14.164   4.654   2.696
22080W        W36927  17.417  12.930  12.837
22081W        W36928  12.239   1.266   4.133
22082W        W36929  18.391   1.734  10.890
22083W        W36930  14.611  16.342   2.677
22084W        W36931  15.078   2.724  14.789
22085W        W36932  17.454   7.579  14.790
22086W        W36933  19.341  11.489   2.211
22087W        W36934  13.219   4.162   1.228
22088W        W36935  12.243  18.336  11.875
22089W        W36936  16.501  13.448   0.763
22090W        W36937  15.076  11.987   0.774
22091W        W36938  16.962   3.190   0.764
22092W        W36939  12.733  18.294  12.841
22093W        W36940  14.604   3.667  12.356
22094W        W36941  12.738   0.735  12.827
22095W        W36942  17.919  11.471   4.641
22096W        W36943  12.717   3.705  13.318
22097W        W36944  15.536   0.263   0.257
22098W        W36945  16.958   6.611  14.288
22099W        W36946  14.122   9.032  12.342
22100W        W36947  17.457   7.117   0.261
22101W        W36948  16.032  12.974  10.903
22102W        W36949  13.222   4.155   0.244
22103W        W36950  14.138  13.436  12.372
22104W        W36951  13.182  13.922   0.242
22105W        W36952  17.898   7.073  14.305
22106W        W36953  19.771  12.473  13.837
22107W        W36954  16.475  18.821  11.867
22108W        W36955  18.365  15.396   0.282
22109W        W36956  16.045  15.864  10.924
22110W        W36957  13.199   4.179  11.390
22111W        W36958  13.201   6.611   0.736
22112W        W36959  17.434   6.612  10.405
22113W        W36960  14.131  14.408  12.348
22114W        W36961  13.671   6.626   3.635
22115W        W36962  12.247  11.955  14.772
22116W        W36963  17.444  18.820   3.641
22117W        W36964  18.865   8.059   1.721
22118W        W36965  17.915   9.561   0.740
22119W        W36966  19.771   3.213  13.809
22120W        W36967  15.064   2.229  13.351
22121W        W36968  13.216   9.036   0.252
22122W        W36969  15.562   0.776   0.264
22123W        W36970  15.072   4.150  14.767
22124W        W36971  18.847   5.137   2.212
22125W        W36972  12.729  14.904   3.170
22126W        W36973  15.553   0.250  14.314
22127W        W36974  19.808  11.953  13.835
22128W        W36975  13.221   7.569  13.814
22129W        W36976  19.809  16.373   2.692
22130W        W36977  12.235   3.196   2.676
22131W        W36978  19.777   4.180   0.765
22132W        W36979  13.195  18.328   3.151
22133W        W36980  17.416   5.613  14.296
22134W        W36981  12.271  14.921  13.835
22135W        W36982  16.493   9.524  11.415
22136W        W36983  15.562  19.310   3.670
22137W        W36984  17.921  19.799  12.347
22138W        W36985  17.908  11.498   3.630
22139W        W36986  16.497  17.328   2.209
22140W        W36987  16.014  19.274   3.170
22141W        W36988  12.716  13.931   2.212
22142W        W36989  17.911  12.466   1.250
22143W        W36990  18.836   8.577  12.376
22144W        W36991  14.142   1.229  12.867
22145W        W36992  19.306  19.288  10.412
22146W        W36993  17.414  10.001   1.715
22147W        W36994  16.950  16.383  10.898
22148W        W36995  17.419   4.166   3.182
22149W        W36996  15.096   9.550   0.258
22150W        W36997  17.922   8.567  12.864
22151W        W36998  18.847   8.552   1.697
22152W        W36999  12.747   9.532  13.327
22153W        W37000  16.503  19.280  10.424
22154W        W37001  17.432  18.330   0.739
22155W        W37002  16.484   1.267   1.258
22156W        W37003  13.183   7.565   0.287
22157W        W37004  16.952   5.627  11.385
22158W        W37005  19.778   3.175  10.896
22159W        W37006  12.253  18.785  13.822
22160W        W37007  19.339  14.925   0.741
22161W        W37008  17.922  18.321  13.826
22162W        W37009  16.042  15.393   0.756
22163W        W37010  12.249   3.189  14.770
22164W        W37011  16.967   9.047  10.424
22165W        W37012  18.361  15.889   3.629
22166W        W37013  13.680   7.578  14.290
22167W        W37014  12.262   6.595   1.727
22168W        W37015  19.767   7.586   1.233
22169W        W37016  15.068   0.280  12.345
22170W        W37017  17.923  10.015   3.186
22171W        W37018  15.093  11.499  10.932
22172W        W37019  19.329   7.573   1.237
22173W        W37020  18.361  19.787   4.631
22174W        W37021  17.893   2.230   4.637
22175W        W37022  13.671   9.514   4.119
22176W        W37023  12.255   4.182   0.279
22177W        W37024  16.017  19.759   2.662
22178W        W37025  15.102   3.678   2.185
22179W        W37026  18.858   6.605  10.910
22180W        W37027  17.452   6.605   3.673
22181W        W37028  16.493  11.471   4.151
22182W        W37029  19.800   7.089   3.150
22183W        W37030  13.200   9.039  10.931
22184W        W37031  16.028  11.991   3.645
22185W        W37032  13.221  12.958   3.641
22186W        W37033  18.370  18.821  10.888
22187W        W37034  19.786  11.482   2.687
22188W        W37035  13.655   1.741  11.873
22189W        W37036  16.031  13.910  13.827
22190W        W37037  17.428  11.509  12.351
22191W        W37038  14.611  15.370   1.243
22192W        W37039  14.143  19.793   3.170
22193W        W37040  15.535   0.744  12.368
22194W        W37041  17.924   9.029  12.363
22195W        W37042  12.236  19.289  10.893
22196W        W37043  18.383   3.694   4.128
22197W        W37044  13.676   5.635  13.799
22198W        W37045  18.862  14.892   1.258
22199W        W37046  18.375   6.609   3.651
22200W        W37047  17.929   6.603  12.838
22201W        W37048  14.620   2.221  10.934
22202W        W37049  17.896  13.417   4.159
22203W        W37050  16.513   7.105   1.256
22204W        W37051  14.622   4.152  14.281
22205W        W37052  16.487   2.729   2.698
22206W        W37053  14.596   5.645   4.140
22207W        W37054  19.797  19.780   2.221
22208W        W37055  18.385  16.346   2.178
22209W        W37056  14.614   5.656  10.430
22210W        W37057  15.544   9.040  13.342
22211W        W37058  17.414  14.394  13.807
22212W        W37059  18.860   8.067   4.145
22213W        W37060  16.950   1.749  11.398
22214W        W37061  15.082   1.756   2.193
22215W        W37062  14.608  14.423   3.189
22216W        W37063  15.100  14.411  12.383
22217W        W37064  16.034   9.553   0.730
22218W        W37065  15.102   0.278   3.152
22219W        W37066  13.652  10.533   3.168
22220W        W37067  12.707  12.466  12.836
22221W        W37068  19.298   5.131  14.286
22222W        W37069  17.433   8.548  12.825
22223W        W37070  15.100   4.659   5.106
22224W        W37071  12.236   7.094  10.924
22225W        W37072  19.777   7.591  14.776
22226W        W37073  16.481  10.002  11.895
22227W        W37074  14.131  19.294   5.112
22228W        W37075  19.765  11.506   1.243
22229W        W37076  14.151  19.285  13.320
22230W        W37077  18.375   8.564   5.124
22231W        W37078  14.621   2.709  13.807
22232W        W37079  18.846   6.100   2.686
22233W        W37080  18.859   9.050  13.334
22234W        W37081  15.067   4.177  14.310
22235W        W37082  16.479   0.256   4.161
22236W        W37083  13.202  15.409  13.331
22237W        W37084  12.243  15.884   5.126
22238W        W37085  16.012   2.700   1.715
22239W        W37086  12.707  13.451   0.275
22240W        W37087  13.657   2.715  13.332
22241W        W37088  18.843  18.789  14.305
22242W        W37089  17.441  12.460  10.441
22243W        W37090  19.783  12.929   2.681
22244W        W37091  12.280   9.032   4.127
22245W        W37092  18.827   7.604  10.406
22246W        W37093  13.210  12.484  12.860
22247W        W37094  13.190   3.663   2.218
22248W        W37095  19.806   1.254   4.612
22249W        W37096  16.022  17.319   1.231
22250W        W37097  18.353   3.661   0.752
22251W        W37098  12.252  17.814   2.689
22252W        W37099  17.891   0.757   1.242
22253W        W37100  16.028  11.474  11.402
22254W        W37101  15.104  13.446   5.103
22255W        W37102  12.279  13.448  13.344
22256W        W37103  16.022   4.158   1.242
22257W        W37104  15.065  15.409  12.352
22258W        W37105  16.022   5.616   4.114
22259W        W37106  19.331   4.638  10.925
22260W        W37107  18.854  16.379   4.625
22261W        W37108  12.275   7.115  14.275
22262W        W37109  18.397   5.143   0.284
22263W        W37110  15.062   2.238  14.322
22264W        W37111  12.249   8.564  13.798
22265W        W37112  19.326  12.487   2.662
22266W        W37113  12.276   7.563   4.610
22267W        W37114  12.723   2.694   1.222
22268W        W37115  13.195   7.582   3.670
22269W        W37116  19.321  19.312  14.779
22270W        W37117  19.329  16.365  10.911
22271W        W37118  17.459  16.380   3.654
22272W        W37119  19.308   1.241  14.765
22273W        W37120  12.282   5.153   4.128
22274W        W37121  12.251  10.502   4.137
22275W        W37122  19.332  13.422   4.140
22276W        W37123  17.455  11.001   4.603
22277W        W37124  14.625  18.791  14.792
22278W        W37125  19.770   9.054  14.800
22279W        W37126  16.513  16.366  10.415
22280W        W37127  15.105   1.723  14.279
22281W        W37128  14.131  14.883  13.335
22282W        W37129  16.486  12.969   5.084
22283W        W37130  16.014   0.744  10.917
22284W        W37131  12.269   8.064  10.431
22285W        W37132  12.708  18.800  14.317
22286W        W37133  16.501   5.124   0.279
22287W        W37134  13.200   2.686  14.283
22288W        W37135  12.262  13.423  10.922
22289W        W37136  13.204  12.464  13.337
22290W        W37137  12.706  17.366  13.315
22291W        W37138  18.395  13.928   1.219
22292W        W37139  18.828   2.707   1.697
22293W        W37140  19.786  19.792  14.278
22294W        W37141  18.853  17.328  12.855
22295W        W37142  14.141   4.649  12.351
22296W        W37143  16.029   2.723   4.642
22297W        W37144  13.661  14.394   2.196
22298W        W37145  16.017   4.668   4.120
22299W        W37146  17.420   4.641   5.124
22300W        W37147  12.707   0.288   2.664
22301W        W37148  15.550   1.233   3.677
22302W        W37149  13.653   8.579   1.724
22303W        W37150  13.683  18.820   3.673
22304W        W37151  17.898   6.133   0.246
22305W        W37152  19.311   6.600  13.808
22306W        W37153  15.540  15.856  14.301
22307W        W37154  16.501  18.322   0.250
22308W        W37155  13.652  10.520   3.648
22309W        W37156  13.196   7.569   2.192
22310W        W37157  14.148  11.480  14.771
22311W        W37158  18.359  14.887   3.173
22312W        W37159  16.978   4.660  11.396
22313W        W37160  16.954   3.194   3.180
22314W        W37161  13.674   8.084  14.780
22315W        W37162  17.425  16.867  14.761
22316W        W37163  13.209   4.177   0.773
22317W        W37164  14.632   0.742   1.737
22318W        W37165  16.018  19.305  13.794
22319W        W37166  19.317  11.992   0.761
22320W        W37167  18.837   0.759   3.649
22321W        W37168  18.868   6.604  10.439
22322W        W37169  17.450   5.130   0.243
22323W        W37170  19.785  19.762  10.416
22324W        W37171  16.517   0.289  13.347
22325W        W37172  19.333  11.478   1.710
22326W        W37173  18.862  12.932  12.351
22327W        W37174  12.240   3.194   1.258
22328W        W37175  16.017   8.549  11.395
22329W        W37176  19.776   5.169  13.332
22330W        W37177  17.928   0.776   4.618
22331W        W37178  14.125   3.188   4.617
22332W        W37179  16.502   6.101   0.747
22333W        W37180  14.133   3.175  11.389
22334W        W37181  19.323   2.227  10.892
22335W        W37182  15.063  13.434  12.371
22336W        W37183  13.180   9.039   4.605
22337W        W37184  13.212  11.017   3.172
22338W        W37185  17.918  10.010  13.831
22339W        W37186  16.503  10.532   0.272
22340W        W37187  14.607  11.468  11.873
22341W        W37188  12.728  15.888  10.442
22342W        W37189  18.848  15.894   1.247
22343W        W37190  13.189   3.187   0.752
22344W        W37191  18.836  11.003   2.682
22345W        W37192  13.178   1.755   5.108
22346W        W37193  12.721   4.194  12.355
22347W        W37194  14.627  12.964   4.147
22348W        W37195  14.153  19.775  10.904
22349W        W37196  17.438   7.105   3.156
22350W        W37197  15.549   6.618   2.187
22351W        W37198  16.015   8.082  11.389
22352W        W37199  18.383   1.724  10.449
22353W        W37200  12.716  17.362  11.394
22354W        W37201  16.477   8.064  14.318
22355W        W37202  14.127   4.681  13.828
22356W        W37203  18.374  11.496   4.639
22357W        W37204  15.074  17.326  10.931
22358W        W37205  15.085   5.149   2.662
22359W        W37206  13.688   9.056   4.159
22360W        W37207  14.603  13.418   2.204
22361W        W37208  18.863   8.063   3.646
22362W        W37209  12.245   7.603   2.688
22363W        W37210  16.960  16.849  14.797
22364W        W37211  12.240   8.071  14.784
22365W        W37212  16.491   3.185   4.113
22366W        W37213  13.189  10.533  14.797
22367W        W37214  17.453   4.172  12.363
22368W        W37215  14.130   3.678  14.277
22369W        W37216  12.743   7.093  12.382
22370W        W37217  12.713   4.654   5.127
22371W        W37218  14.132  16.341   2.707
22372W        W37219  13.650   4.668  12.356
22373W        W37220  19.801   9.065  11.374
22374W        W37221  17.441  13.934   2.695
22375W        W37222  19.807  19.774   1.707
22376W        W37223  17.429   1.262   2.662
22377W        W37224  12.274  14.425  11.415
22378W        W37225  18.376  15.413  10.410
22379W        W37226  16.954   0.749   0.740
22380W        W37227  19.339   0.739   1.718
22381W        W37228  13.191  12.939   4.603
22382W        W37229  19.806   3.666  12.868
22383W        W37230  16.968  15.403   3.637
22384W        W37231  15.099   1.729  12.869
22385W        W37232  14.613   2.227   4.135
22386W        W37233  14.148   1.228   0.284
22387W        W37234  19.303   0.258  12.870
22388W        W37235  16.045   5.628   0.267
22389W        W37236  17.908   4.179   1.218
22390W        W37237  13.668  15.376   0.282
22391W        W37238  14.137   6.146   0.285
22392W        W37239  16.502  18.313  13.321
22393W        W37240  17.414   0.735   4.115
22394W        W37241  14.591  11.471  13.320
22395W        W37242  15.576  11.021   1.254
22396W        W37243  18.392   9.045   2.679
22397W        W37244  14.594   0.250   1.235
22398W        W37245  16.974   8.556  14.786
22399W        W37246  14.594  15.866  11.858
22400W        W37247  18.391   7.603   0.735
22401W        W37248  16.499  18.800  11.375
22402W        W37249  18.391  12.957   9.960
22403W        W37250  18.367   8.579   4.642
22404W        W37251  16.007  14.918  14.771
22405W        W37252  18.835   6.136   3.159
22406W        W37253  18.400  10.045  12.387
22407W        W37254  16.955  10.522  12.840
22408W        W37255  15.086   1.753   5.090
22409W        W37256  19.314   3.694   4.600
22410W        W37257  19.793   3.674   1.220
22411W        W37258  16.025   8.079   4.625
22412W        W37259  18.396   8.076  14.318
22413W        W37260  14.141  19.799  12.381
22414W        W37261  16.044   4.175   3.150
22415W        W37262  18.836  15.400   0.760
22416W        W37263  15.553   8.576  13.805
22417W        W37264  17.926  10.993   4.619
22418W        W37265  14.616   1.255  14.278
22419W        W37266  14.618   9.029   4.124
22420W        W37267  16.502   3.172   3.153
22421W        W37268  18.841   2.223   3.162
22422W        W37269  18.390  13.418  13.816
22423W        W37270  19.776   7.117  12.827
22424W        W37271  15.060  16.877  10.411
22425W        W37272  15.093  15.854  12.826
22426W        W37273  13.211   2.201   1.213
22427W        W37274  17.428  13.947  14.305
22428W        W37275  16.473   4.159  11.383
22429W        W37276  18.366  13.940  11.382
22430W        W37277  15.066   5.631   3.152
22431W        W37278  17.442  11.999  12.865
22432W        W37279  14.145   7.088   0.771
22433W        W37280  12.722   7.093   3.629
22434W        W37281  16.486   8.537   4.608
22435W        W37282  12.740  18.811  14.804
22436W        W37283  16.494  16.833   3.663
22437W        W37284  17.910   7.570  14.779
22438W        W37285  15.561  11.964   0.288
22439W        W37286  12.259   4.174  14.797
22440W        W37287  12.265   8.094   5.091
22441W        W37288  17.916  10.522  10.424
22442W        W37289  14.614  18.819   0.283
22443W        W37290  18.400   3.205   5.099
22444W        W37291  17.440   4.669   3.660
22445W        W37292  17.440   0.776   1.737
22446W        W37293  19.304  13.452   3.671
22447W        W37294  18.829   5.648   1.723
22448W        W37295  14.160   7.606  13.328
22449W        W37296  19.339   7.562  11.857
22450W        W37297  14.156   6.127  13.345
22451W        W37298  13.670   0.733  13.331
22452W        W37299  16.941   3.211  14.308
22453W        W37300  16.513   2.221   0.766
22454W        W37301  12.270   7.579   2.221
22455W        W37302  14.593   9.523   5.117
22456W        W37303  14.156   5.646  10.916
22457W        W37304  19.297  10.980   4.610
22458W        W37305  15.105   0.262  14.776
22459W        W37306  15.534   6.127   3.154
22460W        W37307  12.735   1.739  12.340
22461W        W37308  12.260   9.027   0.762
22462W        W37309  13.189   9.041   2.708
22463W        W37310  19.317   5.140  13.814
22464W        W37311  12.745  18.826   2.694
22465W        W37312  15.081   2.212   2.212
22466W        W37313  16.494  16.839   3.191
22467W        W37314  14.156  10.007   4.121
22468W        W37315  18.363  14.884   3.672
22469W        W37316  13.214   8.554   0.258
22470W        W37317  16.490  17.841   0.285
22471W        W37318  19.777   7.107  10.427
22472W        W37319  16.041  17.834   1.215
22473W        W37320  12.714  13.431   1.705
22474W        W37321  15.095  17.828   2.679
22475W        W37322  15.067  14.395  14.292
22476W        W37323  18.826   9.555   0.740
22477W        W37324  16.965  19.299  13.790
22478W        W37325  19.308  10.512  14.319
22479W        W37326  13.219   9.531   0.748
22480W        W37327  18.362   6.146  13.347
22481W        W37328  15.561  19.309   0.285
22482W        W37329  13.194   1.233  10.892
22483W        W37330  13.683  11.464   3.191
22484W        W37331  12.734   1.732  11.857
22485W        W37332  13.216   5.170  12.342
22486W        W37333  19.294   9.557  13.806
22487W        W37334  13.179  12.479  10.413
22488W        W37335  18.862  13.456   3.669
22489W        W37336  19.804  11.014   1.214
22490W        W37337  19.298   2.217   3.673
22491W        W37338  12.734  15.367   2.192
22492W        W37339  14.626   6.111   1.733
22493W        W37340  14.164   0.756  14.293
22494W        W37341  16.023   8.066  12.846
22495W        W37342  19.805   3.205  11.858
22496W        W37343  17.912  15.882   4.113
22497W        W37344  14.624   6.604  13.836
22498W        W37345  18.853  17.341   1.251
22499W        W37346  13.196  16.344   3.674
22500W        W37347  17.912   9.532  11.883
22501W        W37348  17.928   0.740  14.759
22502W        W37349  15.543  12.950   0.281
22503W        W37350  17.435  10.514  13.349
22504W        W37351  13.669  19.276   4.130
22505W        W37352  12.271   3.218   3.193
22506W        W37353  12.717  11.507   4.606
22507W        W37354  18.398  15.897  12.351
22508W        W37355  13.648  18.311  14.304
22509W        W37356  12.262   9.548  11.878
22510W        W37357  14.130  12.939   0.742
22511W        W37358  16.489   7.609  10.935
22512W        W37359  16.517  11.015   4.123
22513W        W37360  14.151  18.296  11.375
22514W        W37361  13.189  10.008   2.192
22515W        W37362  14.145   8.575  11.377
22516W        W37363  17.457   9.047   3.180
22517W        W37364  13.215   4.657  11.876
22518W        W37365  13.202  11.500  13.314
22519W        W37366  15.569   9.038   1.706
22520W        W37367  13.204  19.794  11.856
22521W        W37368  12.243   0.285   2.680
22522W        W37369  18.829   7.081   2.184
22523W        W37370  14.589  12.469   0.279
22524W        W37371  18.372  19.282  11.902
22525W        W37372  17.420  19.276   1.238
22526W        W37373  18.869   1.752   0.767
22527W        W37374  17.922   0.253   3.642
22528W        W37375  19.338   2.718   4.609
22529W        W37376  17.455  15.380  14.799
22530W        W37377  15.537  16.868   2.198
22531W        W37378  15.567   0.274  13.333
22532W        W37379  12.266  18.821   0.266
22533W        W37380  19.777   4.182   0.248
22534W        W37381  16.944  10.990  12.379
22535W        W37382  14.141  18.800  11.383
22536W        W37383  15.532   3.683   4.610
22537W        W37384  14.155   6.116   4.616
22538W        W37385  12.713  17.338   1.220
22539W        W37386  19.312   0.766  10.907
22540W        W37387  17.444  12.482  12.869
22541W        W37388  16.962   4.675   3.165
22542W        W37389  18.356   2.692  13.807
22543W        W37390  12.256   5.647   0.771
22544W        W37391  12.721   6.593  12.363
22545W        W37392  19.295  17.334   1.250
22546W        W37393  18.398  17.362  11.400
22547W        W37394  16.008  18.340  12.851
22548W        W37395  17.909   4.636  13.311
22549W        W37396  12.260  12.478  12.344
22550W        W37397  16.515   2.205  10.415
22551W        W37398  13.677  13.444  13.351
22552W        W37399  19.778  17.353   1.245
22553W        W37400  18.837  10.002   4.620
22554W        W37401  17.917  10.996  12.849
22555W        W37402  16.484  15.367   2.209
22556W        W37403  18.379   6.624  12.350
22557W        W37404  12.243   2.719   3.669
22558W        W37405  13.649   3.679   0.289
22559W        W37406  16.481   6.607   1.723
22560W        W37407  19.312  12.942   1.239
22561W        W37408  14.621  11.505   9.967
22562W        W37409  12.277   2.220   0.248
22563W        W37410  16.478   9.517   2.208
22564W        W37411  12.280   4.154  13.806
22565W        W37412  13.194  15.401   0.763
22566W        W37413  15.537  17.320  13.344
22567W        W37414  16.953  16.389  10.446
22568W        W37415  15.096  12.471  12.382
22569W        W37416  16.967   5.137   3.641
22570W        W37417  16.041   3.689  13.314
22571W        W37418  18.355  10.998   3.178
22572W        W37419  19.807  13.923   0.744
22573W        W37420  15.556   6.634  13.317
22574W        W37421  18.840   5.658   2.692
22575W        W37422  12.748  16.349  13.316
22576W        W37423  14.634  19.795   4.135
22577W        W37424  12.726  19.300  13.335
22578W        W37425  13.189   6.110   9.935
22579W        W37426  16.017   2.223   0.273
22580W        W37427  18.825   1.238  12.371
22581W        W37428  16.027  19.784   4.127
22582W        W37429  14.150  15.401   4.630
22583W        W37430  15.097   6.138  14.794
22584W        W37431  12.715  17.319   3.159
22585W        W37432  18.361   6.605   9.942
22586W        W37433  16.964   6.103  14.796
22587W        W37434  17.889  12.466  12.850
22588W        W37435  13.680   7.596   2.705
22589W        W37436  14.602  16.831   3.634
22590W        W37437  14.159  15.868   3.677
22591W        W37438  16.979  19.277   4.638
22592W        W37439  18.396  17.362   3.183
22593W        W37440  18.386  13.457  13.326
22594W        W37441  14.158   2.725  13.806
22595W        W37442  16.043  16.347  14.800
22596W        W37443  15.063  16.383   0.751
22597W        W37444  16.485   4.165   0.750
22598W        W37445  18.861  16.369   3.670
22599W        W37446  16.497  17.848  10.900
22600W        W37447  18.384  11.510   2.685
22601W        W37448  14.128  11.504  11.871
22602W        W37449  19.327  16.833  11.381
22603W        W37450  14.634   0.754  14.307
22604W        W37451  19.786   0.769   2.676
22605W        W37452  17.885  10.032  10.425
22606W        W37453  18.378  10.040   0.250
22607W        W37454  13.214  15.854   4.116
22608W        W37455  19.341  11.986   3.653
22609W        W37456  16.965  10.501   2.707
22610W        W37457  16.968  13.420  10.423
22611W        W37458  15.558   4.167  12.385
22612W        W37459  14.122   7.610   0.763
22613W        W37460  17.923  13.936  12.359
22614W        W37461  15.086  12.944  10.911
22615W        W37462  16.034   3.704   3.657
22616W        W37463  12.267   5.151   2.703
22617W        W37464  16.019  17.362  10.905
22618W        W37465  15.075  14.895   2.193
22619W        W37466  13.656   3.669  14.282
22620W        W37467  19.806  10.032   3.171
22621W        W37468  15.572   1.253  11.872
22622W        W37469  13.204   7.096  14.312
22623W        W37470  16.985   5.641  14.778
22624W        W37471  19.321   7.582   0.279
22625W        W37472  12.241   7.112   0.263
22626W        W37473  14.119  17.331   1.216
22627W        W37474  17.425  10.005   4.126
22628W        W37475  19.311  14.428   3.668
22629W        W37476  19.306  13.446  10.409
22630W        W37477  14.618   7.579   1.723
22631W        W37478  15.554   5.645  10.414
22632W        W37479  12.750   5.625   4.628
22633W        W37480  15.075  11.987  13.345
22634W        W37481  18.828  16.869  11.901
22635W        W37482  16.508   9.545   4.139
22636W        W37483  15.540   8.578   4.159
22637W        W37484  15.076  18.793  10.899
22638W        W37485  19.317  18.782  11.394
22639W        W37486  18.367  13.903   2.676
22640W        W37487  18.387   4.178   4.152
22641W        W37488  12.255   0.740   1.256
22642W        W37489  16.504   5.136  13.346
22643W        W37490  16.011   9.073   9.952
22644W        W37491  16.964  11.960   0.274
22645W        W37492  17.413   7.598   1.730
22646W        W37493  18.824   6.116   4.630
22647W        W37494  15.079  15.413   4.611
22648W        W37495  19.325   6.128   3.187
22649W        W37496  14.145   4.147  14.321
22650W        W37497  15.062  11.490   1.736
22651W        W37498  19.790  17.834   1.718
22652W        W37499  16.964  15.382   3.156
22653W        W37500  19.325  17.317   2.692
22654W        W37501  17.413   9.031  12.838
22655W        W37502  17.885   5.147   2.201
22656W        W37503  18.383  12.468  12.360
22657W        W37504  17.918  10.013  14.303
22658W        W37505  12.262  12.936  10.925
22659W        W37506  12.719   4.157   4.614
22660W        W37507  19.308  18.331   1.242
22661W        W37508  18.850   5.655  14.802
22662W        W37509  17.447  12.943   1.237
22663W        W37510  13.672  19.285   1.698
22664W        W37511  19.295  18.814  12.824
22665W        W37512  16.943  19.275  12.833
22666W        W37513  15.567  16.374  14.759
22667W        W37514  19.302  17.365   4.624
22668W        W37515  15.545  15.414  11.378
22669W        W37516  12.238  15.382  13.819
22670W        W37517  17.436  17.324   0.764
22671W        W37518  18.838   4.150   0.287
22672W        W37519  15.098  13.936   0.771
22673W        W37520  16.502  16.366  12.853
22674W        W37521  17.455   7.590   1.253
22675W        W37522  12.273   3.207  11.891
22676W        W37523  17.911  14.926   1.720
22677W        W37524  17.924   7.570   2.191
22678W        W37525  17.900  16.862  11.867
22679W        W37526  14.135   3.210   0.259
22680W        W37527  13.189   5.612  12.364
22681W        W37528  19.318  19.292   2.673
22682W        W37529  17.885   7.604   4.635
22683W        W37530  18.862  18.799  10.929
22684W        W37531  15.546  13.927   5.093
22685W        W37532  18.391  10.491  14.300
22686W        W37533  13.200   0.264  12.860
22687W        W37534  18.379   3.665  13.349
22688W        W37535  12.711   4.682  10.890
22689W        W37536  16.041   0.752  14.776
22690W        W37537  14.604   6.587   0.245
22691W        W37538  14.146   0.279  11.867
22692W        W37539  15.559  16.342  12.366
22693W        W37540  17.441  10.516   4.600
22694W        W37541  17.452  15.878   0.261
22695W        W37542  13.196   8.552  11.380
22696W        W37543  19.777  16.347  10.918
22697W        W37544  13.691  19.784   3.651
22698W        W37545  16.517   5.143  12.340
22699W        W37546  15.076  13.942  11.903
22700W        W37547  14.592   8.537  10.915
22701W        W37548  18.379  12.948   1.697
22702W        W37549  15.101   8.087   1.706
22703W        W37550  13.208   3.181  14.322
22704W        W37551  17.915  18.331   2.211
22705W        W37552  18.363  11.000  11.891
22706W        W37553  16.512   9.067   3.671
22707W        W37554  15.100   0.273  10.934
22708W        W37555  13.212  19.785  13.345
22709W        W37556  16.487   3.705   0.259
22710W        W37557  15.571   6.124  14.801
22711W        W37558  17.902   7.606   3.157
22712W        W37559  18.839   3.697  12.385
22713W        W37560  16.492   3.695  11.401
22714W        W37561  12.267  13.426   1.234
22715W        W37562  17.905   1.223  14.779
22716W        W37563  14.606   4.152  13.809
22717W        W37564  14.591  18.810   9.961
22718W        W37565  12.726   5.148  10.889
22719W        W37566  18.850  18.334   1.221
22720W        W37567  14.134   0.775  11.863
22721W        W37568  15.553   5.657   1.717
22722W        W37569  14.600   8.568  12.379
22723W        W37570  12.718  16.374   4.130
22724W        W37571  16.954  11.011   1.231
22725W        W37572  12.273  18.786  10.438
22726W        W37573  16.986  10.028  11.895
22727W        W37574  12.718   5.647  10.415
22728W        W37575  17.449   3.188   0.245
22729W        W37576  18.831  14.910  10.421
22730W        W37577  14.620  13.910   0.290
22731W        W37578  14.619   2.687   4.156
22732W        W37579  18.848   9.515   1.718
22733W        W37580  17.904   0.277   4.115
22734W        W37581  13.179  11.953   0.274
22735W        W37582  19.301  12.485  10.902
22736W        W37583  15.532  12.946   1.215
22737W        W37584  13.673  12.453   3.656
22738W        W37585  18.367   3.201  12.868
22739W        W37586  19.298   8.554   2.696
22740W        W37587  19.306  14.901   4.159
22741W        W37588  16.494  19.280  14.795
22742W        W37589  16.016  13.420  10.900
22743W        W37590  14.606   8.094   0.256
22744W        W37591  12.259  10.494   0.756
22745W        W37592  17.892  11.977  11.389
22746W        W37593  16.023  15.388  14.281
22747W        W37594  13.222   1.231   4.143
22748W        W37595  18.369   2.227  14.776
22749W        W37596  15.093  19.761   3.164
22750W        W37597  16.010   2.685   3.676
22751W        W37598  13.188  16.352   0.245
22752W        W37599  12.708   3.685   0.759
22753W        W37600  12.240   7.077   2.699
22754W        W37601  16.977  17.820  11.897
22755W        W37602  19.807   3.688  13.354
22756W        W37603  18.369  18.315  14.767
22757W        W37604  17.917  16.857  13.343
22758W        W37605  13.694  12.452  12.342
22759W        W37606  12.237   3.690   3.659
22760W        W37607  13.204  19.288   0.737
22761W        W37608  12.723  12.960  12.869
22762W        W37609  13.680   3.698  12.346
22763W        W37610  16.961   6.114   4.638
22764W        W37611  18.851   2.688  11.900
22765W        W37612  18.394   2.716   2.670
22766W        W37613  12.264   6.586  11.410
22767W        W37614  17.449  15.897  12.363
22768W        W37615  17.413  12.453   3.154
22769W        W37616  18.860   0.765  14.799
22770W        W37617  18.396   8.581   2.680
22771W        W37618  12.752   2.704   9.935
22772W        W37619  14.131  17.843   0.751
22773W        W37620  14.595   0.751  13.791
22774W        W37621  15.547   2.223  12.847
22775W        W37622  16.517   4.155   5.081
22776W        W37623  16.501   2.698   1.229
22777W        W37624  18.392  19.776  10.919
22778W        W37625  16.978  16.850   4.124
22779W        W37626  13.180   0.747  11.371
22780W        W37627  16.029  17.356   2.664
22781W        W37628  16.950  18.792  11.417
22782W        W37629  12.729  19.297  14.322
22783W        W37630  16.482   3.180   4.597
22784W        W37631  12.251   9.535  12.385
22785W        W37632  14.602  16.878  12.362
22786W        W37633  15.569   9.049  13.829
22787W        W37634  19.312   1.743  12.853
22788W        W37635  13.197  19.295  12.379
22789W        W37636  19.807   2.718  10.432
22790W        W37637  14.129  16.359   3.186
22791W        W37638  12.738  16.378  11.868
22792W        W37639  19.782   1.220  14.311
22793W        W37640  18.385  15.899   1.213
22794W        W37641  15.557   4.186   1.714
22795W        W37642  15.092  19.292   0.260
22796W        W37643  17.429  10.994  13.814
22797W        W37644  14.138   5.617   1.248
22798W        W37645  13.202   1.717  14.772
22799W        W37646  15.087  12.964  14.792
22800W        W37647  17.925  15.376   3.182
22801W        W37648  17.450   3.686   4.644
22802W        W37649  12.750  16.852   0.757
22803W        W37650  17.888   7.564  12.848
22804W        W37651  17.428  14.899   2.674
22805W        W37652  12.722   5.147  14.782
22806W        W37653  12.738  12.458   2.177
22807W        W37654  17.415   7.075  13.339
22808W        W37655  15.549   7.108   4.601
22809W        W37656  14.588  17.336   0.248
22810W        W37657  13.186   4.650   4.121
22811W        W37658  14.164  18.336  14.312
22812W        W37659  15.567  12.928  11.400
22813W        W37660  16.975   6.114   3.161
22814W        W37661  12.236   4.167  10.902
22815W        W37662  13.682  19.781   4.123
22816W        W37663  16.988   4.177  11.374
22817W        W37664  19.804  11.963  13.336
22818W        W37665  12.254  13.456   3.630
22819W        W37666  19.332   3.197   2.675
22820W        W37667  14.600  10.534  11.412
22821W        W37668  16.012  18.787   3.667
22822W        W37669  15.545  19.769  11.883
22823W        W37670  19.801  15.384   3.670
22824W        W37671  13.658   3.219   1.712
22825W        W37672  17.421  19.289  12.825
22826W        W37673  18.830   5.617  13.353
22827W        W37674  12.254   6.613  13.801
22828W        W37675  12.706   6.112   4.610
22829W        W37676  13.655   2.718   0.733
22830W        W37677  15.076   2.231   3.155
22831W        W37678  16.038  18.322   1.211
22832W        W37679  16.978   1.263  13.809
22833W        W37680  13.185   1.267   0.728
22834W        W37681  13.190   2.685  12.356
22835W        W37682  19.812   2.205  11.414
22836W        W37683  14.137  14.918  12.382
22837W        W37684  19.329   2.710  12.342
22838W        W37685  14.597  13.436  13.321
22839W        W37686  13.655  18.781  10.407
22840W        W37687  16.983   5.619  14.305
22841W        W37688  19.777   4.189  13.811
22842W        W37689  19.787  13.422   0.248
22843W        W37690  12.244  10.045  12.359
22844W        W37691  17.424  11.468   4.117
22845W        W37692  18.370   3.210   2.187
22846W        W37693  17.924  14.396  10.895
22847W        W37694  16.515   7.585   3.153
22848W        W37695  12.261   1.259   3.164
22849W        W37696  18.844  12.487   0.748
22850W        W37697  18.373  12.446   4.615
22851W        W37698  16.479   6.112   3.187
22852W        W37699  17.443  12.439   2.188
22853W        W37700  17.427   4.166   1.228
22854W        W37701  13.181   0.750   3.192
22855W        W37702  17.884   2.225   3.638
22856W        W37703  16.027  15.403   1.258
22857W        W37704  12.726  16.853   1.736
22858W        W37705  19.768  18.299   0.752
22859W        W37706  16.026  15.410   3.181
22860W        W37707  12.713   1.257   0.250
22861W        W37708  16.012  11.497  14.313
22862W        W37709  19.311  19.769   1.241
22863W        W37710  12.748  10.048   0.727
22864W        W37711  12.750  13.443  10.435
22865W        W37712  14.154   4.181   1.213
22866W        W37713  15.550   6.633  14.322
22867W        W37714  18.399  12.486   2.191
22868W        W37715  18.864   3.679  10.906
22869W        W37716  12.753   3.685   3.175
22870W        W37717  12.275  12.447   5.122
22871W        W37718  13.217  10.987   4.130
22872W        W37719  14.617  10.031   1.713
22873W        W37720  14.619   0.254   3.660
22874W        W37721  13.694   8.093   4.146
22875W        W37722  17.441   4.636  14.799
22876W        W37723  14.119  16.382  13.306
22877W        W37724  16.475  11.953  12.373
22878W        W37725  14.630   2.200   4.639
22879W        W37726  16.982  10.528   0.743
22880W        W37727  13.667   6.105  10.925
22881W        W37728  19.301   6.138  14.275
22882W        W37729  18.358  17.816  12.831
22883W        W37730  16.986   7.603   4.599
22884W        W37731  19.326  10.491   0.773
22885W        W37732  14.599   8.551   4.121
22886W        W37733  16.017  14.406   2.694
22887W        W37734  17.929   6.130  13.829
22888W        W37735  13.664  18.806   4.157
22889W        W37736  15.559   2.218  10.417
22890W        W37737  13.184  14.395  13.817
22891W        W37738  16.942  19.314   2.667
22892W        W37739  18.353  18.330   2.692
22893W        W37740  15.576  19.269  10.426
22894W        W37741  12.751   8.068   1.212
22895W        W37742  16.977   1.246   4.121
22896W        W37743  15.064  16.350  12.842
22897W        W37744  15.575  19.274   2.205
22898W        W37745  17.413   9.044  14.802
22899W        W37746  12.237  13.428   3.150
22900W        W37747  16.492   9.049  12.379
22901W        W37748  19.801   1.732  14.793
22902W        W37749  12.258   7.086   4.155
22903W        W37750  12.253  12.952  12.853
22904W        W37751  12.273  12.933  10.445
22905W        W37752  12.748  19.759  12.853
22906W        W37753  15.094   2.698  12.830
22907W        W37754  16.021   5.635   4.616
22908W        W37755  16.043  13.415   3.650
22909W        W37756  19.294  10.004   1.243
22910W        W37757  18.381  14.883   2.194
22911W        W37758  17.904   8.084  14.298
22912W        W37759  12.258  14.907  12.839
22913W        W37760  19.302   6.634  11.407
22914W        W37761  19.301   8.559   5.118
22915W        W37762  13.216   9.054  13.335
22916W        W37763  13.677   4.647   1.741
22917W        W37764  16.488  18.334  12.360
22918W        W37765  14.126   8.082   0.727
22919W        W37766  18.861  15.398   0.268
22920W        W37767  15.545  14.916   4.637
22921W        W37768  17.927   7.115   3.178
22922W        W37769  16.981  14.921  12.823
22923W        W37770  16.043  13.925   1.246
22924W        W37771  18.374  13.945  13.837
22925W        W37772  17.439  11.019   0.242
22926W        W37773  18.851   4.650   4.632
22927W        W37774  15.077   1.242   0.768
22928W        W37775  18.867   4.184  14.771
22929W        W37776  19.800   1.726  14.285
22930W        W37777  13.182   2.713   2.684
22931W        W37778  18.838  10.976   4.120
22932W        W37779  13.197   1.246  12.384
22933W        W37780  19.333   2.199   0.773
22934W        W37781  16.970   6.137  12.828
22935W        W37782  16.513  19.764   1.726
22936W        W37783  15.065  12.962  13.315
22937W        W37784  17.444   4.654   2.698
22938W        W37785  18.364  16.384   3.634
22939W        W37786  18.376  17.344   0.258
22940W        W37787  12.739  14.904   1.212
22941W        W37788  16.507   7.586   3.651
22942W        W37789  15.572  15.887  13.323
22943W        W37790  18.840  12.930  11.900
22944W        W37791  18.867  12.944  10.415
22945W        W37792  13.692   5.654  14.309
22946W        W37793  19.781   1.741  13.323
22947W        W37794  18.373   3.191   3.635
22948W        W37795  19.338  14.429  14.798
22949W        W37796  15.080  13.934  11.403
22950W        W37797  18.389  16.384  10.907
22951W        W37798  17.423   2.690   4.629
22952W        W37799  15.553  15.891   4.119
22953W        W37800  16.044   9.537   4.606
22954W        W37801  16.942   6.118  11.881
22955W        W37802  17.415   8.092  11.375
22956W        W37803  16.492  17.819  10.441
22957W        W37804  12.720   2.224  12.852
22958W        W37805  13.654  10.027   1.702
22959W        W37806  13.652  12.927  13.337
22960W        W37807  14.604  13.912  10.930
22961W        W37808  16.964   8.093  10.413
22962W        W37809  16.516  18.823   0.262
22963W        W37810  15.064  11.479  11.380
22964W        W37811  15.542  18.293   3.661
22965W        W37812  16.504  14.410   1.250
22966W        W37813  18.390  12.955  14.300
22967W        W37814  19.297   3.201   1.706
22968W        W37815  14.123  14.902  13.828
22969W        W37816  16.952   7.101  13.333
22970W        W37817  14.635   8.059  11.386
22971W        W37818  15.061  18.806   0.764
22972W        W37819  12.710   2.198   2.707
22973W        W37820  15.535  15.869   2.178
22974W        W37821  16.964   0.766   3.675
22975W        W37822  13.177   9.064   3.151
22976W        W37823  17.896  15.888  14.290
22977W        W37824  18.846   2.725  14.763
22978W        W37825  13.216  16.386  14.317
22979W        W37826  12.739  11.011  12.343
22980W        W37827  15.539  17.829  14.314
22981W        W37828  18.369   7.569   1.738
22982W        W37829  14.160  15.394   2.681
22983W        W37830  18.358   1.740   0.726
22984W        W37831  14.606   8.072   1.729
22985W        W37832  14.143  10.990  10.413
22986W        W37833  13.660   3.171  13.354
22987W        W37834  13.201   1.224   1.715
22988W        W37835  14.119  10.017  10.452
22989W        W37836  12.722  10.535  12.362
22990W        W37837  14.150  12.975   9.923
22991W        W37838  17.426   1.268   4.626
22992W        W37839  17.430   0.278  14.782
22993W        W37840  13.675  17.825   2.179
22994W        W37841  14.146   3.664   3.654
22995W        W37842  17.428  13.435  14.300
22996W        W37843  18.857   8.585   4.636
22997W        W37844  12.236   8.579  12.345
22998W        W37845  15.567  15.372  14.779
22999W        W37846  16.973   2.723   3.675
23000W        W37847  16.487  19.795  13.815
23001W        W37848  15.085  17.822   4.149
23002W        W37849  14.594  13.920  11.393
23003W        W37850  15.063  17.352  10.414
23004W        W37851  12.736   9.045  14.319
23005W        W37852  12.278   8.580   0.254
23006W        W37853  13.183  10.010  11.861
23007W        W37854  17.430   6.588  14.784
23008W        W37855  17.895  12.969   0.732
23009W        W37856  17.457  18.311   3.656
23010W        W37857  16.007   0.273   0.761
23011W        W37858  18.859  12.949  13.342
23012W        W37859  17.925   1.754   3.161
23013W        W37860  16.510   3.677  14.771
23014W        W37861  19.786  16.386  14.292
23015W        W37862  14.597   1.737  13.337
23016W        W37863  19.319  15.877  14.302
23017W        W37864  15.078  19.270   3.167
23018W        W37865  14.631  17.813   1.730
23019W        W37866  15.073   6.119   3.674
23020W        W37867  13.683   7.107  13.310
23021W        W37868  14.119  19.301   0.266
23022W        W37869  13.673   7.093  10.438
23023W        W37870  13.189   2.698  13.800
23024W        W37871  13.222   7.076  11.418
23025W        W37872  17.917   8.092   4.160
23026W        W37873  12.267   1.248   9.944
23027W        W37874  15.092   8.540   4.645
23028W        W37875  19.783  16.854   0.759
23029W        W37876  19.332   5.130  11.873
23030W        W37877  18.396   9.029  12.848
23031W        W37878  13.669  10.994  11.868
23032W        W37879  14.119  15.407  11.391
23033W        W37880  12.750  13.912  14.769
23034W        W37881  13.658  11.954   4.622
23035W        W37882  13.187   7.580   3.156
23036W        W37883  16.972  10.031   4.127
23037W        W37884  13.207  13.440   2.707
23038W        W37885  15.570   9.554   4.634
23039W        W37886  18.355   8.097   4.161
23040W        W37887  16.985   9.551  10.432
23041W        W37888  12.242  16.832  10.914
23042W        W37889  18.838   4.161  11.902
23043W        W37890  19.313  13.950  10.934
23044W        W37891  16.478  10.023  10.432
23045W        W37892  13.220  13.435  12.359
23046W        W37893  19.328   1.748   2.207
23047W        W37894  15.539   6.102   2.201
23048W        W37895  14.130   2.198  11.889
23049W        W37896  19.296   3.175   4.147
23050W        W37897  16.985  18.789   3.639
23051W        W37898  13.651  13.912   4.633
23052W        W37899  16.483   7.576   5.104
23053W        W37900  12.265   9.533   2.206
23054W        W37901  13.220  12.938  10.929
23055W        W37902  13.181   4.156   1.706
23056W        W37903  15.076  16.848  14.766
23057W        W37904  17.899   3.664  13.810
23058W        W37905  16.956   1.254  13.334
23059W        W37906  12.715   3.213  10.421
23060W        W37907  19.794   2.197  11.893
23061W        W37908  16.013   5.613   2.687
23062W        W37909  17.897  15.866   4.606
23063W        W37910  15.531  19.308   1.248
23064W        W37911  17.419   5.655   0.726
23065W        W37912  15.069  18.784  11.900
23066W        W37913  15.086   4.185   3.670
23067W        W37914  13.189  17.346   3.645
23068W        W37915  16.966  16.363   3.670
23069W        W37916  17.437  14.402  12.828
23070W        W37917  16.947   7.609   5.097
23071W        W37918  15.067  18.293   4.120
23072W        W37919  14.148  10.030   3.638
23073W        W37920  13.667  12.954   1.226
23074W        W37921  16.491  14.414   2.672
23075W        W37922  16.507   1.254  12.364
23076W        W37923  14.627  18.795   3.151
23077W        W37924  19.299   6.125  12.824
23078W        W37925  12.240  19.785  10.904
23079W        W37926  15.545  14.435  12.359
23080W        W37927  16.974  12.941   2.189
23081W        W37928  17.889  14.923  13.803
23082W        W37929  19.316  18.801   3.181
23083W        W37930  14.619  10.519  11.874
23084W        W37931  13.684  10.043  10.404
23085W        W37932  16.968  17.852  14.802
23086W        W37933  18.354  19.762   3.167
23087W        W37934  19.319   8.051   2.683
23088W        W37935  16.473   2.723   4.602
23089W        W37936  15.533   5.164  12.353
23090W        W37937  19.768  19.273   2.179
23091W        W37938  17.440  16.364  12.841
23092W        W37939  17.922   1.221   3.632
23093W        W37940  16.040  13.927   4.136
23094W        W37941  12.714  11.983   4.135
23095W        W37942  18.383   4.194   4.623
23096W        W37943  13.689  18.793  11.386
23097W        W37944  15.558  11.970   1.740
23098W        W37945  19.767  18.297   4.642
23099W        W37946  19.300  14.924   2.677
23100W        W37947  16.018  17.810  12.835
23101W        W37948  16.478  19.293  13.335
23102W        W37949  16.975   8.577   4.641
23103W        W37950  15.083   2.213  10.403
23104W        W37951  19.807  18.781  10.920
23105W        W37952  13.663  14.397   3.650
23106W        W37953  15.566  12.966   3.158
23107W        W37954  19.307  10.527   3.174
23108W        W37955  17.454  19.793  14.762
23109W        W37956  13.221   5.128   4.125
23110W        W37957  18.869  18.326  11.865
23111W        W37958  17.445  19.310  11.412
23112W        W37959  16.043   6.123  14.312
23113W        W37960  18.380  13.940   0.752
23114W        W37961  17.926  19.296   0.288
23115W        W37962  13.190   8.081   2.178
23116W        W37963  18.395  10.498   4.614
23117W        W37964  17.415  15.379   0.255
23118W        W37965  15.081  19.270  10.926
23119W        W37966  14.124  12.965   4.134
23120W        W37967  19.310   8.076  10.445
23121W        W37968  13.666  10.496   2.179
23122W        W37969  12.273   9.062  10.407
23123W        W37970  16.962   8.571   4.120
23124W        W37971  16.984  18.315  12.837
23125W        W37972  17.436   2.719   0.738
23126W        W37973  12.269   5.169  10.446
23127W        W37974  15.559   2.715  12.828
23128W        W37975  13.691   5.623   3.160
23129W        W37976  18.385  12.480   9.955
23130W        W37977  16.005  11.007  10.924
23131W        W37978  18.382  14.423  13.809
23132W        W37979  14.606  17.821   3.634
23133W        W37980  18.863  13.931  11.865
23134W        W37981  19.792   2.683  11.385
23135W        W37982  14.590  13.445   1.707
23136W        W37983  16.970  13.931  10.428
23137W        W37984  16.984   5.618   4.603
23138W        W37985  16.003   9.558  14.317
23139W        W37986  16.476   1.237  11.898
23140W        W37987  15.545   8.579   3.162
23141W        W37988  16.510   2.706  13.324
23142W        W37989  16.961  16.350  14.758
23143W        W37990  18.373  12.467  10.408
23144W        W37991  17.431  15.858  14.799
23145W        W37992  12.746  10.008   4.597
23146W        W37993  14.155   7.116   2.224
23147W        W37994  19.321  19.305  12.356
23148W        W37995  12.258  19.776  10.444
23149W        W37996  19.337  18.317   3.662
23150W        W37997  16.484  16.382  14.766
23151W        W37998  17.418   3.665  11.375
23152W        W37999  15.073   2.731  10.406
23153W        W38000  13.215   5.611  11.401
23154W        W38001  12.714   7.602   5.090
23155W        W38002  14.141  10.497  10.921
23156W        W38003  16.001   4.189  14.303
23157W        W38004  15.061   4.150   0.766
23158W        W38005  16.985  17.324   4.604
23159W        W38006  12.263   7.084   3.644
23160W        W38007  18.393  16.851  11.874
23161W        W38008  15.569   2.694   1.698
23162W        W38009  12.739  19.282   2.679
23163W        W38010  15.085   3.684  11.878
23164W        W38011  15.099  15.375   2.674
23165W        W38012  19.779  14.917   1.219
23166W        W38013  16.014   0.276  14.313
23167W        W38014  15.104   3.175   1.226
23168W        W38015  19.806  14.405   0.770
23169W        W38016  18.362   9.031   3.181
23170W        W38017  17.450  16.851  12.367
23171W        W38018  12.748  16.868  14.773
23172W        W38019  16.975  19.765   0.773
23173W        W38020  13.651   5.640  11.416
23174W        W38021  15.560   3.171   9.948
23175W        W38022  18.379  10.504  14.797
23176W        W38023  13.654   8.070  11.384
23177W        W38024  16.488   4.681  12.353
23178W        W38025  16.472   7.111   5.124
23179W        W38026  19.768  14.430  13.317
23180W        W38027  18.382  19.275   0.251
23181W        W38028  14.123  12.464   3.171
23182W        W38029  17.884   8.544   4.627
23183W        W38030  17.437  11.494   0.764
23184W        W38031  14.600   9.049  11.873
23185W        W38032  18.377  17.840   0.761
23186W        W38033  17.919   2.201   4.129
23187W        W38034  12.722  17.819   2.198
23188W        W38035  19.318  19.775  14.300
23189W        W38036  16.034   8.584  14.276
23190W        W38037  16.971   5.657   1.239
23191W        W38038  19.296  16.361  10.411
23192W        W38039  15.106   6.604   0.732
23193W        W38040  12.742   8.078  14.278
23194W        W38041  14.152   0.749  12.859
23195W        W38042  17.434   5.141   4.614
23196W        W38043  14.153   8.052  13.798
23197W        W38044  12.243   2.724  14.308
23198W        W38045  19.804  17.819   0.271
23199W        W38046  17.438   4.167  10.450
23200W        W38047  16.974  19.287   3.672
23201W        W38048  13.647   5.162  13.802
23202W        W38049  13.211   4.188  10.437
23203W        W38050  13.689  12.486  14.765
23204W        W38051  15.569  14.881   3.187
23205W        W38052  12.723   9.067   1.257
23206W        W38053  19.793  14.397  12.382
23207W        W38054  19.306   9.064   2.201
23208W        W38055  19.771  16.374   1.243
23209W        W38056  14.616   0.742  10.914
23210W        W38057  18.862   5.154  13.339
23211W        W38058  12.273  14.922  12.376
23212W        W38059  13.186  17.844  11.877
23213W        W38060  16.040  10.527   4.145
23214W        W38061  12.738  18.313  10.415
23215W        W38062  15.099   8.053  11.885
23216W        W38063  19.780  13.454   2.666
23217W        W38064  17.907   3.203  13.802
23218W        W38065  13.203   4.662   2.179
23219W        W38066  13.683  11.016   2.200
23220W        W38067  19.802   1.260  13.816
23221W        W38068  16.042  17.344   2.225
23222W        W38069  15.565   4.195   1.216
23223W        W38070  14.594   1.738  12.856
23224W        W38071  14.594   9.522  10.920
23225W        W38072  14.634  14.896   1.214
23226W        W38073  17.929  10.507  13.352
23227W        W38074  14.133   8.076  10.447
23228W        W38075  13.219   4.683  14.316
23229W        W38076  16.486   0.776   0.746
23230W        W38077  12.254   4.193   3.649
23231W        W38078  13.655   0.753  10.912
23232W        W38079  13.192   1.229   0.263
23233W        W38080  17.890   3.189   3.180
23234W        W38081  18.360   2.725   1.237
23235W        W38082  12.718   7.084   0.740
23236W        W38083  18.867   2.240   2.185
23237W        W38084  16.002   8.095  12.357
23238W        W38085  16.962   9.532   0.729
23239W        W38086  17.435   0.748   1.248
23240W        W38087  15.062  12.459   2.214
23241W        W38088  13.685   8.054   0.752
23242W        W38089  16.492  14.434  14.799
23243W        W38090  12.752   6.121  13.326
23244W        W38091  16.490  12.946   0.728
23245W        W38092  12.711   7.113   2.694
23246W        W38093  16.018   4.192  10.408
23247W        W38094  16.503   2.709   4.142
23248W        W38095  17.435  16.343   5.090
23249W        W38096  14.164  14.422   4.136
23250W        W38097  12.717   9.547  10.893
23251W        W38098  12.751  16.371   4.636
23252W        W38099  14.621   0.258  13.828
23253W        W38100  18.848  10.019  10.420
23254W        W38101  14.123  18.299   1.219
23255W        W38102  18.361  11.961   2.695
23256W        W38103  18.371   2.239   3.188
23257W        W38104  14.164   3.200  14.759
23258W        W38105  12.241   7.565  10.415
23259W        W38106  12.243  13.917   3.193
23260W        W38107  12.712   8.054  11.865
23261W        W38108  18.860   5.132   4.135
23262W        W38109  15.545  13.417   9.942
23263W        W38110  18.397   6.110   0.740
23264W        W38111  15.535   1.748   0.731
23265W        W38112  18.364  10.016  10.926
23266W        W38113  14.632  19.296   4.636
23267W        W38114  13.178   6.116  10.433
23268W        W38115  16.987   4.639  13.312
23269W        W38116  12.726   8.574   4.607
23270W        W38117  16.002  17.830  10.914
23271W        W38118  15.100  11.961   1.739
23272W        W38119  14.614  11.988   4.599
23273W        W38120  12.270  11.499  14.803
23274W        W38121  15.564   7.098   4.159
23275W        W38122  14.118  16.830  13.343
23276W        W38123  14.590   1.224  12.838
23277W        W38124  13.661  18.823   5.121
23278W        W38125  16.041   5.127   3.172
23279W        W38126  19.325   5.653  11.411
23280W        W38127  16.956  10.993   4.618
23281W        W38128  14.599   2.229   0.246
23282W        W38129  15.071  14.895  10.417
23283W        W38130  16.978  17.836   4.616
23284W        W38131  12.269   3.696   1.738
23285W        W38132  14.628  11.975   0.728
23286W        W38133  18.834  15.899  11.878
23287W        W38134  14.161   7.602   1.705
23288W        W38135  13.668  15.402  12.839
23289W        W38136  14.131  11.008   0.287
23290W        W38137  17.923  15.380  14.277
23291W        W38138  14.604   7.102   4.618
23292W        W38139  13.650  15.400  13.790
23293W        W38140  14.611   9.034  13.821
23294W        W38141  16.958  16.857   5.111
23295W        W38142  12.264  10.985   3.155
23296W        W38143  14.590  13.934  12.839
23297W        W38144  19.340  15.872  13.799
23298W        W38145  19.769  18.813   0.746
23299W        W38146  12.726  18.801  11.392
23300W        W38147  17.890   5.129   2.689
23301W        W38148  19.339  15.385   0.761
23302W        W38149  12.722   6.131   5.115
23303W        W38150  17.418   8.556  13.326
23304W        W38151  19.329   7.601  10.409
23305W        W38152  16.480  13.416   3.660
23306W        W38153  18.383  10.536  11.859
23307W        W38154  15.098   0.736  14.768
23308W        W38155  18.843  17.357   4.626
23309W        W38156  19.771   1.734   2.705
23310W        W38157  16.480  14.900   1.722
23311W        W38158  12.273   2.699   1.731
23312W        W38159  14.598   4.647  11.896
23313W        W38160  16.021   0.278   2.703
23314W        W38161  15.072   8.570   0.748
23315W        W38162  17.909  17.324  14.792
23316W        W38163  12.730  12.956   4.155
23317W        W38164  12.241  12.465  14.787
23318W        W38165  19.779   1.731  11.408
23319W        W38166  12.249  11.977  13.316
23320W        W38167  16.944   8.059   0.273
23321W        W38168  12.750   9.043  14.786
23322W        W38169  14.138  15.392   1.227
23323W        W38170  13.196   4.658   1.722
23324W        W38171  12.750   0.748   4.113
23325W        W38172  18.373  12.476   3.181
23326W        W38173  16.499   8.584  14.277
23327W        W38174  13.671  10.505  13.837
23328W        W38175  13.675   2.700  12.855
23329W        W38176  13.201  17.815   2.692
23330W        W38177  12.739   3.678  10.923
23331W        W38178  13.680   7.585   0.758
23332W        W38179  17.883   9.049   4.635
23333W        W38180  16.034   5.630  14.783
23334W        W38181  15.535   0.285  12.362
23335W        W38182  15.099  15.862   4.632
23336W        W38183  14.600   1.261   2.709
23337W        W38184  17.455   5.153   2.210
23338W        W38185  19.307  18.809  10.441
23339W        W38186  16.988  13.432  10.902
23340W        W38187  16.506   1.750   9.923
23341W        W38188  16.007  15.880   5.088
23342W        W38189  14.606   7.593  13.323
23343W        W38190  19.340   5.634   0.261
23344W        W38191  16.946  15.392   1.253
23345W        W38192  12.255  10.534  13.797
23346W        W38193  17.912   2.216   3.153
23347W        W38194  17.903  10.507  11.402
23348W        W38195  14.619  17.813  10.421
23349W        W38196  18.854   0.291   3.640
23350W        W38197  13.652  10.520   0.769
23351W        W38198  14.138  10.984  11.391
23352W        W38199  12.238   9.522   1.718
23353W        W38200  16.011   0.256   1.220
23354W        W38201  14.589  12.457  13.831
23355W        W38202  16.040   0.779   2.219
23356W        W38203  15.061   6.592  11.869
23357W        W38204  15.534   8.539  11.857
23358W        W38205  17.905   0.259  13.325
23359W        W38206  18.840  13.947   1.722
23360W        W38207  17.887   0.284   0.260
23361W        W38208  17.884  19.782  14.288
23362W        W38209  19.296  11.014   2.188
23363W        W38210  14.614  14.428   1.256
23364W        W38211  16.980   4.674  14.306
23365W        W38212  13.677   5.632  14.786
23366W        W38213  16.508   4.167   1.739
23367W        W38214  16.977   4.653   4.619
23368W        W38215  13.201  14.923  13.837
23369W        W38216  13.186  14.412   4.639
23370W        W38217  16.942   3.212   4.143
23371W        W38218  19.319  18.330  10.931
23372W        W38219  19.297   8.584  13.801
23373W        W38220  18.354   8.558   2.197
23374W        W38221  14.620   2.730   1.238
23375W        W38222  19.308  15.876   2.673
23376W        W38223  14.630  14.390  13.321
23377W        W38224  16.490   9.034  13.795
23378W        W38225  13.211  16.864   1.714
23379W        W38226  15.558   3.697  14.285
23380W        W38227  18.377  19.290   3.151
23381W        W38228  15.087  15.378   0.278
23382W        W38229  15.570   7.575  14.771
23383W        W38230  14.154  18.807  10.426
23384W        W38231  12.748  19.774  10.447
23385W        W38232  19.323   7.567   0.771
23386W        W38233  18.395  13.445   2.194
23387W        W38234  17.916  13.937  10.439
23388W        W38235  13.180   2.710  12.855
23389W        W38236  16.002  14.410   1.252
23390W        W38237  15.104   9.031  14.759
23391W        W38238  14.131  11.963   1.250
23392W        W38239  18.859  17.827   0.273
23393W        W38240  12.748   7.571  10.412
23394W        W38241  13.676  13.923  12.349
23395W        W38242  14.634  14.422  11.411
23396W        W38243  17.458  19.760   3.182
23397W        W38244  12.713  11.019  14.299
23398W        W38245  14.605   6.141   3.667
23399W        W38246  14.608  17.816   2.200
23400W        W38247  13.657   1.710   3.656
23401W        W38248  16.515   2.243  11.864
23402W        W38249  14.162  11.968  11.880
23403W        W38250  14.146   6.595  12.354
23404W        W38251  14.631   5.641   3.668
23405W        W38252  16.487  11.505   0.773
23406W        W38253  12.281  10.028  14.802
23407W        W38254  15.535  11.500  12.847
23408W        W38255  12.712   6.602  12.849
23409W        W38256  13.664   9.522  14.765
23410W        W38257  13.648   4.159  11.375
23411W        W38258  16.489  19.291   0.770
23412W        W38259  16.982   7.588  10.406
23413W        W38260  18.389  16.874   0.773
23414W        W38261  17.884   0.739  11.882
23415W        W38262  16.034   1.724   0.727
23416W        W38263  19.324  16.351  12.362
23417W        W38264  18.824   5.653  11.879
23418W        W38265  13.681   6.628   9.952
23419W        W38266  17.444   9.052  10.931
23420W        W38267  12.248   9.513  10.929
23421W        W38268  16.512  18.303   3.632
23422W        W38269  13.188   9.034   4.136
23423W        W38270  19.807   1.248   1.234
23424W        W38271  16.982   1.719  13.819
23425W        W38272  17.417   9.525  11.406
23426W        W38273  12.750   1.720  10.905
23427W        W38274  16.972  12.939   4.623
23428W        W38275  19.785  10.511   0.259
23429W        W38276  18.369  10.980   4.599
23430W        W38277  14.137   6.102  12.362
23431W        W38278  16.031   7.096  10.413
23432W        W38279  19.334   6.603   2.675
23433W        W38280  15.558  15.858   4.603
23434W        W38281  14.604   2.708   3.654
23435W        W38282  19.788  10.490   4.150
23436W        W38283  17.922   8.552  13.792
23437W        W38284  19.328   2.197  14.768
23438W        W38285  12.719  12.934  11.883
23439W        W38286  19.785   6.116  12.852
23440W        W38287  13.185  12.961  13.340
23441W        W38288  12.277  16.363   1.707
23442W        W38289  16.967  11.505   2.188
23443W        W38290  18.849  18.826   0.768
23444W        W38291  13.657  17.345   1.723
23445W        W38292  18.854   8.554  13.824
23446W        W38293  13.690  17.324   0.754
23447W        W38294  16.490  10.018  13.794
23448W        W38295  19.324  13.945   1.736
23449W        W38296  16.478  19.756   2.199
23450W        W38297  16.980  18.293  10.891
23451W        W38298  15.087   7.106   3.158
23452W        W38299  14.133   2.207  12.349
23453W        W38300  12.268  14.420  12.358
23454W        W38301  16.959  11.511   0.265
23455W        W38302  13.183   6.105   0.253
23456W        W38303  19.301   5.636   1.237
23457W        W38304  18.392   7.578   9.943
23458W        W38305  13.204   6.616  12.383
23459W        W38306  12.730  12.955  12.371
23460W        W38307  16.962   9.541  11.377
23461W        W38308  18.835   8.085   3.167
23462W        W38309  16.033  17.807   2.199
23463W        W38310  16.983   1.245   1.737
23464W        W38311  14.598  16.356  13.828
23465W        W38312  12.727   0.735  12.355
23466W        W38313  13.187  15.869  13.828
23467W        W38314  13.197   7.568  14.291
23468W        W38315  13.650   3.211  13.836
23469W        W38316  17.455  18.791   4.116
23470W        W38317  16.486  10.984  11.856
23471W        W38318  19.785   4.639   3.155
23472W        W38319  12.713  10.004   4.127
23473W        W38320  13.215   9.556  12.366
23474W        W38321  18.855  14.897  12.826
23475W        W38322  13.201   9.557   4.115
23476W        W38323  19.766   5.164   0.275
23477W        W38324  16.494  16.848  11.894
23478W        W38325  17.903  17.334  14.317
23479W        W38326  12.244  18.322   0.770
23480W        W38327  12.266  15.861  12.373
23481W        W38328  18.374  15.900   5.118
23482W        W38329  14.134  19.777   4.626
23483W        W38330  18.372   5.636  13.310
23484W        W38331  14.591   0.764  11.409
23485W        W38332  19.798  13.455  14.804
23486W        W38333  16.022  17.817  12.382
23487W        W38334  16.502  18.810  14.285
23488W        W38335  15.065  12.464  11.401
23489W        W38336  13.684  11.495  11.894
23490W        W38337  16.000   8.539  13.308
23491W        W38338  16.964  16.855  10.895
23492W        W38339  16.504  13.928   4.121
23493W        W38340  17.455   0.758   0.283
23494W        W38341  15.538  15.871   1.213
23495W        W38342  16.000   2.697  14.766
23496W        W38343  16.045   4.649  11.416
23497W        W38344  17.903   4.155  11.380
23498W        W38345  14.630   3.181   3.163
23499W        W38346  19.779   8.551   0.272
23500W        W38347  12.746   7.103   1.232
23501W        W38348  12.751   4.189  12.855
23502W        W38349  15.071   0.778   1.248
23503W        W38350  19.306   2.695  14.287
23504W        W38351  18.843   3.175   2.186
23505W        W38352  12.713  14.405  12.382
23506W        W38353  17.421   6.608  13.314
23507W        W38354  14.159  13.944  12.342
23508W        W38355  17.896  16.847   3.183
23509W        W38356  17.917   5.610   4.617
23510W        W38357  16.482  11.005   2.666
23511W        W38358  18.839  16.840  14.792
23512W        W38359  14.616   7.564   4.625
23513W        W38360  17.916   2.716  11.892
23514W        W38361  12.269  18.781  12.823
23515W        W38362  12.245  19.777  14.302
23516W        W38363  19.786  11.015   4.139
23517W        W38364  18.835  10.017  14.787
23518W        W38365  13.214   6.618  14.303
23519W        W38366  16.033   4.157  11.403
23520W        W38367  12.243   8.576  14.774
23521W        W38368  15.076   0.753  10.914
23522W        W38369  14.624  15.900   1.256
23523W        W38370  19.341  18.307  14.762
23524W        W38371  12.739  11.994   3.657
23525W        W38372  15.059   8.092   1.236
23526W        W38373  19.807   1.720   0.732
23527W        W38374  17.428   1.735   4.615
23528W        W38375  15.554  13.444   5.088
23529W        W38376  18.833  11.509   1.725
23530W        W38377  15.575   9.545  14.306
23531W        W38378  14.617   2.692   3.192
23532W        W38379  16.039  18.301   3.191
23533W        W38380  13.182  19.786  12.833
23534W        W38381  13.693   7.121  13.795
23535W        W38382  19.297  15.889   0.746
23536W        W38383  16.507  10.531   1.708
23537W        W38384  14.158  19.312   2.681
23538W        W38385  15.575   9.521   2.707
23539W        W38386  17.415  19.270  10.406
23540W        W38387  18.372   0.751  14.803
23541W        W38388  16.024   0.737  12.359
23542W        W38389  16.018  10.046  14.799
23543W        W38390  18.835  17.335  10.912
23544W        W38391  14.121   9.028  13.809
23545W        W38392  17.923  10.985  11.883
23546W        W38393  13.669  18.334  10.915
23547W        W38394  18.852  16.868   3.164
23548W        W38395  14.630   6.599   4.154
23549W        W38396  18.861  11.490   5.090
23550W        W38397  16.033  16.387  13.808
23551W        W38398  13.676   4.149   4.115
23552W        W38399  12.243   3.698   2.692
23553W        W38400  16.489   8.059  14.785
23554W        W38401  18.364  18.803   0.752
23555W        W38402  16.026   9.044   4.139
23556W        W38403  16.975   7.607   4.140
23557W        W38404  18.826  15.394   1.258
23558W        W38405  18.383  14.421  10.896
23559W        W38406  19.777  11.488  10.419
23560W        W38407  14.130   1.236   4.635
23561W        W38408  15.083  15.900   3.193
23562W        W38409  14.600   3.184   1.694
23563W        W38410  15.069   3.218   4.624
23564W        W38411  14.123   5.170   3.651
23565W        W38412  16.977   9.073  12.842
23566W        W38413  16.042  12.930  10.443
23567W        W38414  15.570  17.332   4.630
23568W        W38415  19.789   4.175  13.323
23569W        W38416  19.310  16.386  11.901
23570W        W38417  17.903   9.538  12.351
23571W        W38418  19.786   1.754   4.608
23572W        W38419  19.808  19.764  11.394
23573W        W38420  13.678  15.854  11.409
23574W        W38421  14.133   3.195  10.433
23575W        W38422  17.436   8.097   3.633
23576W        W38423  15.073  10.984   2.673
23577W        W38424  14.589  13.939   2.701
23578W        W38425  13.190   0.771   4.640
23579W        W38426  18.391  16.869  12.838
23580W        W38427  13.649   2.685  11.879
23581W        W38428  18.383  11.976   4.120
23582W        W38429  13.215   7.085  13.802
23583W        W38430  18.391   4.677  12.345
23584W        W38431  19.338   5.129  13.349
23585W        W38432  13.667  13.941  10.893
23586W        W38433  12.268  10.005   4.629
23587W        W38434  18.362   8.083   3.165
23588W        W38435  17.421   3.699   2.211
23589W        W38436  15.078  19.302  14.295
23590W        W38437  15.549   4.671  12.376
23591W        W38438  17.420  11.465  11.394
23592W        W38439  13.190  16.344   2.182
23593W        W38440  13.657   2.718  10.429
23594W        W38441  16.961   9.513   9.940
23595W        W38442  16.009   5.137  12.345
23596W        W38443  12.271  19.312   3.164
23597W        W38444  18.855  11.008  13.353
23598W        W38445  19.295  11.989   1.726
23599W        W38446  16.029  12.455  12.350
23600W        W38447  13.675  10.034  11.403
23601W        W38448  16.041  15.874   2.203
23602W        W38449  14.607   3.219  10.434
23603W        W38450  16.962   5.654  11.884
23604W        W38451  12.717  19.279   2.209
23605W        W38452  17.437  16.366   4.607
23606W        W38453  18.832   1.746  11.374
23607W        W38454  15.077  14.403   0.274
23608W        W38455  15.574   2.234  14.799
23609W        W38456  15.546   2.212   1.240
23610W        W38457  14.132   3.693   4.623
23611W        W38458  16.507  18.808  13.810
23612W        W38459  18.863  13.454   1.715
23613W        W38460  12.261   9.550   3.644
23614W        W38461  14.156   9.045   3.151
23615W        W38462  14.619  17.833   4.622
23616W        W38463  14.135  13.446   9.960
23617W        W38464  13.213   7.097   0.770
23618W        W38465  19.766   1.724   2.184
23619W        W38466  17.928  17.825   2.213
23620W        W38467  16.487   4.152   3.657
23621W        W38468  15.099  11.479   4.598
23622W        W38469  13.190   6.101   2.668
23623W        W38470  16.483  10.023   4.150
23624W        W38471  17.904  18.322  10.910
23625W        W38472  18.396   0.741  13.341
23626W        W38473  13.690  11.020   0.766
23627W        W38474  13.217  17.319   2.223
23628W        W38475  12.254   8.543   4.142
23629W        W38476  17.456  14.886  10.430
23630W        W38477  16.006   7.589   1.231
23631W        W38478  12.251   5.616   2.664
23632W        W38479  17.924  11.471  14.278
23633W        W38480  12.255  12.936   1.221
23634W        W38481  14.622  11.985  13.823
23635W        W38482  17.897   6.108   3.649
23636W        W38483  18.825   7.563   3.674
23637W        W38484  12.275  10.490   9.951
23638W        W38485  12.262   6.136   3.146
23639W        W38486  17.922   7.094   4.118
23640W        W38487  16.033  18.817   4.148
23641W        W38488  18.368   5.148   2.665
23642W        W38489  14.603   9.547   0.276
23643W        W38490  16.505  15.412   1.253
23644W        W38491  14.602  18.304  11.865
23645W        W38492  13.198  17.328  13.334
23646W        W38493  13.677  16.852  13.322
23647W        W38494  19.803   3.665   4.627
23648W        W38495  16.959  16.375  13.825
23649W        W38496  16.511  17.850  11.887
23650W        W38497  15.572  14.897  10.931
23651W        W38498  19.794   1.728  10.908
23652W        W38499  17.886  16.375   2.698
23653W        W38500  16.492   3.188  13.797
23654W        W38501  18.868  11.508  10.446
23655W        W38502  12.752   5.168   0.734
23656W        W38503  16.952   4.657  14.768
23657W        W38504  12.711  13.431   9.924
23658W        W38505  15.070   9.527  10.935
23659W        W38506  17.451   5.132  11.407
23660W        W38507  12.270   6.592   1.230
23661W        W38508  16.037  18.809   3.178
23662W        W38509  16.014   5.167  12.863
23663W        W38510  14.138  17.851  14.282
23664W        W38511  14.128   5.623  11.415
23665W        W38512  19.774   8.083  11.885
23666W        W38513  14.142   9.558   4.630
23667W        W38514  12.277  19.761  11.868
23668W        W38515  13.208   4.174   2.222
23669W        W38516  17.896  11.010   1.694
23670W        W38517  12.748  10.498  13.792
23671W        W38518  14.592   7.583   2.663
23672W        W38519  14.614   5.641   2.199
23673W        W38520  18.853  14.409   3.630
23674W        W38521  19.314   9.025  14.319
23675W        W38522  18.376  19.772   2.206
23676W        W38523  17.883   1.234  10.422
23677W        W38524  15.567   8.059  11.894
23678W        W38525  12.276  10.041   4.140
23679W        W38526  14.630   9.559  11.372
23680W        W38527  16.972   9.560   3.635
23681W        W38528  12.749  11.000   2.203
23682W        W38529  17.920   2.228  13.332
23683W        W38530  16.489   6.613  13.337
23684W        W38531  17.903  18.783  14.773
23685W        W38532  15.536  18.818  11.403
23686W        W38533  15.094   5.655  13.825
23687W        W38534  15.068   3.679  12.375
23688W        W38535  18.862  10.983   2.199
23689W        W38536  16.021   7.605   4.141
23690W        W38537  12.264   0.737  10.916
23691W        W38538  12.737   9.551  11.399
23692W        W38539  13.652   3.171  11.858
23693W        W38540  17.437  18.314  13.344
23694W        W38541  19.783   6.108  11.856
23695W        W38542  14.131  19.786  12.846
23696W        W38543  19.805  14.902   3.641
23697W        W38544  16.973   1.234   4.598
23698W        W38545  14.158  10.997  12.361
23699W        W38546  12.717  12.472   3.154
23700W        W38547  13.652  16.872   0.252
23701W        W38548  17.901   6.144  12.836
23702W        W38549  16.961  13.930   2.679
23703W        W38550  17.433  10.521   4.133
23704W        W38551  14.141  12.969   3.675
23705W        W38552  17.443  17.822   2.223
23706W        W38553  16.942  12.481   3.192
23707W        W38554  19.297  15.404   5.088
23708W        W38555  15.073  14.421  11.404
23709W        W38556  14.151   9.533  12.373
23710W        W38557  17.422  11.978  13.325
23711W        W38558  13.185   6.600   1.246
23712W        W38559  16.487  16.845   1.708
23713W        W38560  14.626   0.779  14.768
23714W        W38561  19.331  15.410  14.310
23715W        W38562  17.887  10.517   3.178
23716W        W38563  15.100   1.711  13.827
23717W        W38564  19.311  12.465  13.317
23718W        W38565  17.414  14.886   4.127
23719W        W38566  12.739   6.136   0.768
23720W        W38567  18.859  11.493   3.187
23721W        W38568  12.253  11.012  13.810
23722W        W38569  13.220   6.131  14.764
23723W        W38570  15.083  19.294   4.611
23724W        W38571  13.200  11.505  10.451
23725W        W38572  16.019   7.572   3.634
23726W        W38573  16.007  10.002   5.092
23727W        W38574  13.673   3.171  14.801
23728W        W38575  17.912  19.316  13.307
23729W        W38576  15.089  10.529   0.252
23730W        W38577  15.539   9.028   0.750
23731W        W38578  16.033   9.050  11.882
23732W        W38579  15.565  11.476  13.349
23733W        W38580  16.030   5.155  10.449
23734W        W38581  16.950   0.273  13.324
23735W        W38582  19.316   1.732  11.898
23736W        W38583  17.921  18.825  12.858
23737W        W38584  13.200   5.626   2.695
23738W        W38585  17.904  18.324   3.187
23739W        W38586  12.280  13.447   4.115
23740W        W38587  14.624   5.161   2.214
23741W        W38588  16.007   1.248   3.662
23742W        W38589  12.723   4.150   3.640
23743W        W38590  15.074  12.465  12.857
23744W        W38591  16.017  15.395  10.446
23745W        W38592  15.551   1.736  10.888
23746W        W38593  12.747  17.850  10.933
23747W        W38594  17.890  11.492  11.876
23748W        W38595  18.380  14.892   4.604
23749W        W38596  13.652   1.225  10.414
23750W        W38597  18.843  11.469  11.385
23751W        W38598  13.682  19.802  14.306
23752W        W38599  16.487   5.650   2.666
23753W        W38600  13.679   7.116   1.212
23754W        W38601  19.783  12.451   3.633
23755W        W38602  18.390   4.644  12.858
23756W        W38603  14.142  15.869   4.130
23757W        W38604  15.064   3.192  13.315
23758W        W38605  13.192   5.628   2.225
23759W        W38606  16.952  16.382   4.612
23760W        W38607  17.436  12.939   0.242
23761W        W38608  15.092   6.617   0.283
23762W        W38609  15.565   0.292  12.830
23763W        W38610  17.916  12.478   3.655
23764W        W38611  19.333  18.792  13.829
23765W        W38612  14.129   2.225   3.174
23766W        W38613  17.418   4.660   0.275
23767W        W38614  12.748   4.675  10.421
23768W        W38615  14.125  18.300   0.745
23769W        W38616  18.828   5.126   3.632
23770W        W38617  14.599  12.953   5.110
23771W        W38618  18.849   3.204   2.695
23772W        W38619  18.387  13.427  10.894
23773W        W38620  14.146   8.571   4.611
23774W        W38621  13.688   0.755   3.183
23775W        W38622  12.750  14.394  14.293
23776W        W38623  16.510  11.011   2.200
23777W        W38624  16.044  12.930  14.765
23778W        W38625  15.104  19.304   1.238
23779W        W38626  19.320   6.628   0.283
23780W        W38627  16.948  11.486  12.863
23781W        W38628  16.471   4.180   0.253
23782W        W38629  15.083  12.968   9.948
23783W        W38630  17.925  10.496   3.676
23784W        W38631  19.326  18.784   5.109
23785W        W38632  16.978   7.565  12.374
23786W        W38633  15.085  10.004  11.892
23787W        W38634  14.151  18.807   9.949
23788W        W38635  16.513   1.231   9.952
23789W        W38636  19.807  13.442   1.245
23790W        W38637  19.305  15.869  13.329
23791W        W38638  17.448   8.052   4.643
23792W        W38639  19.794  11.485   0.744
23793W        W38640  12.245  17.357  11.878
23794W        W38641  18.384  14.881  14.295
23795W        W38642  15.531  11.969  14.778
23796W        W38643  13.680  15.889   5.098
23797W        W38644  12.271  10.495   2.692
23798W        W38645  15.532  19.280  11.875
23799W        W38646  16.044  13.448  12.835
23800W        W38647  17.886   5.145  10.427
23801W        W38648  18.361  11.511   0.246
23802W        W38649  12.720   8.562  12.869
23803W        W38650  14.138  14.912   0.274
23804W        W38651  19.776  16.856  10.432
23805W        W38652  14.634   7.107   2.672
23806W        W38653  19.313  11.483  11.886
23807W        W38654  13.217  15.405   3.654
23808W        W38655  19.320   0.279   2.663
23809W        W38656  16.000  19.312  13.351
23810W        W38657  13.660  18.796  12.380
23811W        W38658  13.660  15.390  13.322
23812W        W38659  14.138   2.237   1.244
23813W        W38660  15.085   0.266   2.707
23814W        W38661  17.412   0.751   4.608
23815W        W38662  18.360   0.735   1.716
23816W        W38663  17.442   7.097  12.841
23817W        W38664  19.775  19.779   3.635
23818W        W38665  13.208   1.749  12.386
23819W        W38666  17.904   0.285   3.158
23820W        W38667  19.769   0.280   5.101
23821W        W38668  17.440  10.026   0.277
23822W        W38669  13.648   1.255  13.808
23823W        W38670  17.424   3.669  13.349
23824W        W38671  16.477  15.405  13.326
23825W        W38672  17.419  11.512   5.085
23826W        W38673  17.886   1.223  14.275
23827W        W38674  16.502  13.446  10.898
23828W        W38675  16.960  14.914  10.437
23829W        W38676  12.258  19.301  13.343
23830W        W38677  17.453   0.748  12.347
23831W        W38678  18.400   8.053  11.409
23832W        W38679  15.069  16.390   1.228
23833W        W38680  19.332  11.006   2.696
23834W        W38681  13.684   0.260  13.799
23835W        W38682  18.851   9.537  12.844
23836W        W38683  14.626  17.324   1.735
23837W        W38684  16.962   4.161   2.701
23838W        W38685  16.471   8.075  13.348
23839W        W38686  12.742   8.575   3.653
23840W        W38687  13.207  17.320  10.409
23841W        W38688  14.131   8.088  12.843
23842W        W38689  13.192   5.127   0.765
23843W        W38690  12.740  12.464  14.300
23844W        W38691  19.321  11.957   4.601
23845W        W38692  18.381  10.491   2.666
23846W        W38693  14.157  16.352  12.838
23847W        W38694  15.534   9.526  14.778
23848W        W38695  15.571  11.001   0.728
23849W        W38696  16.004   4.161   3.630
23850W        W38697  12.725  17.842  12.835
23851W        W38698  12.748   4.675  12.837
23852W        W38699  12.247  18.315  14.788
23853W        W38700  16.972  10.031  14.314
23854W        W38701  15.096   3.680  14.314
23855W        W38702  16.952  17.357  12.352
23856W        W38703  15.082   6.129  12.856
23857W        W38704  12.742   1.229   1.722
23858W        W38705  13.693   2.705   4.143
23859W        W38706  18.830   4.158  13.829
23860W        W38707  17.441  10.510  12.856
23861W        W38708  14.150   7.109   9.957
23862W        W38709  13.662  15.397   4.136
23863W        W38710  17.441  14.903  13.797
23864W        W38711  14.633   9.043  11.381
23865W        W38712  13.194  18.302   0.246
23866W        W38713  14.161   8.567  12.865
23867W        W38714  16.498  15.883   2.700
23868W        W38715  15.081  12.455  13.829
23869W        W38716  14.611   5.628  10.933
23870W        W38717  19.788   8.584  12.853
23871W        W38718  15.070  19.757   1.250
23872W        W38719  14.129   1.723  12.829
23873W        W38720  16.478  15.876   3.638
23874W        W38721  12.710   1.728  14.775
23875W        W38722  19.797  18.337  12.356
23876W        W38723  12.739   2.686   1.739
23877W        W38724  15.092  16.359  11.899
23878W        W38725  19.335  19.303  10.930
23879W        W38726  18.385  11.970  14.318
23880W        W38727  13.655   2.241   5.125
23881W        W38728  19.811  11.479  10.935
23882W        W38729  13.199  15.892   3.167
23883W        W38730  18.389  15.880  14.770
23884W        W38731  19.312   3.189  12.355
23885W        W38732  13.650  10.035  13.319
23886W        W38733  19.811  11.502   5.124
23887W        W38734  12.744  15.882   3.658
23888W        W38735  12.717  16.343  11.404
23889W        W38736  15.555  14.429   9.923
23890W        W38737  19.795  11.009   2.182
23891W        W38738  16.040  14.392  12.868
23892W        W38739  19.773   1.223   2.688
23893W        W38740  17.895  18.785   1.225
23894W        W38741  17.924   1.222  13.801
23895W        W38742  12.748  19.762  13.338
23896W        W38743  18.393  19.782   1.738
23897W        W38744  16.954   0.748   4.126
23898W        W38745  15.569   2.731  10.926
23899W        W38746  12.721  11.952   4.629
23900W        W38747  15.555   8.086   3.193
23901W        W38748  13.192   7.083   4.119
23902W        W38749  16.965  12.960  13.350
23903W        W38750  14.591   7.576  11.382
23904W        W38751  18.355  12.464  13.307
23905W        W38752  14.628  17.814  11.888
23906W        W38753  13.193  19.765   2.192
23907W        W38754  15.565   5.139  11.374
23908W        W38755  12.278  13.903  14.789
23909W        W38756  16.957   3.185  10.440
23910W        W38757  15.572  19.773  10.901
23911W        W38758  16.037   6.136   3.184
23912W        W38759  13.220  10.027   1.733
23913W        W38760  14.119  12.965  13.813
23914W        W38761  15.089   4.151  12.833
23915W        W38762  19.332  13.941  12.835
23916W        W38763  15.059   4.184  13.324
23917W        W38764  14.146  17.846  11.405
23918W        W38765  15.560   9.069   1.217
23919W        W38766  14.161  18.781   1.254
23920W        W38767  16.949   2.195   3.635
23921W        W38768  15.571  13.441   0.746
23922W        W38769  16.021   7.568   1.713
23923W        W38770  12.749   5.651   9.947
23924W        W38771  14.593   6.122  14.766
23925W        W38772  14.129  12.931  14.317
23926W        W38773  15.563   5.628   4.625
23927W        W38774  16.485  19.301  10.893
23928W        W38775  17.915   1.267   3.170
23929W        W38776  14.628  18.816  12.348
23930W        W38777  15.537   5.644   3.155
23931W        W38778  19.790  12.956  13.823
23932W        W38779  18.377   9.550  13.350
23933W        W38780  13.676  19.293   4.609
23934W        W38781  16.944   7.583   3.160
23935W        W38782  16.484   7.608   0.281
23936W        W38783  13.652  19.780  10.450
23937W        W38784  12.244  14.394   5.087
23938W        W38785  14.627  10.489   3.164
23939W        W38786  19.333  14.393  11.397
23940W        W38787  16.030   8.075   4.135
23941W        W38788  17.886  17.842   0.740
23942W        W38789  16.005  11.958   0.745
23943W        W38790  12.734  16.832   2.221
23944W        W38791  19.332   6.130   2.187
23945W        W38792  15.534  11.994  11.866
23946W        W38793  16.948  16.866   3.169
23947W        W38794  15.540   1.713   4.131
23948W        W38795  15.566  14.434   3.634
23949W        W38796  18.838   8.576   4.130
23950W        W38797  12.264   5.637   1.227
23951W        W38798  16.487  14.418   5.581
23952W        W38799  16.981   5.137  12.846
23953W        W38800  16.009  11.991  10.451
23954W        W38801  19.810   2.719  14.788
23955W        W38802  16.513   7.587  14.304
23956W        W38803  14.609   5.652  11.407
23957W        W38804  16.004  16.364  12.382
23958W        W38805  18.839  12.933   1.715
23959W        W38806  14.635  11.001   4.604
23960W        W38807  14.153  13.921  11.885
23961W        W38808  17.929   4.172   1.719
23962W        W38809  19.771  17.328   0.750
23963W        W38810  12.279  12.474   0.262
23964W        W38811  14.628  15.882   3.640
23965W        W38812  12.273  13.939  10.441
23966W        W38813  14.610   3.219  14.759
23967W        W38814  14.631   6.107  11.409
23968W        W38815  18.854  19.303  14.317
23969W        W38816  13.220  14.394  14.307
23970W        W38817  14.595  17.823  11.419
23971W        W38818  17.887   0.268  14.281
23972W        W38819  14.160  14.882   0.727
23973W        W38820  19.788  11.996   1.241
23974W        W38821  12.722   3.190   2.674
23975W        W38822  16.953  18.807   1.722
23976W        W38823  16.473  14.911   1.255
23977W        W38824  18.379   4.658  13.325
23978W        W38825  19.803   7.573   1.740
23979W        W38826  16.004   4.179   0.764
23980W        W38827  18.846  18.808   2.201
23981W        W38828  19.772  17.820   4.148
23982W        W38829  16.512  18.339  11.413
23983W        W38830  12.745  15.387   4.124
23984W        W38831  16.984  16.871   0.754
23985W        W38832  16.028  17.356  13.832
23986W        W38833  14.121  16.370   1.257
23987W        W38834  18.392   6.100  10.430
23988W        W38835  14.613   1.755   4.133
23989W        W38836  17.909   7.080   5.094
23990W        W38837  16.015   8.578   1.214
23991W        W38838  16.496   1.262   2.183
23992W        W38839  18.372   8.069   2.662
23993W        W38840  19.809   1.711  10.415
23994W        W38841  12.751   6.613   0.279
23995W        W38842  15.074  12.960   3.160
23996W        W38843  12.236   3.218  10.899
23997W        W38844  17.906   2.242  11.898
23998W        W38845  18.365  17.806  10.438
23999W        W38846  12.717   4.179   3.183
24000W        W38847  14.631   1.716   1.711
24001W        W38848  17.448   0.257   0.745
24002W        W38849  19.311   3.688   3.660
24003W        W38850  17.450  15.387   3.666
24004W        W38851  17.920   9.062  14.780
24005W        W38852  16.477  11.991  12.856
24006W        W38853  17.440   4.663   2.190
24007W        W38854  16.972  13.441  14.782
24008W        W38855  15.079  18.793  10.430
24009W        W38856  18.869   9.065  10.426
24010W        W38857  19.333   4.192  14.806
24011W        W38858  19.333  12.487   4.643
24012W        W38859  12.252   1.256   0.750
24013W        W38860  14.148  11.469   2.703
24014W        W38861  15.100  16.853   3.175
24015W        W38862  14.627   8.572   3.185
24016W        W38863  15.575   3.667   4.123
24017W        W38864  14.628   2.683  11.887
24018W        W38865  15.534  11.010  13.837
24019W        W38866  16.979  17.325   2.201
24020W        W38867  17.884  12.459   0.759
24021W        W38868  12.264  11.007   2.210
24022W        W38869  18.392  19.766  14.792
24023W        W38870  15.082   6.619  14.276
24024W        W38871  19.783   4.190   3.167
24025W        W38872  18.398   4.673   2.676
24026W        W38873  16.986   5.164  12.360
24027W        W38874  19.339   2.225   5.115
24028W        W38875  16.976  10.014  10.932
24029W        W38876  18.867   5.649  12.377
24030W        W38877  16.021  19.783   4.641
24031W        W38878  12.742  18.341  10.901
24032W        W38879  19.811  11.499  13.792
24033W        W38880  14.161  10.023   0.286
24034W        W38881  15.551   0.735   3.149
24035W        W38882  16.046  10.998  14.286
24036W        W38883  17.918   6.601   2.669
24037W        W38884  14.136  10.506  10.412
24038W        W38885  19.336   7.584  13.823
24039W        W38886  14.595  13.940   4.150
24040W        W38887  18.866   9.545  14.800
24041W        W38888  15.069  11.984   3.160
24042W        W38889  15.059   0.245  12.845
24043W        W38890  19.807   6.622   3.641
24044W        W38891  18.396   1.258  14.803
24045W        W38892  16.030  12.442   0.248
24046W        W38893  17.894  14.430   0.284
24047W        W38894  16.011   7.608  11.868
24048W        W38895  12.707  15.896  14.804
24049W        W38896  15.066  17.341  13.831
24050W        W38897  15.078  18.822  11.397
24051W        W38898  16.948  16.847   1.242
24052W        W38899  12.718  16.348  14.767
24053W        W38900  18.384  15.393   4.157
24054W        W38901  13.216  15.414   4.638
24055W        W38902  18.378  12.966  10.426
24056W        W38903  16.001   1.255   2.181
24057W        W38904  16.032  13.420  14.789
24058W        W38905  12.238  19.757   0.260
24059W        W38906  12.748  11.007   4.136
24060W        W38907  19.769  16.346   1.741
24061W        W38908  16.480  12.464  12.377
24062W        W38909  17.433  10.005   2.661
24063W        W38910  19.330   0.756   0.269
24064W        W38911  15.096  14.417  13.334
24065W        W38912  13.188  10.977   0.283
24066W        W38913  12.712  14.392   0.735
24067W        W38914  17.912   6.612  10.900
24068W        W38915  14.140  11.989   3.177
24069W        W38916  18.392   1.239   0.251
24070W        W38917  13.203   6.597   3.191
24071W        W38918  14.161  12.486  11.897
24072W        W38919  15.073  12.946   3.634
24073W        W38920  15.090   5.162  13.821
24074W        W38921  15.078   5.616  10.899
24075W        W38922  18.865   1.261  14.775
24076W        W38923  17.895  11.497   1.716
24077W        W38924  17.889   6.138   9.962
24078W        W38925  16.486   7.570  11.392
24079W        W38926  14.142  10.022   4.628
24080W        W38927  16.962   5.144   0.244
24081W        W38928  17.890  13.905  10.911
24082W        W38929  19.303  12.450   1.212
24083W        W38930  15.553  15.381  10.428
24084W        W38931  16.988   4.186   4.132
24085W        W38932  18.385   6.117  12.379
24086W        W38933  15.082   3.674  11.391
24087W        W38934  14.593  14.400  14.763
24088W        W38935  14.153  14.432  14.293
24089W        W38936  16.472  12.468   3.157
24090W        W38937  12.252   1.231   0.269
24091W        W38938  18.852   3.217  12.868
24092W        W38939  14.621   7.105  13.313
24093W        W38940  16.499  15.386  12.835
24094W        W38941  15.095   5.625   2.706
24095W        W38942  12.269   0.270  10.413
24096W        W38943  12.723  12.475  13.347
24097W        W38944  19.306  19.801  11.885
24098W        W38945  18.864  10.997   4.615
24099W        W38946  15.538   5.644  13.328
24100W        W38947  13.205  18.793   9.944
24101W        W38948  19.336   4.681  11.372
24102W        W38949  14.140  15.412  14.281
24103W        W38950  12.245   7.087  12.347
24104W        W38951  16.495  16.348   0.252
24105W        W38952  15.556   3.190  14.781
24106W        W38953  19.785  11.477   0.262
24107W        W38954  13.661  16.351   2.204
24108W        W38955  16.510   4.190  14.313
24109W        W38956  17.922  12.479   4.121
24110W        W38957  15.062  19.804  11.870
24111W        W38958  12.744   5.618   3.666
24112W        W38959  18.851   6.098  13.343
24113W        W38960  15.076  16.369  13.800
24114W        W38961  15.095   0.740  13.816
24115W        W38962  13.682  14.889   1.257
24116W        W38963  14.626  16.381  12.348
24117W        W38964  16.505  14.910   2.225
24118W        W38965  16.009   9.051  10.932
24119W        W38966  14.607  18.308   0.746
24120W        W38967  18.356   6.137   4.627
24121W        W38968  18.840   8.074  14.769
24122W        W38969  19.324  13.429   3.189
24123W        W38970  15.076   4.161   0.254
24124W        W38971  12.239  11.021  14.308
24125W        W38972  16.501  10.014   3.187
24126W        W38973  13.693   5.611   3.629
24127W        W38974  12.240  10.494  12.378
24128W        W38975  12.731   2.727   5.104
24129W        W38976  18.824  12.453   3.648
24130W        W38977  15.064  14.407   3.172
24131W        W38978  18.357   4.149   0.269
24132W        W38979  15.076   9.527   2.688
24133W        W38980  17.414   0.771  10.433
24134W        W38981  15.566  13.949   1.252
24135W        W38982  14.149  11.011  14.290
24136W        W38983  17.916  15.870  10.407
24137W        W38984  16.501   5.162   2.700
24138W        W38985  18.387  17.828  14.303
24139W        W38986  18.369   8.560  11.390
24140W        W38987  18.391   3.193   0.746
24141W        W38988  13.680  16.350  11.885
24142W        W38989  13.194  10.002  14.791
24143W        W38990  18.355   0.293  11.902
24144W        W38991  16.014  12.936   3.190
24145W        W38992  12.721   8.545  12.380
24146W        W38993  19.323  13.433  11.385
24147W        W38994  14.138   7.603   3.177
24148W        W38995  17.893   2.214   0.274
24149W        W38996  19.314   6.602  14.792
24150W        W38997  19.331  14.902   1.728
24151W        W38998  19.788   2.706  12.342
24152W        W38999  18.842  13.906   2.674
24153W        W39000  12.263   2.693  13.335
24154W        W39001  15.077   2.699  13.340
24155W        W39002  13.663   5.654   2.202
24156W        W39003  16.045  17.814   0.728
24157W        W39004  17.423   3.668   2.704
24158W        W39005  13.179   8.570   3.159
24159W        W39006  16.044   9.548   4.116
24160W        W39007  15.538   2.199   0.270
24161W        W39008  17.890   2.708   4.131
24162W        W39009  18.854  13.415  14.304
24163W        W39010  12.741   4.155   0.253
24164W        W39011  16.502  18.809  10.912
24165W        W39012  17.458   5.649   0.247
24166W        W39013  16.507   2.693  11.899
24167W        W39014  19.327  14.923   5.104
24168W        W39015  17.429   2.207   0.279
24169W        W39016  16.477  11.022   1.697
24170W        W39017  14.608  11.490   0.259
24171W        W39018  16.007   1.714  10.411
24172W        W39019  17.438  11.964   0.763
24173W        W39020  16.971   6.590   2.666
24174W        W39021  16.044  14.415   3.667
24175W        W39022  19.794  11.497  11.400
24176W        W39023  15.065   3.184   1.737
24177W        W39024  14.141  19.763  11.412
24178W        W39025  15.570   3.180   2.683
24179W        W39026  19.801   2.226   4.150
24180W        W39027  13.214   4.663   0.269
24181W        W39028  18.390   9.072  12.364
24182W        W39029  19.341   9.038  10.434
24183W        W39030  17.905   0.281  12.857
24184W        W39031  13.683  10.532   1.229
24185W        W39032  17.442  15.393   0.730
24186W        W39033  17.414   6.115  12.377
24187W        W39034  16.951   2.233  12.854
24188W        W39035  14.142   6.588  13.817
24189W        W39036  19.330   0.742  12.346
24190W        W39037  14.594  18.328   1.735
24191W        W39038  14.151   5.132   1.726
24192W        W39039  16.026  17.822  13.323
24193W        W39040  17.922   9.040   2.199
24194W        W39041  18.854   6.120   2.203
24195W        W39042  13.663   6.144  10.406
24196W        W39043  16.497   9.542  13.334
24197W        W39044  16.027  16.866  10.440
24198W        W39045  14.628   0.266  13.306
24199W        W39046  17.433   0.287  11.404
24200W        W39047  19.314  12.452  12.356
24201W        W39048  13.178   5.615   9.924
24202W        W39049  13.182  11.464   3.153
24203W        W39050  15.098  10.984  11.903
24204W        W39051  16.962  15.865  13.803
24205W        W39052  18.831  11.472  14.759
24206W        W39053  18.396   6.619   0.247
24207W        W39054  13.215   9.518  14.794
24208W        W39055  13.207   7.109   0.286
24209W        W39056  14.141  16.352   2.224
24210W        W39057  13.198  17.333   0.752
24211W        W39058  15.093   8.082  12.844
24212W        W39059  16.517  11.471  10.445
24213W        W39060  16.485  10.536  14.794
24214W        W39061  18.865  12.454  14.759
24215W        W39062  18.379   8.094   0.252
24216W        W39063  14.622  10.526  12.830
24217W        W39064  12.276  17.341  13.829
24218W        W39065  19.779   5.619  10.427
24219W        W39066  16.038   0.736   0.284
24220W        W39067  14.630  19.298   2.178
24221W        W39068  19.788   0.761   3.174
24222W        W39069  16.027   8.566  12.364
24223W        W39070  19.785   9.519   2.698
24224W        W39071  18.355   6.610  11.411
24225W        W39072  19.807  17.840   1.255
24226W        W39073  16.497   0.751   2.689
24227W        W39074  14.129  17.851   3.667
24228W        W39075  15.546  11.992   2.685
24229W        W39076  18.868  15.385   2.217
24230W        W39077  19.796  16.870  12.356
24231W        W39078  16.028   3.680   4.161
24232W        W39079  16.004  16.343   2.707
24233W        W39080  13.684   6.603  12.837
24234W        W39081  19.302   0.745  13.340
24235W        W39082  18.838  14.406  12.844
24236W        W39083  12.718   1.731   9.954
24237W        W39084  18.840  14.417  14.294
24238W        W39085  16.945  13.419   2.196
24239W        W39086  16.477   2.229  11.406
24240W        W39087  12.723  15.388   1.712
24241W        W39088  16.982   6.625   4.598
24242W        W39089  17.916   4.191   3.675
24243W        W39090  18.366  10.003  13.335
24244W        W39091  18.355  10.513   3.154
24245W        W39092  14.162  14.925  10.928
24246W        W39093  12.253  19.299   0.741
24247W        W39094  13.651   9.056  13.839
24248W        W39095  16.963   1.246  10.897
24249W        W39096  14.125   7.565  14.789
24250W        W39097  13.651   8.548  10.920
24251W        W39098  15.542   1.715   1.725
24252W        W39099  18.834  14.437   4.150
24253W        W39100  18.826   3.684   9.933
24254W        W39101  12.744   3.200   2.200
24255W        W39102  17.431   4.187  10.898
24256W        W39103  18.385   0.773  10.422
24257W        W39104  12.740   0.737   5.087
24258W        W39105  19.310  15.406   3.189
24259W        W39106  17.914   8.580  13.322
24260W        W39107  15.535  11.493   2.687
24261W        W39108  15.065  17.846  10.930
24262W        W39109  12.740   5.159   4.620
24263W        W39110  17.427   1.250  14.306
24264W        W39111  12.714   4.189  11.868
24265W        W39112  14.138   8.096  14.770
24266W        W39113  12.237   6.127   0.249
24267W        W39114  18.852   0.779   0.753
24268W        W39115  13.681  11.957  14.321
24269W        W39116  18.837   3.208  13.326
24270W        W39117  19.322   5.636   1.714
24271W        W39118  19.294  15.857  12.842
24272W        W39119  14.589  16.342  10.406
24273W        W39120  18.824   2.719   0.754
24274W        W39121  18.379   3.694  12.847
24275W        W39122  12.749   9.055  13.325
24276W        W39123  12.278   5.168  11.411
24277W        W39124  13.676   4.190   2.698
24278W        W39125  19.329  10.031  12.371
24279W        W39126  12.733   2.697  10.415
24280W        W39127  19.786   4.160   2.673
24281W        W39128  13.686   0.735   2.686
24282W        W39129  17.427  16.387  11.406
24283W        W39130  14.594   4.656  10.444
24284W        W39131  16.976  10.016  14.801
24285W        W39132  16.021   1.236  14.296
24286W        W39133  13.664  14.408  11.400
24287W        W39134  14.162  19.316  13.822
24288W        W39135  12.743   8.576  14.787
24289W        W39136  15.531   1.710   2.688
24290W        W39137  13.675   0.771   1.695
24291W        W39138  14.159  10.011   5.116
24292W        W39139  12.747  10.989   1.739
24293W        W39140  18.866   8.548  11.858
24294W        W39141  17.458   2.698   1.227
24295W        W39142  12.727  15.883   1.730
24296W        W39143  13.653  12.947   3.149
24297W        W39144  16.972   6.614   1.241
24298W        W39145  13.678   4.648   3.670
24299W        W39146  12.728   4.644   0.271
24300W        W39147  19.322  17.356  11.396
24301W        W39148  18.866  19.774   2.705
24302W        W39149  17.926  15.390  11.387
24303W        W39150  13.663  14.879  12.856
24304W        W39151  13.206  14.880  14.315
24305W        W39152  17.913  15.411  14.780
24306W        W39153  18.852  11.968  13.810
24307W        W39154  17.443  12.442  10.933
24308W        W39155  15.073   0.283  13.338
24309W        W39156  15.555  10.021  10.935
24310W        W39157  16.014   6.629   2.218
24311W        W39158  16.009   7.588   2.700
24312W        W39159  18.370   4.655   0.285
24313W        W39160  15.069  14.893  13.316
24314W        W39161  17.898  19.761   5.082
24315W        W39162  17.884   8.554   3.643
24316W        W39163  12.256  15.893  10.441
24317W        W39164  12.240   7.109  11.859
24318W        W39165  19.771   3.213  12.868
24319W        W39166  16.970  12.928   4.146
24320W        W39167  16.494  12.475   1.730
24321W        W39168  13.676   0.269  14.314
24322W        W39169  12.739  17.349  13.813
24323W        W39170  15.547  15.879  10.904
24324W        W39171  15.559  15.414  11.884
24325W        W39172  13.690   5.127  13.312
24326W        W39173  15.567  19.770   1.246
24327W        W39174  18.370  10.979   1.710
24328W        W39175  14.621  13.423   1.247
24329W        W39176  13.197  16.387   1.718
24330W        W39177  15.063   7.610  11.418
24331W        W39178  18.868   2.731   0.254
24332W        W39179  13.673  15.412   3.662
24333W        W39180  14.138   3.667  14.799
24334W        W39181  16.946   6.128  10.899
24335W        W39182  12.711  19.793  12.344
24336W        W39183  17.919  15.377   1.699
24337W        W39184  16.034   0.248  11.415
24338W        W39185  15.565  11.499   0.756
24339W        W39186  16.982  12.959   1.224
24340W        W39187  14.149  12.959  12.369
24341W        W39188  18.355   7.576   4.137
24342W        W39189  12.259   1.741  14.275
24343W        W39190  15.575  12.972   2.192
24344W        W39191  14.610   1.230   0.274
24345W        W39192  14.603  11.966  10.427
24346W        W39193  15.557   9.528   4.136
24347W        W39194  15.082  14.905   3.151
24348W        W39195  13.219   5.159   3.173
24349W        W39196  17.436   1.724   1.253
24350W        W39197  14.147  10.011   2.695
24351W        W39198  16.944  11.010  13.346
24352W        W39199  13.204   0.273   2.664
24353W        W39200  19.304   2.226   3.161
24354W        W39201  12.714   9.530   2.223
24355W        W39202  16.041   6.601  12.866
24356W        W39203  18.380  11.023   2.709
24357W        W39204  16.492  17.359  12.357
24358W        W39205  17.892  12.937   3.674
24359W        W39206  18.398  11.465  14.318
24360W        W39207  16.475  19.275   1.226
24361W        W39208  18.393  11.011  11.384
24362W        W39209  18.387  13.438   2.663
24363W        W39210  17.421  17.838  13.816
24364W        W39211  16.513   6.109  14.299
24365W        W39212  19.328  11.467  14.286
24366W        W39213  13.189   6.588  10.432
24367W        W39214  17.457  17.346  14.779
24368W        W39215  18.848   0.739   3.155
24369W        W39216  18.400  13.438   1.233
24370W        W39217  19.297  15.405  12.841
24371W        W39218  12.254   7.088   3.153
24372W        W39219  15.570  18.324   3.184
24373W        W39220  18.836   9.038  14.286
24374W        W39221  18.367   2.212  11.883
24375W        W39222  16.002   6.113   1.708
24376W        W39223  19.319   6.100   1.231
24377W        W39224  14.614   7.091   0.772
24378W        W39225  18.356  11.980  13.331
24379W        W39226  19.788  16.836   1.255
24380W        W39227  16.484   6.132  12.369
24381W        W39228  13.206   3.679   4.622
24382W        W39229  13.186   7.566   1.727
24383W        W39230  13.191  11.961   2.677
24384W        W39231  18.832   9.059  13.806
24385W        W39232  12.236   9.549   4.147
24386W        W39233  13.213   5.161  10.438
24387W        W39234  19.797  14.408  12.844
24388W        W39235  16.008  12.454   4.149
24389W        W39236  14.609   0.768   9.920
24390W        W39237  18.842  15.869   4.607
24391W        W39238  19.314   7.589  14.275
24392W        W39239  17.430   0.263   5.120
24393W        W39240  14.615   1.712  12.351
24394W        W39241  19.786  18.818   4.611
24395W        W39242  19.774   1.710  12.851
24396W        W39243  16.500   7.586  13.330
24397W        W39244  16.015   4.644  13.804
24398W        W39245  15.087  14.902  10.890
24399W        W39246  16.973  18.337  10.416
24400W        W39247  18.373  17.853  13.793
24401W        W39248  17.420  11.964  11.879
24402W        W39249  14.603  11.498   0.731
24403W        W39250  12.753   5.650  11.903
24404W        W39251  14.635   8.054   3.653
24405W        W39252  16.031   4.194   4.614
24406W        W39253  14.591   3.189  11.397
24407W        W39254  16.969   9.556  13.341
24408W        W39255  14.608   9.558   4.115
24409W        W39256  16.959  14.894   2.210
24410W        W39257  13.214   9.528   2.698
24411W        W39258  16.016  10.523   0.244
24412W        W39259  16.983  17.324  14.295
24413W        W39260  17.929  10.014  12.853
24414W        W39261  17.886  13.450  11.415
24415W        W39262  17.423  18.827  13.805
24416W        W39263  12.724   7.097   1.739
24417W        W39264  18.860  18.301   2.194
24418W        W39265  17.428  11.000  14.317
24419W        W39266  15.061  10.000   9.962
24420W        W39267  17.912   4.674  10.440
24421W        W39268  12.271   3.210   2.184
24422W        W39269  15.563  12.453   4.161
24423W        W39270  16.943  10.524  11.884
24424W        W39271  15.562   5.619  12.826
24425W        W39272  15.567  16.835   4.640
24426W        W39273  12.743   5.162  12.339
24427W        W39274  17.449   8.068  13.832
24428W        W39275  13.183  19.297   3.643
24429W        W39276  16.514  15.877  12.347
24430W        W39277  19.786   2.213   1.706
24431W        W39278  13.192  19.284  14.281
24432W        W39279  19.337  18.331   2.698
24433W        W39280  13.210  15.415  11.877
24434W        W39281  14.150  12.466  14.765
24435W        W39282  13.685  10.001   2.671
24436W        W39283  13.662   6.136  12.377
24437W        W39284  16.485   7.121   0.739
24438W        W39285  19.782  12.934   4.638
24439W        W39286  16.482  17.319  12.840
24440W        W39287  13.179   8.076  10.432
24441W        W39288  12.742  14.907   4.138
24442W        W39289  16.952  12.967  11.889
24443W        W39290  16.965   9.071   4.643
24444W        W39291  15.565  15.860  11.890
24445W        W39292  13.670  11.473  14.791
24446W        W39293  17.915   5.616  11.862
24447W        W39294  15.067   0.252   4.120
24448W        W39295  12.282   3.696   1.222
24449W        W39296  18.830   0.761   0.267
24450W        W39297  14.628  16.359   3.672
24451W        W39298  12.246   2.239  10.437
24452W        W39299  13.183  14.409  11.392
24453W        W39300  16.497  10.511   2.188
24454W        W39301  18.848  13.915   3.167
24455W        W39302  15.538  19.303   3.154
24456W        W39303  15.543  11.468  14.796
24457W        W39304  15.104  10.996   0.770
24458W        W39305  18.364   7.572   3.652
24459W        W39306  13.683  14.405   1.726
24460W        W39307  12.716  11.000   0.276
24461W        W39308  16.483   0.764  11.375
24462W        W39309  15.532  13.941   3.673
24463W        W39310  16.479  14.891   4.150
24464W        W39311  12.749  13.416  13.308
24465W        W39312  13.673  11.986  10.440
24466W        W39313  17.887  10.039  14.764
24467W        W39314  14.162  13.457  11.875
24468W        W39315  12.714   9.519   3.644
24469W        W39316  15.096   2.196   2.703
24470W        W39317  12.724   8.551   2.182
24471W        W39318  16.045  19.774  10.934
24472W        W39319  14.121  13.450   3.670
24473W        W39320  16.966  10.500  10.922
24474W        W39321  15.559  19.271  12.339
24475W        W39322  14.146  17.344   1.699
24476W        W39323  12.740  12.930   2.673
24477W        W39324  16.031   3.704  10.437
24478W        W39325  13.671  19.291  13.354
24479W        W39326  15.541  12.467   2.698
24480W        W39327  15.542  17.808  11.397
24481W        W39328  16.507   7.075  10.425
24482W        W39329  19.799   8.566  14.759
24483W        W39330  19.302   0.263   4.632
24484W        W39331  19.320  13.936   2.212
24485W        W39332  16.960   1.256  10.433
24486W        W39333  15.083  14.432   3.665
24487W        W39334  16.037   0.768   0.734
24488W        W39335  14.151   0.772  12.383
24489W        W39336  18.369   4.636   1.246
24490W        W39337  19.337   7.578  14.780
24491W        W39338  17.418  18.318   4.635
24492W        W39339  16.026  15.893   1.714
24493W        W39340  16.039  18.807   1.234
24494W        W39341  19.788  17.812  14.278
24495W        W39342  18.863   2.700  10.439
24496W        W39343  14.632  16.869  12.861
24497W        W39344  16.966  12.442   4.629
24498W        W39345  16.047  10.012   3.642
24499W        W39346  13.220   7.118   2.688
24500W        W39347  12.265   7.562  12.354
24501W        W39348  15.102  13.918   1.217
24502W        W39349  18.365  16.366  11.869
24503W        W39350  19.785   9.547   1.236
24504W        W39351  14.145  17.842  12.343
24505W        W39352  18.828   4.671   2.705
24506W        W39353  14.159   9.554   5.102
24507W        W39354  19.768   2.236  12.850
24508W        W39355  12.274   6.113   4.617
24509W        W39356  17.903   7.099  13.347
24510W        W39357  18.832   5.614   0.771
24511W        W39358  19.778  13.437  10.900
24512W        W39359  18.850  16.838  10.439
24513W        W39360  14.613   8.050   4.636
24514W        W39361  16.513   1.225   4.633
24515W        W39362  18.830  17.332  11.899
24516W        W39363  13.655  10.501   4.607
24517W        W39364  14.156   3.668  12.863
24518W        W39365  16.022   4.148   5.102
24519W        W39366  15.549   0.761   3.657
24520W        W39367  13.684   1.714   2.184
24521W        W39368  16.018  12.948   2.686
24522W        W39369  18.835  10.500   3.649
24523W        W39370  14.145   3.667  11.414
24524W        W39371  12.247   2.196   2.699
24525W        W39372  16.474   1.719  10.448
24526W        W39373  18.390  13.904  13.343
24527W        W39374  18.373   4.176   0.763
24528W        W39375  19.788   6.602   1.716
24529W        W39376  15.068   7.107   1.739
24530W        W39377  14.128  15.385   3.636
24531W        W39378  14.594  13.948   0.733
24532W        W39379  14.132   0.286  14.785
24533W        W39380  18.827  14.881  10.896
24534W        W39381  18.358   9.044   1.220
24535W        W39382  17.452  16.349  12.353
24536W        W39383  16.968   3.703   0.266
24537W        W39384  17.412  15.875  14.314
24538W        W39385  18.837   9.551  10.900
24539W        W39386  12.241   5.149   0.743
24540W        W39387  14.119   4.679   1.735
24541W        W39388  19.317  15.889   4.122
24542W        W39389  16.494   3.668  12.357
24543W        W39390  14.134  12.486   4.139
24544W        W39391  16.508  16.362   3.148
24545W        W39392  17.415   0.273   3.158
24546W        W39393  12.269   1.746   0.752
24547W        W39394  17.891   9.515  13.808
24548W        W39395  12.709  12.941   5.106
24549W        W39396  18.867  15.861   4.152
24550W        W39397  17.923   8.075   4.628
24551W        W39398  15.076   9.544  13.820
24552W        W39399  17.898   8.097  12.350
24553W        W39400  14.151   1.722   0.248
24554W        W39401  12.747  13.931  12.381
24555W        W39402  19.312  16.876   2.193
24556W        W39403  18.854  18.824   5.091
24557W        W39404  12.716   7.598   3.169
24558W        W39405  18.357   3.196   4.620
24559W        W39406  14.149  16.359  13.820
24560W        W39407  12.716  17.359   0.770
24561W        W39408  13.207   9.524   1.731
24562W        W39409  16.947  16.836   2.690
24563W        W39410  13.663  12.487  13.309
24564W        W39411  17.455  19.278   3.165
24565W        W39412  18.838  10.993  11.389
24566W        W39413  14.600   0.777   1.240
24567W        W39414  16.041   4.639  14.790
24568W        W39415  19.777   4.163   3.668
24569W        W39416  16.482  12.965  14.314
24570W        W39417  19.775  19.791  12.383
24571W        W39418  16.005   5.621   3.161
24572W        W39419  12.277  11.009   3.640
24573W        W39420  17.452  17.329   4.598
24574W        W39421  17.908   8.081   1.226
24575W        W39422  18.858   7.093  13.838
24576W        W39423  17.893   2.244  10.896
24577W        W39424  16.036   2.722   2.181
24578W        W39425  17.450   0.761  12.860
24579W        W39426  15.105  14.879   4.624
24580W        W39427  12.257  11.499   2.208
24581W        W39428  12.277   1.739  10.414
24582W        W39429  19.801  14.431   0.274
24583W        W39430  13.693  18.319  13.792
24584W        W39431  17.886   0.246   1.255
24585W        W39432  14.634   3.666  14.798
24586W        W39433  14.135  15.412   0.752
24587W        W39434  15.545  15.381  13.808
24588W        W39435  19.340  11.016   1.733
24589W        W39436  16.956  12.482   1.721
24590W        W39437  13.666   4.641  14.315
24591W        W39438  14.153  15.879  11.877
24592W        W39439  15.077  12.961  14.279
24593W        W39440  17.418  17.832   1.232
24594W        W39441  18.852   3.176   0.736
24595W        W39442  18.855  12.477  10.425
24596W        W39443  12.737  12.487   0.748
24597W        W39444  12.266  12.452   4.617
24598W        W39445  19.304  18.803  14.314
24599W        W39446  18.356   6.135  13.837
24600W        W39447  13.216   2.687   0.764
24601W        W39448  13.203   1.741   3.193
24602W        W39449  13.665  11.954   4.145
24603W        W39450  17.907  19.800  14.768
24604W        W39451  15.095  10.046   4.604
24605W        W39452  16.972   8.085  13.322
24606W        W39453  17.433  13.933   4.643
24607W        W39454  16.946  12.943   9.961
24608W        W39455  15.068  11.975  11.875
24609W        W39456  19.304   3.688   3.155
24610W        W39457  16.959   8.560   3.673
24611W        W39458  19.777   7.080   1.696
24612W        W39459  18.376  17.355   1.258
24613W        W39460  14.624  16.354   1.222
24614W        W39461  16.488  18.322  12.848
24615W        W39462  15.094  14.411   4.643
24616W        W39463  18.843   4.681  10.432
24617W        W39464  16.988   9.028  11.376
24618W        W39465  15.095  10.494   4.154
24619W        W39466  12.243   6.609  14.796
24620W        W39467  18.379   6.135   2.223
24621W        W39468  15.098   8.084  13.832
24622W        W39469  18.857   5.619  12.835
24623W        W39470  17.422  11.481   1.712
24624W        W39471  18.827  14.402   2.662
24625W        W39472  18.828  16.856   1.733
24626W        W39473  15.570   8.052   4.121
24627W        W39474  17.920   9.521  14.309
24628W        W39475  18.857   4.194   3.159
24629W        W39476  18.373  16.872  11.380
24630W        W39477  17.453  16.861   4.145
24631W        W39478  16.478  19.759   3.653
24632W        W39479  19.341  17.821   1.231
24633W        W39480  16.483  17.852   1.256
24634W        W39481  18.870  19.771   3.150
24635W        W39482  17.434   3.678   0.747
24636W        W39483  16.499  12.943   3.641
24637W        W39484  19.308   8.085   0.768
24638W        W39485  16.517  19.790  11.385
24639W        W39486  13.660  17.832  11.384
24640W        W39487  13.669   0.290   0.737
24641W        W39488  18.379  10.525   1.734
24642W        W39489  16.942   3.182  13.805
24643W        W39490  16.016   3.664   4.630
24644W        W39491  14.133   5.631  12.827
24645W        W39492  19.767   0.246  11.398
24646W        W39493  15.562   4.184   3.643
24647W        W39494  18.834   9.542   4.160
24648W        W39495  17.416  18.829   2.709
24649W        W39496  14.599  11.960  14.772
24650W        W39497  18.373   1.242  13.343
24651W        W39498  19.803  15.883  13.317
24652W        W39499  17.425   2.704  14.301
24653W        W39500  14.625  11.485   2.215
24654W        W39501  16.973   7.076  10.920
24655W        W39502  15.072  15.398  12.858
24656W        W39503  17.921   0.765   3.192
24657W        W39504  16.495  19.782  14.300
24658W        W39505  12.280   6.135   1.250
24659W        W39506  16.010  10.524   4.634
24660W        W39507  18.369   9.046  14.759
24661W        W39508  17.928  13.445  12.376
24662W        W39509  14.159   2.215   1.705
24663W        W39510  15.077  16.870  13.337
24664W        W39511  14.163   2.702   3.190
24665W        W39512  13.212   6.133  12.852
24666W        W39513  18.831  19.769  11.404
24667W        W39514  18.383   3.215   1.222
24668W        W39515  18.842   5.630   4.623
24669W        W39516  16.018   7.574  12.370
24670W        W39517  15.060  11.992  14.804
24671W        W39518  16.040  14.437  13.815
24672W        W39519  14.154   2.683  10.419
24673W        W39520  13.209  12.453   3.663
24674W        W39521  19.783   5.642   0.267
24675W        W39522  16.503   9.061  10.911
24676W        W39523  12.721  17.843  10.404
24677W        W39524  15.574  12.451  12.366
24678W        W39525  14.603  11.965   4.116
24679W        W39526  17.425  16.354   1.246
24680W        W39527  16.010  11.989   4.118
24681W        W39528  19.772  10.041  11.870
24682W        W39529  14.143  12.460   3.630
24683W        W39530  15.102   2.722  12.379
24684W        W39531  13.678  13.461  11.890
24685W        W39532  15.540   1.708  13.808
24686W        W39533  13.177  11.990  12.870
24687W        W39534  17.894  19.767   2.689
24688W        W39535  15.088  17.359  12.836
24689W        W39536  15.096  13.930   4.141
24690W        W39537  16.489  17.350  11.866
24691W        W39538  19.325   4.182   4.606
24692W        W39539  17.458   6.118  13.814
24693W        W39540  13.665  18.334   0.741
24694W        W39541  17.458   3.705  10.894
24695W        W39542  15.092   5.614  11.885
24696W        W39543  15.086   3.686  14.767
24697W        W39544  12.240  10.006  10.408
24698W        W39545  18.376  10.026   3.641
24699W        W39546  17.440  12.447   2.688
24700W        W39547  19.326  12.960  11.378
24701W        W39548  14.135   7.565  13.829
24702W        W39549  13.657  11.956   1.229
24703W        W39550  19.806  11.953  12.375
24704W        W39551  16.494  11.486  13.310
24705W        W39552  14.161   0.284  12.825
24706W        W39553  12.258  14.905   0.753
24707W        W39554  15.567  16.389   1.257
24708W        W39555  16.984  11.985   3.641
24709W        W39556  16.508   0.745  10.409
24710W        W39557  15.533  18.806  12.844
24711W        W39558  16.015  17.350  14.792
24712W        W39559  15.562   8.094   1.712
24713W        W39560  14.124  12.450   4.623
24714W        W39561  17.434  17.323   4.128
24715W        W39562  19.299   8.077  11.398
24716W        W39563  12.246  18.824  14.296
24717W        W39564  15.569   1.241  12.825
24718W        W39565  17.894  18.303   0.284
24719W        W39566  17.918  11.021   1.247
24720W        W39567  15.098  11.494   5.126
24721W        W39568  18.848  11.979   3.664
24722W        W39569  19.775   7.116  14.765
24723W        W39570  14.600   5.166   2.684
24724W        W39571  18.392   7.082  14.759
24725W        W39572  12.709  14.430  10.893
24726W        W39573  12.258   2.686  11.885
24727W        W39574  19.800  13.448  12.851
24728W        W39575  12.278  16.347  14.285
24729W        W39576  14.621  10.495   0.253
24730W        W39577  17.892   3.674  10.445
24731W        W39578  17.927   0.280  11.879
24732W        W39579  13.210  18.304   1.725
24733W        W39580  16.944   8.055  11.408
24734W        W39581  17.459  15.889   4.602
24735W        W39582  16.011   8.064   3.157
24736W        W39583  16.033   6.616   0.247
24737W        W39584  14.138  11.468   4.629
24738W        W39585  12.752   3.688   1.730
24739W        W39586  19.326  11.976   3.158
24740W        W39587  17.895   7.109   0.271
24741W        W39588  15.539  13.941   0.260
24742W        W39589  16.494   5.644   0.288
24743W        W39590  16.489  13.924  12.355
24744W        W39591  18.847   4.661  12.862
24745W        W39592  16.028  15.371   5.100
24746W        W39593  13.691   1.714   2.696
24747W        W39594  15.541   8.543   0.267
24748W        W39595  15.065  15.890   3.665
24749W        W39596  16.015  11.968  11.400
24750W        W39597  13.197   2.225  10.927
24751W        W39598  16.982  12.950   5.128
24752W        W39599  16.488   0.282  11.892
24753W        W39600  17.439   2.231  11.391
24754W        W39601  19.779   9.044  11.893
24755W        W39602  16.006   6.621  13.800
24756W        W39603  19.772   2.214   0.282
24757W        W39604  13.193   2.214   5.081
24758W        W39605  18.843  16.861   4.643
24759W        W39606  18.373  14.418   1.735
24760W        W39607  13.649  16.831   3.669
24761W        W39608  17.439   1.239  13.821
24762W        W39609  16.952   3.175  12.347
24763W        W39610  16.943   4.673   0.735
24764W        W39611  17.434   8.554  11.898
24765W        W39612  19.301   2.231  13.342
24766W        W39613  13.671  19.767  14.775
24767W        W39614  12.748  11.484   0.728
24768W        W39615  14.597   6.123  11.862
24769W        W39616  18.361   0.739  11.378
24770W        W39617  15.076  10.515   2.203
24771W        W39618  18.387   0.284  10.919
24772W        W39619  16.488   5.632   4.635
24773W        W39620  17.424  16.832  10.427
24774W        W39621  16.018  11.511   2.179
24775W        W39622  19.306  14.437  11.899
24776W        W39623  12.256  19.310   2.680
24777W        W39624  15.557   9.051  12.825
24778W        W39625  19.320  10.500  13.329
24779W        W39626  12.248  15.373   0.269
24780W        W39627  13.666   7.088  12.854
24781W        W39628  16.512   5.615  12.372
24782W        W39629  13.650  13.943   1.722
24783W        W39630  19.296  14.421  13.321
24784W        W39631  17.917  16.381  12.350
24785W        W39632  18.867   1.720  10.928
24786W        W39633  12.731   6.100   4.150
24787W        W39634  19.304  14.409   0.250
24788W        W39635  15.573  18.316   1.710
24789W        W39636  14.122   0.280  10.433
24790W        W39637  18.367  18.336  11.895
24791W        W39638  19.317   0.772   0.773
24792W        W39639  19.310  10.508  14.771
24793W        W39640  16.496   4.650  13.797
24794W        W39641  17.887   0.739  12.853
24795W        W39642  14.613  15.382   3.656
24796W        W39643  17.451  12.446  14.758
24797W        W39644  16.987   3.211  14.764
24798W        W39645  14.158   8.542   3.159
24799W        W39646  16.004  17.808  14.305
24800W        W39647  18.364   3.195  10.897
24801W        W39648  18.377  18.790  12.855
24802W        W39649  12.715  15.409  10.890
24803W        W39650  14.124   2.206   4.138
24804W        W39651  15.542   7.117  11.372
24805W        W39652  19.325  19.787   1.716
24806W        W39653  19.332  17.351   0.271
24807W        W39654  17.458  15.413  11.877
24808W        W39655  13.678   8.061  12.383
24809W        W39656  15.089   4.674  10.895
24810W        W39657  17.432  12.440   0.737
24811W        W39658  15.082  10.506  10.433
24812W        W39659  12.237   2.243   2.218
24813W        W39660  15.544  17.820   0.728
24814W        W39661  17.916  15.397  12.352
24815W        W39662  19.807   0.763  12.840
24816W        W39663  19.321   9.029  10.912
24817W        W39664  16.515  14.905   2.689
24818W        W39665  13.665  10.985   4.155
24819W        W39666  18.842  17.366   4.135
24820W        W39667  12.729  17.321   1.726
24821W        W39668  12.253   8.072  11.879
24822W        W39669  14.143   9.557   1.213
24823W        W39670  12.258  17.819  12.852
24824W        W39671  15.538  10.535  14.312
24825W        W39672  13.191  12.975  13.802
24826W        W39673  18.859   3.667   1.240
24827W        W39674  16.949   9.554   2.198
24828W        W39675  18.856   3.190   9.951
24829W        W39676  15.536   0.778   1.719
24830W        W39677  15.069   9.539  11.864
24831W        W39678  14.610   4.172  11.903
24832W        W39679  14.135  10.014   1.696
24833W        W39680  18.360   8.547  14.303
24834W        W39681  15.566  17.842   3.153
24835W        W39682  17.912   4.150  13.330
24836W        W39683  18.358   3.197  12.376
24837W        W39684  19.802   7.092   0.744
24838W        W39685  15.575  14.887  10.435
24839W        W39686  14.131  19.295   1.733
24840W        W39687  17.921  11.999  10.440
24841W        W39688  16.972   7.119   1.243
24842W        W39689  18.860  19.291  10.406
24843W        W39690  17.429  19.286   1.703
24844W        W39691  18.371   7.598  13.334
24845W        W39692  19.328  10.488   3.655
24846W        W39693  17.885  17.826  10.417
24847W        W39694  17.899  14.924   0.748
24848W        W39695  15.085   3.677   3.146
24849W        W39696  13.222  13.431   1.730
24850W        W39697  13.210  18.293   3.665
24851W        W39698  16.945  19.788  13.821
24852W        W39699  12.743   2.202   3.638
24853W        W39700  12.264   1.738  11.395
24854W        W39701  13.209   8.571  13.817
24855W        W39702  14.614  13.435   4.142
24856W        W39703  13.180  18.794  13.327
24857W        W39704  19.781  13.458   0.730
24858W        W39705  12.752  16.861   3.646
24859W        W39706  13.179   2.208   4.157
24860W        W39707  16.008  14.917   1.714
24861W        W39708  19.315  12.967  10.419
24862W        W39709  13.678   2.227   1.695
24863W        W39710  14.635  18.339  12.848
24864W        W39711  15.087  17.330  14.289
24865W        W39712  18.397   9.531  12.368
24866W        W39713  18.854  12.481  14.294
24867W        W39714  15.074   2.195   4.601
24868W        W39715  19.790   0.292  10.907
24869W        W39716  17.422   5.655   1.710
24870W        W39717  17.418   7.099   2.199
24871W        W39718  13.187  18.816  11.387
24872W        W39719  15.100  19.794  12.843
24873W        W39720  13.660   3.668  13.319
24874W        W39721  16.013   5.632   2.196
24875W        W39722  16.041  13.448  12.360
24876W        W39723  12.716  11.466   9.943
24877W        W39724  16.950  18.312  14.791
24878W        W39725  16.483  17.832   4.154
24879W        W39726  17.412   9.054  13.813
24880W        W39727  19.787  12.471   0.258
24881W        W39728  19.808  10.504  13.337
24882W        W39729  16.485  11.480   3.181
24883W        W39730  18.357   4.667   0.761
24884W        W39731  17.906  12.970  11.876
24885W        W39732  14.607   7.113  11.875
24886W        W39733  14.159  10.496  11.894
24887W        W39734  14.149  19.766  10.425
24888W        W39735  18.836   4.161  13.326
24889W        W39736  17.432  18.824   4.601
24890W        W39737  18.382  17.329   1.737
24891W        W39738  13.187   6.630  13.314
24892W        W39739  14.627   6.605  14.799
24893W        W39740  18.385   8.545   3.190
24894W        W39741  14.623  12.469  14.800
24895W        W39742  13.223  18.812   3.181
24896W        W39743  19.334  11.961  11.865
24897W        W39744  13.197   3.209  12.846
24898W        W39745  16.484  13.935   4.620
24899W        W39746  12.238   6.608  10.434
24900W        W39747  12.724   8.052   3.659
24901W        W39748  17.912   6.614   0.268
24902W        W39749  15.561   3.689  10.431
24903W        W39750  18.829   6.608  13.797
24904W        W39751  12.263   0.737   3.630
24905W        W39752  16.954  17.805  12.853
24906W        W39753  12.712   3.192   0.260
24907W        W39754  19.317   1.711   2.675
24908W        W39755  16.038   1.247   1.214
24909W        W39756  15.062  17.842  13.817
24910W        W39757  14.135  13.921  13.327
24911W        W39758  13.220  15.896   0.737
24912W        W39759  17.914   5.169  12.349
24913W        W39760  14.119  16.869   1.243
24914W        W39761  13.195   9.027  14.304
24915W        W39762  15.062   2.728   1.718
24916W        W39763  19.299  11.464   3.630
24917W        W39764  18.831  10.506   2.216
24918W        W39765  18.366   5.633   4.617
24919W        W39766  14.138  15.379  14.759
24920W        W39767  12.719   1.249   4.158
24921W        W39768  14.153  19.285   4.623
24922W        W39769  14.149   0.775   1.731
24923W        W39770  16.041   6.125   1.241
24924W        W39771  16.010  12.486   4.603
24925W        W39772  15.531   6.105  13.804
24926W        W39773  15.091   1.245   1.218
24927W        W39774  18.371   6.601   5.109
24928W        W39775  14.604   3.659  11.879
24929W        W39776  16.510   9.040   3.159
24930W        W39777  16.986  14.893   1.241
24931W        W39778  14.610   1.749   3.675
24932W        W39779  13.208   8.087  12.365
24933W        W39780  17.431   2.238  11.867
24934W        W39781  19.307  11.951   2.206
24935W        W39782  17.416   5.168   3.157
24936W        W39783  14.632  19.773   1.714
24937W        W39784  19.298  18.309  13.791
24938W        W39785  14.619  11.481  13.837
24939W        W39786  18.398   9.052   4.132
24940W        W39787  14.163  18.320   3.188
24941W        W39788  17.927   4.643  12.384
24942W        W39789  16.494   1.752   0.283
24943W        W39790  13.183  16.853  14.800
24944W        W39791  15.555   5.159  10.415
24945W        W39792  13.667  16.852  11.411
24946W        W39793  17.885  16.860  11.417
24947W        W39794  12.708   6.598   2.187
24948W        W39795  17.457  11.012  11.897
24949W        W39796  15.099   4.638   0.742
24950W        W39797  13.649   4.191   2.225
24951W        W39798  12.743   1.747  13.316
24952W        W39799  16.484   5.627  10.421
24953W        W39800  15.075  19.282   3.650
24954W        W39801  16.009  15.867  10.421
24955W        W39802  15.554  16.859  13.808
24956W        W39803  14.590  16.853  10.895
24957W        W39804  19.786  18.801   2.222
24958W        W39805  13.210   4.644  14.766
24959W        W39806  15.064  16.367  10.409
24960W        W39807  16.967   6.615   3.672
24961W        W39808  17.907  13.443  13.800
24962W        W39809  16.499   5.137  13.792
24963W        W39810  12.236  17.810   4.126
24964W        W39811  15.554  18.316   0.257
24965W        W39812  14.135   0.276   4.123
24966W        W39813  16.035  18.829  10.407
24967W        W39814  12.268   2.210   3.635
24968W        W39815  18.363   0.255   0.731
24969W        W39816  18.363  19.284  12.862
24970W        W39817  19.314  15.868  10.932
24971W        W39818  13.676   0.269   4.137
24972W        W39819  19.320   7.096  14.311
24973W        W39820  13.209   1.267  14.803
24974W        W39821  15.072  16.344   3.157
24975W        W39822  17.896  17.824  13.800
24976W        W39823  17.916  17.847   4.617
24977W        W39824  14.608  17.820  13.319
24978W        W39825  14.610   0.263   0.267
24979W        W39826  19.796  14.434   1.242
24980W        W39827  17.912   8.547  10.408
24981W        W39828  19.773  10.038   4.597
24982W        W39829  18.865   4.664   1.722
24983W        W39830  18.362  18.796   1.725
24984W        W39831  14.612   9.039  14.793
24985W        W39832  17.421   7.609   4.621
24986W        W39833  15.541  11.479   1.247
24987W        W39834  15.077   0.253  10.425
24988W        W39835  17.925   5.618   2.685
24989W        W39836  14.630  14.915  12.378
24990W        W39837  18.868   9.064   1.215
24991W        W39838  16.978   5.614  10.447
24992W        W39839  16.492  13.908   2.185
24993W        W39840  14.590  18.802  12.853
24994W        W39841  13.218  11.970   1.705
24995W        W39842  13.678  11.002  10.921
24996W        W39843  17.895  16.867   4.632
24997W        W39844  14.133   6.144   3.657
24998W        W39845  19.803  16.867  13.344
24999W        W39846  19.773  19.297   3.659
25000W        W39847  13.670   1.250  14.305
25001W        W39848  17.902   0.284   4.645
25002W        W39849  16.500  16.358   4.643
25003W        W39850  19.802  11.466   1.726
25004W        W39851  16.473  15.402  10.911
25005W        W39852  15.534   5.143  12.841
25006W        W39853  13.660  13.932   3.655
25007W        W39854  16.009   4.657   1.245
25008W        W39855  15.068   3.209   0.272
25009W        W39856  14.142   0.270  11.373
25010W        W39857  12.270  16.873   4.132
25011W        W39858  19.306  14.403  12.833
25012W        W39859  17.887  18.786   4.113
25013W        W39860  12.741  16.837  11.884
25014W        W39861  17.928   7.582  12.371
25015W        W39862  17.910  13.453  13.337
25016W        W39863  19.795   2.712  14.312
25017W        W39864  13.215   0.270  10.916
25018W        W39865  18.372  19.796  13.322
25019W        W39866  14.126  19.760   1.723
25020W        W39867  18.870   8.083  13.791
25021W        W39868  13.649  15.875   4.612
25022W        W39869  18.387  12.478   2.662
25023W        W39870  19.302  10.504  11.377
25024W        W39871  14.158   9.062  14.292
25025W        W39872  16.504  17.813  12.828
25026W        W39873  12.249  13.428   1.730
25027W        W39874  16.507   9.560  10.411
25028W        W39875  12.747  14.419  13.800
25029W        W39876  17.925  11.980   1.727
25030W        W39877  14.624   2.234  12.862
25031W        W39878  13.686   4.664   4.627
25032W        W39879  17.893  12.448   1.708
25033W        W39880  17.910  13.448   0.742
25034W        W39881  17.454   3.700   4.137
25035W        W39882  13.678   1.251   0.763
25036W        W39883  14.617   1.755   2.669
25037W        W39884  15.101   4.193   2.190
25038W        W39885  13.677  17.339  12.854
25039W        W39886  12.731  10.494   5.084
25040W        W39887  16.025  10.030   4.622
25041W        W39888  19.316   0.773   1.254
25042W        W39889  18.837  16.347   5.111
25043W        W39890  14.604  14.398   1.730
25044W        W39891  15.064  17.847  10.449
25045W        W39892  16.952  19.314   2.215
25046W        W39893  19.812  16.377  11.862
25047W        W39894  16.030  11.504  11.897
25048W        W39895  14.619   8.572  11.410
25049W        W39896  13.648   9.058  14.765
25050W        W39897  18.837   4.679   9.949
25051W        W39898  14.137   3.700   0.244
25052W        W39899  18.856  19.795   3.637
25053W        W39900  18.861   1.740   3.180
25054W        W39901  13.199   4.192  13.821
25055W        W39902  19.335   2.234   2.708
25056W        W39903  15.078   0.271  11.404
25057W        W39904  18.869  14.904  14.295
25058W        W39905  16.022  10.037  14.295
25059W        W39906  17.419   2.712  11.386
25060W        W39907  14.635  12.465  11.862
25061W        W39908  19.784   2.723   3.175
25062W        W39909  16.042  10.033   2.680
25063W        W39910  16.977   1.751  10.440
25064W        W39911  17.436   6.144  11.410
25065W        W39912  15.533   0.752  10.914
25066W        W39913  16.016   4.190   0.257
25067W        W39914  13.655   6.597  14.788
25068W        W39915  15.542  14.892   0.746
25069W        W39916  12.708   8.059   4.625
25070W        W39917  13.656  17.335   2.209
25071W        W39918  18.835   9.046  11.384
25072W        W39919  19.769   0.736  11.889
25073W        W39920  12.239   2.710  14.780
25074W        W39921  19.811   6.590  12.371
25075W        W39922  15.059   7.602   2.664
25076W        W39923  16.513   9.540   3.182
25077W        W39924  15.059   6.588   1.231
25078W        W39925  19.777  19.293   0.290
25079W        W39926  16.508  13.433  14.313
25080W        W39927  18.359   6.610   2.678
25081W        W39928  16.953  19.301   0.759
25082W        W39929  18.365  13.907   5.096
25083W        W39930  15.564  18.806   0.278
25084W        W39931  13.657   2.222   0.260
25085W        W39932  12.740  12.933   2.182
25086W        W39933  12.268  14.901   4.142
25087W        W39934  18.389  17.846   2.670
25088W        W39935  18.376  14.407  13.325
25089W        W39936  19.323   5.653   2.699
25090W        W39937  16.957   5.656   3.650
25091W        W39938  18.360  17.818   4.118
25092W        W39939  13.671  18.790   1.728
25093W        W39940  18.388  15.894   3.161
25094W        W39941  12.262   8.567   2.674
25095W        W39942  17.425  19.791   1.244
25096W        W39943  16.019  18.823   2.199
25097W        W39944  13.214  18.817  12.825
25098W        W39945  12.717  10.029   0.245
25099W        W39946  14.164   7.569   0.261
25100W        W39947  13.666   2.702  10.911
25101W        W39948  17.919  13.424   1.709
25102W        W39949  16.043   3.690  12.870
25103W        W39950  15.068  16.353  12.343
25104W        W39951  18.825   9.543   1.239
25105W        W39952  14.601  18.301  13.343
25106W        W39953  18.846   1.251  14.308
25107W        W39954  16.987   9.530  12.350
25108W        W39955  12.750   0.747   4.628
25109W        W39956  13.659   4.179   3.193
25110W        W39957  18.864   6.124   0.273
25111W        W39958  13.680   2.218  13.337
25112W        W39959  19.311   8.073  12.347
25113W        W39960  12.732  17.364  11.897
25114W        W39961  14.144   5.143  13.793
25115W        W39962  19.795  10.488  12.352
25116W        W39963  12.738  10.028  13.800
25117W        W39964  14.623  12.971   2.680
25118W        W39965  12.271  10.988   0.287
25119W        W39966  13.671   9.531  13.802
25120W        W39967  16.959  19.298   1.243
25121W        W39968  14.130  10.504   0.772
25122W        W39969  15.102  17.364  11.902
25123W        W39970  12.242   8.065   0.247
25124W        W39971  16.957   4.185  12.828
25125W        W39972  16.035  14.404   4.605
25126W        W39973  19.324   9.044   2.667
25127W        W39974  17.911  14.401   2.662
25128W        W39975  16.975   8.075  13.812
25129W        W39976  12.710   4.153  14.319
25130W        W39977  14.608   5.153   4.123
25131W        W39978  15.572   7.114  10.440
25132W        W39979  19.328   6.134  12.368
25133W        W39980  16.954  10.988   5.125
25134W        W39981  19.778  15.398  13.347
25135W        W39982  12.736   2.210   4.132
25136W        W39983  17.458   8.084  12.364
25137W        W39984  18.849  15.893   0.287
25138W        W39985  16.978  15.385   4.150
25139W        W39986  19.334   4.658   3.635
25140W        W39987  16.478   2.723  13.831
25141W        W39988  16.489  12.964  12.350
25142W        W39989  18.383  14.413   1.258
25143W        W39990  15.549   9.557  13.802
25144W        W39991  19.775   7.087   2.206
25145W        W39992  19.773  15.894  11.379
25146W        W39993  12.716  11.499  10.914
25147W        W39994  14.159   1.752   2.190
25148W        W39995  12.720  19.307  13.814
25149W        W39996  15.530  19.279   4.609
25150W        W39997  17.889  13.935   3.669
25151W        W39998  18.367   1.744   1.221
25152W        W39999  15.082  11.501  14.788
25153W        W40000  15.566   4.150  11.407
25154W        W40001  15.063  14.926   1.241
25155W        W40002  15.532  16.357  14.275
25156W        W40003  17.884  10.534   2.218
25157W        W40004  16.013  14.417   2.187
25158W        W40005  19.319   9.521   3.177
25159W        W40006  18.828  14.897   2.683
25160W        W40007  18.840  12.963   0.250
25161W        W40008  13.206   8.074  14.301
25162W        W40009  18.847   5.154  10.429
25163W        W40010  18.846   4.146   2.181
25164W        W40011  14.601   3.674   0.252
25165W        W40012  16.004   0.288   1.701
25166W        W40013  15.086  15.872   1.240
25167W        W40014  14.120  10.980   4.604
25168W        W40015  12.707  12.964  10.407
25169W        W40016  16.511  12.455   3.633
25170W        W40017  18.866   7.599   1.225
25171W        W40018  14.119   9.544  11.395
25172W        W40019  17.441   7.569  14.290
25173W        W40020  17.446  10.488  10.414
25174W        W40021  16.500  14.418  14.282
25175W        W40022  14.591  19.287  11.887
25176W        W40023  17.427   6.614   1.697
25177W        W40024  15.070   7.610  10.925
25178W        W40025  19.790  16.862  13.823
25179W        W40026  17.437  13.929  11.382
25180W        W40027  12.241  17.352  10.896
25181W        W40028  13.197   5.647   0.747
25182W        W40029  13.651   1.740  10.915
25183W        W40030  14.161   1.709  10.450
25184W        W40031  14.146  11.986   4.121
25185W        W40032  15.576  16.845  14.300
25186W        W40033  18.359  16.851   3.669
25187W        W40034  12.723   9.072   4.133
25188W        W40035  15.531  16.345  10.413
25189W        W40036  12.268  14.432   3.188
25190W        W40037  15.060  17.332   4.156
25191W        W40038  13.649  16.362  13.317
25192W        W40039  15.549   7.085   2.207
25193W        W40040  19.307  12.950  13.804
25194W        W40041  12.720  17.848   2.697
25195W        W40042  16.471  13.454   4.132
25196W        W40043  18.833  19.782  14.315
25197W        W40044  17.444   1.726   1.704
25198W        W40045  12.710   1.227   3.632
25199W        W40046  19.320  16.834   0.262
25200W        W40047  16.982   1.739   0.744
25201W        W40048  17.929  18.322  10.406
25202W        W40049  15.063  18.314   1.733
25203W        W40050  15.544  13.420  13.342
25204W        W40051  17.441  10.040   4.631
25205W        W40052  13.663  18.791  13.801
25206W        W40053  13.215  15.404  11.379
25207W        W40054  17.431   9.551   3.169
25208W        W40055  14.600   7.582  13.800
25209W        W40056  18.376   2.700  11.408
25210W        W40057  16.480   9.529   0.727
25211W        W40058  16.504   6.108   3.633
25212W        W40059  19.805   6.592  11.377
25213W        W40060  19.785  17.346  10.443
25214W        W40061  17.915   7.085   2.179
25215W        W40062  15.083   2.219   0.756
25216W        W40063  15.074   7.569   2.208
25217W        W40064  12.747  12.938   1.233
25218W        W40065  17.424  16.853  14.322
25219W        W40066  13.207   2.718   0.243
25220W        W40067  14.594   8.570  14.791
25221W        W40068  17.412  17.818   4.639
25222W        W40069  14.616  14.885   2.205
25223W        W40070  13.206  10.998  13.814
25224W        W40071  16.492   6.609   2.180
25225W        W40072  17.457   7.601   4.153
25226W        W40073  16.515  18.340   3.164
25227W        W40074  16.029   1.266  11.397
25228W        W40075  18.851   5.622   0.266
25229W        W40076  17.427   4.662  14.314
25230W        W40077  13.218   7.078   1.251
25231W        W40078  15.536  11.977   2.202
25232W        W40079  17.453  11.479  13.820
25233W        W40080  13.649  13.442   2.663
25234W        W40081  13.649   2.214  14.322
25235W        W40082  12.731   4.186   2.224
25236W        W40083  16.978   7.075   4.598
25237W        W40084  13.220  15.894   2.698
25238W        W40085  12.282   2.730  12.846
25239W        W40086  14.601   5.139   0.284
25240W        W40087  12.274  16.383  11.419
25241W        W40088  17.928  16.874   3.632
25242W        W40089  13.223  19.297   1.718
25243W        W40090  16.509  12.459  10.912
25244W        W40091  13.199  16.365   4.612
25245W        W40092  15.555  14.922   2.197
25246W        W40093  18.852   9.517   4.626
25247W        W40094  16.039  12.972  13.340
25248W        W40095  14.616   3.206   2.195
25249W        W40096  14.141   1.709  11.856
25250W        W40097  15.094  19.759   2.224
25251W        W40098  17.412  13.442  14.777
25252W        W40099  12.707   4.642   4.628
25253W        W40100  13.689  17.352   0.280
25254W        W40101  12.741   0.291  12.845
25255W        W40102  19.300  10.522  10.429
25256W        W40103  17.894   5.162  12.869
25257W        W40104  16.026  14.927   3.176
25258W        W40105  13.693  11.480  10.900
25259W        W40106  14.589   8.072  12.377
25260W        W40107  12.268   0.744  11.400
25261W        W40108  15.065   9.528   3.150
25262W        W40109  16.477  15.888  10.898
25263W        W40110  18.380   4.161  11.374
25264W        W40111  15.557  18.784  13.799
25265W        W40112  19.334  13.910   4.138
25266W        W40113  19.766   7.603   0.247
25267W        W40114  14.139  17.834   1.707
25268W        W40115  16.947  15.372   2.201
25269W        W40116  12.720  12.463  10.405
25270W        W40117  19.782   1.251   4.154
25271W        W40118  13.665   0.779   4.622
25272W        W40119  12.274  12.942  13.310
25273W        W40120  12.752   7.117   3.173
25274W        W40121  13.661  12.466   2.217
25275W        W40122  17.431  15.860  10.914
25276W        W40123  13.186  10.007   0.268
25277W        W40124  15.534  14.436   3.147
25278W        W40125  12.751   3.188   1.224
25279W        W40126  14.120   9.071   5.122
25280W        W40127  12.251  16.856   1.237
25281W        W40128  19.780   6.123  12.379
25282W        W40129  14.136  13.909   0.271
25283W        W40130  13.182   0.749   3.667
25284W        W40131  16.031  19.271  14.780
25285W        W40132  16.942   3.666  11.861
25286W        W40133  16.987   1.737   3.640
25287W        W40134  15.067   7.565  12.828
25288W        W40135  17.901   2.240   0.746
25289W        W40136  13.664   2.212   4.157
25290W        W40137  17.917   8.080  14.792
25291W        W40138  17.891   8.050   3.631
25292W        W40139  19.298   5.639  14.802
25293W        W40140  13.692   0.283   3.664
25294W        W40141  16.515  12.442  12.856
25295W        W40142  16.987  11.468  14.295
25296W        W40143  17.903   7.080   3.643
25297W        W40144  17.924  12.469  10.435
25298W        W40145  15.555   3.203   0.741
25299W        W40146  17.913   3.175  10.927
25300W        W40147  17.415   9.543  12.835
25301W        W40148  17.885  13.463   1.219
25302W        W40149  12.716   4.185  10.408
25303W        W40150  16.040  11.473  10.902
25304W        W40151  13.673  14.891  11.376
25305W        W40152  12.249  14.891   3.675
25306W        W40153  17.912   2.219  14.791
25307W        W40154  16.507  13.453  14.764
25308W        W40155  14.621  11.988  11.399
25309W        W40156  12.715   5.124  11.878
25310W        W40157  16.962  11.966  11.857
25311W        W40158  18.863   8.555   3.676
25312W        W40159  15.560   5.650   3.673
25313W        W40160  18.374   2.701  13.323
25314W        W40161  15.065   8.086   4.114
25315W        W40162  12.716  12.458   5.111
25316W        W40163  14.602  14.923  12.840
25317W        W40164  13.220  14.426  10.892
25318W        W40165  12.725  11.997   0.732
25319W        W40166  17.922  16.875  12.354
25320W        W40167  13.654   3.677   3.631
25321W        W40168  12.244  18.327  10.895
25322W        W40169  18.856   3.663  14.305
25323W        W40170  16.971   8.095  11.871
25324W        W40171  17.419  16.854  11.889
25325W        W40172  13.194  17.832  14.275
25326W        W40173  19.314   0.262   4.130
25327W        W40174  15.554   3.702   3.148
25328W        W40175  16.960   5.618   4.128
25329W        W40176  18.398   3.175  13.325
25330W        W40177  18.353  19.275  13.814
25331W        W40178  13.222   9.516  12.854
25332W        W40179  18.353   8.087   1.233
25333W        W40180  17.446  18.794  14.780
25334W        W40181  17.889  17.818   2.692
25335W        W40182  16.509   0.272   2.190
25336W        W40183  19.299  19.804  12.346
25337W        W40184  14.635   2.237   3.647
25338W        W40185  16.987  14.920  13.791
25339W        W40186  16.975  17.340  13.330
25340W        W40187  14.156   2.688  14.790
25341W        W40188  16.953   1.749   2.703
25342W        W40189  19.790   0.270  14.317
25343W        W40190  16.511   6.623   1.238
25344W        W40191  17.906  15.382  13.346
25345W        W40192  15.542   3.183  13.350
25346W        W40193  12.266   2.688   2.210
25347W        W40194  15.082   6.625   2.203
25348W        W40195  13.207  14.893   0.271
25349W        W40196  13.180  10.001   1.233
25350W        W40197  15.092   4.172   4.129
25351W        W40198  12.734  14.417  10.423
25352W        W40199  17.446   7.086  12.375
25353W        W40200  17.457   3.210   3.662
25354W        W40201  12.238  15.859  12.861
25355W        W40202  12.254  17.808  14.792
25356W        W40203  13.219  15.897   4.620
25357W        W40204  19.308  10.506  10.895
25358W        W40205  12.266   0.289  13.319
25359W        W40206  14.127  18.301  13.815
25360W        W40207  17.446  18.784  10.410
25361W        W40208  14.141  14.897  11.380
25362W        W40209  18.358   1.236   4.631
25363W        W40210  16.480   8.069   9.923
25364W        W40211  17.436  12.949  10.421
25365W        W40212  19.302  13.425   2.663
25366W        W40213  15.550  10.005   4.143
25367W        W40214  12.718  14.403  12.826
25368W        W40215  16.045  12.463  10.410
25369W        W40216  18.824   3.212  11.857
25370W        W40217  16.006  10.518   3.168
25371W        W40218  18.844   7.119  14.783
25372W        W40219  15.081  11.970   4.161
25373W        W40220  17.415  13.924   3.664
25374W        W40221  15.571   0.279   5.089
25375W        W40222  19.298  13.422  13.833
25376W        W40223  16.039  19.804  14.312
25377W        W40224  17.413   0.751  13.829
25378W        W40225  15.097  16.374  13.346
25379W        W40226  13.193  13.951  14.786
25380W        W40227  15.561   7.572  11.858
25381W        W40228  12.264  16.863   4.627
25382W        W40229  16.942   7.102   2.202
25383W        W40230  13.681   5.613  12.342
25384W        W40231  19.789  10.993   0.286
25385W        W40232  12.743  15.855  11.888
25386W        W40233  16.969   6.111   0.770
25387W        W40234  16.026  18.321  11.415
25388W        W40235  17.434   0.735  14.806
25389W        W40236  19.772   4.163   4.644
25390W        W40237  19.333  11.498  12.370
25391W        W40238  16.975  19.285  13.314
25392W        W40239  16.987   9.027   1.212
25393W        W40240  18.358  11.487  11.884
25394W        W40241  12.720  10.504  13.313
25395W        W40242  17.914   1.746  14.796
25396W        W40243  19.794   8.058   1.742
25397W        W40244  16.485   1.266   0.731
25398W        W40245  16.979   3.688  13.801
25399W        W40246  12.731   4.644   1.229
25400W        W40247  17.419  14.400  11.896
25401W        W40248  12.723  10.015   3.633
25402W        W40249  16.032  16.389   3.177
25403W        W40250  19.298  11.987   4.149
25404W        W40251  19.327  14.886   1.236
25405W        W40252  14.595  14.434   4.152
25406W        W40253  15.103   4.668   2.216
25407W        W40254  18.368   4.653  13.812
25408W        W40255  18.382  12.962  13.324
25409W        W40256  16.487  11.504   4.633
25410W        W40257  13.688  14.409  13.316
25411W        W40258  19.328   1.261  11.400
25412W        W40259  18.397  13.437  14.770
25413W        W40260  19.771  12.948  14.318
25414W        W40261  17.926   7.103  12.855
25415W        W40262  14.600   8.549  13.339
25416W        W40263  13.210  10.022  13.333
25417W        W40264  14.589   2.688  11.407
25418W        W40265  16.025  13.905  13.340
25419W        W40266  12.718   8.089   2.207
25420W        W40267  19.311  18.808   1.716
25421W        W40268  16.951   9.030  13.823
25422W        W40269  18.398  16.833   3.188
25423W        W40270  13.663  11.981   2.669
25424W        W40271  15.074   2.695   4.615
25425W        W40272  12.251  14.438   2.702
25426W        W40273  13.655   3.662   4.604
25427W        W40274  18.382  10.029   1.257
25428W        W40275  13.681  11.468   2.212
25429W        W40276  18.390   5.129  10.449
25430W        W40277  18.861  14.883   0.731
25431W        W40278  17.919   5.622   1.727
25432W        W40279  14.624  17.333   0.742
25433W        W40280  13.204  13.927   4.616
25434W        W40281  13.658   5.162  11.878
25435W        W40282  14.597  10.502   2.682
25436W        W40283  13.677  16.831   0.773
25437W        W40284  18.384  16.380  10.441
25438W        W40285  17.424  13.420  13.307
25439W        W40286  18.360  15.881   2.202
25440W        W40287  19.772  15.885  10.935
25441W        W40288  16.947  14.913   4.146
25442W        W40289  14.609   5.137   3.632
25443W        W40290  17.415   7.112   2.697
25444W        W40291  19.341  19.287   4.119
25445W        W40292  13.681  14.432  10.446
25446W        W40293  19.326   3.681   1.235
25447W        W40294  17.904  14.417  14.779
25448W        W40295  15.537  18.329   2.698
25449W        W40296  17.450   1.241  12.346
25450W        W40297  14.613   1.238  13.349
25451W        W40298  13.684   3.663   4.140
25452W        W40299  12.743  13.906  10.919
25453W        W40300  13.212  17.811  11.407
25454W        W40301  13.178  12.467   2.196
25455W        W40302  16.477   8.097   1.213
25456W        W40303  19.782  19.771   3.189
25457W        W40304  16.511   3.686   1.707
25458W        W40305  16.497  17.333   3.153
25459W        W40306  15.553   7.088   2.686
25460W        W40307  13.221   6.140   0.758
25461W        W40308  17.452  12.951  14.287
25462W        W40309  15.102   0.265  14.276
25463W        W40310  12.737  11.012  11.405
25464W        W40311  16.025  15.876  13.308
25465W        W40312  15.531   7.084   5.119
25466W        W40313  16.969  10.039  12.368
25467W        W40314  13.658  15.871  13.817
25468W        W40315  18.355  14.885   1.223
25469W        W40316  19.788  12.460   4.146
25470W        W40317  16.968   1.244   3.189
25471W        W40318  19.783   1.223   0.286
25472W        W40319  15.537   3.681   9.949
25473W        W40320  17.891  11.472   4.160
25474W        W40321  18.370  17.358   4.138
25475W        W40322  16.970   4.160   5.125
25476W        W40323  14.635  15.409  14.279
25477W        W40324  12.746  11.994   2.700
25478W        W40325  15.567   7.572  10.414
25479W        W40326  12.273   9.534  10.426
25480W        W40327  16.974   6.130  10.441
25481W        W40328  14.621  19.773  13.351
25482W        W40329  19.770   2.231  13.834
25483W        W40330  19.314   8.086  13.807
25484W        W40331  15.553  18.318  14.314
25485W        W40332  13.179   4.677  13.318
25486W        W40333  15.543  11.022   2.219
25487W        W40334  18.380   5.129   1.217
25488W        W40335  16.019   4.662  11.863
25489W        W40336  15.542  15.371   1.232
25490W        W40337  18.395   7.600   2.690
25491W        W40338  17.893  11.981  14.319
25492W        W40339  16.475  15.389  11.862
25493W        W40340  18.839  19.289   4.128
25494W        W40341  19.329   3.201   2.206
25495W        W40342  13.202  11.969  11.393
25496W        W40343  16.501  13.462  11.375
25497W        W40344  13.659  11.964  12.376
25498W        W40345  17.922  11.016   2.698
25499W        W40346  17.414   1.257  10.913
25500W        W40347  15.561   0.284   1.723
25501W        W40348  17.453   1.223   5.095
25502W        W40349  19.337   3.203  10.410
25503W        W40350  14.622  11.491  14.293
25504W        W40351  18.832  12.967   4.612
25505W        W40352  17.416   8.570   0.272
25506W        W40353  14.590  18.804   2.185
25507W        W40354  14.612  19.803  11.899
25508W        W40355  15.090  16.832   0.762
25509W        W40356  18.363   0.291   3.173
25510W        W40357  16.478   7.603  10.410
25511W        W40358  17.438   9.552  10.922
25512W        W40359  13.215   3.694  14.289
25513W        W40360  16.001   4.178   4.145
25514W        W40361  15.565   8.082   3.662
25515W        W40362  13.648  15.401  10.890
25516W        W40363  17.458  13.930  11.891
25517W        W40364  15.069  10.514  11.419
25518W        W40365  15.570  13.910   4.121
25519W        W40366  14.151  18.789  14.786
25520W        W40367  19.766   6.607   2.664
25521W        W40368  18.825   0.272   2.224
25522W        W40369  16.018  13.428   1.708
25523W        W40370  12.271  14.427  10.425
25524W        W40371  13.203  15.897  10.919
25525W        W40372  13.670  11.962  12.867
25526W        W40373  18.392  15.367   1.732
25527W        W40374  18.354  19.792   3.637
25528W        W40375  13.204  17.346  10.890
25529W        W40376  19.766   2.696  11.872
25530W        W40377  19.797   8.095   4.146
25531W        W40378  17.919  16.364  14.782
25532W        W40379  14.619   0.743   0.748
25533W        W40380  16.981   3.209   1.696
25534W        W40381  17.447  16.840  13.802
25535W        W40382  19.779   5.126   4.620
25536W        W40383  18.870  13.461  10.417
25537W        W40384  16.961  16.384  14.276
25538W        W40385  15.534   2.216   0.733
25539W        W40386  17.443   4.642  12.864
25540W        W40387  12.714   6.592  11.869
25541W        W40388  19.335   5.620   2.207
25542W        W40389  18.846   3.187   3.153
25543W        W40390  14.123  15.866  10.899
25544W        W40391  16.979   9.513  12.865
25545W        W40392  14.128  16.846   2.664
25546W        W40393  14.136  16.853   3.649
25547W        W40394  13.669  17.807  14.305
25548W        W40395  15.554  10.508   1.233
25549W        W40396  18.393   0.762   2.216
25550W        W40397  16.491   1.722   2.179
25551W        W40398  14.151  12.944   4.618
25552W        W40399  12.275  17.806   3.632
25553W        W40400  15.572   7.108   9.929
25554W        W40401  12.745  18.810  11.855
25555W        W40402  15.553   3.676  13.806
25556W        W40403  19.340  13.909  13.802
25557W        W40404  19.305  14.889   2.202
25558W        W40405  17.918   9.038   2.693
25559W        W40406  12.260   5.646  12.339
25560W        W40407  17.919   7.590   0.274
25561W        W40408  17.421  15.884  13.823
25562W        W40409  19.789   0.248  12.358
25563W        W40410  13.198   5.629  10.895
25564W        W40411  18.826   4.168   1.225
25565W        W40412  15.072   2.718   0.766
25566W        W40413  17.908  19.758   4.599
25567W        W40414  17.898  17.813  14.776
25568W        W40415  13.182  12.487   1.731
25569W        W40416  12.748   8.071   3.182
25570W        W40417  14.626  17.352   9.958
25571W        W40418  14.146  17.361   2.219
25572W        W40419  15.076  15.372   1.240
25573W        W40420  17.418  16.855  12.853
25574W        W40421  16.017   7.598  13.799
25575W        W40422  19.300   0.770  14.762
25576W        W40423  15.573   4.677  14.314
25577W        W40424  18.870  16.346  10.932
25578W        W40425  19.792  11.004   2.694
25579W        W40426  13.655   7.600  11.407
25580W        W40427  14.138   3.691  13.803
25581W        W40428  16.008   5.131  13.806
25582W        W40429  15.553  17.361  14.276
25583W        W40430  16.494  11.494  11.862
25584W        W40431  17.905  17.329  12.361
25585W        W40432  19.809  17.815  11.862
25586W        W40433  15.081  13.433  10.901
25587W        W40434  17.923   3.188   0.731
25588W        W40435  14.131  16.860  12.847
25589W        W40436  15.567   7.074  12.831
25590W        W40437  16.500  17.359   0.744
25591W        W40438  15.573   2.715   4.614
25592W        W40439  19.337  15.375   2.662
25593W        W40440  15.103   6.115  12.358
25594W        W40441  15.553  19.307  12.839
25595W        W40442  13.180  12.959   3.161
25596W        W40443  16.015   2.237   2.217
25597W        W40444  17.920  17.808  12.358
25598W        W40445  17.907  19.303  14.797
25599W        W40446  19.767  19.315   2.687
25600W        W40447  17.902   6.109  13.326
25601W        W40448  18.841  19.779  10.912
25602W        W40449  15.059  17.849   3.638
25603W        W40450  12.718  15.871  10.934
25604W        W40451  13.656   9.561   1.234
25605W        W40452  17.455   9.525  12.384
25606W        W40453  15.094   9.072  11.883
25607W        W40454  16.483   6.099   9.927
25608W        W40455  13.661   1.750   4.144
25609W        W40456  15.538  14.428  11.383
25610W        W40457  19.301  12.941   4.612
25611W        W40458  16.474   8.071   0.726
25612W        W40459  16.512   3.667  10.930
25613W        W40460  16.965  14.923   1.697
25614W        W40461  14.154  13.909   2.677
25615W        W40462  13.208   9.516   2.192
25616W        W40463  12.280  18.318   2.703
25617W        W40464  15.571   8.066  12.372
25618W        W40465  17.908   9.037  11.391
25619W        W40466  12.721   7.082  13.807
25620W        W40467  12.731  13.442   1.238
25621W        W40468  16.986   2.230  14.806
25622W        W40469  16.001   2.200   1.714
25623W        W40470  14.146   6.596   0.765
25624W        W40471  15.539  11.481  10.431
25625W        W40472  13.688   7.568   3.644
25626W        W40473  18.373  16.858  10.408
25627W        W40474  16.472  18.335  10.441
25628W        W40475  15.539  12.456  11.862
25629W        W40476  12.277   6.588  12.850
25630W        W40477  13.203   6.125   1.218
25631W        W40478  17.917   9.545  10.924
25632W        W40479  13.195  18.814  10.919
25633W        W40480  17.416   5.163  12.383
25634W        W40481  19.319   7.108   1.249
25635W        W40482  16.987   5.161  14.277
25636W        W40483  16.481  18.304  14.303
25637W        W40484  15.542  18.790  10.896
25638W        W40485  12.270   7.608   3.645
25639W        W40486  17.448  19.789  14.321
25640W        W40487  18.357  13.441   4.621
25641W        W40488  12.281   0.745  13.346
25642W        W40489  19.808  17.334   4.645
25643W        W40490  13.671  10.045   2.186
25644W        W40491  18.858   7.566   9.963
25645W        W40492  12.263   5.649   1.709
25646W        W40493  17.913   8.574   0.259
25647W        W40494  12.266   6.593  11.861
25648W        W40495  17.894   5.157  10.914
25649W        W40496  18.855  13.439  12.851
25650W        W40497  14.135   6.623   9.956
25651W        W40498  19.771   0.776   1.695
25652W        W40499  17.913   2.709   3.172
25653W        W40500  13.654   6.103  14.798
25654W        W40501  18.376   0.285  12.347
25655W        W40502  17.904  13.437   3.150
25656W        W40503  12.262   5.157   3.193
25657W        W40504  16.021   3.200   2.199
25658W        W40505  19.768  16.842   4.130
25659W        W40506  17.917   8.585  12.373
25660W        W40507  15.059   7.599   3.633
25661W        W40508  13.680   9.061  12.357
25662W        W40509  14.126  15.863   1.730
25663W        W40510  12.248   3.177   5.115
25664W        W40511  14.625  14.915  11.418
25665W        W40512  15.549  14.404   4.144
25666W        W40513  16.481   0.287  13.800
25667W        W40514  17.923  10.521  12.827
25668W        W40515  19.772  13.941   2.190
25669W        W40516  16.011   1.745  10.914
25670W        W40517  18.380  17.338  12.340
25671W        W40518  19.805   9.071   2.708
25672W        W40519  19.810  15.409  12.829
25673W        W40520  12.706   9.535   3.184
25674W        W40521  14.631  11.013   0.770
25675W        W40522  14.152  19.786   1.250
25676W        W40523  15.102  11.992   2.212
25677W        W40524  14.615   6.626   4.616
25678W        W40525  16.488   1.266   4.160
25679W        W40526  13.667  15.872  12.857
25680W        W40527  15.102   0.742   0.244
25681W        W40528  12.244  14.909  11.869
25682W        W40529  12.707   4.658   2.675
25683W        W40530  16.045   9.039   3.677
25684W        W40531  13.201  17.809  12.371
25685W        W40532  19.313  15.402  11.883
25686W        W40533  17.925   0.282  11.383
25687W        W40534  15.554  11.019   4.645
25688W        W40535  14.590   2.221   1.738
25689W        W40536  14.617   5.650  12.863
25690W        W40537  15.552  19.784   2.682
25691W        W40538  18.381  19.316   1.694
25692W        W40539  18.868  17.821   0.754
25693W        W40540  12.276  16.363  13.811
25694W        W40541  17.896  17.853  12.833
25695W        W40542  13.690  16.360  14.308
25696W        W40543  15.543  18.337  10.900
25697W        W40544  18.863   1.239  10.912
25698W        W40545  16.018  16.863  12.830
25699W        W40546  16.945  19.292  11.407
25700W        W40547  14.131   2.203  10.910
25701W        W40548  17.919  17.812  11.389
25702W        W40549  18.374  11.983  12.852
25703W        W40550  16.501  16.837  13.352
25704W        W40551  18.870  15.393   3.667
25705W        W40552  14.627  14.915   4.620
25706W        W40553  19.786  11.987   3.666
25707W        W40554  13.663  11.952  11.863
25708W        W40555  17.916  16.373  14.277
25709W        W40556  19.768   8.582  10.410
25710W        W40557  18.389   9.064   0.764
25711W        W40558  13.663  18.326   3.147
25712W        W40559  12.264  11.995   1.241
25713W        W40560  17.925   1.714  11.379
25714W        W40561  16.982  13.925  11.373
25715W        W40562  18.375  13.426  10.430
25716W        W40563  13.192  18.824  10.444
25717W        W40564  19.775   9.073   5.107
25718W        W40565  12.752   2.203  11.888
25719W        W40566  16.046   4.645   5.088
25720W        W40567  15.573   8.067   4.622
25721W        W40568  14.615   5.148  11.406
25722W        W40569  15.534   3.663  14.763
25723W        W40570  17.885   2.212  10.430
25724W        W40571  17.413   0.751  11.401
25725W        W40572  17.906  10.025   0.774
25726W        W40573  17.910  16.386  11.859
25727W        W40574  16.010   8.559  12.847
25728W        W40575  13.214   3.191   2.675
25729W        W40576  13.693   6.627  14.311
25730W        W40577  19.806  12.947  11.903
25731W        W40578  19.811   4.680   3.671
25732W        W40579  17.928   4.154   4.156
25733W        W40580  13.678   3.217   4.607
25734W        W40581  16.471  17.328  14.280
25735W        W40582  18.357   5.649   3.149
25736W        W40583  17.906   1.263  12.345
25737W        W40584  15.553  11.973  13.335
25738W        W40585  15.532  16.345   4.614
25739W        W40586  13.680   6.598   2.179
25740W        W40587  19.778  19.278   1.723
25741W        W40588  16.029  17.816  11.881
25742W        W40589  16.981  15.398  13.319
25743W        W40590  15.080  13.912   3.661
25744W        W40591  19.766   9.542   3.183
25745W        W40592  12.251   9.557  11.416
25746W        W40593  19.316  16.342   3.675
25747W        W40594  17.426  16.867   0.267
25748W        W40595  13.219   1.715   1.708
25749W        W40596  12.728   1.234  12.869
25750W        W40597  17.898  10.008   1.713
25751W        W40598  17.428   2.724   3.176
25752W        W40599  17.414   5.135  10.451
25753W        W40600  17.414  17.837  12.343
25754W        W40601  15.060   5.130   3.164
25755W        W40602  13.679  13.429  13.827
25756W        W40603  16.954   4.150   0.253
25757W        W40604  12.741  12.472   4.142
25758W        W40605  13.650  10.014  10.893
25759W        W40606  15.100  15.891  13.313
25760W        W40607  16.500   3.664   3.167
25761W        W40608  14.130   1.719   1.736
25762W        W40609  13.691  12.465  11.418
25763W        W40610  13.177   3.217  10.434
25764W        W40611  19.794   5.138   2.680
25765W        W40612  13.677  18.322   0.275
25766W        W40613  14.594  11.017   3.662
25767W        W40614  13.688   4.183   3.649
25768W        W40615  14.635  14.433   0.254
25769W        W40616  15.534  14.414   1.736
25770W        W40617  16.042   1.746  13.829
25771W        W40618  16.980  11.992  12.368
25772W        W40619  14.612   7.089   1.730
25773W        W40620  18.841   9.517   3.645
25774W        W40621  13.693  13.427  10.442
25775W        W40622  13.200   7.107  10.409
25776W        W40623  15.572  11.955  14.316
25777W        W40624  15.088  17.810   2.216
25778W        W40625  13.181   9.560   9.958
25779W        W40626  12.267  12.957   0.244
25780W        W40627  15.073   5.139   3.642
25781W        W40628  15.061   7.563  11.874
25782W        W40629  18.381   7.576   3.185
25783W        W40630  13.663  16.368   1.721
25784W        W40631  16.504  10.038  12.849
25785W        W40632  12.724  11.957  14.318
25786W        W40633  19.331  17.346   4.124
25787W        W40634  17.883  16.349   4.154
25788W        W40635  15.562  10.006  13.818
25789W        W40636  18.397   2.224  13.792
25790W        W40637  18.390   1.750   4.143
25791W        W40638  19.790  16.862  14.313
25792W        W40639  16.004   3.182  12.345
25793W        W40640  12.732   2.722   2.224
25794W        W40641  16.483   9.535  12.841
25795W        W40642  17.916  14.430  13.309
25796W        W40643  14.156   7.118   4.132
25797W        W40644  18.857  16.839   4.123
25798W        W40645  17.911   4.150   4.614
25799W        W40646  14.593   4.643  13.814
25800W        W40647  17.427  16.342   2.672
25801W        W40648  14.118   9.035  13.307
25802W        W40649  12.251   7.562   0.274
25803W        W40650  19.332   4.672   2.691
25804W        W40651  15.060   8.070  12.369
25805W        W40652  16.490   6.112  13.828
25806W        W40653  19.770   4.180  11.872
25807W        W40654  13.213  18.810   3.634
25808W        W40655  14.121  11.970  13.338
25809W        W40656  19.788   0.248   9.922
25810W        W40657  17.912  15.407   2.206
25811W        W40658  18.388  10.048   4.122
25812W        W40659  19.304  13.425  13.323
25813W        W40660  19.334  15.879   1.738
25814W        W40661  17.905   3.216   2.219
25815W        W40662  17.925   4.679   4.616
25816W        W40663  17.415   0.755   0.726
25817W        W40664  12.263  16.384   2.218
25818W        W40665  17.894  19.303  12.832
25819W        W40666  18.376  16.865  13.350
25820W        W40667  13.661  11.010  13.796
25821W        W40668  17.442   8.549  10.923
25822W        W40669  19.296   4.677  11.892
25823W        W40670  18.863   8.097  14.290
25824W        W40671  13.692  17.326  14.791
25825W        W40672  12.275  10.524   1.249
25826W        W40673  19.311   5.635  12.833
25827W        W40674  19.787   0.761   2.200
25828W        W40675  16.478  17.325  11.400
25829W        W40676  19.800  11.990   1.741
25830W        W40677  13.212   7.097   3.675
25831W        W40678  15.555  11.965  13.823
25832W        W40679  16.947  16.848  10.411
25833W        W40680  16.986   3.195  10.929
25834W        W40681  14.160   2.689   4.644
25835W        W40682  13.194  11.992  11.857
25836W        W40683  19.329   2.686  11.896
25837W        W40684  15.572   4.682   3.186
25838W        W40685  15.560  12.452  10.917
25839W        W40686  14.600   4.167   0.726
25840W        W40687  19.773   4.192   4.138
25841W        W40688  14.140   2.712   3.663
25842W        W40689  19.791   5.647   2.706
25843W        W40690  17.926  18.827  11.876
25844W        W40691  17.418  14.414  13.307
25845W        W40692  17.414  17.338   0.287
25846W        W40693  16.966   0.737   3.149
25847W        W40694  14.132   6.602   3.151
25848W        W40695  16.974   0.768   1.233
25849W        W40696  15.531  13.423   2.178
25850W        W40697  16.960  13.921   3.645
25851W        W40698  12.277  10.499   3.630
25852W        W40699  17.457  17.330   1.737
25853W        W40700  14.163   4.183   0.754
25854W        W40701  13.651  13.420  12.384
25855W        W40702  12.240  15.393   3.168
25856W        W40703  17.440  14.897  11.900
25857W        W40704  14.164  11.017  12.834
25858W        W40705  12.725  10.993  10.438
25859W        W40706  16.005  18.825  10.920
25860W        W40707  17.909   6.123  11.377
25861W        W40708  13.668  12.965  14.780
25862W        W40709  14.616  14.907  11.889
25863W        W40710  12.731  11.954  13.307
25864W        W40711  16.947  17.344   1.741
25865W        W40712  12.270   9.027  10.918
25866W        W40713  19.309  14.420   4.609
25867W        W40714  17.425   1.244  14.796
25868W        W40715  15.068  16.849  13.810
25869W        W40716  17.889  19.785  10.893
25870W        W40717  18.843   0.770  12.840
25871W        W40718  16.006   7.609  10.921
25872W        W40719  17.441  11.008  10.437
25873W        W40720  13.688  19.282   1.230
25874W        W40721  14.161   8.554  13.806
25875W        W40722  12.246  11.469  14.288
25876W        W40723  14.129   6.110  10.898
25877W        W40724  16.500   5.626   2.207
25878W        W40725  18.841  15.383  13.794
25879W        W40726  14.137   3.695  11.887
25880W        W40727  16.951   1.249   0.283
25881W        W40728  14.590  12.485  10.443
25882W        W40729  13.672  10.018  13.823
25883W        W40730  18.830   9.051  14.778
25884W        W40731  17.887  12.451  14.797
25885W        W40732  13.190  11.006  10.436
25886W        W40733  13.671  10.999  10.423
25887W        W40734  19.330  10.984  11.857
25888W        W40735  13.682  19.768  13.811
25889W        W40736  18.391   8.062  12.347
25890W        W40737  19.298  17.826  10.446
25891W        W40738  13.218  18.802   0.758
25892W        W40739  19.339  13.448  12.384
25893W        W40740  15.068  17.359   1.710
25894W        W40741  15.557   4.174   0.253
25895W        W40742  16.486   2.691  10.921
25896W        W40743  17.902   2.704  14.274
25897W        W40744  16.512  19.290  11.867
25898W        W40745  16.503   4.636   2.687
25899W        W40746  15.063  19.767  13.321
25900W        W40747  19.294  11.505   4.598
25901W        W40748  16.502   3.697   2.215
25902W        W40749  18.384  14.403   0.261
25903W        W40750  17.896  17.355  12.863
25904W        W40751  14.148  10.511   2.213
25905W        W40752  13.659   8.575  12.853
25906W        W40753  12.743   8.090   2.703
25907W        W40754  16.477  16.838   5.087
25908W        W40755  12.744  14.417   3.650
25909W        W40756  14.143   9.056   2.202
25910W        W40757  16.037   1.723  12.862
25911W        W40758  19.340  18.317  12.368
25912W        W40759  18.371  11.955  10.926
25913W        W40760  14.124  18.331  14.788
25914W        W40761  17.422  17.810  14.305
25915W        W40762  12.247  19.769   2.215
25916W        W40763  17.417   7.118  10.887
25917W        W40764  12.748   4.681  13.802
25918W        W40765  15.083   2.705   9.933
25919W        W40766  12.722   1.222  11.884
25920W        W40767  17.922  18.798   1.713
25921W        W40768  14.598  10.532   4.135
25922W        W40769  16.956  13.936  13.815
25923W        W40770  18.377  18.811   4.113
25924W        W40771  12.250   5.639   0.261
25925W        W40772  17.441   5.158  10.896
25926W        W40773  17.433   9.519   4.145
25927W        W40774  19.790  15.381   4.609
25928W        W40775  15.534   0.264   2.222
25929W        W40776  13.690   0.760  12.351
25930W        W40777  12.277  19.758   4.605
25931W        W40778  15.565  19.771   3.188
25932W        W40779  15.095   7.081  13.320
25933W        W40780  16.949  16.837   4.612
25934W        W40781  18.387  15.867  11.890
25935W        W40782  19.797  11.958  11.387
25936W        W40783  15.083   6.588   1.720
25937W        W40784  12.258  15.865   0.258
25938W        W40785  19.313  19.311   1.228
25939W        W40786  18.355   4.147   1.220
25940W        W40787  12.239   8.062  12.373
25941W        W40788  18.830   2.212   1.736
25942W        W40789  15.100  11.007  12.856
25943W        W40790  16.945  15.858   3.629
25944W        W40791  17.442   5.632   5.115
25945W        W40792  16.958   6.597  12.835
25946W        W40793  16.005  14.890  10.421
25947W        W40794  17.457   8.050   4.155
25948W        W40795  16.044  16.373   2.193
25949W        W40796  13.686  19.282   0.738
25950W        W40797  18.358   0.254   2.217
25951W        W40798  12.731   0.258   2.201
25952W        W40799  18.857  11.507  11.887
25953W        W40800  12.251  18.789  11.881
25954W        W40801  19.339   0.270   2.218
25955W        W40802  14.595   2.721  12.844
25956W        W40803  15.545   4.155  10.438
25957W        W40804  13.665   8.539  11.385
25958W        W40805  15.564   7.571   2.202
25959W        W40806  12.239   7.567  14.319
25960W        W40807  15.094   4.667   0.247
25961W        W40808  12.748  13.935   4.613
25962W        W40809  13.193   3.187  13.821
25963W        W40810  17.455   9.034   4.149
25964W        W40811  17.921   2.686  12.859
25965W        W40812  19.788  13.918   4.126
25966W        W40813  16.971  17.812  14.321
25967W        W40814  19.769   9.543  12.859
25968W        W40815  14.616   5.132   3.178
25969W        W40816  16.018   6.120   3.671
25970W        W40817  12.265  14.908  10.419
25971W        W40818  17.907  13.918  12.835
25972W        W40819  17.438  14.919  14.765
25973W        W40820  18.864  11.481  13.798
25974W        W40821  15.568  13.440   0.278
25975W        W40822  18.829   7.596  13.825
25976W        W40823  17.420  17.807  13.329
25977W        W40824  15.538  11.003   3.675
25978W        W40825  13.190   4.183   4.611
25979W        W40826  17.454   6.598  11.397
25980W        W40827  17.890  13.420   2.674
25981W        W40828  19.781   7.575  12.387
25982W        W40829  16.475   6.596   9.954
25983W        W40830  16.956  16.852  13.340
25984W        W40831  17.430  13.457   2.700
25985W        W40832  13.182  15.856  12.372
25986W        W40833  16.473   1.257  10.430
25987W        W40834  18.397  19.772  11.391
25988W        W40835  13.663   5.162   1.718
25989W        W40836  18.842   0.732   4.132
25990W        W40837  16.018   2.716  13.797
25991W        W40838  13.198   4.158   2.672
25992W        W40839  12.261  17.852   0.734
25993W        W40840  16.474   1.729  14.297
25994W        W40841  13.689  18.807  13.339
25995W        W40842  16.965  10.996   4.145
25996W        W40843  16.005   7.092  11.863
25997W        W40844  12.277  11.510  10.927
25998W        W40845  19.795  13.443  10.436
25999W        W40846  19.794  16.377  10.445
26000W        W40847  16.025  16.375   5.127
26001W        W40848  16.006   7.078   3.637
26002W        W40849  18.861  10.009   2.668
26003W        W40850  17.427   9.534   0.285
26004W        W40851  18.856  11.499   0.774
26005W        W40852  13.183  17.814  10.428
26006W        W40853  13.205  17.819   4.143
26007W        W40854  17.450   2.218   3.179
26008W        W40855  12.742   8.571   1.723
26009W        W40856  16.517  11.001   1.229
26010W        W40857  15.537  18.296  11.403
26011W        W40858  14.148  18.820  11.858
26012W        W40859  15.561  10.509   4.133
26013W        W40860  16.511  18.310  14.768
26014W        W40861  19.785  13.906   0.268
26015W        W40862  16.975   3.678  13.340
26016W        W40863  14.589   7.600  14.301
26017W        W40864  17.922  16.347  12.846
26018W        W40865  17.425   7.578  11.886
26019W        W40866  14.139   8.578   1.721
26020W        W40867  13.685  10.985   1.722
26021W        W40868  19.302   2.727   1.257
26022W        W40869  19.307   4.645   1.733
26023W        W40870  17.416   1.727   0.289
26024W        W40871  19.775   3.684  13.816
26025W        W40872  16.507   6.137   4.121
26026W        W40873  18.383   5.610   5.114
26027W        W40874  12.748   7.567  12.342
26028W        W40875  17.915   8.556  14.320
26029W        W40876  13.203   0.269   4.605
26030W        W40877  17.446   4.187   4.158
26031W        W40878  16.016   2.222   3.179
26032W        W40879  15.081  17.823  11.892
26033W        W40880  14.593  10.993  13.322
26034W        W40881  13.671  14.916   2.179
26035W        W40882  17.449   4.161   3.645
26036W        W40883  17.436   5.137  13.821
26037W        W40884  12.271   1.745   1.239
26038W        W40885  19.305  16.833   5.105
26039W        W40886  19.796   0.752  14.758
26040W        W40887  16.020  18.825  12.354
26041W        W40888  16.030   1.227  13.338
26042W        W40889  13.177   5.142   1.736
26043W        W40890  16.488  12.475   5.091
26044W        W40891  15.566   4.654   2.206
26045W        W40892  19.768  17.341   2.670
26046W        W40893  12.733   7.581  13.799
26047W        W40894  16.959  11.978  11.408
26048W        W40895  14.126  14.418  10.410
26049W        W40896  13.650  10.523  13.316
26050W        W40897  17.435   9.520   0.766
26051W        W40898  18.868   7.588  14.766
26052W        W40899  19.773   7.113  10.901
26053W        W40900  14.134  11.479   3.183
26054W        W40901  12.242  11.509  11.413
26055W        W40902  18.391   4.194   2.196
26056W        W40903  13.687  10.010  14.283
26057W        W40904  19.312   4.657   3.177
26058W        W40905  16.963  19.283  14.796
26059W        W40906  16.002   5.615  11.384
26060W        W40907  12.733   1.234   1.257
26061W        W40908  14.156  18.326   0.274
26062W        W40909  19.784  16.369   3.190
26063W        W40910  13.662  16.372  10.920
26064W        W40911  15.081  16.858  11.386
26065W        W40912  19.776  11.482  14.804
26066W        W40913  16.482  14.413  10.413
26067W        W40914  19.782   0.734   5.129
26068W        W40915  15.563  17.836  11.887
26069W        W40916  14.142  14.402   3.676
26070W        W40917  12.743  16.853  14.282
26071W        W40918  16.949  11.956   3.164
26072W        W40919  18.858   9.058  12.381
26073W        W40920  19.773  19.796  12.870
26074W        W40921  16.011   2.224  11.381
26075W        W40922  17.414  11.960  10.930
26076W        W40923  15.544  13.463  14.794
26077W        W40924  15.087  12.485   4.127
26078W        W40925  14.622   0.263  11.387
26079W        W40926  16.968  13.912   2.220
26080W        W40927  17.920   6.632  14.283
26081W        W40928  18.852   6.129   1.707
26082W        W40929  18.372   3.702   4.599
26083W        W40930  19.302   7.078   0.742
26084W        W40931  16.039   9.067   1.245
26085W        W40932  18.356   9.524  11.410
26086W        W40933  16.955   2.730   0.266
26087W        W40934  15.093  18.815   1.255
26088W        W40935  17.456   0.255   4.621
26089W        W40936  12.265  16.353  12.831
26090W        W40937  19.295  13.907   4.632
26091W        W40938  13.213   3.666  10.924
26092W        W40939  16.970  14.393   3.176
26093W        W40940  14.628  15.397   2.689
26094W        W40941  19.772   3.200  12.380
26095W        W40942  16.988   7.101   4.156
26096W        W40943  19.333  12.967   5.095
26097W        W40944  18.834   9.038   2.197
26098W        W40945  19.811   4.672  14.277
26099W        W40946  19.769  11.013  13.794
26100W        W40947  16.482  17.828  14.784
26101W        W40948  18.825   3.704  13.838
26102W        W40949  14.156   7.076   2.688
26103W        W40950  14.123  18.791  13.827
26104W        W40951  17.886  10.013   3.660
26105W        W40952  12.725   2.695  11.380
26106W        W40953  19.296  15.389  13.795
26107W        W40954  15.098   9.049  14.279
26108W        W40955  13.188  10.042   0.744
26109W        W40956  13.220  16.877  10.404
26110W        W40957  18.840  16.373   2.701
26111W        W40958  15.538  10.535   2.204
26112W        W40959  15.531   1.713   0.258
26113W        W40960  16.030   0.753   2.694
26114W        W40961  15.097  18.293   0.735
26115W        W40962  14.632  16.357  12.856
26116W        W40963  14.154   6.598   0.245
26117W        W40964  13.691  16.846  10.935
26118W        W40965  16.943  17.364  11.897
26119W        W40966  14.149  12.932   2.679
26120W        W40967  16.485  10.033   0.243
26121W        W40968  16.508   1.255  14.790
26122W        W40969  17.443  13.415  10.921
26123W        W40970  12.260  15.869  14.277
26124W        W40971  12.236   5.639   3.162
26125W        W40972  12.726   3.174  11.883
26126W        W40973  16.490   5.653   3.645
26127W        W40974  17.884  18.814   0.259
26128W        W40975  13.193   5.153   9.934
26129W        W40976  16.948  10.520  10.412
26130W        W40977  14.132   2.726  14.274
26131W        W40978  18.384   2.244   1.218
26132W        W40979  16.956   1.756   2.206
26133W        W40980  13.189   3.679  11.409
26134W        W40981  14.147   6.117   2.222
26135W        W40982  17.894  13.936  11.858
26136W        W40983  12.718  14.923  12.834
26137W        W40984  14.592   5.147  13.824
26138W        W40985  14.593   7.080  12.828
26139W        W40986  15.059   1.231   5.107
26140W        W40987  13.188   4.173  11.864
26141W        W40988  19.788   2.727   2.704
26142W        W40989  19.326   4.651   4.636
26143W        W40990  15.105  12.448  10.930
26144W        W40991  18.354   4.175  12.840
26145W        W40992  19.298  10.001   3.662
26146W        W40993  15.542   6.630  11.895
26147W        W40994  16.963   7.079   0.733
26148W        W40995  19.797   4.659   5.106
26149W        W40996  12.722   8.572  11.405
26150W        W40997  13.208  17.318  11.900
26151W        W40998  12.738   7.584   1.210
26152W        W40999  15.566  18.318  12.382
26153W        W41000  12.244   8.574   1.697
26154W        W41001  16.487   1.717   0.744
26155W        W41002  15.064   9.514  12.349
26156W        W41003  16.943   5.147   3.163
26157W        W41004  16.026  16.860   4.641
26158W        W41005  18.389   4.659  11.899
26159W        W41006  12.712  10.041   3.148
26160W        W41007  16.473   6.625  12.857
26161W        W41008  13.178  14.908  12.365
26162W        W41009  14.139  10.507   4.138
26163W        W41010  16.017  12.970   1.221
26164W        W41011  15.085  10.042   2.211
26165W        W41012  16.983  19.782  14.313
26166W        W41013  12.729  13.930   0.749
26167W        W41014  13.664   4.662   2.667
26168W        W41015  12.716  15.856  11.400
26169W        W41016  19.306   2.690  13.333
26170W        W41017  12.248  19.283  12.836
26171W        W41018  16.477  19.291  14.295
26172W        W41019  19.768   1.729   4.158
26173W        W41020  17.885   9.057  12.848
26174W        W41021  12.744   2.685   0.271
26175W        W41022  14.618  13.431   5.123
26176W        W41023  15.065   5.141  11.411
26177W        W41024  12.728   9.034   0.270
26178W        W41025  16.950  13.943   1.239
26179W        W41026  15.092  11.486  12.867
26180W        W41027  15.083  10.515   1.741
26181W        W41028  19.310   9.554  10.409
26182W        W41029  12.272  13.434  12.342
26183W        W41030  15.541   5.144   0.258
26184W        W41031  16.479  13.435  11.877
26185W        W41032  16.019  12.469   2.701
26186W        W41033  12.265   4.654   2.678
26187W        W41034  16.950  10.495  11.411
26188W        W41035  12.739   2.236  13.338
26189W        W41036  12.715   8.544   2.703
26190W        W41037  13.179   2.684   4.124
26191W        W41038  18.852  15.886  10.909
26192W        W41039  14.164  10.020  13.812
26193W        W41040  17.447   3.174   1.719
26194W        W41041  19.339  12.938   3.643
26195W        W41042  14.149  14.885   2.219
26196W        W41043  18.866   3.208   4.124
26197W        W41044  16.047  18.325   2.666
26198W        W41045  19.301  18.783  10.917
26199W        W41046  19.329  16.832  10.430
26200W        W41047  13.213  17.838   1.733
26201W        W41048  16.034  19.287   0.260
26202W        W41049  17.893   9.062  14.289
26203W        W41050  16.482  10.044  14.307
26204W        W41051  19.785  16.877   3.653
26205W        W41052  13.681   5.152  14.799
26206W        W41053  17.917   5.610  14.314
26207W        W41054  16.505  13.452   0.272
26208W        W41055  16.972  19.758   2.697
26209W        W41056  16.980   5.625  12.829
26210W        W41057  14.142   1.254   2.223
26211W        W41058  17.415   6.146   0.736
26212W        W41059  16.947   9.073  12.340
26213W        W41060  12.282  16.862   0.728
26214W        W41061  18.360  12.458  13.818
26215W        W41062  16.020   4.666  12.829
26216W        W41063  16.967   0.776  13.339
26217W        W41064  12.258  17.364  14.299
26218W        W41065  19.312  19.770   0.272
26219W        W41066  19.798   9.051   1.741
26220W        W41067  16.014   4.189   2.211
26221W        W41068  13.222   5.644  11.898
26222W        W41069  19.789   2.694   2.205
26223W        W41070  16.490  11.465  10.899
26224W        W41071  17.444  12.960  12.340
26225W        W41072  13.186  14.907  10.440
26226W        W41073  16.036  11.953  13.345
26227W        W41074  19.809  14.887  13.791
26228W        W41075  15.097   6.107   3.163
26229W        W41076  14.610  11.971   3.649
26230W        W41077  17.443  14.422   0.244
26231W        W41078  15.548   7.101   3.654
26232W        W41079  12.264   8.569   5.129
26233W        W41080  12.739   2.220   0.254
26234W        W41081  17.918  19.805  13.327
26235W        W41082  12.713   7.576   1.709
26236W        W41083  14.602  12.468   0.741
26237W        W41084  14.592   0.753   3.150
26238W        W41085  19.782   4.162   5.589
26239W        W41086  16.503  11.471   1.718
26240W        W41087  15.535  18.797  14.792
26241W        W41088  17.435   4.647   1.703
26242W        W41089  19.318   0.282  13.832
26243W        W41090  18.365  12.465   4.132
26244W        W41091  19.782  14.903   0.744
26245W        W41092  18.828   9.072   1.731
26246W        W41093  13.193   6.139  13.330
26247W        W41094  14.149  13.924   1.722
26248W        W41095  18.843  17.854   1.726
26249W        W41096  17.923  18.296  11.895
26250W        W41097  18.378   2.205   4.117
26251W        W41098  18.394   5.164   2.218
26252W        W41099  15.572   1.711  10.420
26253W        W41100  14.154   4.192  13.343
26254W        W41101  12.247  16.853  11.418
26255W        W41102  19.781  15.884   3.163
26256W        W41103  15.537   4.674   0.277
26257W        W41104  17.911  14.415   4.137
26258W        W41105  15.537   9.514   0.251
26259W        W41106  12.243  13.951  14.304
26260W        W41107  13.683  14.431  11.865
26261W        W41108  12.272  10.519   3.182
26262W        W41109  19.335   4.157  13.309
26263W        W41110  19.771  16.386   0.272
26264W        W41111  18.846   2.196   4.143
26265W        W41112  15.540   2.200   2.687
26266W        W41113  19.766  18.297  10.921
26267W        W41114  12.744   8.544  10.431
26268W        W41115  16.499  10.490   3.633
26269W        W41116  16.953   4.665   2.667
26270W        W41117  16.516   4.193  12.357
26271W        W41118  15.092   6.141  10.426
26272W        W41119  18.368   5.125  13.349
26273W        W41120  19.310  10.019   3.188
26274W        W41121  14.595  19.770   0.768
26275W        W41122  14.598  17.322   1.234
26276W        W41123  19.299  15.401   4.618
26277W        W41124  17.433  11.985   0.276
26278W        W41125  13.665   3.700  13.824
26279W        W41126  13.649   2.236  14.779
26280W        W41127  18.835  14.883   0.286
26281W        W41128  16.943  19.765   1.212
26282W        W41129  16.485   6.608   3.159
26283W        W41130  17.435   2.218   4.134
26284W        W41131  12.279   1.715  13.823
26285W        W41132  16.001   6.617  11.381
26286W        W41133  16.000   8.576   3.186
26287W        W41134  15.081   7.098   1.255
26288W        W41135  16.490   7.580   1.216
26289W        W41136  17.885   3.671   0.749
26290W        W41137  17.921  11.989   3.659
26291W        W41138  17.890  15.367  13.819
26292W        W41139  16.011   0.259  10.917
26293W        W41140  16.500   5.625  12.834
26294W        W41141  13.649  11.987  10.920
26295W        W41142  19.778   5.619  12.357
26296W        W41143  16.493  13.435   2.684
26297W        W41144  18.830  18.321  13.808
26298W        W41145  18.846  14.437   3.181
26299W        W41146  17.885   1.221  11.859
26300W        W41147  12.273   6.102  14.288
26301W        W41148  19.789   2.722  13.835
26302W        W41149  15.542   8.095  11.397
26303W        W41150  19.796   5.135   3.673
26304W        W41151  15.573   8.585  12.851
26305W        W41152  14.618  17.830  12.369
26306W        W41153  12.708   5.628   1.253
26307W        W41154  12.248   6.102  12.839
26308W        W41155  17.458  10.030   2.206
26309W        W41156  19.322   6.132   0.757
26310W        W41157  13.199  12.485   2.704
26311W        W41158  16.493  16.870   4.605
26312W        W41159  19.339   3.189  14.309
26313W        W41160  16.984   9.060   1.698
26314W        W41161  14.118  19.303  11.897
26315W        W41162  14.593   0.750  11.863
26316W        W41163  18.862  12.970  14.281
26317W        W41164  13.217   4.682  12.844
26318W        W41165  14.632   8.549   2.693
26319W        W41166  16.488   9.531   2.700
26320W        W41167  17.908   3.201  11.890
26321W        W41168  17.437  10.047  12.827
26322W        W41169  18.355  14.894   0.774
26323W        W41170  12.248   8.085  13.336
26324W        W41171  16.486   7.586   4.152
26325W        W41172  18.371  13.919   0.289
26326W        W41173  19.300  16.838  14.802
26327W        W41174  14.623   9.547   3.642
26328W        W41175  12.714  16.350  10.447
26329W        W41176  14.623  15.865   4.126
26330W        W41177  19.317   7.107   2.226
26331W        W41178  16.014  17.356  11.871
26332W        W41179  13.186   2.233   2.214
26333W        W41180  16.517   9.071   0.246
26334W        W41181  16.023  11.021  10.442
26335W        W41182  18.852  10.024   0.749
26336W        W41183  12.720  10.019  11.418
26337W        W41184  12.726  11.507  14.804
26338W        W41185  12.249  18.812   2.705
26339W        W41186  16.945  17.811   1.727
26340W        W41187  16.494  15.892   3.170
26341W        W41188  13.214  10.497   1.217
26342W        W41189  14.612   9.036   2.663
26343W        W41190  12.259   3.177   4.629
26344W        W41191  14.145   1.223   1.707
26345W        W41192  15.077   8.568  12.364
26346W        W41193  12.711   6.617  11.396
26347W        W41194  18.831  18.319  14.765
26348W        W41195  19.809  11.500   4.628
26349W        W41196  12.238  10.043   3.190
26350W        W41197  14.133  13.438  14.286
26351W        W41198  19.340  18.327   1.706
26352W        W41199  19.796   2.725  13.316
26353W        W41200  14.589  12.939  14.282
26354W        W41201  18.866   1.751   2.220
26355W        W41202  19.780   4.643  13.330
26356W        W41203  15.061  13.444  11.411
26357W        W41204  19.798  15.375  11.410
26358W        W41205  17.906   2.242   5.092
26359W        W41206  17.423  18.317  12.835
26360W        W41207  18.853   1.229  11.402
26361W        W41208  14.619  17.843  14.789
26362W        W41209  18.841   0.250  10.896
26363W        W41210  16.015   9.527   3.642
26364W        W41211  16.509  18.316  13.822
26365W        W41212  15.103  13.444  13.324
26366W        W41213  13.192  10.502   1.715
26367W        W41214  19.784   0.254   0.247
26368W        W41215  18.380   9.049  13.808
26369W        W41216  12.271  17.806   3.152
26370W        W41217  15.558  13.926   1.727
26371W        W41218  16.015  17.815  14.806
26372W        W41219  16.489  19.789  10.411
26373W        W41220  12.238   0.259   3.153
26374W        W41221  19.335  12.469   0.750
26375W        W41222  17.927   0.774  10.926
26376W        W41223  16.494   7.106   4.600
26377W        W41224  12.256   4.172  12.849
26378W        W41225  18.839  14.433  12.373
26379W        W41226  12.729  10.014  12.386
26380W        W41227  13.667  19.302  13.792
26381W        W41228  16.034   4.669   1.700
26382W        W41229  18.359   3.183  11.874
26383W        W41230  13.656   8.576  13.796
26384W        W41231  15.098   9.539   4.617
26385W        W41232  15.104   1.264  13.800
26386W        W41233  16.496   0.734  12.355
26387W        W41234  17.441   0.779   3.658
26388W        W41235  17.428   1.238  13.311
26389W        W41236  15.083  11.964  10.934
26390W        W41237  18.390   2.712  14.778
26391W        W41238  16.510   4.652  14.773
26392W        W41239  18.844   2.232   3.632
26393W        W41240  13.179   2.700  13.336
26394W        W41241  13.663   9.549   0.242
26395W        W41242  14.604  18.299  10.935
26396W        W41243  18.827   0.291  10.414
26397W        W41244  15.091   7.606   4.149
26398W        W41245  13.658   3.192  14.317
26399W        W41246  18.843  11.992  10.421
26400W        W41247  16.500  10.033   1.726
26401W        W41248  16.004   7.567   3.177
26402W        W41249  17.435   4.188  14.782
26403W        W41250  13.685  11.504  11.377
26404W        W41251  15.572   7.594  10.909
26405W        W41252  18.367  18.302  10.902
26406W        W41253  18.849  13.432  10.915
26407W        W41254  15.069   4.641   3.676
26408W        W41255  18.870   8.564  13.310
26409W        W41256  12.718  15.412   3.662
26410W        W41257  16.022   4.184   2.687
26411W        W41258  13.665   3.698  12.840
26412W        W41259  14.142  11.484   3.674
26413W        W41260  14.615  10.046   3.179
26414W        W41261  13.185  10.501   4.642
26415W        W41262  15.068  16.851  10.909
26416W        W41263  17.918  10.981   0.283
26417W        W41264  18.857  19.302  14.758
26418W        W41265  16.030   1.243  14.804
26419W        W41266  18.843  10.527  13.321
26420W        W41267  13.195   3.703   0.244
26421W        W41268  16.961  14.920   0.727
26422W        W41269  17.430  15.868   3.188
26423W        W41270  14.603   7.109   0.245
26424W        W41271  14.147   0.292  13.818
26425W        W41272  19.777   9.055   3.148
26426W        W41273  16.501  12.475   4.158
26427W        W41274  13.194   0.772   2.183
26428W        W41275  13.196   3.212   4.642
26429W        W41276  17.451   9.072   1.695
26430W        W41277  19.803   2.208  14.304
26431W        W41278  13.215   2.241  10.427
26432W        W41279  13.693  13.440  10.895
26433W        W41280  18.357  10.013  11.875
26434W        W41281  14.618   1.750   0.772
26435W        W41282  12.267   7.108  10.426
26436W        W41283  16.035   6.601   0.731
26437W        W41284  15.574   2.706   1.226
26438W        W41285  13.181  14.898  12.861
26439W        W41286  18.866  15.884   3.638
26440W        W41287  17.421   5.145  14.283
26441W        W41288  15.538  10.524  12.869
26442W        W41289  12.730  11.504   3.192
26443W        W41290  12.726  19.306   3.639
26444W        W41291  17.895   6.586  14.764
26445W        W41292  15.575   9.544  11.900
26446W        W41293  18.399   6.116  11.863
26447W        W41294  15.074   4.148   2.707
26448W        W41295  14.626   6.102   5.119
26449W        W41296  16.955   5.615   2.184
26450W        W41297  14.139  18.337  11.893
26451W        W41298  17.414  19.284  11.886
26452W        W41299  19.329   2.710  12.828
26453W        W41300  12.256  11.507   0.284
26454W        W41301  15.105  19.310  12.339
26455W        W41302  17.417  15.408   1.232
26456W        W41303  15.570   5.152   1.695
26457W        W41304  17.440   4.155  11.395
26458W        W41305  15.076   2.211   0.287
26459W        W41306  13.200   6.602  12.827
26460W        W41307  19.332  10.528   4.144
26461W        W41308  14.125   2.203   3.632
26462W        W41309  12.735  14.407  13.319
26463W        W41310  19.296  15.369  14.773
26464W        W41311  17.915  17.342   0.269
26465W        W41312  17.448  15.369   2.662
26466W        W41313  17.434   2.702  10.428
26467W        W41314  19.303   6.611   4.131
26468W        W41315  14.632   6.101  12.869
26469W        W41316  12.741  11.006   5.083
26470W        W41317  19.297   0.773   2.696
26471W        W41318  14.597  15.895  10.908
26472W        W41319  19.773  18.320  11.858
26473W        W41320  18.851   0.272  14.802
26474W        W41321  17.924   0.735   2.690
26475W        W41322  14.618   3.701  12.856
26476W        W41323  16.979   5.646   3.192
26477W        W41324  12.746   0.773   0.730
26478W        W41325  16.480   3.663  11.893
26479W        W41326  19.781  19.798  10.897
26480W        W41327  15.539  17.333   3.637
26481W        W41328  15.575   9.066   2.216
26482W        W41329  19.335  18.309  13.331
26483W        W41330  14.162   8.069   2.217
26484W        W41331  16.006   6.129  13.317
26485W        W41332  12.237   5.656  10.918
26486W        W41333  18.397  10.998  10.441
26487W        W41334  12.742  16.870   2.694
26488W        W41335  12.740  10.506   4.606
26489W        W41336  16.955  12.951   1.713
26490W        W41337  13.184  18.337   4.639
26491W        W41338  13.679  15.378  12.354
26492W        W41339  14.152  11.017   1.734
26493W        W41340  14.132  17.848  13.796
26494W        W41341  15.095  14.879   1.735
26495W        W41342  16.950  12.441  12.828
26496W        W41343  14.142   9.025  10.423
26497W        W41344  12.750   7.103   2.202
26498W        W41345  18.366  10.032  14.302
26499W        W41346  18.825   3.663   4.642
26500W        W41347  16.506  15.396   3.147
26501W        W41348  16.946   7.562  14.762
26502W        W41349  14.121   6.628  12.823
26503W        W41350  15.092   1.258   9.963
26504W        W41351  13.198  19.778   3.172
26505W        W41352  12.269   3.172   1.709
26506W        W41353  15.068   8.090  14.774
26507W        W41354  16.503  10.009   4.606
26508W        W41355  19.785  18.828  12.829
26509W        W41356  18.843  10.984  14.773
26510W        W41357  16.508   9.530  10.908
26511W        W41358  12.731  11.468  12.840
26512W        W41359  15.561   9.038   5.091
26513W        W41360  13.661  18.299  11.862
26514W        W41361  16.988   6.632  10.911
26515W        W41362  16.029   5.133  10.890
26516W        W41363  16.950  14.402  13.335
26517W        W41364  14.604   9.522  13.812
26518W        W41365  14.149  14.399   1.697
26519W        W41366  14.634   3.175  13.809
26520W        W41367  15.574   8.539   4.632
26521W        W41368  13.677  13.420   1.717
26522W        W41369  16.966  18.298   0.758
26523W        W41370  19.782   9.054   4.603
26524W        W41371  19.776  14.879   3.152
26525W        W41372  15.555  14.421  11.860
26526W        W41373  12.709  16.380   3.633
26527W        W41374  17.457   6.622  13.819
26528W        W41375  14.621  18.789  14.320
26529W        W41376  13.217  11.007   0.746
26530W        W41377  18.360   5.139   4.115
26531W        W41378  19.779  19.312  11.408
26532W        W41379  19.336   0.755   3.191
26533W        W41380  14.593  11.466  12.862
26534W        W41381  16.484   8.579  11.379
26535W        W41382  13.178   3.679  13.328
26536W        W41383  19.805   0.281   0.759
26537W        W41384  15.103  17.837   5.106
26538W        W41385  15.073  12.461   3.632
26539W        W41386  19.317  14.898   3.165
26540W        W41387  18.373   7.569  11.416
26541W        W41388  19.797   8.071  12.834
26542W        W41389  14.125  10.044  14.763
26543W        W41390  12.751  17.362   3.632
26544W        W41391  19.766   9.517   3.670
26545W        W41392  18.850  19.269  12.848
26546W        W41393  16.964  11.465  12.364
26547W        W41394  16.954   9.558  11.871
26548W        W41395  17.887   6.145   2.697
26549W        W41396  15.530   7.116  14.777
26550W        W41397  15.062   9.028  12.369
26551W        W41398  15.087   5.656   0.765
26552W        W41399  14.621   5.612   2.702
26553W        W41400  16.492  10.530  12.835
26554W        W41401  16.471   5.654  10.903
26555W        W41402  17.459  16.353  14.772
26556W        W41403  16.515   1.260   5.125
26557W        W41404  12.730  16.835   4.606
26558W        W41405  19.311   8.065   1.214
26559W        W41406  14.620  11.496   4.148
26560W        W41407  14.154  15.866   3.163
26561W        W41408  13.200   3.696  12.349
26562W        W41409  12.731   5.131   5.116
26563W        W41410  16.478  11.500  14.297
26564W        W41411  13.654  17.362  11.863
26565W        W41412  18.358  16.375  11.408
26566W        W41413  19.771  12.952  12.358
26567W        W41414  12.728  16.380  12.366
26568W        W41415  12.712   8.069  11.373
26569W        W41416  14.612   7.568   4.119
26570W        W41417  13.654  15.390  14.796
26571W        W41418  16.011  18.792   2.709
26572W        W41419  12.249   6.598  14.301
26573W        W41420  15.072   1.744  10.431
26574W        W41421  13.660   9.024   4.621
26575W        W41422  16.039   5.171  14.765
26576W        W41423  18.367   2.218   2.696
26577W        W41424  17.928  11.971   4.155
26578W        W41425  13.178  19.285  11.862
26579W        W41426  13.661   1.226  13.311
26580W        W41427  12.255  18.334  12.852
26581W        W41428  15.550   6.104   0.263
26582W        W41429  16.496   2.232  12.847
26583W        W41430  17.447  16.384  10.896
26584W        W41431  15.569  15.373   0.739
26585W        W41432  16.023  11.486   1.740
26586W        W41433  19.787  19.795  13.310
26587W        W41434  14.149  12.947  14.793
26588W        W41435  14.614  19.275  10.427
26589W        W41436  17.899   1.240   4.616
26590W        W41437  18.851   2.723  13.806
26591W        W41438  16.511   0.763   3.155
26592W        W41439  12.262  10.999  14.766
26593W        W41440  15.069  11.989  10.451
26594W        W41441  14.135   3.688   2.197
26595W        W41442  13.647  18.814   2.699
26596W        W41443  17.923   5.167  13.344
26597W        W41444  14.605  17.813   4.137
26598W        W41445  14.591   5.656  11.897
26599W        W41446  13.213  11.976   4.153
26600W        W41447  13.673  11.483   5.123
26601W        W41448  14.157  10.498   3.671
26602W        W41449  12.737   0.752   2.208
26603W        W41450  17.424  10.040  10.432
26604W        W41451  19.766   7.083   5.101
26605W        W41452  17.899   1.226  12.855
26606W        W41453  17.915   1.749   5.123
26607W        W41454  14.610   7.579  10.929
26608W        W41455  17.450  13.437   0.254
26609W        W41456  13.213   5.160  11.871
26610W        W41457  19.300   3.688   1.738
26611W        W41458  13.652   3.700  11.856
26612W        W41459  13.685  10.042  12.376
26613W        W41460  18.386  19.798  12.832
26614W        W41461  13.211  18.814   1.222
26615W        W41462  16.968  13.911  10.934
26616W        W41463  18.361  17.359  14.282
26617W        W41464  19.301   4.180   3.666
26618W        W41465  15.550  16.362  11.887
26619W        W41466  19.772  12.975  12.837
26620W        W41467  14.163   0.253  13.343
26621W        W41468  14.631  13.910   3.645
26622W        W41469  15.571  10.996  14.313
26623W        W41470  18.354  13.448   3.182
26624W        W41471  13.685  19.800  12.381
26625W        W41472  19.330  16.358  14.775
26626W        W41473  16.951  14.923   0.274
26627W        W41474  16.021  17.832  11.403
26628W        W41475  15.557   1.253  11.398
26629W        W41476  16.957   3.704   1.243
26630W        W41477  15.548  16.351  12.870
26631W        W41478  18.830  13.446   0.276
26632W        W41479  18.868  18.792   1.701
26633W        W41480  19.766  14.915  10.449
26634W        W41481  12.243   0.756  14.300
26635W        W41482  14.612  14.432  13.827
26636W        W41483  12.244  13.914   4.622
26637W        W41484  15.574   6.144  11.412
26638W        W41485  12.281  12.479   3.644
26639W        W41486  13.684   7.111   2.211
26640W        W41487  14.144  11.479   1.725
26641W        W41488  13.656   2.227  10.910
26642W        W41489  14.616  10.497  12.368
26643W        W41490  18.387  16.379  13.819
26644W        W41491  12.708  12.443   2.684
26645W        W41492  14.124  11.973  10.407
26646W        W41493  17.445   1.751   3.179
26647W        W41494  16.496   1.726   2.680
26648W        W41495  17.927   1.221   2.194
26649W        W41496  16.008   7.108   5.117
26650W        W41497  12.257   9.514   0.727
26651W        W41498  18.825   6.143  10.929
26652W        W41499  12.719   3.704   4.629
26653W        W41500  17.441   9.555   1.715
26654W        W41501  16.512  13.425  12.829
26655W        W41502  12.264   5.126   3.657
26656W        W41503  19.775  18.788  13.823
26657W        W41504  12.243  12.960   0.761
26658W        W41505  14.124  12.464  12.382
26659W        W41506  15.562  10.982  12.840
26660W        W41507  15.100  10.977  10.445
26661W        W41508  17.422   6.629  12.850
26662W        W41509  16.962  19.767   4.636
26663W        W41510  17.440   0.753  11.873
26664W        W41511  19.339   1.716   0.728
26665W        W41512  12.726  18.816   3.190
26666W        W41513  13.692  19.305   3.635
26667W        W41514  12.735  10.490   0.736
26668W        W41515  19.324   4.149  10.440
26669W        W41516  16.036  19.299   2.675
26670W        W41517  16.006   1.226   4.634
26671W        W41518  17.430   0.261  13.803
26672W        W41519  18.369  10.536   2.190
26673W        W41520  16.044  13.920  14.316
26674W        W41521  16.038   5.138  11.882
26675W        W41522  14.620  18.781  11.390
26676W        W41523  16.005  15.372  12.372
26677W        W41524  13.190  15.402  13.820
26678W        W41525  15.572  10.037   0.756
26679W        W41526  18.870  17.806  13.828
26680W        W41527  16.477  12.487  11.415
26681W        W41528  13.675   5.639  10.424
26682W        W41529  15.532   0.749   0.771
26683W        W41530  16.482  18.807   2.700
26684W        W41531  19.306   5.641   4.607
26685W        W41532  12.260   7.088  14.759
26686W        W41533  17.442   0.276  10.913
26687W        W41534  13.202  15.861   1.721
26688W        W41535  18.384   3.700  14.782
26689W        W41536  18.399  14.413  11.857
26690W        W41537  18.857   8.070  11.417
26691W        W41538  15.104   5.137   4.128
26692W        W41539  14.594  14.412  10.407
26693W        W41540  16.977   7.591   2.685
26694W        W41541  12.723  18.825   9.939
26695W        W41542  16.482   0.780  10.890
26696W        W41543  16.472  16.367  11.383
26697W        W41544  16.504  18.332   4.137
26698W        W41545  14.605  12.973   2.196
26699W        W41546  18.829   5.166   1.257
26700W        W41547  18.849  10.517   4.144
26701W        W41548  14.144   9.549  13.826
26702W        W41549  12.753  10.528   3.652
26703W        W41550  16.507   4.646  11.374
26704W        W41551  14.618   0.262   4.142
26705W        W41552  17.417  19.775  12.837
26706W        W41553  19.780  14.911   4.139
26707W        W41554  12.713  11.503   1.729
26708W        W41555  18.383   2.235   3.670
26709W        W41556  17.449   8.584   3.173
26710W        W41557  16.005  15.875   2.704
26711W        W41558  16.973  11.982   1.736
26712W        W41559  13.194   2.230  12.842
26713W        W41560  18.357   6.617  10.899
26714W        W41561  19.809   2.198  12.356
26715W        W41562  17.417  16.353  11.876
26716W        W41563  16.964  18.297   4.629
26717W        W41564  18.383  11.966   0.748
26718W        W41565  12.733   2.237   9.922
26719W        W41566  14.123   0.754   3.640
26720W        W41567  19.806  19.293   4.117
26721W        W41568  14.143   3.686  10.445
26722W        W41569  19.301   1.249   0.743
26723W        W41570  15.070  18.783  13.807
26724W        W41571  14.163   3.690   3.163
26725W        W41572  16.008  15.389   0.267
26726W        W41573  18.846   6.600   0.252
26727W        W41574  17.454  19.297   0.752
26728W        W41575  19.785   6.600   0.741
26729W        W41576  18.832  13.940   1.224
26730W        W41577  17.456  13.920   0.761
26731W        W41578  17.432  13.938  10.432
26732W        W41579  17.422  19.776   2.677
26733W        W41580  14.150  18.336   1.733
26734W        W41581  12.745  14.431   2.187
26735W        W41582  15.576   2.718  14.320
26736W        W41583  13.222   1.223   3.188
26737W        W41584  12.252  13.437  14.307
26738W        W41585  14.160  11.477  13.324
26739W        W41586  19.318  11.984  13.802
26740W        W41587  18.864  15.898   3.163
26741W        W41588  15.105  13.456   3.177
26742W        W41589  14.141  19.803  13.828
26743W        W41590  18.858   5.166  11.414
26744W        W41591  14.620   6.135   4.616
26745W        W41592  15.074  19.794   0.755
26746W        W41593  16.009   4.162  13.796
26747W        W41594  17.457  15.409   4.160
26748W        W41595  18.825  13.951   0.773
26749W        W41596  17.447  18.793   1.255
26750W        W41597  17.451  15.888   1.698
26751W        W41598  18.366  12.458  11.880
26752W        W41599  16.472   8.537   4.116
26753W        W41600  19.331   8.072   5.088
26754W        W41601  13.677   4.159   0.769
26755W        W41602  12.252  12.000   0.249
26756W        W41603  12.254  15.378   3.633
26757W        W41604  16.495  17.332  10.897
26758W        W41605  14.623   7.096   3.172
26759W        W41606  16.478   1.751   1.699
26760W        W41607  12.239  11.499   9.921
26761W        W41608  12.253  12.475  11.858
26762W        W41609  15.065   5.641   4.156
26763W        W41610  17.446  18.813  11.398
26764W        W41611  15.550   4.647  11.393
26765W        W41612  12.728  10.990  13.350
26766W        W41613  13.177  18.807  14.305
26767W        W41614  19.806   4.151   1.227
26768W        W41615  15.084  16.347  10.899
26769W        W41616  13.674   1.733  12.844
26770W        W41617  14.131  17.349   4.644
26771W        W41618  16.022   6.611   9.945
26772W        W41619  14.625   3.195  12.855
26773W        W41620  14.126  17.832  11.870
26774W        W41621  13.685  12.971   2.683
26775W        W41622  12.745  13.445  14.308
26776W        W41623  15.081   2.704  11.901
26777W        W41624  16.484  12.474   2.211
26778W        W41625  18.852  19.297  10.921
26779W        W41626  18.382  11.509  12.870
26780W        W41627  16.004  10.505  12.852
26781W        W41628  17.925  19.763   1.727
26782W        W41629  16.955   5.617   0.255
26783W        W41630  15.077   3.673   0.729
26784W        W41631  12.249  19.269  12.354
26785W        W41632  17.444  16.862  10.926
26786W        W41633  12.732  13.446  11.878
26787W        W41634  17.888  17.816  14.307
26788W        W41635  17.901   8.052   2.700
26789W        W41636  14.590  10.031  13.836
26790W        W41637  12.276   9.540   5.082
26791W        W41638  15.563  12.961   1.729
26792W        W41639  16.500  18.311  10.913
26793W        W41640  16.020   7.099  12.841
26794W        W41641  17.416  15.410  14.290
26795W        W41642  19.767  12.957   4.114
26796W        W41643  19.322  13.939  14.296
26797W        W41644  16.513   2.224   0.255
26798W        W41645  12.248   0.780  11.861
26799W        W41646  14.591   5.656   0.248
26800W        W41647  18.375  17.347   0.733
26801W        W41648  16.975   8.576   2.195
26802W        W41649  13.201  16.352   5.127
26803W        W41650  16.038   0.266   4.606
26804W        W41651  15.562  18.814  10.449
26805W        W41652  14.153   6.140   2.662
26806W        W41653  19.335   7.562   4.642
26807W        W41654  16.494   0.252   4.629
26808W        W41655  13.654   6.107   0.726
26809W        W41656  19.766  19.282  13.838
26810W        W41657  15.095   0.778  13.347
26811W        W41658  13.654   2.228   9.950
26812W        W41659  15.531  12.964  14.776
26813W        W41660  17.890   7.087  13.827
26814W        W41661  15.083  17.347   3.672
26815W        W41662  12.752  17.818  11.393
26816W        W41663  16.964   3.202   4.605
26817W        W41664  13.189   2.215   0.747
26818W        W41665  15.548   5.134  14.310
26819W        W41666  13.677  13.462   1.210
26820W        W41667  16.478   9.533  14.785
26821W        W41668  16.984  10.502   3.646
26822W        W41669  18.394  15.380  11.863
26823W        W41670  16.495   8.094  12.373
26824W        W41671  18.392   1.735  13.830
26825W        W41672  16.961  18.822   4.140
26826W        W41673  13.651   9.066   1.253
26827W        W41674  15.545   5.160   4.614
26828W        W41675  12.728   5.144  12.846
26829W        W41676  12.707   6.142  10.435
26830W        W41677  13.206  17.810  13.349
26831W        W41678  19.799   8.079   3.177
26832W        W41679  16.507  13.922   1.258
26833W        W41680  16.973  13.916  13.316
26834W        W41681  15.078  12.966   0.272
26835W        W41682  19.776   0.751   0.246
26836W        W41683  13.656  10.043   3.647
26837W        W41684  16.028   5.654   0.736
26838W        W41685  18.371   0.763   3.646
26839W        W41686  16.512   2.225   1.230
26840W        W41687  13.690   4.660  10.919
26841W        W41688  13.667  14.903  11.889
26842W        W41689  17.455  18.829   0.760
26843W        W41690  19.332   2.231   0.266
26844W        W41691  15.543   9.553   0.749
26845W        W41692  16.020   6.101   2.225
26846W        W41693  13.179  12.482   3.161
26847W        W41694  14.159   5.164  12.365
26848W        W41695  19.771  12.479  10.895
26849W        W41696  16.482   7.075  12.350
26850W        W41697  16.956  17.806  11.372
26851W        W41698  16.506   7.110  12.839
26852W        W41699  17.910  10.511  13.817
26853W        W41700  19.336   4.183  12.825
26854W        W41701  16.971   7.121  10.411
26855W        W41702  16.018   0.253  11.864
26856W        W41703  16.969  18.797  12.373
26857W        W41704  16.045  18.814   0.244
26858W        W41705  16.473  16.830   0.766
26859W        W41706  18.829   8.079   2.209
26860W        W41707  17.912  17.332   4.607
26861W        W41708  13.650  18.813   2.185
26862W        W41709  15.547   4.174  14.305
26863W        W41710  16.494  13.910  10.443
26864W        W41711  17.896  13.933   4.130
26865W        W41712  13.191  11.976  12.370
26866W        W41713  19.324   4.161   1.721
26867W        W41714  14.623  10.506   1.703
26868W        W41715  15.088  13.450   2.183
26869W        W41716  16.983  15.892  14.763
26870W        W41717  17.926  14.926  10.428
26871W        W41718  16.031   3.703  14.783
26872W        W41719  15.571   1.716   3.159
26873W        W41720  13.212  12.973  10.431
26874W        W41721  19.307  11.991  12.862
26875W        W41722  16.023   4.151  12.823
26876W        W41723  19.323  19.286  13.791
26877W        W41724  18.825  11.507   2.698
26878W        W41725  18.379  15.372   3.676
26879W        W41726  16.957   7.593   1.713
26880W        W41727  16.501  12.965   0.247
26881W        W41728  15.084  13.938   5.108
26882W        W41729  19.781  11.969  10.921
26883W        W41730  18.856   4.654   3.190
26884W        W41731  14.611  10.530   4.638
26885W        W41732  19.336  15.367   4.137
26886W        W41733  13.209  13.456  14.321
26887W        W41734  13.677   8.537   1.214
26888W        W41735  19.339  19.802   2.208
26889W        W41736  17.896  19.761  11.372
26890W        W41737  18.861   3.177  10.444
26891W        W41738  19.769  10.500   1.228
26892W        W41739  19.778   8.543   1.219
26893W        W41740  19.778  14.391  14.804
26894W        W41741  18.852   7.606   4.150
26895W        W41742  12.744   9.514   1.704
26896W        W41743  19.304   6.125   0.281
26897W        W41744  15.077  17.363   0.286
26898W        W41745  18.863  19.307  12.353
26899W        W41746  12.733  12.464  10.895
26900W        W41747  19.321   7.609   3.171
26901W        W41748  13.219   8.096  11.888
26902W        W41749  13.665  12.459   3.186
26903W        W41750  16.028   9.554   2.668
26904W        W41751  17.898  13.451  11.870
26905W        W41752  12.277  17.361  12.364
26906W        W41753  12.736   5.644   3.173
26907W        W41754  16.477  16.843  13.803
26908W        W41755  12.257  10.489   0.278
26909W        W41756  13.677  15.859   3.148
26910W        W41757  18.381   9.041  11.892
26911W        W41758  12.727   9.071   3.169
26912W        W41759  13.194  19.276  12.842
26913W        W41760  18.832  14.880  14.771
26914W        W41761  13.679   4.635   3.181
26915W        W41762  12.734  14.437   5.097
26916W        W41763  14.152  16.851   1.702
26917W        W41764  13.672   8.582   0.761
26918W        W41765  15.081   9.051  12.855
26919W        W41766  16.975   0.780  13.799
26920W        W41767  19.319   4.192   9.966
26921W        W41768  18.392  14.927   0.253
26922W        W41769  13.177  17.324   3.187
26923W        W41770  15.102  13.428   0.733
26924W        W41771  15.538   2.710   0.758
26925W        W41772  16.513   3.172   0.770
26926W        W41773  14.146  12.450  10.925
26927W        W41774  13.211  11.502  12.359
26928W        W41775  13.690  12.440   4.116
26929W        W41776  19.307   1.268   0.256
26930W        W41777  14.627  12.942  10.904
26931W        W41778  12.748   7.105  10.446
26932W        W41779  13.656   2.726   1.226
26933W        W41780  16.508   2.697  12.846
26934W        W41781  16.944  12.445  13.318
26935W        W41782  13.203   7.569  12.853
26936W        W41783  19.317   8.052  10.893
26937W        W41784  16.506   7.568   4.632
26938W        W41785  16.955   7.093  11.394
26939W        W41786  17.454   0.751  13.316
26940W        W41787  12.745  14.907   4.628
26941W        W41788  14.120   0.779   2.702
26942W        W41789  13.673  17.831   0.261
26943W        W41790  19.338   8.543   3.182
26944W        W41791  18.851  10.495  10.932
26945W        W41792  15.064  15.893   0.730
26946W        W41793  16.026   7.083  11.385
26947W        W41794  16.512  11.976   2.671
26948W        W41795  12.254   5.635  13.813
26949W        W41796  17.898  10.983   4.114
26950W        W41797  16.969   8.571  12.366
26951W        W41798  15.059  11.000   4.632
26952W        W41799  18.847  17.842  12.352
26953W        W41800  15.069   2.729  11.371
26954W        W41801  12.715  16.363  12.841
26955W        W41802  14.145   5.637  14.278
26956W        W41803  16.014  10.521   3.652
26957W        W41804  13.189  10.047  12.854
26958W        W41805  18.848  17.837   3.674
26959W        W41806  16.943  11.969   2.203
26960W        W41807  14.161  14.413  12.831
26961W        W41808  18.398  12.969   4.136
26962W        W41809  14.140   5.151   2.207
26963W        W41810  16.047   2.226   4.632
26964W        W41811  13.183   9.034  10.420
26965W        W41812  17.910   2.712  14.793
26966W        W41813  15.073  11.952   4.605
26967W        W41814  15.084   6.604   4.609
26968W        W41815  16.486  15.861  13.795
26969W        W41816  16.010   4.675   0.736
26970W        W41817  15.100   7.590  14.284
26971W        W41818  12.248   4.156   2.662
26972W        W41819  12.711  15.384   2.684
26973W        W41820  12.747   9.072   1.727
26974W        W41821  18.395   7.589  13.795
26975W        W41822  14.603  19.790  13.811
26976W        W41823  16.950   0.252  12.853
26977W        W41824  14.622  16.871   0.279
26978W        W41825  12.738  16.389  14.312
26979W        W41826  17.446   7.580   3.193
26980W        W41827  16.974  18.801   2.682
26981W        W41828  14.132   2.691   9.927
26982W        W41829  18.845   6.629   0.732
26983W        W41830  16.973  11.020   3.166
26984W        W41831  19.769  13.445  11.891
26985W        W41832  17.908   7.590  13.319
26986W        W41833  16.045   5.622  12.359
26987W        W41834  16.953  17.832  10.404
26988W        W41835  18.846   0.283   1.738
26989W        W41836  19.324   8.051   3.652
26990W        W41837  15.564  16.841  10.905
26991W        W41838  19.296   4.652  10.421
26992W        W41839  19.775  14.912  14.769
26993W        W41840  13.207   2.227   3.662
26994W        W41841  19.325  12.487  11.394
26995W        W41842  12.261   4.165  11.892
26996W        W41843  16.503   6.119  11.889
26997W        W41844  13.649   5.631  10.897
26998W        W41845  12.725   1.239  12.360
26999W        W41846  12.709  13.933   3.676
27000W        W41847  15.562   6.103   4.605
27001W        W41848  16.016   4.175   1.733
27002W        W41849  16.962   8.079  12.845
27003W        W41850  16.038  19.785  14.797
27004W        W41851  14.149  19.313  10.917
27005W        W41852  14.156   6.124   3.165
27006W        W41853  19.323  12.974   2.222
27007W        W41854  14.155  17.363   2.707
27008W        W41855  16.001   0.256  13.792
27009W        W41856  16.946  10.512   4.614
27010W        W41857  18.354   3.672  13.834
27011W        W41858  12.717  11.977   2.218
27012W        W41859  17.419   8.553   2.676
27013W        W41860  15.084  19.275  11.880
27014W        W41861  13.186   1.249   1.234
27015W        W41862  13.188  10.040  11.416
27016W        W41863  16.014  15.862   4.121
27017W        W41864  15.562  10.987  13.311
27018W        W41865  13.659   1.711  13.792
27019W        W41866  19.788   6.615  10.929
27020W        W41867  19.766  15.398   3.167
27021W        W41868  15.562  11.977   9.959
27022W        W41869  14.615   9.532   1.257
27023W        W41870  19.787   1.246   2.189
27024W        W41871  12.251   3.180   0.269
27025W        W41872  18.827   0.770  11.410
27026W        W41873  18.869   4.185   3.677
27027W        W41874  12.238  13.932   2.706
27028W        W41875  18.842   2.729  11.387
27029W        W41876  15.538  19.799  14.301
27030W        W41877  18.841   7.122   4.641
27031W        W41878  19.334  14.916  14.785
27032W        W41879  19.774   2.238   2.671
27033W        W41880  13.657   6.607  10.928
27034W        W41881  17.432   7.595   2.179
27035W        W41882  19.311  11.953  10.891
27036W        W41883  16.034  15.412   2.696
27037W        W41884  14.615   6.143  12.385
27038W        W41885  12.270  11.971   2.686
27039W        W41886  14.624   1.235   3.149
27040W        W41887  15.541   1.229   1.245
27041W        W41888  18.370  17.850  11.865
27042W        W41889  18.851   1.750  12.867
27043W        W41890  19.802   9.556  10.911
27044W        W41891  18.391   1.724   3.665
27045W        W41892  16.496   9.527   0.263
27046W        W41893  12.243   6.110   0.766
27047W        W41894  13.685  17.346   3.672
27048W        W41895  14.153  17.358  14.798
27049W        W41896  14.607  12.942  11.387
27050W        W41897  15.076  10.028  12.853
27051W        W41898  19.770   1.255  10.903
27052W        W41899  16.514  12.942   1.239
27053W        W41900  18.831  19.800  13.802
27054W        W41901  13.195  13.945   4.158
27055W        W41902  16.491  10.989   0.256
27056W        W41903  12.260  10.978   2.681
27057W        W41904  13.178  11.471   0.735
27058W        W41905  14.149   4.155  10.450
27059W        W41906  14.149   7.562  11.882
27060W        W41907  15.082  13.446  14.288
27061W        W41908  19.774   1.249  14.788
27062W        W41909  18.828  11.017   3.147
27063W        W41910  12.740   6.618   3.673
27064W        W41911  16.479  13.919   1.736
27065W        W41912  12.734   3.692   2.222
27066W        W41913  15.557  19.311  11.389
27067W        W41914  16.969  18.335   2.197
27068W        W41915  18.357  17.828   0.289
27069W        W41916  17.415  12.959  11.386
27070W        W41917  14.626   5.623  12.376
27071W        W41918  13.653   1.253  11.903
27072W        W41919  17.898  19.797  13.807
27073W        W41920  19.790   4.680   2.671
27074W        W41921  14.161   5.610  10.408
27075W        W41922  17.922  11.973   0.749
27076W        W41923  12.243  12.952   3.149
27077W        W41924  16.970   5.616   1.716
27078W        W41925  13.208   1.245   2.218
27079W        W41926  16.044  10.019   0.245
27080W        W41927  17.448   8.053  12.836
27081W        W41928  18.859  10.037   3.637
27082W        W41929  14.156   2.704  12.847
27083W        W41930  15.076  11.020   1.217
27084W        W41931  16.045   7.584  14.300
27085W        W41932  14.147   0.289   5.113
27086W        W41933  19.805   6.611  14.286
27087W        W41934  14.153   8.584   2.209
27088W        W41935  12.279   8.081  13.813
27089W        W41936  13.665   9.054   3.168
27090W        W41937  14.621  16.370   2.215
27091W        W41938  18.388  16.385  14.321
27092W        W41939  17.435   9.056  14.302
27093W        W41940  19.321  19.275  11.894
27094W        W41941  16.982   4.166   2.187
27095W        W41942  18.387   5.621   0.288
27096W        W41943  18.861   0.770  10.449
27097W        W41944  16.498   0.251  10.932
27098W        W41945  18.842  14.908   1.733
27099W        W41946  17.889  10.503  14.282
27100W        W41947  13.669  14.435   0.277
27101W        W41948  14.150  14.421   0.738
27102W        W41949  14.602   4.635   4.152
27103W        W41950  12.718  18.338   2.195
27104W        W41951  13.671   8.554   4.160
27105W        W41952  13.670   7.570  14.772
27106W        W41953  12.723  12.959   0.267
27107W        W41954  18.385   1.709   1.736
27108W        W41955  19.301  18.338   0.269
27109W        W41956  17.441   8.078  13.307
27110W        W41957  16.042  14.433   0.258
27111W        W41958  16.955   3.181  12.864
27112W        W41959  14.602   6.103  13.815
27113W        W41960  19.797  10.036   2.209
27114W        W41961  16.979  11.963  14.280
27115W        W41962  18.861   5.137   4.618
27116W        W41963  12.276  12.446   3.173
27117W        W41964  16.033  12.472  10.894
27118W        W41965  12.746  10.526   1.247
27119W        W41966  12.244  17.841  13.838
27120W        W41967  15.091   6.596  12.840
27121W        W41968  12.280   2.244   0.759
27122W        W41969  16.038  10.004  11.396
27123W        W41970  12.743  18.306   0.245
27124W        W41971  13.687  12.948   3.648
27125W        W41972  12.737   8.093   5.108
27126W        W41973  16.983  12.967  13.828
27127W        W41974  15.071  19.299  11.382
27128W        W41975  17.914   6.114   1.232
27129W        W41976  15.081  17.328   9.962
27130W        W41977  12.268   7.576  13.328
27131W        W41978  19.325  18.299  11.413
27132W        W41979  15.083   7.119   5.098
27133W        W41980  15.534   0.280   3.631
27134W        W41981  15.103  14.881  13.829
27135W        W41982  18.387   6.101   2.696
27136W        W41983  17.422   4.164  13.828
27137W        W41984  12.266   8.060  14.293
27138W        W41985  19.333   8.568   0.771
27139W        W41986  13.674  10.498  12.383
27140W        W41987  13.692  11.971   0.275
27141W        W41988  13.203  18.317  13.826
27142W        W41989  13.199  18.791   4.129
27143W        W41990  18.850   0.280  13.319
27144W        W41991  12.251  10.521  14.775
27145W        W41992  15.064   1.723   3.183
27146W        W41993  16.501  15.878   0.265
27147W        W41994  12.243   6.592   4.642
27148W        W41995  17.432  11.024   3.669
27149W        W41996  18.353  12.970   1.225
27150W        W41997  16.480  18.332   2.184
27151W        W41998  14.140   9.049  12.828
27152W        W41999  13.689  13.941   3.187
27153W        W42000  17.886  11.000  13.343
27154W        W42001  16.031   5.650  11.891
27155W        W42002  19.798  12.450   3.153
27156W        W42003  18.359   6.633   3.155
27157W        W42004  16.517   2.216   4.611
27158W        W42005  14.138  19.757  14.793
27159W        W42006  16.476  14.895   3.641
27160W        W42007  17.898   8.070   0.273
27161W        W42008  18.837  10.010  11.887
27162W        W42009  16.967   5.133   0.738
27163W        W42010  17.913  18.825   2.216
27164W        W42011  16.502   4.191  12.832
27165W        W42012  14.138  12.935   1.739
27166W        W42013  16.987  14.921  14.797
27167W        W42014  19.304   3.671   0.256
27168W        W42015  19.339  17.354  13.336
27169W        W42016  16.980  19.315  14.322
27170W        W42017  12.274  10.520  10.894
27171W        W42018  17.451  11.959   1.247
27172W        W42019  18.365  15.411   2.678
27173W        W42020  18.860   4.659   4.120
27174W        W42021  17.925   0.759  11.399
27175W        W42022  19.336  16.840   4.622
27176W        W42023  12.250   9.525   3.183
27177W        W42024  16.011   8.076  10.908
27178W        W42025  12.247   4.647  14.802
27179W        W42026  15.105   5.615  14.296
27180W        W42027  19.807  15.899  10.428
27181W        W42028  17.928   0.282  14.806
27182W        W42029  18.380  12.947  10.891
27183W        W42030  19.296   7.110   3.168
27184W        W42031  12.238  18.294   0.262
27185W        W42032  15.060  17.350   2.178
27186W        W42033  19.798  12.939  11.401
27187W        W42034  13.218   9.515   3.650
27188W        W42035  14.623   7.075  11.381
27189W        W42036  17.909   4.176  11.893
27190W        W42037  16.479   4.665  10.413
27191W        W42038  12.712   5.650   2.682
27192W        W42039  18.827  15.887  13.344
27193W        W42040  15.548   8.585  13.312
27194W        W42041  15.540  10.028  12.850
27195W        W42042  13.689  11.489  14.314
27196W        W42043  13.207   7.578  11.900
27197W        W42044  18.829  14.890  11.857
27198W        W42045  19.789  17.816  11.397
27199W        W42046  12.253  14.416   3.647
27200W        W42047  17.455  14.413   3.630
27201W        W42048  15.576   4.177  12.835
27202W        W42049  19.322   0.761  11.409
27203W        W42050  12.712   2.725   4.161
27204W        W42051  12.738   0.288  13.832
27205W        W42052  16.961   2.200   0.764
27206W        W42053  15.073  11.000   3.161
27207W        W42054  19.793   0.743  10.896
27208W        W42055  16.483   9.069  12.857
27209W        W42056  13.679   2.242   0.733
27210W        W42057  16.021   0.747  14.297
27211W        W42058  19.336   9.073   0.282
27212W        W42059  12.731  18.338   0.737
27213W        W42060  12.271   7.588   5.104
27214W        W42061  17.453  13.454   1.714
27215W        W42062  16.985  13.948  14.764
27216W        W42063  18.370  15.855  13.335
27217W        W42064  17.437   2.230   2.675
27218W        W42065  16.492   6.146   1.213
27219W        W42066  16.489  11.010   0.767
27220W        W42067  13.189  19.304   1.250
27221W        W42068  17.448   7.101   4.133
27222W        W42069  16.479  11.465  12.868
27223W        W42070  19.774  11.018   4.597
27224W        W42071  15.088   0.289   2.196
27225W        W42072  16.949   7.114  13.816
27226W        W42073  17.443   3.188  13.824
27227W        W42074  19.806  15.415   2.698
27228W        W42075  16.948  14.908   2.685
27229W        W42076  16.471   9.055  13.318
27230W        W42077  19.802  19.785  13.815
27231W        W42078  14.139  13.441   1.247
27232W        W42079  19.309   6.138  10.445
27233W        W42080  13.663  19.269  11.873
27234W        W42081  13.691   9.513   2.687
27235W        W42082  12.722  19.278   4.613
27236W        W42083  15.080   5.158  10.437
27237W        W42084  17.416   5.642   9.967
27238W        W42085  16.044  15.898  11.857
27239W        W42086  14.125  10.531   3.147
27240W        W42087  19.299  19.774  13.830
27241W        W42088  12.718  16.838   0.262
27242W        W42089  15.068   4.676  10.437
27243W        W42090  14.602  15.380  10.911
27244W        W42091  13.667  17.833  14.794
27245W        W42092  14.130   9.526  11.873
27246W        W42093  12.723   6.587   9.924
27247W        W42094  14.130   9.516  10.420
27248W        W42095  12.714   5.163  10.429
27249W        W42096  19.786   9.514   0.737
27250W        W42097  16.974  12.439   1.219
27251W        W42098  19.333  18.802   2.197
27252W        W42099  19.789  13.442  11.418
27253W        W42100  14.603   9.046   1.211
27254W        W42101  15.545   4.683   1.228
27255W        W42102  15.550   6.603   3.188
27256W        W42103  18.825   3.180  14.283
27257W        W42104  15.059   5.654   1.238
27258W        W42105  15.550   4.148  14.771
27259W        W42106  12.725   2.234   1.218
27260W        W42107  16.032   1.744   2.699
27261W        W42108  17.903  19.280  11.880
27262W        W42109  13.190   8.575   0.749
27263W        W42110  18.384   7.116  13.792
27264W        W42111  17.441  18.824   3.179
27265W        W42112  17.454  18.334   3.168
27266W        W42113  16.473  10.045   2.704
27267W        W42114  16.487  11.002   3.148
27268W        W42115  18.839  14.434   2.182
27269W        W42116  13.669  13.931   2.190
27270W        W42117  14.624  19.311  13.826
27271W        W42118  19.298  11.501  10.427
27272W        W42119  12.245   8.083  10.904
27273W        W42120  19.339   5.633   5.108
27274W        W42121  15.549  17.844   3.634
27275W        W42122  16.038  12.488  13.793
27276W        W42123  18.378   7.107   9.927
27277W        W42124  13.658  13.948  13.351
27278W        W42125  19.803  12.483   2.212
27279W        W42126  15.562  18.817   3.179
27280W        W42127  13.669   2.218  12.868
27281W        W42128  12.714  10.022  10.425
27282W        W42129  14.611   0.758  12.834
27283W        W42130  13.203  14.894  11.895
27284W        W42131  13.217   3.689   4.160
27285W        W42132  14.592   1.224  13.801
27286W        W42133  19.304   9.528   1.241
27287W        W42134  12.247  14.917  14.769
27288W        W42135  18.839   0.776  13.790
27289W        W42136  16.513  11.971   1.694
27290W        W42137  14.149   0.285   0.280
27291W        W42138  17.907  11.012  14.317
27292W        W42139  18.858   9.065   3.646
27293W        W42140  16.045   2.693   0.289
27294W        W42141  18.356  11.994  10.444
27295W        W42142  17.902  10.510   4.127
27296W        W42143  13.205   8.097  13.794
27297W        W42144  16.008  13.941   2.694
27298W        W42145  18.377   0.273   4.613
27299W        W42146  19.768   4.664   0.743
27300W        W42147  12.726  13.453   5.109
27301W        W42148  17.928   2.730   2.667
27302W        W42149  17.435  14.391   2.706
27303W        W42150  14.635   0.261  14.311
27304W        W42151  14.623  13.458  10.918
27305W        W42152  14.162  11.017   5.127
27306W        W42153  15.568  11.996  12.839
27307W        W42154  19.332   8.555   4.612
27308W        W42155  13.671   5.634  11.858
27309W        W42156  17.914   4.188   2.209
27310W        W42157  17.885   6.108  10.928
27311W        W42158  17.920  15.395   1.218
27312W        W42159  13.670   6.143   3.193
27313W        W42160  17.903   5.132   0.766
27314W        W42161  15.531   5.160   2.211
27315W        W42162  14.131   2.203   2.206
27316W        W42163  18.870   8.055   4.634
27317W        W42164  19.769   4.173  10.425
27318W        W42165  12.741   4.640   0.759
27319W        W42166  16.948   0.283   3.638
27320W        W42167  14.611  15.881  12.828
27321W        W42168  14.627   7.603   3.155
27322W        W42169  13.685  12.969  13.797
27323W        W42170  16.474   6.618  11.878
27324W        W42171  16.042  10.030   2.189
27325W        W42172  16.047  15.384   3.677
27326W        W42173  14.160  14.407  13.806
27327W        W42174  16.975   0.245   0.248
27328W        W42175  17.927   1.251   1.705
27329W        W42176  13.220   6.104   1.699
27330W        W42177  13.217  19.286  13.345
27331W        W42178  16.509  19.776   0.773
27332W        W42179  15.564  10.027   1.741
27333W        W42180  14.142  17.827  14.780
27334W        W42181  14.599  18.313   3.184
27335W        W42182  17.427   1.726   4.160
27336W        W42183  13.185  12.484  11.377
27337W        W42184  13.668  17.824   2.663
27338W        W42185  16.002   5.640  13.329
27339W        W42186  14.617  11.987  13.324
27340W        W42187  13.682   2.705   2.223
27341W        W42188  12.243   6.141  10.923
27342W        W42189  18.364  14.393   0.763
27343W        W42190  16.014  13.922   3.149
27344W        W42191  14.162   2.730  13.342
27345W        W42192  13.667  13.938  11.380
27346W        W42193  14.129  12.930   2.205
27347W        W42194  17.417  16.385  10.405
27348W        W42195  19.298  19.801   2.703
27349W        W42196  19.304   5.646  11.896
27350W        W42197  18.853  10.048  10.906
27351W        W42198  14.122   9.063  10.904
27352W        W42199  13.679   5.168   4.640
27353W        W42200  13.692  10.044   3.156
27354W        W42201  15.554  18.297  11.878
27355W        W42202  16.510   8.067   4.119
27356W        W42203  18.846   6.110  10.428
27357W        W42204  16.956   1.252   5.115
27358W        W42205  16.973  12.474  10.409
27359W        W42206  12.266   1.244   2.683
27360W        W42207  12.736  19.797   0.287
27361W        W42208  15.102   7.576  10.419
27362W        W42209  12.269  17.838   1.257
27363W        W42210  15.074  18.339   2.678
27364W        W42211  19.810   6.146  14.298
27365W        W42212  13.658   0.287   3.158
27366W        W42213  17.413   5.145   1.706
27367W        W42214  18.836  12.484  13.809
27368W        W42215  18.836  13.946  11.399
27369W        W42216  15.088   4.661   4.618
27370W        W42217  16.946   3.186   1.252
27371W        W42218  15.077   8.569  11.864
27372W        W42219  12.725   2.728  11.895
27373W        W42220  18.826  15.890  14.295
27374W        W42221  17.895   8.574   1.215
27375W        W42222  15.100  11.021   1.696
27376W        W42223  15.568  10.048  14.291
27377W        W42224  14.620  12.965  13.336
27378W        W42225  13.662   5.151   2.182
27379W        W42226  18.366   9.519  12.833
27380W        W42227  13.187   6.143   2.223
27381W        W42228  18.391  16.847   2.211
27382W        W42229  12.236   3.701  10.418
27383W        W42230  14.626   9.515   0.739
27384W        W42231  18.850  12.948  10.894
27385W        W42232  14.600  16.358  13.337
27386W        W42233  15.092   7.087  11.387
27387W        W42234  18.854  12.932   2.699
27388W        W42235  15.088   1.735  11.411
27389W        W42236  16.507  11.974  10.425
27390W        W42237  13.682   4.175  12.843
27391W        W42238  12.732  12.938  13.791
27392W        W42239  19.321  13.452   4.624
27393W        W42240  17.885   3.205   2.674
27394W        W42241  13.200  11.495   3.662
27395W        W42242  15.060  15.410   3.188
27396W        W42243  14.136   0.281   3.193
27397W        W42244  12.752  18.798   0.735
27398W        W42245  12.732  11.984  11.391
27399W        W42246  14.609  18.797   3.645
27400W        W42247  16.001   9.561   0.257
27401W        W42248  13.202  17.841   4.607
27402W        W42249  12.266  12.928   1.701
27403W        W42250  15.077  14.406   1.233
27404W        W42251  18.865  16.869   0.770
27405W        W42252  14.616   9.030   3.665
27406W        W42253  15.079  14.401  13.804
27407W        W42254  16.950   4.180  10.417
27408W        W42255  18.384   4.166   3.174
27409W        W42256  19.789  15.392   0.256
27410W        W42257  19.329   7.076   4.638
27411W        W42258  12.276   7.109  13.332
27412W        W42259  12.745   8.074  13.801
27413W        W42260  14.613  18.308   4.121
27414W        W42261  15.550   6.140   3.668
27415W        W42262  12.279   1.240  13.791
27416W        W42263  16.477   7.087   2.697
27417W        W42264  14.627  12.469  12.365
27418W        W42265  16.012   3.174  10.889
27419W        W42266  14.158   1.251  11.413
27420W        W42267  14.159   7.109  12.830
27421W        W42268  16.510  16.388  13.798
27422W        W42269  16.502  16.831  14.275
27423W        W42270  13.648  15.857  10.917
27424W        W42271  14.141  14.901   3.183
27425W        W42272  12.722  13.936  13.325
27426W        W42273  14.155  13.921  14.315
27427W        W42274  18.825   0.774  10.920
27428W        W42275  17.448  18.823   1.706
27429W        W42276  17.444   3.668   1.255
27430W        W42277  17.419   8.547  14.764
27431W        W42278  16.973  15.859   0.741
27432W        W42279  19.797   5.621   1.214
27433W        W42280  17.435  10.013  13.810
27434W        W42281  16.981   1.733  14.792
27435W        W42282  19.305   7.084   9.924
27436W        W42283  15.088   8.561   3.152
27437W        W42284  16.496  14.407   3.162
27438W        W42285  12.751   5.170   3.653
27439W        W42286  15.537  16.381  10.928
27440W        W42287  16.955   8.052   2.670
27441W        W42288  19.308   7.120  10.916
27442W        W42289  18.373  18.305   1.700
27443W        W42290  18.374  16.379  12.357
27444W        W42291  12.709   1.256  13.328
27445W        W42292  17.436  15.388  10.928
27446W        W42293  13.219   3.667   1.250
27447W        W42294  17.442  12.941   1.733
27448W        W42295  12.707   7.107  14.802
27449W        W42296  18.360   9.518  10.414
27450W        W42297  18.370  14.422  12.383
27451W        W42298  19.782   5.652  10.927
27452W        W42299  14.130  15.856  12.356
27453W        W42300  14.119   5.647   1.694
27454W        W42301  18.393   0.269  12.866
27455W        W42302  19.793  14.416  10.440
27456W        W42303  15.576  19.803  12.355
27457W        W42304  18.867   2.701  10.901
27458W        W42305  12.247  16.347   5.118
27459W        W42306  15.099  16.842   1.258
27460W        W42307  13.192   1.750  11.380
27461W        W42308  14.150  13.432  14.802
27462W        W42309  16.482  13.461   1.699
27463W        W42310  14.610   9.059  12.823
27464W        W42311  17.420  10.490  13.834
27465W        W42312  18.386   8.574   3.658
27466W        W42313  17.898  10.991  12.375
27467W        W42314  12.728   5.168   1.718
27468W        W42315  17.918   9.047   3.655
27469W        W42316  14.162  12.480   2.182
27470W        W42317  17.916   3.201  11.382
27471W        W42318  12.738   1.732  12.861
27472W        W42319  14.622   5.152   1.248
27473W        W42320  16.474  11.963   2.191
27474W        W42321  15.083   8.092   0.276
27475W        W42322  12.236  11.470   3.631
27476W        W42323  16.517  11.957   0.288
27477W        W42324  16.984  19.288   4.113
27478W        W42325  14.635   5.166  14.319
27479W        W42326  17.884  18.306   3.672
27480W        W42327  18.841  11.982   3.165
27481W        W42328  16.473   1.254  10.898
27482W        W42329  13.191  11.508   1.730
27483W        W42330  16.942  18.804   3.185
27484W        W42331  15.542  15.369   1.705
27485W        W42332  16.038  19.764  11.883
27486W        W42333  19.315   5.166   2.190
27487W        W42334  14.598   9.523  12.832
27488W        W42335  15.085  18.333  11.866
27489W        W42336  13.180  14.905   3.647
27490W        W42337  18.384  18.806   2.188
27491W        W42338  18.832   5.623  10.436
27492W        W42339  16.021  11.975  14.800
27493W        W42340  14.624  10.513   2.188
27494W        W42341  16.486   6.105  11.415
27495W        W42342  16.985  17.340   4.128
27496W        W42343  13.687  19.300   2.181
27497W        W42344  18.390   2.728  14.316
27498W        W42345  13.216   7.608   4.155
27499W        W42346  18.356   8.080  10.931
27500W        W42347  17.451  19.271  13.835
27501W        W42348  12.275   9.029   3.168
27502W        W42349  12.239  13.931   2.212
27503W        W42350  19.339   8.561  10.892
27504W        W42351  16.986   5.132   1.216
27505W        W42352  16.982   4.672  12.357
27506W        W42353  14.601   0.261  10.405
27507W        W42354  19.789   8.074  10.446
27508W        W42355  12.245  14.883   2.182
27509W        W42356  16.005  10.988   4.138
27510W        W42357  16.508  16.358  14.304
27511W        W42358  16.026  15.890  14.760
27512W        W42359  16.021  17.346  13.347
27513W        W42360  14.604   8.071  12.865
27514W        W42361  16.500   1.732  12.370
27515W        W42362  16.504  16.386   1.694
27516W        W42363  16.491  13.930   2.707
27517W        W42364  13.661  18.309  14.775
27518W        W42365  18.867   6.119  14.763
27519W        W42366  18.845  17.337   3.149
27520W        W42367  16.023  16.348  14.322
27521W        W42368  18.360  13.415   0.761
27522W        W42369  13.672   7.088   0.272
27523W        W42370  17.413  13.428   4.645
27524W        W42371  19.791   8.581  13.321
27525W        W42372  18.395   5.157  11.903
27526W        W42373  16.961   1.232   2.182
27527W        W42374  19.803   9.073  10.425
27528W        W42375  13.186   7.577   2.672
27529W        W42376  16.942  11.499   5.102
27530W        W42377  19.333   9.058  11.385
27531W        W42378  16.513   4.636   4.624
27532W        W42379  17.915   1.707   0.737
27533W        W42380  19.804   7.117   4.608
27534W        W42381  17.904  12.938   2.177
27535W        W42382  16.984  18.317   2.662
27536W        W42383  16.499   0.268   1.724
27537W        W42384  19.766  11.483  13.330
27538W        W42385  18.860   6.609   1.258
27539W        W42386  18.869   9.066   2.703
27540W        W42387  13.683   6.107   1.239
27541W        W42388  15.542  12.964   2.692
27542W        W42389  14.625   0.750  12.366
27543W        W42390  15.562   1.236  12.367
27544W        W42391  19.328  10.038  11.878
27545W        W42392  12.246   2.228  13.824
27546W        W42393  14.145   1.250   3.177
27547W        W42394  18.396   8.552   0.282
27548W        W42395  15.544  16.372   4.115
27549W        W42396  16.482  18.813  12.366
27550W        W42397  19.306  15.392   3.676
27551W        W42398  18.394   1.756  14.760
27552W        W42399  16.490  17.844  13.818
27553W        W42400  17.458  14.913   4.610
27554W        W42401  13.683   8.071   1.246
27555W        W42402  19.307   9.070   3.189
27556W        W42403  16.511  11.990  13.831
27557W        W42404  18.850   1.251  11.890
27558W        W42405  17.892   4.660  11.899
27559W        W42406  14.138   6.592  14.790
27560W        W42407  16.971   4.683  13.833
27561W        W42408  14.619  10.036   5.096
27562W        W42409  14.152  18.302   2.196
27563W        W42410  15.097   0.739   4.157
27564W        W42411  14.144  19.799  11.893
27565W        W42412  15.568  15.870  13.793
27566W        W42413  17.890  18.787  14.306
27567W        W42414  14.603   4.153   3.182
27568W        W42415  15.559  12.447   3.629
27569W        W42416  19.788  13.416   3.640
27570W        W42417  16.985  17.349  11.408
27571W        W42418  15.545  11.953  10.928
27572W        W42419  18.366  16.848   4.630
27573W        W42420  17.919   3.207   4.612
27574W        W42421  17.449   2.226  14.787
27575W        W42422  18.365   9.047   1.714
27576W        W42423  16.974  15.377  14.308
27577W        W42424  16.966   3.694   2.183
27578W        W42425  16.518   8.546   2.710
27579W        W42426  15.094   3.190  12.852
27580W        W42427  15.070  11.953  11.375
27581W        W42428  16.036  10.033   3.147
27582W        W42429  13.209   0.761   0.748
27583W        W42430  13.649  16.348   0.733
27584W        W42431  13.675  14.404  10.915
27585W        W42432  19.777  10.012   4.115
27586W        W42433  17.899   7.087   2.667
27587W        W42434  16.953   5.156  11.857
27588W        W42435  18.398  18.793  10.426
27589W        W42436  15.068   0.247   5.112
27590W        W42437  17.431   5.163  12.863
27591W        W42438  16.471  12.466  14.787
27592W        W42439  19.317  14.894  12.341
27593W        W42440  15.093   5.136   0.253
27594W        W42441  14.163  17.321  13.833
27595W        W42442  19.323  16.850  13.317
27596W        W42443  13.667   3.660  14.782
27597W        W42444  16.947  10.989  14.281
27598W        W42445  19.334  11.502  11.404
27599W        W42446  17.928   4.678  12.863
27600W        W42447  17.457  17.841  10.912
27601W        W42448  16.507   6.130   4.608
27602W        W42449  12.258   5.652   4.146
27603W        W42450  12.242   5.141  13.329
27604W        W42451  15.560   3.664  11.879
27605W        W42452  15.082   5.645  12.357
27606W        W42453  14.607   7.584  14.772
27607W        W42454  14.616   6.606   3.670
27608W        W42455  12.711  13.428   2.210
27609W        W42456  15.536  15.859   1.713
27610W        W42457  15.072   5.148  14.769
27611W        W42458  12.747  15.891   0.243
27612W        W42459  18.849  11.952  13.316
27613W        W42460  14.598  15.895  10.424
27614W        W42461  19.303  15.881  11.403
27615W        W42462  12.253  11.512   4.117
27616W        W42463  13.647   8.055  13.805
27617W        W42464  16.015  14.926  13.322
27618W        W42465  14.143  17.345   3.182
27619W        W42466  19.321  16.863  13.792
27620W        W42467  14.122   0.740   4.631
27621W        W42468  15.573   3.218   2.206
27622W        W42469  17.914  18.333  13.355
27623W        W42470  14.118  15.403  13.790
27624W        W42471  14.129   7.094  13.315
27625W        W42472  18.870   2.707   1.244
27626W        W42473  18.870   1.234   1.696
27627W        W42474  19.808   9.538   5.086
27628W        W42475  16.986  12.938   3.651
27629W        W42476  16.032  16.872   0.250
27630W        W42477  14.603   2.227  10.451
27631W        W42478  13.200   0.253  12.369
27632W        W42479  18.363  10.013   3.193
27633W        W42480  18.844  12.964  14.783
27634W        W42481  17.432  13.449   1.221
27635W        W42482  14.135  11.983  13.804
27636W        W42483  18.398   0.245  14.302
27637W        W42484  13.666   5.149   2.669
27638W        W42485  16.034  14.905  12.859
27639W        W42486  16.471   1.232  12.828
27640W        W42487  15.064  10.501   9.941
27641W        W42488  17.443  17.339  10.919
27642W        W42489  16.481  15.854   1.229
27643W        W42490  16.041   4.159  12.382
27644W        W42491  19.806   3.181   1.254
27645W        W42492  19.772  14.396   4.620
27646W        W42493  16.019  13.459   2.192
27647W        W42494  18.848  18.807   4.602
27648W        W42495  16.977   1.230  14.772
27649W        W42496  16.966   0.746   2.212
27650W        W42497  17.926  12.970   1.233
27651W        W42498  16.031   1.752   0.286
27652W        W42499  15.557  16.356  11.398
27653W        W42500  14.616  10.982  12.376
27654W        W42501  17.908  12.485  13.807
27655W        W42502  12.731   7.564  14.802
27656W        W42503  12.262  19.304  14.289
27657W        W42504  19.807  14.881  14.310
27658W        W42505  15.557   7.573  11.383
27659W        W42506  18.378   6.131   0.243
27660W        W42507  12.251  17.320   1.742
27661W        W42508  15.550  19.282  10.929
27662W        W42509  14.589  10.502  13.803
27663W        W42510  13.188   0.248   3.653
27664W        W42511  12.711   6.616  10.412
27665W        W42512  17.444  19.796  10.420
27666W        W42513  13.189  17.336  11.418
27667W        W42514  13.650  16.361  12.846
27668W        W42515  12.275   3.686  12.344
27669W        W42516  14.633  15.391  13.321
27670W        W42517  18.861  16.352  10.423
27671W        W42518  19.801  12.965  13.352
27672W        W42519  16.965  10.016   2.186
27673W        W42520  19.780  10.007   5.088
27674W        W42521  18.388   7.114  12.827
27675W        W42522  15.103   3.660  12.839
27676W        W42523  15.103   8.551   1.705
27677W        W42524  19.804   6.138  10.417
27678W        W42525  19.312  10.993   4.143
27679W        W42526  18.839  16.872  14.322
27680W        W42527  15.572  11.977  12.378
27681W        W42528  15.550   8.575  14.316
27682W        W42529  15.543   8.581  10.917
27683W        W42530  19.299   0.277  12.367
27684W        W42531  16.987  16.850   3.663
27685W        W42532  16.949  14.425   2.676
27686W        W42533  12.748   5.157   2.685
27687W        W42534  13.657   7.077   0.731
27688W        W42535  16.002   7.592   0.263
27689W        W42536  16.958   4.185   4.644
27690W        W42537  19.313  14.923  14.286
27691W        W42538  14.126   5.130  14.306
27692W        W42539  15.073   5.630  10.445
27693W        W42540  18.849   5.126  13.832
27694W        W42541  17.456   3.694  11.897
27695W        W42542  19.320   9.030   1.736
27696W        W42543  17.908   7.589   4.125
27697W        W42544  17.888   7.115   0.735
27698W        W42545  13.654  14.883   3.190
27699W        W42546  16.947  15.411   4.612
27700W        W42547  18.377  12.951  14.765
27701W        W42548  18.366   4.150  13.316
27702W        W42549  13.191  11.511  12.861
27703W        W42550  16.484  14.906   3.179
27704W        W42551  14.124  19.291  14.793
27705W        W42552  17.905   3.689  14.780
27706W        W42553  18.836   1.224   0.283
27707W        W42554  17.883   9.515   2.708
27708W        W42555  14.121   7.076   3.645
27709W        W42556  15.536   7.092  14.297
27710W        W42557  16.006  15.401  14.805
27711W        W42558  19.326  11.464   3.165
27712W        W42559  17.910   1.750  11.864
27713W        W42560  13.683  19.291  10.424
27714W        W42561  13.655   7.079   3.644
27715W        W42562  14.592   2.235   2.683
27716W        W42563  19.318  15.880   1.220
27717W        W42564  16.974   8.059  14.309
27718W        W42565  14.123  10.003   3.153
27719W        W42566  14.133   0.749   2.181
27720W        W42567  14.157  13.950  11.388
27721W        W42568  13.659  14.899   3.666
27722W        W42569  15.541   1.725   4.632
27723W        W42570  17.436   6.118  11.880
27724W        W42571  16.972  15.398  12.867
27725W        W42572  15.089   8.550  13.833
27726W        W42573  13.655  19.798   1.717
27727W        W42574  18.387   6.111   1.250
27728W        W42575  17.443  10.027  14.317
27729W        W42576  17.924  14.893   3.640
27730W        W42577  13.675   4.667  13.834
27731W        W42578  14.131  10.506  13.346
27732W        W42579  18.860  15.370  14.299
27733W        W42580  13.663  11.957  13.307
27734W        W42581  12.263  11.977  10.405
27735W        W42582  13.198  16.846   2.202
27736W        W42583  15.575   2.223  11.414
27737W        W42584  16.476  11.997  14.784
27738W        W42585  16.958   6.141   2.208
27739W        W42586  19.341   5.632  13.334
27740W        W42587  16.020  12.963   4.120
27741W        W42588  15.063   4.637   3.176
27742W        W42589  12.254   9.513  12.838
27743W        W42590  18.843   2.205   0.761
27744W        W42591  12.266  11.016   1.223
27745W        W42592  16.485  10.043   0.750
27746W        W42593  13.672  15.856   0.771
27747W        W42594  19.784  14.885   2.668
27748W        W42595  19.805  11.002  12.864
27749W        W42596  16.006   0.746  10.417
27750W        W42597  17.436  14.416  12.349
27751W        W42598  14.620   1.243   3.645
27752W        W42599  15.060  15.385   4.130
27753W        W42600  13.685  15.881   2.673
27754W        W42601  15.083  10.033   1.237
27755W        W42602  15.074   1.727   4.636
27756W        W42603  19.810  15.854   4.601
27757W        W42604  18.400  18.800  11.402
27758W        W42605  17.437  18.328  11.898
27759W        W42606  13.649  18.296   2.192
27760W        W42607  12.273  14.891   4.630
27761W        W42608  13.655  14.881   1.740
27762W        W42609  12.242   4.185  13.323
27763W        W42610  16.024   3.703  11.380
27764W        W42611  13.674  13.433   0.744
27765W        W42612  17.907   9.050  13.342
27766W        W42613  16.980   4.179  12.380
27767W        W42614  19.336  11.976  10.409
27768W        W42615  12.725  11.976  10.416
27769W        W42616  13.651   9.547  12.837
27770W        W42617  15.530  17.324  14.794
27771W        W42618  12.732   2.691  13.836
27772W        W42619  14.626   8.062  14.804
27773W        W42620  13.674   9.520   3.637
27774W        W42621  18.385  17.817  10.890
27775W        W42622  16.000   0.751   3.166
27776W        W42623  16.497   7.607   2.180
27777W        W42624  12.259  16.836   2.207
27778W        W42625  12.739   1.252   3.192
27779W        W42626  18.390  17.844   3.631
27780W        W42627  14.623   4.165  13.314
27781W        W42628  12.252   7.114  12.843
27782W        W42629  12.240  19.299  11.403
27783W        W42630  17.896  11.510  12.865
27784W        W42631  16.020  19.291  12.866
27785W        W42632  16.016  16.837  14.765
27786W        W42633  14.152  10.999   9.943
27787W        W42634  14.141  16.380   0.264
27788W        W42635  17.432  10.976  12.838
27789W        W42636  15.564  11.009  14.769
27790W        W42637  15.100   8.564  14.308
27791W        W42638  17.457  17.342  13.803
27792W        W42639  14.593  11.472  12.369
27793W        W42640  17.896  18.828   4.630
27794W        W42641  18.857   2.216   0.261
27795W        W42642  16.515  17.346   3.637
27796W        W42643  18.851  15.860  13.808
27797W        W42644  18.390   3.186  10.422
27798W        W42645  16.484  14.414   4.113
27799W        W42646  19.309   0.287  14.322
27800W        W42647  19.311   7.590  11.404
27801W        W42648  12.732   0.762  11.895
27802W        W42649  12.719   7.091   4.602
27803W        W42650  14.597   4.681   3.178
27804W        W42651  14.136   3.186   1.254
27805W        W42652  15.071   4.635  12.356
27806W        W42653  18.353  13.916   3.187
27807W        W42654  13.673   7.592   3.147
27808W        W42655  13.194   4.188   4.153
27809W        W42656  19.799  10.520  10.912
27810W        W42657  16.960  19.305  10.416
27811W        W42658  16.988   1.738   3.174
27812W        W42659  14.121  11.980   2.216
27813W        W42660  17.412   3.707  12.363
27814W        W42661  13.673   7.609  11.859
27815W        W42662  15.100  15.866  11.900
27816W        W42663  12.272   9.543  13.331
27817W        W42664  19.336  16.845   3.159
27818W        W42665  13.682   9.541   3.165
27819W        W42666  14.628  10.980   2.673
27820W        W42667  13.178  16.871   3.655
27821W        W42668  15.079   6.123   4.629
27822W        W42669  12.745   8.086   1.740
27823W        W42670  13.178   8.051   3.653
27824W        W42671  16.497   5.145   0.738
27825W        W42672  17.885  13.931  11.400
27826W        W42673  16.985   7.583  14.314
27827W        W42674  16.514   3.217   2.666
27828W        W42675  14.129   7.597  14.322
27829W        W42676  12.278  17.332   4.118
27830W        W42677  13.674  18.829   1.236
27831W        W42678  12.256   9.521  13.814
27832W        W42679  12.720  18.808  10.902
27833W        W42680  16.035  16.841  14.304
27834W        W42681  14.612  11.994   2.198
27835W        W42682  18.364   6.140  14.785
27836W        W42683  16.948  15.399  12.368
27837W        W42684  15.071  19.282  14.805
27838W        W42685  12.724   9.534  12.367
27839W        W42686  16.965  18.827   1.227
27840W        W42687  13.208  16.377   4.141
27841W        W42688  16.033  14.898  14.296
27842W        W42689  12.281  11.490   2.687
27843W        W42690  16.951   8.541  10.446
27844W        W42691  19.785   7.579   5.089
27845W        W42692  17.899   4.660   1.722
27846W        W42693  17.913   9.515   2.201
27847W        W42694  16.961   9.537  10.929
27848W        W42695  13.218  19.767  13.818
27849W        W42696  14.156   9.057   3.658
27850W        W42697  19.334  12.449   2.198
27851W        W42698  14.602   7.573  11.859
27852W        W42699  18.398   9.047  14.317
27853W        W42700  15.087  15.856  10.444
27854W        W42701  16.511  19.791   1.210
27855W        W42702  18.374   0.287  13.806
27856W        W42703  15.085  17.842  14.801
27857W        W42704  16.014  16.841   1.247
27858W        W42705  16.971   3.175   3.661
27859W        W42706  15.091  12.452  11.866
27860W        W42707  12.724  11.468  10.410
27861W        W42708  15.094  18.813   2.696
27862W        W42709  15.566   6.598  12.845
27863W        W42710  17.424  19.302   2.674
27864W        W42711  19.313  18.820   4.599
27865W        W42712  19.796  10.998  11.399
27866W        W42713  16.009   6.621   3.163
27867W        W42714  16.509   6.593   2.676
27868W        W42715  16.517  15.404   0.265
27869W        W42716  16.040  18.816  11.868
27870W        W42717  16.942   0.262   4.123
27871W        W42718  15.088  10.046  13.796
27872W        W42719  16.033   6.633  13.320
27873W        W42720  17.896  14.415   1.243
27874W        W42721  14.620  19.803  12.386
27875W        W42722  14.590  13.440   9.962
27876W        W42723  16.035  11.005   4.606
27877W        W42724  16.976  12.485   4.114
27878W        W42725  18.354  10.015  12.839
27879W        W42726  12.270  13.444  13.822
27880W        W42727  18.828   8.065   0.275
27881W        W42728  16.028   8.059   2.197
27882W        W42729  14.158  12.470   5.087
27883W        W42730  19.300   6.628   3.155
27884W        W42731  17.924  17.853   0.251
27885W        W42732  18.854   8.071   1.248
27886W        W42733  12.730   0.759  14.805
27887W        W42734  16.959  11.981  10.896
27888W        W42735  14.127  10.031   2.192
27889W        W42736  12.278   6.100   3.630
27890W        W42737  17.922   5.169  14.793
27891W        W42738  14.607   8.089  13.807
27892W        W42739  13.667  18.801  14.319
27893W        W42740  12.708  19.314  14.789
27894W        W42741  14.619   2.238  11.409
27895W        W42742  15.552  10.988  11.900
27896W        W42743  18.863  18.309   2.701
27897W        W42744  18.840   2.210  11.900
27898W        W42745  18.865   2.214   4.617
27899W        W42746  16.482  11.961   3.177
27900W        W42747  19.777  14.917  12.870
27901W        W42748  13.668  13.430   4.121
27902W        W42749  12.242   8.547  10.892
27903W        W42750  17.437  17.808   5.117
27904W        W42751  17.898  11.510  13.316
27905W        W42752  14.610   6.602   2.224
27906W        W42753  13.657  12.960   5.124
27907W        W42754  14.622   7.105   1.256
27908W        W42755  18.398   3.685  12.346
27909W        W42756  14.634  19.280  12.378
27910W        W42757  13.180   8.089   3.176
27911W        W42758  16.025  19.794  10.416
27912W        W42759  15.083   1.232   2.696
27913W        W42760  17.892   7.571  11.855
27914W        W42761  16.505   5.135   3.629
27915W        W42762  14.124  16.871  10.893
27916W        W42763  13.659  14.910  12.379
27917W        W42764  13.669   6.125  13.832
27918W        W42765  18.386   2.691  12.842
27919W        W42766  15.572  11.509   2.214
27920W        W42767  12.720  17.840   1.725
27921W        W42768  19.314  12.469   1.696
27922W        W42769  18.381  16.837   2.699
27923W        W42770  14.632  10.043   1.230
27924W        W42771  16.962  15.389   2.661
27925W        W42772  19.790  14.421   2.703
27926W        W42773  13.192   9.073  12.367
27927W        W42774  14.622   1.227   1.240
27928W        W42775  12.743  19.287  10.900
27929W        W42776  12.236   5.633  11.402
27930W        W42777  14.598   5.647  14.317
27931W        W42778  17.435   5.654  12.345
27932W        W42779  19.325  13.938   3.663
27933W        W42780  15.544  14.896   1.741
27934W        W42781  16.946   2.711  12.367
27935W        W42782  13.650  15.863   4.124
27936W        W42783  19.326   4.670   0.740
27937W        W42784  14.120   4.671  12.845
27938W        W42785  16.970   2.689  10.424
27939W        W42786  14.149  19.784   3.668
27940W        W42787  19.330   9.561  14.288
27941W        W42788  17.917  12.970   2.708
27942W        W42789  19.301  17.847  12.841
27943W        W42790  12.239   5.161   0.242
27944W        W42791  17.413   8.066   2.184
27945W        W42792  13.218   5.146   1.241
27946W        W42793  16.508   2.724   3.634
27947W        W42794  18.384  12.967  13.813
27948W        W42795  16.970  17.318   1.227
27949W        W42796  13.186   0.779  13.825
27950W        W42797  18.840  15.372  11.413
27951W        W42798  17.422   7.574  13.807
27952W        W42799  16.012  16.369   0.272
27953W        W42800  15.546  19.771   1.706
27954W        W42801  19.784  12.959   3.176
27955W        W42802  14.610  12.972  12.862
27956W        W42803  19.792  10.515   2.207
27957W        W42804  18.862  14.924   3.656
27958W        W42805  16.474   8.078  11.373
27959W        W42806  12.242   3.675   4.133
27960W        W42807  14.158  11.954  11.383
27961W        W42808  17.418  14.881  12.851
27962W        W42809  16.032  16.851  13.804
27963W        W42810  15.093   7.096  10.898
27964W        W42811  16.016   1.258  13.819
27965W        W42812  16.969   1.708  13.307
27966W        W42813  18.863  18.315   0.248
27967W        W42814  12.747  12.943   4.614
27968W        W42815  12.268   2.687   3.179
27969W        W42816  16.495   9.069   0.732
27970W        W42817  16.471   6.122   2.190
27971W        W42818  16.974  16.836  11.374
27972W        W42819  14.133  19.790   0.242
27973W        W42820  16.961   7.565  13.312
27974W        W42821  19.791  17.813  12.369
27975W        W42822  14.148   2.234  12.828
27976W        W42823  16.964   0.270   2.685
27977W        W42824  16.030   9.543  10.415
27978W        W42825  18.868  14.404  14.805
27979W        W42826  16.955  16.862  12.857
27980W        W42827  17.420  19.781  11.877
27981W        W42828  15.547   7.098  13.810
27982W        W42829  16.957   1.253   3.644
27983W        W42830  18.829  14.430   4.615
27984W        W42831  13.197  16.358  10.420
27985W        W42832  16.492  15.407  14.277
27986W        W42833  17.447   8.076   5.089
27987W        W42834  14.143   4.682  11.374
27988W        W42835  17.896  16.365   3.660
27989W        W42836  19.318   9.060  13.794
27990W        W42837  16.494   8.547  10.423
27991W        W42838  13.658   7.110  11.405
27992W        W42839  18.870  13.907  13.831
27993W        W42840  17.900  14.904   9.945
27994W        W42841  16.943  14.916  11.393
27995W        W42842  16.042  17.329   1.734
27996W        W42843  14.123  15.876  11.397
27997W        W42844  14.156  17.844   4.641
27998W        W42845  16.020   9.517   2.224
27999W        W42846  16.514  15.386   3.652
28000W        W42847  17.899  13.904   1.251
28001W        W42848  16.001   6.113   9.940
28002W        W42849  12.275   3.663  11.864
28003W        W42850  15.574  15.389  14.284
28004W        W42851  13.673   4.167  14.278
28005W        W42852  16.978  12.963  14.311
28006W        W42853  14.600   2.710   0.764
28007W        W42854  15.070   5.130  12.832
28008W        W42855  19.330   4.638   1.233
28009W        W42856  16.516  11.498  12.378
28010W        W42857  13.188   9.042  11.884
28011W        W42858  14.613   6.633   1.211
28012W        W42859  18.390  15.857  11.398
28013W        W42860  13.670  13.462   3.191
28014W        W42861  12.740  10.531  14.300
28015W        W42862  14.601   5.625   1.213
28016W        W42863  16.498  10.043  10.926
28017W        W42864  17.418   6.623   0.744
28018W        W42865  18.359  16.862   0.289
28019W        W42866  17.455  12.956   4.626
28020W        W42867  14.635  16.861  13.834
28021W        W42868  16.029  19.284  11.889
28022W        W42869  16.951  15.898   0.275
28023W        W42870  19.331   9.555   2.206
28024W        W42871  19.301   9.537  12.852
28025W        W42872  13.190   1.236   4.614
28026W        W42873  19.795  13.945   1.258
28027W        W42874  12.742   9.046   2.194
28028W        W42875  17.425  11.495   3.634
28029W        W42876  18.377   0.266   1.223
28030W        W42877  12.263  10.027   2.666
28031W        W42878  14.130   9.069   4.129
28032W        W42879  16.984   2.710  12.850
28033W        W42880  17.897  15.891  13.349
28034W        W42881  12.732   8.553  13.321
28035W        W42882  19.307   1.749  10.443
28036W        W42883  13.673   5.615  13.314
28037W        W42884  19.804   3.686   2.665
28038W        W42885  14.623  10.021  10.911
28039W        W42886  16.965  19.780   3.670
28040W        W42887  19.777   5.633  14.284
28041W        W42888  17.900   4.160   0.768
28042W        W42889  14.604   0.750   2.190
28043W        W42890  15.561  16.354   2.217
28044W        W42891  15.088  17.352  14.789
28045W        W42892  14.129   8.546  12.354
28046W        W42893  18.847  11.487  13.316
28047W        W42894  15.534  16.848   4.126
28048W        W42895  14.598   1.256   4.608
28049W        W42896  12.260  18.795   2.203
28050W        W42897  17.924   1.727   1.219
28051W        W42898  13.654   1.741   9.955
28052W        W42899  16.481  15.379   1.711
28053W        W42900  16.510  15.371   2.705
28054W        W42901  15.537  13.909   2.703
28055W        W42902  16.045   8.546  10.932
28056W        W42903  19.320   3.679  10.901
28057W        W42904  18.828  18.795  10.442
28058W        W42905  13.675   4.675  10.425
28059W        W42906  16.478  16.359   4.157
28060W        W42907  18.385  11.475  10.430
28061W        W42908  19.340   0.277   3.648
28062W        W42909  18.391  14.920  13.805
28063W        W42910  13.211  11.993   1.216
28064W        W42911  18.851  10.996  10.930
28065W        W42912  14.619   3.668   4.156
28066W        W42913  19.780   6.122   2.666
28067W        W42914  18.381  12.468   0.737
28068W        W42915  15.068   7.103  14.793
28069W        W42916  17.420   4.636   0.749
28070W        W42917  12.735  13.430   4.153
28071W        W42918  14.620  12.972  12.358
28072W        W42919  15.065  15.402  13.825
28073W        W42920  18.398   2.718  12.353
28074W        W42921  14.628   3.192   4.613
28075W        W42922  14.599   1.262   0.758
28076W        W42923  17.923  15.890   2.185
28077W        W42924  12.262   4.642   3.165
28078W        W42925  16.483   4.680   4.153
28079W        W42926  17.450   4.163   4.632
28080W        W42927  14.623   6.137  10.405
28081W        W42928  16.043   1.221  10.900
28082W        W42929  16.011  15.409   4.619
28083W        W42930  13.691   0.286  10.410
28084W        W42931  13.206  16.350  11.893
28085W        W42932  19.787   2.714  12.863
28086W        W42933  13.211  18.318  11.887
28087W        W42934  17.426   8.069   0.256
28088W        W42935  16.036  18.813  12.850
28089W        W42936  17.916  17.331   1.233
28090W        W42937  16.988   9.066   3.646
28091W        W42938  19.310   7.569  10.930
28092W        W42939  16.982  10.037  11.374
28093W        W42940  16.954   3.682  14.296
28094W        W42941  17.899  16.367  13.790
28095W        W42942  16.022   9.031  11.392
28096W        W42943  13.659  11.503   2.688
28097W        W42944  16.039   4.638   2.676
28098W        W42945  13.671   2.701   4.615
28099W        W42946  17.896  16.867   4.119
28100W        W42947  12.737   0.739  14.279
28101W        W42948  17.437  16.365   1.709
28102W        W42949  15.060   9.543  14.761
28103W        W42950  14.603   8.055  10.892
28104W        W42951  12.752   8.567  11.869
28105W        W42952  15.087   3.177   2.707
28106W        W42953  16.480  13.943  10.915
28107W        W42954  14.160  13.932   3.178
28108W        W42955  17.886   7.564  10.441
28109W        W42956  17.428  13.924  12.378
28110W        W42957  19.788   5.635  13.792
28111W        W42958  19.769   7.562  10.448
28112W        W42959  13.198   9.515  11.864
28113W        W42960  15.060   5.626   3.646
28114W        W42961  12.273   0.272   3.650
28115W        W42962  16.016   6.619  10.926
28116W        W42963  14.613  10.527  10.439
28117W        W42964  19.331  18.319   0.761
28118W        W42965  17.907  17.843  13.353
28119W        W42966  18.384  10.006   0.768
28120W        W42967  13.648   9.035   2.180
28121W        W42968  18.384   5.155  11.402
28122W        W42969  12.282   2.706  12.367
28123W        W42970  13.665   6.138   2.667
28124W        W42971  17.458   6.113   1.237
28125W        W42972  14.589   8.569  10.428
28126W        W42973  13.179  14.910  10.918
28127W        W42974  13.204  18.304   1.248
28128W        W42975  16.962  18.340  14.276
28129W        W42976  12.279  12.971   4.598
28130W        W42977  17.445   7.097  11.383
28131W        W42978  12.708  18.786  13.319
28132W        W42979  15.554   8.083  13.799
28133W        W42980  14.126  11.018  13.320
28134W        W42981  19.794  12.444   2.676
28135W        W42982  13.211   2.208  13.810
28136W        W42983  16.046   5.131   4.620
28137W        W42984  18.380   1.266  11.409
28138W        W42985  12.731  11.489  11.409
28139W        W42986  14.124  14.909  10.444
28140W        W42987  13.208   1.235  11.873
28141W        W42988  12.718  13.944   4.141
28142W        W42989  14.602   7.115  12.378
28143W        W42990  13.652   8.563  14.319
28144W        W42991  17.458   5.653  10.441
28145W        W42992  14.143   7.570   3.645
28146W        W42993  14.593  10.017   3.635
28147W        W42994  12.737  10.009  14.298
28148W        W42995  18.366   3.675  11.898
28149W        W42996  12.729   5.642  14.761
28150W        W42997  16.492  16.858   0.272
28151W        W42998  18.839  19.787  10.405
28152W        W42999  15.077  13.930   0.270
28153W        W43000  16.007   3.196  13.832
28154W        W43001  19.802  11.477  12.845
28155W        W43002  18.356   2.706   0.751
28156W        W43003  19.766  18.305   0.271
28157W        W43004  15.082   1.717  14.787
28158W        W43005  15.535   0.747  14.766
28159W        W43006  16.979  16.351   2.198
28160W        W43007  15.530  11.511   4.145
28161W        W43008  17.903   3.659   3.171
28162W        W43009  12.245   1.731  12.846
28163W        W43010  17.889   4.665   2.690
28164W        W43011  19.296  10.518  12.830
28165W        W43012  17.450  14.402   4.113
28166W        W43013  12.745  13.936   0.274
28167W        W43014  14.119  11.494  11.405
28168W        W43015  12.750   6.139  11.407
28169W        W43016  16.509   4.651   0.266
28170W        W43017  16.047  12.448  11.861
28171W        W43018  12.720  18.791  12.833
28172W        W43019  14.120   9.545  13.323
28173W        W43020  16.974  14.892   3.169
28174W        W43021  17.924  10.531   1.697
28175W        W43022  15.568  12.975  11.887
28176W        W43023  15.099  15.407  14.769
28177W        W43024  19.776  15.393  13.831
28178W        W43025  14.621  16.833  13.309
28179W        W43026  12.280  15.385   1.706
28180W        W43027  14.617  13.452  13.798
28181W        W43028  12.260  10.021   0.737
28182W        W43029  15.080  17.336   3.189
28183W        W43030  18.399   6.135  12.828
28184W        W43031  16.488   4.155  10.414
28185W        W43032  17.904   3.663   1.701
28186W        W43033  15.563  17.837   2.687
28187W        W43034  18.857  19.305  13.312
28188W        W43035  16.501  15.860  14.281
28189W        W43036  14.154   6.613   1.696
28190W        W43037  13.692   2.204   2.220
28191W        W43038  15.546   1.252   1.721
28192W        W43039  14.133   5.133   4.627
28193W        W43040  14.602  10.010   4.131
28194W        W43041  16.034   1.228   1.704
28195W        W43042  18.400  12.445  14.761
28196W        W43043  17.893   2.204   1.225
28197W        W43044  12.720   5.154   2.199
28198W        W43045  16.492  17.318   0.243
28199W        W43046  17.907   5.617   3.665
28200W        W43047  15.570   8.063  12.824
28201W        W43048  19.774   3.662   4.144
28202W        W43049  14.602   0.287   2.696
28203W        W43050  16.036  18.340  10.442
28204W        W43051  19.786   5.635  11.891
28205W        W43052  16.509  19.298  12.850
28206W        W43053  19.774   0.265   4.141
28207W        W43054  17.917   5.154  14.301
28208W        W43055  18.365   4.195  12.380
28209W        W43056  18.391  10.500  12.848
28210W        W43057  17.447   1.740   2.222
28211W        W43058  12.740  13.907  11.386
28212W        W43059  17.884   2.730  10.910
28213W        W43060  15.575  14.428   0.287
28214W        W43061  12.731   8.076  13.329
28215W        W43062  13.222  19.317   4.621
28216W        W43063  15.534   1.248  14.274
28217W        W43064  16.986  12.931  10.437
28218W        W43065  16.515   8.541   3.170
28219W        W43066  19.796   4.652  14.776
28220W        W43067  13.672  15.383   2.190
28221W        W43068  13.182   4.188  10.919
28222W        W43069  16.506  19.757   0.264
28223W        W43070  12.733   9.540   1.215
28224W        W43071  19.310  13.903   3.189
28225W        W43072  12.743  10.507   3.154
28226W        W43073  16.946  11.492   3.149
28227W        W43074  17.439   6.606   3.147
28228W        W43075  17.913  18.309  14.314
28229W        W43076  16.036   8.053  11.857
28230W        W43077  13.676  19.772   0.273
28231W        W43078  12.267   2.200  12.387
28232W        W43079  15.533   9.062  14.771
28233W        W43080  15.545  12.952  12.340
28234W        W43081  12.731   7.122   0.283
28235W        W43082  12.743  11.984  10.933
28236W        W43083  15.535   6.595   2.687
28237W        W43084  12.708   9.517   4.148
28238W        W43085  18.856  11.467  12.833
28239W        W43086  19.310   3.206   3.148
28240W        W43087  18.381  15.411   4.641
28241W        W43088  14.143   7.094  11.416
28242W        W43089  12.748  10.992   3.665
28243W        W43090  15.547  19.297   1.722
28244W        W43091  17.442  11.983   1.703
28245W        W43092  16.947   7.111   1.706
28246W        W43093  12.236  10.489  10.423
28247W        W43094  19.794   3.172  14.285
28248W        W43095  15.539  12.485  13.349
28249W        W43096  12.278   6.108   2.204
28250W        W43097  18.836   7.591  12.855
28251W        W43098  13.210   2.242   2.681
28252W        W43099  16.018  10.514   2.207
28253W        W43100  16.957   8.066   1.725
28254W        W43101  12.724  10.500   2.685
28255W        W43102  14.592  15.411   0.770
28256W        W43103  14.605   3.180  10.918
28257W        W43104  16.000  12.475  11.399
28258W        W43105  17.449  16.354  14.292
28259W        W43106  13.211   6.613   9.952
28260W        W43107  17.457   0.760  14.304
28261W        W43108  14.604   5.165  13.314
28262W        W43109  19.335   2.208  12.352
28263W        W43110  16.970  11.966   1.213
28264W        W43111  13.659   8.094   1.730
28265W        W43112  18.377   4.667   4.115
28266W        W43113  16.026  11.995   2.704
28267W        W43114  19.784  10.034  12.357
28268W        W43115  14.139  17.848   2.186
28269W        W43116  19.311  19.765   0.733
28270W        W43117  15.556   3.218   3.176
28271W        W43118  13.209   5.156  13.347
28272W        W43119  14.152   6.628  10.403
28273W        W43120  19.793  11.953   2.211
28274W        W43121  17.900  14.414  14.301
28275W        W43122  15.091   1.264  11.380
28276W        W43123  15.566   7.079   1.717
28277W        W43124  18.389   0.290   0.259
28278W        W43125  19.305   5.632  13.796
28279W        W43126  17.416   3.178  11.871
28280W        W43127  13.187  14.884   2.666
28281W        W43128  17.884   5.642  10.427
28282W        W43129  18.839   2.224   2.667
28283W        W43130  18.852   8.567   0.250
28284W        W43131  17.883   6.104   0.739
28285W        W43132  18.364  18.302   1.210
28286W        W43133  16.948   6.620   0.739
28287W        W43134  18.399  16.345   4.122
28288W        W43135  12.727  12.483   1.703
28289W        W43136  16.032  11.971  14.310
28290W        W43137  19.329  10.980  13.339
28291W        W43138  18.852   4.634   0.267
28292W        W43139  13.671  13.916   0.280
28293W        W43140  13.686   8.559  10.407
28294W        W43141  19.316   3.695   0.726
28295W        W43142  12.278  12.458   1.733
28296W        W43143  12.266  13.460   5.120
28297W        W43144  17.900  12.956  11.381
28298W        W43145  16.976   8.542   5.082
28299W        W43146  14.130  16.385  11.895
28300W        W43147  17.925  17.361   0.742
28301W        W43148  19.783   5.643   3.175
28302W        W43149  19.323  11.004  14.771
28303W        W43150  14.630  11.002  11.374
28304W        W43151  15.099  14.908   0.774
28305W        W43152  19.793  12.484   1.740
28306W        W43153  18.385   6.613   4.643
28307W        W43154  15.088   5.614  14.763
28308W        W43155  18.397  11.021  14.780
28309W        W43156  15.542   8.076   0.250
28310W        W43157  18.854   1.238   3.170
28311W        W43158  18.850  19.301   1.698
28312W        W43159  15.092  17.355   0.749
28313W        W43160  18.369  16.862   1.708
28314W        W43161  16.958   0.739  11.896
28315W        W43162  14.121   5.140  10.908
28316W        W43163  18.396   9.060   3.646
28317W        W43164  16.952  10.518  14.798
28318W        W43165  14.124  14.405   0.254
28319W        W43166  18.394  18.804  13.339
28320W        W43167  17.923  17.326   4.139
28321W        W43168  13.222   5.146   2.183
28322W        W43169  16.003  10.986   3.655
28323W        W43170  14.119  12.452  11.415
28324W        W43171  16.947  18.302   4.140
28325W        W43172  18.381  19.313   2.217
28326W        W43173  12.722   9.548  11.884
28327W        W43174  13.214  19.770   1.711
28328W        W43175  12.281   6.616  13.319
28329W        W43176  17.906   3.217   0.285
28330W        W43177  15.067   1.729   2.684
28331W        W43178  14.616  18.823   4.121
28332W        W43179  17.430  18.334   1.708
28333W        W43180  19.318   5.621   3.150
28334W        W43181  15.094  10.043   1.738
28335W        W43182  13.210  11.017  11.415
28336W        W43183  16.022   3.212   0.248
28337W        W43184  14.155   2.720   1.220
28338W        W43185  16.010  16.346   0.770
28339W        W43186  19.302  15.396   1.249
28340W        W43187  13.209  16.367   1.248
28341W        W43188  12.717   6.146  12.362
28342W        W43189  15.070   1.239  11.888
28343W        W43190  15.570   3.702   2.209
28344W        W43191  17.896   8.562   0.746
28345W        W43192  15.067   2.686   2.212
28346W        W43193  14.630   6.608  13.353
28347W        W43194  16.508  16.857  12.346
28348W        W43195  16.502   4.184  13.793
28349W        W43196  12.269  18.789   1.224
28350W        W43197  16.516  17.349  14.802
28351W        W43198  15.561   6.104  14.322
28352W        W43199  18.395   3.187  14.279
28353W        W43200  13.683   8.058   3.160
28354W        W43201  18.372   1.261  10.890
28355W        W43202  16.498   0.744  13.829
28356W        W43203  13.177  10.033   4.630
28357W        W43204  16.964   7.095  11.888
28358W        W43205  14.623  17.326  14.768
28359W        W43206  18.358  14.394   3.632
28360W        W43207  14.609   0.763   4.142
28361W        W43208  18.359  10.021   4.628
28362W        W43209  19.323  10.520   1.718
28363W        W43210  16.036  18.307  11.858
28364W        W43211  17.929  10.528  10.895
28365W        W43212  15.104   1.235  10.914
28366W        W43213  13.201   8.073  14.782
28367W        W43214  16.025  13.926  10.411
28368W        W43215  14.593   0.259  10.905
28369W        W43216  12.266  18.812  13.341
28370W        W43217  18.824  11.966  10.904
28371W        W43218  13.186   3.700  10.426
28372W        W43219  16.475  10.033  11.374
28373W        W43220  12.248   1.224   4.620
28374W        W43221  19.299   2.226  14.297
28375W        W43222  19.802   4.653   4.598
28376W        W43223  15.572  12.960   3.647
28377W        W43224  16.506   3.177  10.451
28378W        W43225  16.043   1.728   5.124
28379W        W43226  15.089   7.100  13.834
28380W        W43227  13.188   0.766  10.899
28381W        W43228  13.205   5.132  11.379
28382W        W43229  12.237  10.045  12.868
28383W        W43230  18.840  13.449   1.243
28384W        W43231  14.142   2.700  11.864
28385W        W43232  16.035  17.833   4.117
28386W        W43233  15.087   3.698   1.714
28387W        W43234  12.747  19.286   0.283
28388W        W43235  12.271  11.011  12.357
28389W        W43236  18.357  18.807   0.250
28390W        W43237  12.239  19.312  13.824
28391W        W43238  18.849   4.669   1.249
28392W        W43239  13.686  11.493  13.315
28393W        W43240  12.739   6.133   3.173
28394W        W43241  13.202   1.262  13.343
28395W        W43242  18.859  13.947  14.764
28396W        W43243  13.191  16.869   2.662
28397W        W43244  19.801  17.828   3.146
28398W        W43245  17.904   9.561   3.158
28399W        W43246  13.659  17.848   3.639
28400W        W43247  14.164   2.196   0.273
28401W        W43248  16.515  12.472   0.271
28402W        W43249  16.508   0.736  12.840
28403W        W43250  18.867  12.485   4.132
28404W        W43251  19.330  12.459   0.247
28405W        W43252  16.031  11.468  12.373
28406W        W43253  16.977  15.896   2.687
28407W        W43254  12.741   6.621   2.670
28408W        W43255  17.887   3.201   3.639
28409W        W43256  19.794   7.122  14.315
28410W        W43257  13.659  14.901  14.783
28411W        W43258  19.297  10.012  14.290
28412W        W43259  14.598  17.852   0.762
28413W        W43260  19.796   9.045  12.867
28414W        W43261  14.615  19.292  13.345
28415W        W43262  13.178  12.452  10.914
28416W        W43263  17.426  13.435  11.379
28417W        W43264  19.315   2.727  14.796
28418W        W43265  16.493  13.415   2.189
28419W        W43266  19.308   6.114   5.126
28420W        W43267  14.599   5.642   3.152
28421W        W43268  18.858   7.573   3.165
28422W        W43269  12.721   8.069  12.377
28423W        W43270  16.036   9.554  14.784
28424W        W43271  17.438   4.657  10.410
28425W        W43272  19.328  16.348  11.403
28426W        W43273  14.600  12.472   1.212
28427W        W43274  18.383   9.044   0.253
28428W        W43275  17.442   3.667  14.306
28429W        W43276  12.259   0.761   3.151
28430W        W43277  19.341  14.391   2.220
28431W        W43278  15.564  18.333  13.310
28432W        W43279  19.795  17.361   3.647
28433W        W43280  12.735  10.040  11.887
28434W        W43281  15.087   3.190   2.191
28435W        W43282  16.956   0.246  10.930
28436W        W43283  16.944   5.122  14.765
28437W        W43284  17.898   5.614   4.138
28438W        W43285  18.850   0.779  11.888
28439W        W43286  13.216   9.029  13.834
28440W        W43287  16.480   9.557   1.725
28441W        W43288  13.191  11.478   2.201
28442W        W43289  14.633   1.736  11.417
28443W        W43290  19.319   5.169  11.401
28444W        W43291  16.039  10.528   2.665
28445W        W43292  17.898  17.363  11.393
28446W        W43293  16.017  15.902  12.848
28447W        W43294  12.282  16.843  12.381
28448W        W43295  15.566   9.041   4.617
28449W        W43296  19.297   3.184  10.903
28450W        W43297  15.573  19.283   2.674
28451W        W43298  18.353  10.043   1.730
28452W        W43299  16.967   5.168   2.197
28453W        W43300  13.204   3.200  13.331
28454W        W43301  17.430   3.692  13.798
28455W        W43302  12.258  12.970  14.307
28456W        W43303  13.215   1.741   4.127
28457W        W43304  16.017  13.927   0.278
28458W        W43305  13.648  11.511  12.360
28459W        W43306  19.808  14.908  12.379
28460W        W43307  13.181  17.364   0.275
28461W        W43308  19.312  14.901   4.613
28462W        W43309  15.539   8.076   2.685
28463W        W43310  14.609   4.654   4.612
28464W        W43311  16.022   7.098  14.317
28465W        W43312  19.325  13.924   0.274
28466W        W43313  19.795   6.120   1.716
28467W        W43314  19.298  14.907  13.351
28468W        W43315  13.691   9.030   1.697
28469W        W43316  14.128  11.975   2.694
28470W        W43317  17.883   3.660  13.335
28471W        W43318  19.807   8.096   5.108
28472W        W43319  16.473   8.541   1.245
28473W        W43320  15.070  14.882  11.883
28474W        W43321  13.674   7.102   4.626
28475W        W43322  12.748  14.889  11.893
28476W        W43323  15.556  16.868  11.391
28477W        W43324  16.988  18.294  13.799
28478W        W43325  18.854  19.764   0.277
28479W        W43326  18.859   7.089   1.704
28480W        W43327  13.685  13.915   0.763
28481W        W43328  15.065   9.048   2.681
28482W        W43329  17.423  12.461   4.598
28483W        W43330  13.666  12.961  12.823
28484W        W43331  18.870  10.044  11.383
28485W        W43332  19.801  14.904   4.628
28486W        W43333  14.124  16.834   2.202
28487W        W43334  15.564  15.875  12.382
28488W        W43335  19.806   4.174   2.192
28489W        W43336  17.925   7.087   9.962
28490W        W43337  14.628  16.355  11.880
28491W        W43338  14.126   8.559  14.759
28492W        W43339  12.750   0.754  13.811
28493W        W43340  15.104   2.213  11.409
28494W        W43341  17.437  17.830   3.177
28495W        W43342  12.718  12.973   0.759
28496W        W43343  19.810   3.696   2.210
28497W        W43344  17.456  15.869  11.866
28498W        W43345  15.100  12.473   0.765
28499W        W43346  13.689  18.304   4.148
28500W        W43347  12.711  11.967   1.730
28501W        W43348  15.084  10.008   0.273
28502W        W43349  18.860  12.933   2.211
28503W        W43350  17.418   3.676   0.273
28504W        W43351  19.333   9.026   0.774
28505W        W43352  19.806  12.476   0.774
28506W        W43353  19.320   9.557   0.253
28507W        W43354  16.008   1.744   4.149
28508W        W43355  15.082  10.037   0.758
28509W        W43356  16.499   0.282  10.421
28510W        W43357  17.453   0.278   1.713
28511W        W43358  18.853   2.691   3.655
28512W        W43359  16.507   8.063   2.683
28513W        W43360  18.868   5.136   0.758
28514W        W43361  16.488  16.875  10.893
28515W        W43362  16.954   0.761  12.384
28516W        W43363  19.798   2.243   1.220
28517W        W43364  19.783  13.441   9.936
28518W        W43365  13.656   9.068  10.888
28519W        W43366  16.953  10.514   3.175
28520W        W43367  16.508   3.215   2.198
28521W        W43368  15.093   2.714   3.639
28522W        W43369  13.667   0.766   0.733
28523W        W43370  12.749   5.130   4.155
28524W        W43371  16.471  14.430   3.677
28525W        W43372  14.149  11.958  12.848
28526W        W43373  15.539  12.444   1.246
28527W        W43374  16.022  12.485   1.706
28528W        W43375  13.222   6.588  13.810
28529W        W43376  14.625   4.658   0.281
28530W        W43377  15.569  18.787  13.311
28531W        W43378  15.549   5.126  13.331
28532W        W43379  12.707  12.929   3.646
28533W        W43380  16.501   3.181  12.839
28534W        W43381  15.078  12.949   1.706
28535W        W43382  12.731  17.839  13.831
28536W        W43383  12.275   3.174   3.635
28537W        W43384  17.901   9.543   4.134
28538W        W43385  17.884  12.960   3.151
28539W        W43386  12.242   4.660   0.266
28540W        W43387  16.950  19.308  11.881
28541W        W43388  13.207  18.308   2.189
28542W        W43389  17.893   3.679  12.373
28543W        W43390  16.498  19.794   4.613
28544W        W43391  16.960  11.491  10.437
28545W        W43392  17.412  13.459   3.156
28546W        W43393  19.306  17.318   1.702
28547W        W43394  16.032   5.139   2.684
28548W        W43395  14.125  13.905   0.734
28549W        W43396  17.889   7.608  13.803
28550W        W43397  18.376  16.869  10.889
28551W        W43398  18.379   7.109   0.280
28552W        W43399  14.616  14.882  13.318
28553W        W43400  14.634   6.124   3.184
28554W        W43401  16.979  16.389   0.243
28555W        W43402  16.509  11.011   3.665
28556W        W43403  17.458  12.461  14.307
28557W        W43404  15.564   7.593   0.745
28558W        W43405  16.046   7.568   5.085
28559W        W43406  19.799  14.395  11.887
28560W        W43407  12.279   2.211   3.189
28561W        W43408  17.434   7.575   0.761
28562W        W43409  14.140  10.019  11.393
28563W        W43410  14.633  19.291  12.834
28564W        W43411  19.807  16.853   2.696
28565W        W43412  15.066   8.068   0.754
28566W        W43413  14.626  16.866   2.223
28567W        W43414  19.783   1.268  11.391
28568W        W43415  17.923  18.317  11.384
28569W        W43416  14.627   5.158  10.431
28570W        W43417  12.250  19.781  12.860
28571W        W43418  18.383   2.688  10.435
28572W        W43419  19.801   1.250  12.375
28573W        W43420  13.212  16.369  12.356
28574W        W43421  15.077   8.067   2.697
28575W        W43422  13.221  11.022  10.900
28576W        W43423  19.793  12.454  12.373
28577W        W43424  16.950   9.065   2.182
28578W        W43425  12.261   3.191  14.313
28579W        W43426  12.252  13.925   0.288
28580W        W43427  16.944  15.898   1.246
28581W        W43428  15.563  14.432  13.798
28582W        W43429  17.448  12.928   3.179
28583W        W43430  17.887  12.448   2.701
28584W        W43431  19.300   4.645  14.317
28585W        W43432  16.030   7.604  11.394
28586W        W43433  17.883   3.666   9.943
28587W        W43434  17.438  18.785  12.842
28588W        W43435  17.422  12.934  13.325
28589W        W43436  14.602   4.645  11.392
28590W        W43437  13.207  14.912   3.146
28591W        W43438  19.771  12.942  10.425
28592W        W43439  16.985  19.766  10.906
28593W        W43440  13.180   8.551   2.666
28594W        W43441  14.613   4.147  11.381
28595W        W43442  16.947  13.420  13.307
28596W        W43443  19.311  18.338   4.135
28597W        W43444  18.382   8.080   0.728
28598W        W43445  18.861  15.898  12.855
28599W        W43446  13.664  10.979   3.189
28600W        W43447  17.424  10.536  10.899
28601W        W43448  18.864  15.384   3.149
28602W        W43449  13.677  14.437  13.792
28603W        W43450  12.733   0.755   9.943
28604W        W43451  16.957   7.604   1.214
28605W        W43452  13.199  15.858  12.845
28606W        W43453  15.103  10.510  10.935
28607W        W43454  15.567  11.488  13.823
28608W        W43455  13.193   6.605   2.184
28609W        W43456  16.497  10.031   1.220
28610W        W43457  17.427   4.654   3.176
28611W        W43458  17.454  17.361  12.847
28612W        W43459  14.137  17.364  13.336
28613W        W43460  19.789   7.077  12.371
28614W        W43461  12.272  14.890  13.330
28615W        W43462  15.105   8.059  11.377
28616W        W43463  13.662  12.462   1.716
28617W        W43464  19.326  16.352   2.666
28618W        W43465  14.127   5.634  11.882
28619W        W43466  16.043  16.851   2.687
28620W        W43467  15.576  14.907   0.268
28621W        W43468  19.319   5.637  10.935
28622W        W43469  14.615  16.362  14.279
28623W        W43470  13.190   9.528  11.400
28624W        W43471  16.494   0.245   3.170
28625W        W43472  12.733  17.332   2.683
28626W        W43473  16.011  12.939  12.345
28627W        W43474  16.959  16.359   1.705
28628W        W43475  17.884   6.616   4.148
28629W        W43476  13.676   1.235   2.668
28630W        W43477  15.549   1.222   2.671
28631W        W43478  14.149   4.664   0.272
28632W        W43479  15.075  18.799   1.722
28633W        W43480  13.684   1.260  12.349
28634W        W43481  14.132  13.462  10.414
28635W        W43482  18.856  16.858  10.920
28636W        W43483  16.985   6.104  11.410
28637W        W43484  14.605  17.327  12.852
28638W        W43485  15.074   0.270   1.235
28639W        W43486  16.482  18.329   2.665
28640W        W43487  16.961   0.776  11.390
28641W        W43488  18.371   1.231   3.177
28642W        W43489  14.615   4.668  12.355
28643W        W43490  15.536   4.657  10.935
28644W        W43491  12.731   1.710  10.411
28645W        W43492  17.895  16.870  10.427
28646W        W43493  13.195  15.374   1.699
28647W        W43494  18.858  13.934   4.154
28648W        W43495  19.304   8.069   3.149
28649W        W43496  19.795  10.495  11.894
28650W        W43497  14.157  14.926   1.731
28651W        W43498  17.440  15.394  10.424
28652W        W43499  18.382  19.316  14.309
28653W        W43500  13.684  11.999   5.098
28654W        W43501  16.968   4.675   2.219
28655W        W43502  16.040  13.923  12.856
28656W        W43503  15.542  10.507  10.441
28657W        W43504  17.928  10.504  12.359
28658W        W43505  12.752  16.353  10.897
28659W        W43506  16.977   5.646  12.381
28660W        W43507  13.192   6.630   2.708
28661W        W43508  13.210   4.657   3.156
28662W        W43509  16.013   3.185   4.122
28663W        W43510  16.506   8.075   4.619
28664W        W43511  14.616  15.392  11.415
28665W        W43512  12.733   0.275   1.221
28666W        W43513  19.798  18.803  12.348
28667W        W43514  14.160  11.978   0.730
28668W        W43515  16.476   0.775   1.247
28669W        W43516  14.629   9.541   4.612
28670W        W43517  18.391  10.039   2.198
28671W        W43518  14.161  17.849   0.253
28672W        W43519  17.907   3.218  10.448
28673W        W43520  19.304   3.172   3.654
28674W        W43521  18.828  12.441   5.129
28675W        W43522  19.327   4.181   0.262
28676W        W43523  16.504   7.596  12.378
28677W        W43524  14.617  15.409  12.863
28678W        W43525  19.807  17.819  13.798
28679W        W43526  14.601  14.885  13.827
28680W        W43527  12.260  15.856  10.929
28681W        W43528  13.666   3.190  11.410
28682W        W43529  16.985  14.411   1.240
28683W        W43530  16.489  16.355   0.763
28684W        W43531  18.867   8.558   0.763
28685W        W43532  16.976  12.466  14.763
28686W        W43533  16.509  18.795   4.135
28687W        W43534  13.654   6.112   0.260
28688W        W43535  18.389  19.797  11.870
28689W        W43536  15.556  16.350   0.729
28690W        W43537  13.689  13.932   4.141
28691W        W43538  15.071   0.273   3.673
28692W        W43539  17.424  10.991   1.220
28693W        W43540  14.592  15.386   3.164
28694W        W43541  18.372   5.638  13.799
28695W        W43542  17.440   9.532   2.181
28696W        W43543  16.020   1.723   2.219
28697W        W43544  15.563   0.261  13.813
28698W        W43545  15.081   0.733  14.304
28699W        W43546  18.387   2.200   2.215
28700W        W43547  13.672   6.627  10.442
28701W        W43548  16.484  17.817   0.774
28702W        W43549  14.159  15.390  10.436
28703W        W43550  12.238  13.416   0.731
28704W        W43551  12.246  11.470  13.320
28705W        W43552  15.068  13.449   4.633
28706W        W43553  16.482  15.410   4.600
28707W        W43554  17.418   7.116  10.441
28708W        W43555  18.362   8.076   9.924
28709W        W43556  12.744  11.958   1.237
28710W        W43557  19.779  18.804  11.372
28711W        W43558  18.381  19.785   0.770
28712W        W43559  15.549   2.717   9.936
28713W        W43560  18.835  12.940   3.674
28714W        W43561  14.123   0.289   0.742
28715W        W43562  12.255  17.836   1.740
28716W        W43563  16.017  19.768   0.745
28717W        W43564  19.765  11.017  12.378
28718W        W43565  15.537  12.941  12.861
28719W        W43566  18.365   5.628  12.373
28720W        W43567  16.504  12.934   2.224
28721W        W43568  13.677   1.752   3.170
28722W        W43569  18.827  10.001  12.866
28723W        W43570  13.213   4.665  10.910
28724W        W43571  15.546  15.375   0.288
28725W        W43572  19.804   4.656  10.432
28726W        W43573  12.245   3.687   0.282
28727W        W43574  12.239  12.444   2.198
28728W        W43575  17.913   3.705   1.226
28729W        W43576  14.590   2.716  10.406
28730W        W43577  17.906   4.671  11.418
28731W        W43578  15.556   5.625   1.215
28732W        W43579  19.319   4.664   4.128
28733W        W43580  16.513  11.981   5.110
28734W        W43581  14.147  10.043   0.736
28735W        W43582  13.185  16.358  13.839
28736W        W43583  15.546  16.383   9.965
28737W        W43584  13.665   0.281   4.609
28738W        W43585  14.153   7.111   3.181
28739W        W43586  15.092  11.474   1.237
28740W        W43587  14.604   3.196   0.257
28741W        W43588  14.149  15.865   1.235
28742W        W43589  13.219  12.943   1.700
28743W        W43590  12.237   7.588  11.413
28744W        W43591  15.088  14.421  10.437
28745W        W43592  12.260   7.562   4.133
28746W        W43593  14.615  16.867   1.714
28747W        W43594  17.917  18.304   2.667
28748W        W43595  12.259  10.005   5.104
28749W        W43596  12.253   4.174   2.191
28750W        W43597  14.153  11.964  10.898
28751W        W43598  18.869  16.377  13.325
28752W        W43599  14.149   0.742  13.820
28753W        W43600  19.796  10.004  10.447
28754W        W43601  16.494  15.399  12.373
28755W        W43602  15.542   6.127  10.932
28756W        W43603  16.962  11.013  11.378
28757W        W43604  19.300   8.072   4.126
28758W        W43605  19.779   3.195   0.764
28759W        W43606  12.711   4.662   3.653
28760W        W43607  16.986   1.715  12.360
28761W        W43608  16.484   6.602  14.282
28762W        W43609  16.971   6.099   0.264
28763W        W43610  19.323   0.780  12.853
28764W        W43611  17.414  16.387   0.258
28765W        W43612  17.449  10.495   0.250
28766W        W43613  18.833  18.799  12.824
28767W        W43614  12.738  16.350   5.081
28768W        W43615  12.706   6.631   1.714
28769W        W43616  19.297  12.956  14.760
28770W        W43617  13.219  10.526   3.161
28771W        W43618  17.903  12.458  14.312
28772W        W43619  14.631  14.887   0.263
28773W        W43620  14.619  14.906  10.933
28774W        W43621  14.604   5.162  14.780
28775W        W43622  15.545   4.186   2.675
28776W        W43623  14.163   8.579   4.133
28777W        W43624  18.843   6.117  13.803
28778W        W43625  19.299   7.116   2.667
28779W        W43626  15.062   2.230  14.774
28780W        W43627  14.604   5.167   4.598
28781W        W43628  13.179  12.460   4.630
28782W        W43629  14.147   5.616  14.769
28783W        W43630  19.329   0.767  13.796
28784W        W43631  14.138  16.369  11.403
28785W        W43632  16.014  14.430  12.367
28786W        W43633  12.726  19.287   3.164
28787W        W43634  13.659  10.496  10.418
28788W        W43635  14.617   9.026   1.695
28789W        W43636  16.488   7.095  11.872
28790W        W43637  18.840  15.384  12.349
28791W        W43638  15.550   6.138   9.949
28792W        W43639  19.325  13.912   2.701
28793W        W43640  13.221  12.439   1.249
28794W        W43641  15.556  17.840  13.821
28795W        W43642  15.553  12.442   4.607
28796W        W43643  19.787   3.703  10.902
28797W        W43644  16.038  10.983   1.253
28798W        W43645  12.276   2.704   4.602
28799W        W43646  12.276  15.902  11.884
28800W        W43647  18.855  18.328  10.901
28801W        W43648  15.558   1.727   3.645
28802W        W43649  14.124   1.237  11.894
28803W        W43650  16.482  14.914   0.281
28804W        W43651  18.828  17.358   1.711
28805W        W43652  15.565   5.643   2.217
28806W        W43653  18.863  13.453   3.172
28807W        W43654  13.190  18.332  11.418
28808W        W43655  19.307  12.445  13.838
28809W        W43656  17.441   3.677   1.723
28810W        W43657  12.247   6.593   0.728
28811W        W43658  12.727   1.254  14.780
28812W        W43659  14.629   4.157   3.667
28813W        W43660  16.024  19.299   4.159
28814W        W43661  16.482   7.097   0.245
28815W        W43662  15.075   7.607   1.256
28816W        W43663  12.723   1.262   2.687
28817W        W43664  16.497  14.418  11.866
28818W        W43665  15.552   3.665  12.377
28819W        W43666  19.810  11.967   2.668
28820W        W43667  12.720  10.499  10.412
28821W        W43668  12.236  16.865  13.310
28822W        W43669  14.128   9.514   1.712
28823W        W43670  19.801   9.542   2.192
28824W        W43671  15.571  15.888   2.688
28825W        W43672  16.494  13.463  12.367
28826W        W43673  13.693   8.063   5.102
28827W        W43674  19.784  14.434  11.418
28828W        W43675  14.625   0.268  11.879
28829W        W43676  12.270  16.861   0.281
28830W        W43677  14.604   0.291   0.739
28831W        W43678  12.752   0.254  11.406
28832W        W43679  17.442   0.733   5.127
28833W        W43680  16.487   1.720  10.915
28834W        W43681  17.915   0.735   2.201
28835W        W43682  12.731   5.646  14.314
28836W        W43683  16.040  17.323   0.758
28837W        W43684  19.335   0.276   1.702
28838W        W43685  19.810  17.358  11.380
28839W        W43686  15.060  10.012  11.387
28840W        W43687  19.310   3.201   5.084
28841W        W43688  14.155  15.858   2.196
28842W        W43689  18.852  19.777   1.226
28843W        W43690  19.308  12.938   0.280
28844W        W43691  18.835   9.031   3.146
28845W        W43692  18.379   8.553   1.696
28846W        W43693  13.193   6.101  13.811
28847W        W43694  18.372  10.027   5.091
28848W        W43695  13.676  17.329   4.113
28849W        W43696  13.216  18.340  14.279
28850W        W43697  16.961  14.398  12.375
28851W        W43698  15.092  19.781   0.284
28852W        W43699  18.387  11.955   2.200
28853W        W43700  13.202  19.793   2.669
28854W        W43701  13.671   2.229  11.896
28855W        W43702  19.309   9.051   4.143
28856W        W43703  16.510  10.498   3.152
28857W        W43704  18.354  18.783   3.170
28858W        W43705  15.087  13.913  10.427
28859W        W43706  14.150   8.057  13.312
28860W        W43707  17.418  13.448  10.409
28861W        W43708  13.670  16.371   4.139
28862W        W43709  18.376  10.523   0.284
28863W        W43710  12.282  14.421   0.750
28864W        W43711  14.161   1.261  10.449
28865W        W43712  13.665  17.335  13.834
28866W        W43713  16.017  15.884  13.795
28867W        W43714  12.711   1.747   3.668
28868W        W43715  19.797   8.058  14.297
28869W        W43716  17.923  15.860  14.778
28870W        W43717  12.750   4.682   2.210
28871W        W43718  19.801  10.048  14.277
28872W        W43719  19.336   0.748  14.288
28873W        W43720  14.126   8.077  11.409
28874W        W43721  16.511   4.195   4.635
28875W        W43722  15.084   8.544   3.651
28876W        W43723  18.842   0.255  11.902
28877W        W43724  18.364   8.060   3.665
28878W        W43725  16.967  18.823  12.829
28879W        W43726  14.590   1.710   4.617
28880W        W43727  12.246   8.070   3.642
28881W        W43728  17.439   3.177  14.799
28882W        W43729  13.685   8.086   0.243
28883W        W43730  14.624  15.886  13.809
28884W        W43731  14.608  15.897   2.183
28885W        W43732  15.061  18.328  12.838
28886W        W43733  19.769   7.568   2.681
28887W        W43734  18.369   9.547  13.797
28888W        W43735  16.016   8.566   2.195
28889W        W43736  15.080   5.123   0.734
28890W        W43737  13.686  19.798  12.866
28891W        W43738  13.223   1.235  14.290
28892W        W43739  18.389  18.823  12.365
28893W        W43740  17.435   3.704   3.644
28894W        W43741  13.177  14.428   2.195
28895W        W43742  17.883  17.323   9.927
28896W        W43743  15.061   8.577   0.255
28897W        W43744  12.242   0.769   2.696
28898W        W43745  17.918  11.470   0.243
28899W        W43746  17.415  16.859   5.114
28900W        W43747  15.561  10.020  14.759
28901W        W43748  18.860  11.992  14.305
28902W        W43749  16.024  12.934  11.864
28903W        W43750  15.545  16.834   1.255
28904W        W43751  18.379  14.922   4.117
28905W        W43752  14.623   8.065  11.866
28906W        W43753  16.012  10.979   2.217
28907W        W43754  17.895  16.856  10.908
28908W        W43755  16.038   9.060   0.745
28909W        W43756  18.378  13.921   3.665
28910W        W43757  17.434  10.520   2.703
28911W        W43758  14.127   2.711   1.720
28912W        W43759  19.298   2.723  13.797
28913W        W43760  14.610  19.795  10.894
28914W        W43761  14.603  10.994  10.444
28915W        W43762  16.514   9.060   2.706
28916W        W43763  14.131   1.237   3.659
28917W        W43764  17.902   5.163   4.136
28918W        W43765  17.885  18.803   0.757
28919W        W43766  18.858   3.688   1.740
28920W        W43767  13.672   2.197   2.677
28921W        W43768  16.968  13.912   4.641
28922W        W43769  18.865  15.868  11.377
28923W        W43770  16.505   5.634   0.754
28924W        W43771  19.308   6.139   4.643
28925W        W43772  13.652  16.371  13.830
28926W        W43773  17.447   1.236   1.239
28927W        W43774  13.190  17.330   1.735
28928W        W43775  16.948   2.226   2.678
28929W        W43776  13.648   4.161  11.885
28930W        W43777  15.551   4.674  13.353
28931W        W43778  13.656  11.484   1.226
28932W        W43779  19.331   2.722   1.729
28933W        W43780  12.713  10.492  12.857
28934W        W43781  17.925   2.215   1.698
28935W        W43782  14.137   4.674   3.632
28936W        W43783  18.382  10.011  14.787
28937W        W43784  15.062   8.067   4.640
28938W        W43785  12.259  15.892   1.215
28939W        W43786  16.498   0.770   4.642
28940W        W43787  12.713  10.506  10.929
28941W        W43788  14.596  18.335  13.823
28942W        W43789  14.592   9.557  13.355
28943W        W43790  19.805   4.645  10.911
28944W        W43791  19.338   7.109   3.648
28945W        W43792  15.554   6.115   4.139
28946W        W43793  15.099  18.810  14.770
28947W        W43794  19.311  16.849  14.320
28948W        W43795  16.505  10.030  13.340
28949W        W43796  14.127   4.159  12.835
28950W        W43797  13.210  14.923   4.608
28951W        W43798  19.306   5.630   4.123
28952W        W43799  16.491   9.055   1.713
28953W        W43800  17.898   6.630   2.188
28954W        W43801  17.928   8.077   0.755
28955W        W43802  14.138  11.511   0.250
28956W        W43803  15.564   0.269   1.223
28957W        W43804  15.545   1.730   1.255
28958W        W43805  15.562   3.700   3.667
28959W        W43806  16.499  10.013   3.635
28960W        W43807  16.005  16.840   1.712
28961W        W43808  12.241  10.976  12.870
28962W        W43809  13.203  10.007   4.116
28963W        W43810  17.446  19.787   1.721
28964W        W43811  19.775   6.142   5.088
28965W        W43812  18.363   9.547  14.307
28966W        W43813  19.295   1.250  10.406
28967W        W43814  14.610   5.155   0.751
28968W        W43815  19.806  12.446  10.424
28969W        W43816  16.970   7.086  12.860
28970W        W43817  15.545   9.525   3.175
28971W        W43818  14.601  13.443  11.405
28972W        W43819  18.845   9.558  14.281
28973W        W43820  14.627   3.666   1.216
28974W        W43821  15.530  12.459  11.400
28975W        W43822  13.688  12.972   4.621
28976W        W43823  17.905   0.767   0.747
28977W        W43824  13.677   9.058  13.323
28978W        W43825  14.153   0.246  10.935
28979W        W43826  16.966   0.276  14.776
28980W        W43827  14.590   9.049  10.437
28981W        W43828  18.824  17.319   2.687
28982W        W43829  18.849  11.493   3.635
28983W        W43830  16.500   5.646  13.802
28984W        W43831  17.915   4.677  13.834
28985W        W43832  18.373   8.544  12.870
28986W        W43833  19.809  17.327  12.845
28987W        W43834  15.565   2.726   3.658
28988W        W43835  19.310  17.829  13.333
28989W        W43836  16.038  13.417  11.867
28990W        W43837  14.134   1.225  14.804
28991W        W43838  14.125   1.266  12.380
28992W        W43839  18.391  10.005  13.799
28993W        W43840  16.508   5.155  14.285
28994W        W43841  19.316   5.143   4.116
28995W        W43842  19.789   3.683  14.760
28996W        W43843  12.723  19.789   0.727
28997W        W43844  17.911   1.717   3.649
28998W        W43845  17.453  18.305  14.308
28999W        W43846  13.667   6.602  12.349
29000W        W43847  18.831  16.839   2.185
29001W        W43848  19.797  18.817  13.353
29002W        W43849  14.626  19.762   3.674
29003W        W43850  17.450   0.290   2.180
29004W        W43851  16.961  13.455   3.148
29005W        W43852  16.501  16.858  14.800
29006W        W43853  13.217   8.078   0.261
29007W        W43854  14.616  16.868   3.186
29008W        W43855  16.032   3.205  14.776
29009W        W43856  18.826  14.397  10.914
29010W        W43857  18.824  18.319  12.870
29011W        W43858  13.209  15.369   2.200
29012W        W43859  16.045   3.681  11.892
29013W        W43860  14.136  11.012   3.650
29014W        W43861  19.767  13.950  12.361
29015W        W43862  12.736   7.077  13.314
29016W        W43863  13.650  17.840   1.698
29017W        W43864  13.180   8.557  14.783
29018W        W43865  18.851   2.685   9.963
29019W        W43866  17.914  13.449   3.651
29020W        W43867  16.473   1.745  13.323
29021W        W43868  17.907  13.913   2.681
29022W        W43869  13.659  10.491  11.416
29023W        W43870  12.737   6.618   3.180
29024W        W43871  19.296  14.923  10.933
29025W        W43872  13.678   6.591  13.346
29026W        W43873  16.949   5.152  13.820
29027W        W43874  16.036  14.916  11.866
29028W        W43875  14.119   9.039  11.897
29029W        W43876  13.206   1.225   2.703
29030W        W43877  14.141  14.439  10.920
29031W        W43878  17.417  18.335   9.961
29032W        W43879  14.601  11.022  10.902
29033W        W43880  14.149   5.128   3.175
29034W        W43881  15.065  16.360   1.707
29035W        W43882  13.684  16.860   3.156
29036W        W43883  18.371  13.949  14.761
29037W        W43884  18.357  14.889  11.375
29038W        W43885  19.312   5.637  10.435
29039W        W43886  12.710  12.451   4.604
29040W        W43887  18.363  10.019   2.702
29041W        W43888  15.087   0.273   0.772
29042W        W43889  15.068   2.723   1.235
29043W        W43890  15.081  19.760  13.833
29044W        W43891  18.835   6.116   4.117
29045W        W43892  19.791  17.840  14.792
29046W        W43893  19.769   8.554   4.642
29047W        W43894  13.690   8.090   4.625
29048W        W43895  16.474  12.954  10.925
29049W        W43896  16.016   2.235   0.734
29050W        W43897  19.787  16.872  11.372
29051W        W43898  19.772  12.462  14.307
29052W        W43899  13.694  10.995   4.601
29053W        W43900  13.654   6.634   1.698
29054W        W43901  15.098   7.593  12.339
29055W        W43902  17.883   1.721   2.698
29056W        W43903  19.775  16.840  14.781
29057W        W43904  15.575  14.403   2.207
29058W        W43905  16.482  15.372  10.420
29059W        W43906  13.216  16.837  13.809
29060W        W43907  17.887  11.485   1.241
29061W        W43908  12.746   3.678  11.863
29062W        W43909  14.601   3.668  13.813
29063W        W43910  17.916   5.157   4.617
29064W        W43911  16.487   9.032  11.419
29065W        W43912  13.188  19.298   2.188
29066W        W43913  19.797   0.779  12.370
29067W        W43914  18.846   8.079  10.935
29068W        W43915  14.153   2.229   9.922
29069W        W43916  18.844  15.385  10.892
29070W        W43917  17.443   1.717  11.403
29071W        W43918  15.096   8.051   3.150
29072W        W43919  16.009   3.195   3.166
29073W        W43920  14.143  13.927  10.922
29074W        W43921  18.835   2.195  10.430
29075W        W43922  12.256  18.305   4.624
29076W        W43923  19.322   8.576  10.442
29077W        W43924  16.031   6.146   0.244
29078W        W43925  17.420  17.320   2.693
29079W        W43926  16.025  14.891   3.672
29080W        W43927  17.925  12.461   4.644
29081W        W43928  16.493   4.670   1.221
29082W        W43929  15.094  19.763  14.297
29083W        W43930  16.954   3.195   0.282
29084W        W43931  16.517  12.952  14.796
29085W        W43932  15.068   5.160   1.726
29086W        W43933  14.121   6.139  14.789
29087W        W43934  19.319   3.704  12.833
29088W        W43935  18.837  18.824   2.685
29089W        W43936  16.975   4.188   0.749
29090W        W43937  19.774   5.647  11.377
29091W        W43938  16.950  18.323   9.927
29092W        W43939  14.624  15.392   4.116
29093W        W43940  17.440   0.764   3.169
29094W        W43941  18.380   1.227   0.755
29095W        W43942  14.603  12.971   1.219
29096W        W43943  13.207   8.569  12.823
29097W        W43944  18.364   9.523   4.127
29098W        W43945  12.275   1.723   3.646
29099W        W43946  16.945  14.407  12.863
29100W        W43947  16.478   4.641  12.855
29101W        W43948  14.152   5.638   3.164
29102W        W43949  12.739   0.768   1.224
29103W        W43950  12.747   9.518  14.793
29104W        W43951  15.555  19.757   4.614
29105W        W43952  12.739   1.751   4.156
29106W        W43953  19.792   2.714   0.742
29107W        W43954  19.310   3.192  11.402
29108W        W43955  14.614  12.968   3.164
29109W        W43956  14.591   8.579  14.311
29110W        W43957  12.243   1.260   2.182
29111W        W43958  15.570  18.813   4.115
29112W        W43959  15.073  17.820  11.401
29113W        W43960  15.077  16.368   3.650
29114W        W43961  13.193  18.811  11.867
29115W        W43962  16.476   4.646   3.631
29116W        W43963  16.479   3.173  11.397
29117W        W43964  15.572   7.096  11.891
29118W        W43965  15.069   7.119   0.269
29119W        W43966  18.848  14.403  13.330
29120W        W43967  14.154  14.429  13.314
29121W        W43968  15.098  19.785   4.154
29122W        W43969  13.205  16.861   5.087
29123W        W43970  19.766  10.043  14.799
29124W        W43971  15.548   1.748  12.369
29125W        W43972  17.443   2.683   0.255
29126W        W43973  13.213   6.136  14.317
29127W        W43974  12.242   8.086   1.223
29128W        W43975  16.474   3.180  12.340
29129W        W43976  14.630   6.609  11.417
29130W        W43977  15.075  19.757  11.371
29131W        W43978  17.913   6.593   3.630
29132W        W43979  17.444  10.500   1.711
29133W        W43980  15.539   8.569  14.778
29134W        W43981  18.373   4.682   2.191
29135W        W43982  18.365  11.955   3.673
29136W        W43983  19.798  15.380   0.750
29137W        W43984  18.374  14.879  11.901
29138W        W43985  19.801  18.803  11.872
29139W        W43986  13.190  17.815  13.827
29140W        W43987  18.866  10.493   1.215
29141W        W43988  16.972   3.705  10.899
29142W        W43989  18.367  11.990  12.352
29143W        W43990  19.798   8.550  11.890
29144W        W43991  12.719  17.850  12.370
29145W        W43992  19.306   5.132   3.635
29146W        W43993  13.659  16.834  14.784
29147W        W43994  19.312   5.165  14.762
29148W        W43995  14.596  15.894   4.609
29149W        W43996  18.392  11.510   2.224
29150W        W43997  16.475  16.842   2.220
29151W        W43998  12.729  16.367   3.147
29152W        W43999  15.088  19.277  12.837
29153W        W44000  16.486  19.783   2.693
29154W        W44001  15.075   1.747   1.238
29155W        W44002  16.956  15.376  14.782
29156W        W44003  13.675   2.693   3.160
29157W        W44004  18.837  10.022   0.260
29158W        W44005  15.565   2.697   4.142
29159W        W44006  16.024   0.771  13.347
29160W        W44007  16.022  11.977  10.888
29161W        W44008  14.635  12.453  14.282
29162W        W44009  19.777   5.166  10.896
29163W        W44010  14.630   5.141  11.894
29164W        W44011  13.659   7.096  10.889
29165W        W44012  16.504   2.709   3.168
29166W        W44013  16.018   1.742   3.175
29167W        W44014  13.671  17.324  12.378
29168W        W44015  17.422  14.412   1.216
29169W        W44016  17.435  14.423   3.170
29170W        W44017  16.022  18.307  10.913
29171W        W44018  13.649  19.803   1.255
29172W        W44019  14.128  17.347   3.634
29173W        W44020  12.251  17.816  12.340
29174W        W44021  19.796  18.336   1.727
29175W        W44022  16.478  12.956   4.620
29176W        W44023  15.540  17.822   9.954
29177W        W44024  15.576  12.449   3.173
29178W        W44025  16.001  19.275   2.204
29179W        W44026  16.957   8.078   2.194
29180W        W44027  19.328   2.710   2.210
29181W        W44028  13.667  18.791   3.146
29182W        W44029  12.260  19.275   1.212
29183W        W44030  18.398   1.738   4.643
29184W        W44031  16.945  15.391  13.838
29185W        W44032  14.596  11.472   4.632
29186W        W44033  18.359   0.739  10.932
29187W        W44034  12.264  18.826  12.346
29188W        W44035  12.236  17.339  12.839
29189W        W44036  18.395   4.650   3.154
29190W        W44037  17.895   5.615  10.891
29191W        W44038  15.063   9.556   1.257
29192W        W44039  14.129  16.877  11.404
29193W        W44040  18.866  14.429  10.436
29194W        W44041  15.536  17.838  14.771
29195W        W44042  15.090  12.448  10.405
29196W        W44043  18.355  10.507  11.419
29197W        W44044  12.745   1.231   0.734
29198W        W44045  13.664  16.875  10.442
29199W        W44046  13.651  16.365   2.692
29200W        W44047  15.563   8.056  14.289
29201W        W44048  16.041  18.789  13.310
29202W        W44049  16.013   2.718  11.394
29203W        W44050  15.089  12.441  14.310
29204W        W44051  12.724  15.393  11.380
29205W        W44052  16.981  15.409  11.893
29206W        W44053  18.849   7.597  12.376
29207W        W44054  15.094  14.881   9.949
29208W        W44055  14.121   4.662   4.627
29209W        W44056  14.622   8.572  13.798
29210W        W44057  14.161  17.809   4.135
29211W        W44058  16.042  10.536  12.350
29212W        W44059  18.850   4.175  11.410
29213W        W44060  19.793  18.821   4.149
29214W        W44061  12.716  13.922   1.215
29215W        W44062  15.066  10.525   3.637
29216W        W44063  13.209  16.877  14.276
29217W        W44064  19.781  10.984  10.891
29218W        W44065  19.320   1.723   1.230
29219W        W44066  13.204  17.821   0.743
29220W        W44067  17.885  12.961  13.314
29221W        W44068  19.299   8.097   2.191
29222W        W44069  14.127   2.216   0.733
29223W        W44070  12.752  15.391   3.190
29224W        W44071  15.548  16.839  11.875
29225W        W44072  15.531  10.041  11.874
29226W        W44073  19.307   0.250   9.951
29227W        W44074  18.838  18.315   4.159
29228W        W44075  16.037  14.397   0.765
29229W        W44076  16.037  11.992   2.224
29230W        W44077  18.373   8.087  12.863
29231W        W44078  19.324   3.174   1.232
29232W        W44079  13.649  17.332  10.894
29233W        W44080  18.390   5.140  14.303
29234W        W44081  19.806  12.945   1.694
29235W        W44082  16.041  10.027  12.839
29236W        W44083  19.810  10.996   9.935
29237W        W44084  19.806  13.944  11.867
29238W        W44085  15.576  14.883  14.779
29239W        W44086  19.319  14.412   4.129
29240W        W44087  16.507  10.005  14.781
29241W        W44088  13.683  14.902  10.449
29242W        W44089  12.263  11.002   4.148
29243W        W44090  15.076   4.667  13.348
29244W        W44091  15.556   2.204  13.829
29245W        W44092  13.654   6.146   1.722
29246W        W44093  14.589  10.995   4.142
29247W        W44094  16.496  14.414   9.923
29248W        W44095  14.138   3.660   2.669
29249W        W44096  15.060  18.314  10.414
29250W        W44097  13.204   1.247  12.863
29251W        W44098  17.886   3.213   5.094
29252W        W44099  19.781   0.768  14.304
29253W        W44100  13.216  10.977   1.712
29254W        W44101  12.254   4.171   0.742
29255W        W44102  19.788   5.625  12.861
29256W        W44103  15.074  18.810  14.282
29257W        W44104  17.456  19.273  10.903
29258W        W44105  16.949  10.046   3.153
29259W        W44106  13.192  10.997   5.121
29260W        W44107  13.657  11.507   4.635
29261W        W44108  13.650  11.484   0.272
29262W        W44109  18.854  16.871   2.679
29263W        W44110  17.924   8.071   2.225
29264W        W44111  13.690  15.860   3.648
29265W        W44112  17.897  13.463   2.218
29266W        W44113  16.033  17.333   0.247
29267W        W44114  16.503  11.966   4.118
29268W        W44115  12.245   6.117  11.872
29269W        W44116  14.163  14.891   4.138
29270W        W44117  18.390  18.306   4.117
29271W        W44118  15.571   7.077   3.176
29272W        W44119  19.810   7.573  10.932
29273W        W44120  15.568   5.148   1.252
29274W        W44121  14.126  17.846  10.933
29275W        W44122  13.659   7.592   1.217
29276W        W44123  12.708   0.259  10.444
29277W        W44124  19.791   8.539  14.320
29278W        W44125  16.014   3.216   0.726
29279W        W44126  15.559  17.851  13.323
29280W        W44127  12.247  19.302   1.697
29281W        W44128  12.716  14.413   3.150
29282W        W44129  16.488   0.287   1.252
29283W        W44130  14.589  10.524  14.775
29284W        W44131  15.554   4.637   3.677
29285W        W44132  16.515   5.632  14.800
29286W        W44133  13.670  15.875  12.339
29287W        W44134  15.065   2.684   3.184
29288W        W44135  16.004   4.150   9.926
29289W        W44136  14.137   5.161  12.836
29290W        W44137  19.805   0.738   0.754
29291W        W44138  17.421   4.169   0.757
29292W        W44139  16.502  19.771   4.115
29293W        W44140  13.208  13.938   0.773
29294W        W44141  18.836  11.495  10.891
29295W        W44142  12.263   4.194   3.184
29296W        W44143  18.369  17.358  11.857
29297W        W44144  13.201  19.284   2.700
29298W        W44145  12.244   3.184  13.801
29299W        W44146  19.327   1.226  12.851
29300W        W44147  19.304  17.363  13.833
29301W        W44148  14.635   8.082   0.729
29302W        W44149  17.904   5.634  12.377
29303W        W44150  18.372  14.900  12.344
29304W        W44151  12.751   2.690  14.284
29305W        W44152  17.929  18.810   3.154
29306W        W44153  19.800  15.890   1.257
29307W        W44154  19.312   5.166  12.856
29308W        W44155  17.929   6.130   1.741
29309W        W44156  17.889  10.029  12.367
29310W        W44157  19.313  18.800   1.258
29311W        W44158  14.162   8.066   4.123
29312W        W44159  15.070   8.577  14.804
29313W        W44160  16.985  19.273   0.244
29314W        W44161  14.602  11.998   1.211
29315W        W44162  18.393  11.021  13.829
29316W        W44163  12.742  19.291  10.427
29317W        W44164  16.499  17.323  13.337
29318W        W44165  13.192  11.991  14.762
29319W        W44166  16.962   6.630  10.438
29320W        W44167  18.383   7.084   2.709
29321W        W44168  13.212  13.933  13.828
29322W        W44169  16.490  17.849   3.187
29323W        W44170  19.316  16.384   4.122
29324W        W44171  17.888   7.112  12.352
29325W        W44172  16.007  11.999  12.357
29326W        W44173  15.551  10.530  11.394
29327W        W44174  14.140  11.503   1.232
29328W        W44175  13.182  10.006  12.353
29329W        W44176  18.867  11.974   0.287
29330W        W44177  15.097  12.943  10.431
29331W        W44178  16.979  16.362  11.902
29332W        W44179  16.506  14.408  12.373
29333W        W44180  15.098  10.001  13.334
29334W        W44181  18.851  10.512  10.426
29335W        W44182  18.397  14.435  14.281
29336W        W44183  18.375  16.861  12.382
29337W        W44184  16.036   8.071   3.668
29338W        W44185  12.709   2.223  12.378
29339W        W44186  18.869  16.836  12.345
29340W        W44187  13.650  10.036   0.733
29341W        W44188  16.971   8.066  12.382
29342W        W44189  19.799  16.863   1.716
29343W        W44190  13.195   4.657   2.683
29344W        W44191  14.622   1.251  10.405
29345W        W44192  17.887  15.864   3.675
29346W        W44193  17.886  17.825   3.161
29347W        W44194  16.027  14.437  10.894
29348W        W44195  17.430  14.408  10.915
29349W        W44196  17.412  11.997   2.210
29350W        W44197  16.516   0.761   4.155
29351W        W44198  19.317   9.047  11.865
29352W        W44199  14.159   5.171   0.245
29353W        W44200  12.746   1.736   3.184
29354W        W44201  17.906   1.744   1.716
29355W        W44202  13.688   2.685   0.251
29356W        W44203  16.958  11.017  10.430
29357W        W44204  17.916  17.843  11.894
29358W        W44205  16.502  16.344   2.182
29359W        W44206  18.831  12.934  11.392
29360W        W44207  18.853  11.014  13.830
29361W        W44208  17.897  11.965   2.224
29362W        W44209  12.727  13.445  11.395
29363W        W44210  16.961   4.189  14.781
29364W        W44211  18.828  15.401   4.605
29365W        W44212  17.922   0.248   1.741
29366W        W44213  13.181  11.987   4.611
29367W        W44214  19.298   6.625  10.444
29368W        W44215  14.622   2.722   1.737
29369W        W44216  16.960  19.772   1.703
29370W        W44217  19.766   2.221   0.726
29371W        W44218  17.919   7.110   1.726
29372W        W44219  12.728  19.801   4.153
29373W        W44220  13.662  15.855   1.702
29374W        W44221  17.904   5.617   3.186
29375W        W44222  13.222   2.235   1.697
29376W        W44223  15.069   8.555  13.334
29377W        W44224  13.183  17.365   2.692
29378W        W44225  16.948   9.544   3.174
29379W        W44226  17.886   2.702   1.719
29380W        W44227  12.734  19.767   3.174
29381W        W44228  16.008   4.161  14.794
29382W        W44229  18.829  10.502  11.891
29383W        W44230  19.323  10.015   4.128
29384W        W44231  16.512  17.822   2.680
29385W        W44232  16.500  13.937  11.415
29386W        W44233  12.241   0.761   2.209
29387W        W44234  16.969  16.853  11.881
29388W        W44235  15.088   7.105  14.288
29389W        W44236  14.139   7.594  12.837
29390W        W44237  13.214  17.323  13.817
29391W        W44238  19.810  16.855  10.914
29392W        W44239  18.398  19.317  11.402
29393W        W44240  12.271  10.025  13.349
29394W        W44241  18.851   0.777   1.711
29395W        W44242  17.446   3.177  10.907
29396W        W44243  16.474   4.635   5.101
29397W        W44244  18.855   4.677  14.798
29398W        W44245  19.300   5.165   0.274
29399W        W44246  15.080  13.918  12.344
29400W        W44247  13.665   1.727  12.339
29401W        W44248  16.011  19.762   3.677
29402W        W44249  16.031   5.159   0.252
29403W        W44250  19.331  19.315   5.092
29404W        W44251  17.890   1.750  13.804
29405W        W44252  15.087   4.669   1.702
29406W        W44253  19.334  14.392   3.159
29407W        W44254  18.860  17.354   0.266
29408W        W44255  15.081  16.862  12.867
29409W        W44256  19.772   8.548  12.363
29410W        W44257  15.067  18.812   0.267
29411W        W44258  16.978  13.937   4.131
29412W        W44259  13.657  10.980   2.676
29413W        W44260  15.561  10.024   9.965
29414W        W44261  13.214   2.700  10.926
29415W        W44262  16.493   7.092  13.820
29416W        W44263  15.561   5.159  10.925
29417W        W44264  18.360  14.402  10.408
29418W        W44265  18.372   5.652  14.312
29419W        W44266  14.147  17.350  12.835
29420W        W44267  16.017   6.138  11.403
29421W        W44268  12.742   4.160  10.907
29422W        W44269  13.673  11.488  12.866
29423W        W44270  13.685  17.825   0.773
29424W        W44271  18.827   7.090   3.154
29425W        W44272  14.622   3.665   3.672
29426W        W44273  16.972  14.412   0.764
29427W        W44274  12.249   9.048  12.842
29428W        W44275  16.944   0.749   0.280
29429W        W44276  19.798  12.952   3.632
29430W        W44277  13.652   3.666   0.730
29431W        W44278  17.452  16.857   2.198
29432W        W44279  17.924  19.268   2.677
29433W        W44280  13.205  14.439  12.374
29434W        W44281  12.269   8.551   3.166
29435W        W44282  16.971  18.822   2.187
29436W        W44283  14.161   6.136  12.838
29437W        W44284  15.066  18.827   4.138
29438W        W44285  17.449  18.824  10.900
29439W        W44286  18.375   5.126  13.796
29440W        W44287  17.912   4.173  12.341
29441W        W44288  15.067  13.435   1.701
29442W        W44289  17.889   0.772   1.711
29443W        W44290  15.087  10.983  14.291
29444W        W44291  18.862  16.356  11.379
29445W        W44292  19.804   6.620   4.137
29446W        W44293  16.019   0.778   5.127
29447W        W44294  15.094  12.969   4.116
29448W        W44295  15.574   4.670   2.668
29449W        W44296  12.278  16.876   1.725
29450W        W44297  17.451  10.040   1.254
29451W        W44298  13.674   7.579   2.180
29452W        W44299  14.147  12.462   0.749
29453W        W44300  12.724   7.099   4.124
29454W        W44301  15.546   8.054   2.179
29455W        W44302  15.568   4.681   0.748
29456W        W44303  12.729   6.111  10.907
29457W        W44304  13.670  13.918  10.446
29458W        W44305  12.251  15.373   2.674
29459W        W44306  18.867   0.768   2.664
29460W        W44307  18.854  10.531   0.271
29461W        W44308  12.261   9.064  12.360
29462W        W44309  18.862  17.806   1.231
29463W        W44310  16.499  14.437  10.912
29464W        W44311  16.014   2.226  13.350
29465W        W44312  16.959  10.032   3.658
29466W        W44313  17.421  13.906  10.900
29467W        W44314  17.921   1.223  11.410
29468W        W44315  18.370   8.549  10.923
29469W        W44316  12.749   0.771   2.705
29470W        W44317  16.502   4.655   0.769
29471W        W44318  19.811  17.345  14.305
29472W        W44319  17.908   9.517   4.642
29473W        W44320  17.918  18.333   0.746
29474W        W44321  16.042   2.236  13.806
29475W        W44322  19.336   7.112  11.414
29476W        W44323  16.517   7.106   2.221
29477W        W44324  13.200  16.877   4.638
29478W        W44325  18.854  19.802   4.602
29479W        W44326  19.299   0.766   4.614
29480W        W44327  17.414  11.478  12.840
29481W        W44328  17.421  17.829   3.654
29482W        W44329  13.214  18.322   0.732
29483W        W44330  12.261  17.822   0.253
29484W        W44331  16.040   9.541   1.705
29485W        W44332  15.082   6.134  11.895
29486W        W44333  18.826  18.808  13.828
29487W        W44334  16.011  15.413  10.925
29488W        W44335  19.311  12.447   3.673
29489W        W44336  19.310   9.520   4.627
29490W        W44337  16.003   5.137   1.698
29491W        W44338  15.105  10.048   4.131
29492W        W44339  13.188  12.465   0.745
29493W        W44340  18.395   2.236  11.418
29494W        W44341  15.103  17.849   4.603
29495W        W44342  16.972   1.709  11.882
29496W        W44343  12.736  12.475  11.876
29497W        W44344  19.766   5.145  11.392
29498W        W44345  14.119  17.331   0.769
29499W        W44346  12.744  10.024  12.858
29500W        W44347  18.845  11.992   2.702
29501W        W44348  14.139  18.335  13.314
29502W        W44349  13.671   9.540  13.307
29503W        W44350  12.255   8.561  10.440
29504W        W44351  14.621   4.644  14.779
29505W        W44352  16.031  13.949   2.181
29506W        W44353  18.840   3.685   3.639
29507W        W44354  15.546  14.404   1.228
29508W        W44355  16.954  18.809   0.287
29509W        W44356  15.065  13.929  14.317
29510W        W44357  13.187  11.480  14.760
29511W        W44358  15.548   7.101  10.923
29512W        W44359  12.709  10.048   1.233
29513W        W44360  18.377  19.777  12.361
29514W        W44361  17.446   3.215   1.235
29515W        W44362  17.890  17.346   1.704
29516W        W44363  18.856   6.614  12.345
29517W        W44364  12.273  13.929  11.896
29518W        W44365  12.267   9.053  11.393
29519W        W44366  16.958  10.518   0.272
29520W        W44367  14.611  12.448   2.222
29521W        W44368  16.478  15.872  12.864
29522W        W44369  19.784   8.543   1.734
29523W        W44370  18.866   2.228  13.821
29524W        W44371  13.190   9.550   0.252
29525W        W44372  17.426   6.119  10.915
29526W        W44373  15.554   3.192  10.450
29527W        W44374  16.031   4.664   3.660
29528W        W44375  16.949  16.876  14.307
29529W        W44376  19.304   6.133  10.913
29530W        W44377  17.423  18.332   2.188
29531W        W44378  13.218  13.928   2.217
29532W        W44379  13.654   5.131  12.837
29533W        W44380  19.327   7.114  13.799
29534W        W44381  15.568   6.143  11.893
29535W        W44382  18.863  16.830   1.251
29536W        W44383  12.267  16.383  14.805
29537W        W44384  14.595   9.048   2.204
29538W        W44385  13.656   8.540  11.866
29539W        W44386  15.573   7.581   4.123
29540W        W44387  15.102  19.772   2.685
29541W        W44388  16.494   1.251  13.827
29542W        W44389  15.099  17.341  11.396
29543W        W44390  16.020   9.553  13.349
29544W        W44391  16.507   4.170   3.175
29545W        W44392  16.023   5.657   1.225
29546W        W44393  17.458   5.171   1.244
29547W        W44394  17.903  11.986  12.840
29548W        W44395  19.773   5.122  13.819
29549W        W44396  12.726  18.306   9.957
29550W        W44397  18.863   8.558  14.762
29551W        W44398  17.421   2.689  12.830
29552W        W44399  17.883  15.880  11.887
29553W        W44400  18.840  15.862   2.223
29554W        W44401  16.507  18.326  11.882
29555W        W44402  17.429   8.556  11.416
29556W        W44403  15.093  18.300   3.168
29557W        W44404  15.545  12.927  14.277
29558W        W44405  17.413  14.897  11.373
29559W        W44406  16.016   3.687  13.812
29560W        W44407  19.311  17.332  10.445
29561W        W44408  18.827   8.567  10.935
29562W        W44409  15.086   1.238   0.286
29563W        W44410  16.009  11.481  13.307
29564W        W44411  14.595  16.877  14.764
29565W        W44412  15.544  11.478  12.344
29566W        W44413  15.064  15.875  14.305
29567W        W44414  13.650   8.579   3.192
29568W        W44415  19.339   7.596   2.704
29569W        W44416  14.134  17.351  10.915
29570W        W44417  17.452  17.354   3.666
29571W        W44418  12.265  15.880  13.805
29572W        W44419  12.726   2.211   2.213
29573W        W44420  12.748   6.110   9.922
29574W        W44421  19.808  13.938   3.189
29575W        W44422  14.595  17.358  11.378
29576W        W44423  17.434   6.603   4.132
29577W        W44424  15.076  10.039   2.698
29578W        W44425  19.306  19.774   3.158
29579W        W44426  13.218  10.521  12.382
29580W        W44427  12.751   6.134  14.306
29581W        W44428  12.246   0.292   1.230
29582W        W44429  19.321   8.559  14.790
29583W        W44430  19.768  19.786   0.770
29584W        W44431  12.269   2.711  10.918
29585W        W44432  18.842   8.566   1.255
29586W        W44433  18.368  10.492   4.126
29587W        W44434  19.770   0.247   2.671
29588W        W44435  14.596   0.270   1.695
29589W        W44436  17.890  19.798   3.156
29590W        W44437  16.476  19.312   3.191
29591W        W44438  17.417  11.009   2.207
29592W        W44439  14.596   6.632  12.840
29593W        W44440  15.533  15.367   2.680
29594W        W44441  14.161   2.683   0.249
29595W        W44442  13.648  15.392  14.314
29596W        W44443  14.152   7.113  10.434
29597W        W44444  15.567   1.223   4.617
29598W        W44445  16.516  17.820  11.410
29599W        W44446  17.923  11.012  10.919
29600W        W44447  14.589   4.680   0.755
29601W        W44448  13.182  18.294  12.376
29602W        W44449  19.312  10.989   1.226
29603W        W44450  16.488  16.869   2.695
29604W        W44451  13.678   0.779   2.221
29605W        W44452  16.956  19.794   0.266
29606W        W44453  17.422   6.109   4.621
29607W        W44454  16.958  11.974  10.419
29608W        W44455  18.365   1.752  12.829
29609W        W44456  15.554   0.282   4.634
29610W        W44457  15.104   9.558   4.152
29611W        W44458  18.363  15.887   0.753
29612W        W44459  19.784  11.468   2.208
29613W        W44460  16.509   2.695  14.298
29614W        W44461  17.435  15.869  10.416
29615W        W44462  17.893  15.373  10.449
29616W        W44463  18.391   6.600  13.810
29617W        W44464  18.388  16.870  14.300
29618W        W44465  16.483  11.980  11.877
29619W        W44466  13.218  13.949   3.637
29620W        W44467  17.426   9.554   4.621
29621W        W44468  16.945  16.861  13.797
29622W        W44469  18.390  13.430  11.862
29623W        W44470  15.071  18.828   4.631
29624W        W44471  14.631  15.885  12.387
29625W        W44472  15.557  19.763   3.648
29626W        W44473  19.775  10.035  13.309
29627W        W44474  15.560   8.550   1.245
29628W        W44475  16.979  11.475   2.694
29629W        W44476  18.842   1.255  13.833
29630W        W44477  12.710   7.573   4.153
29631W        W44478  18.389  19.307   4.631
29632W        W44479  19.796  12.447  11.397
29633W        W44480  18.377   2.224  10.437
29634W        W44481  19.326  16.378  13.819
29635W        W44482  15.575   6.628  11.380
29636W        W44483  16.496  10.987  14.308
29637W        W44484  15.105   5.139   4.616
29638W        W44485  13.690  11.997   1.721
29639W        W44486  12.736   2.225  11.397
29640W        W44487  14.596  13.912   4.599
29641W        W44488  13.192  14.434  14.773
29642W        W44489  16.986  16.851  12.351
29643W        W44490  15.097   6.591   3.664
29644W        W44491  15.073  12.956   2.674
29645W        W44492  14.605   7.080  10.416
29646W        W44493  12.263  10.990   9.950
29647W        W44494  15.567  17.325   9.947
29648W        W44495  18.843   8.066  12.854
29649W        W44496  13.200   8.061  12.854
29650W        W44497  16.473  10.982   4.610
29651W        W44498  19.790   4.166   9.947
29652W        W44499  18.870   8.555  11.409
29653W        W44500  13.691   3.187   4.133
29654W        W44501  16.954   4.173  13.322
29655W        W44502  19.783   5.126  14.317
29656W        W44503  14.598  17.330   2.708
29657W        W44504  13.190   8.573   2.192
29658W        W44505  16.980   4.672   0.259
29659W        W44506  13.211   3.699   3.151
29660W        W44507  12.731   0.266  11.877
29661W        W44508  16.485   6.103   0.284
29662W        W44509  18.381  19.300  10.893
29663W        W44510  15.572   1.261   0.277
29664W        W44511  16.510   4.648  13.348
29665W        W44512  19.795   4.192   1.712
29666W        W44513  12.247   2.197  10.901
29667W        W44514  19.773  19.307   1.212
29668W        W44515  19.307  17.845  10.893
29669W        W44516  15.072   7.610   0.751
29670W        W44517  12.739  17.320   4.128
29671W        W44518  17.444   3.187  10.443
29672W        W44519  19.790   8.550  13.804
29673W        W44520  18.385   7.566   1.210
29674W        W44521  18.867   0.284   9.950
29675W        W44522  17.894   3.700   2.670
29676W        W44523  13.650  10.493   0.249
29677W        W44524  16.513   4.191  14.788
29678W        W44525  18.359  15.389   0.738
29679W        W44526  12.276   5.617   9.960
29680W        W44527  16.493  14.890  10.422
29681W        W44528  17.430   6.594  10.903
29682W        W44529  13.190   0.745  10.437
29683W        W44530  13.178   0.245  11.380
29684W        W44531  16.000   0.263   2.212
29685W        W44532  16.505   3.693  13.811
29686W        W44533  17.917  17.349   3.676
29687W        W44534  15.071  12.487   4.608
29688W        W44535  16.018   6.126   2.693
29689W        W44536  18.853  11.498   1.234
29690W        W44537  16.982  18.317   1.701
29691W        W44538  19.325  16.386  12.862
29692W        W44539  18.369   8.082   4.609
29693W        W44540  18.384   5.149   3.181
29694W        W44541  13.676  14.889  13.325
29695W        W44542  16.515   9.050  14.289
29696W        W44543  16.972  18.817   0.734
29697W        W44544  17.902  11.492   3.167
29698W        W44545  14.152   1.748  14.786
29699W        W44546  16.959   9.062  14.302
29700W        W44547  19.775  13.458  12.349
29701W        W44548  16.950  15.377  11.395
29702W        W44549  17.451  14.896   2.201
29703W        W44550  19.781   6.105   0.768
29704W        W44551  18.385   4.669   5.089
29705W        W44552  15.572  13.915  10.428
29706W        W44553  17.444  14.926   3.655
29707W        W44554  16.501  11.993  10.897
29708W        W44555  13.210  14.433  11.860
29709W        W44556  16.025  17.807   4.623
29710W        W44557  17.458  17.337  11.889
29711W        W44558  12.263  14.910   1.723
29712W        W44559  16.985   1.254  12.869
29713W        W44560  17.917  14.879   4.149
29714W        W44561  16.002  16.873  10.892
29715W        W44562  16.502  19.781   3.151
29716W        W44563  16.984  15.884  11.876
29717W        W44564  12.734  19.301  11.875
29718W        W44565  15.549   4.665  12.855
29719W        W44566  16.484  19.293   4.612
29720W        W44567  18.377  12.467   1.713
29721W        W44568  18.838  14.909  11.381
29722W        W44569  12.279  11.006   4.605
29723W        W44570  12.714  10.497   0.275
29724W        W44571  12.267  13.914   1.236
29725W        W44572  14.624  11.014   1.741
29726W        W44573  18.393   9.037  11.387
29727W        W44574  16.964  11.010  13.797
29728W        W44575  17.923   7.106  10.411
29729W        W44576  13.673   8.580   4.606
29730W        W44577  18.850   3.674   2.705
29731W        W44578  13.677   9.554  11.889
29732W        W44579  15.062   7.116  12.356
29733W        W44580  15.545  19.770   0.252
29734W        W44581  13.180  12.956   2.190
29735W        W44582  16.959   1.256  12.382
29736W        W44583  17.424   9.072   3.640
29737W        W44584  17.902  19.295  12.341
29738W        W44585  15.534   6.141  10.412
29739W        W44586  18.867  10.039  13.317
29740W        W44587  12.253  19.283  10.409
29741W        W44588  19.811  10.044  12.825
29742W        W44589  13.194  11.007  14.797
29743W        W44590  16.956   2.709   1.729
29744W        W44591  17.919  16.871   1.233
29745W        W44592  15.532   5.155   4.142
29746W        W44593  14.611  12.945   0.244
29747W        W44594  18.397   1.235  11.866
29748W        W44595  16.483  19.756  14.791
29749W        W44596  12.237  16.350   1.214
29750W        W44597  18.366  16.846   1.227
29751W        W44598  19.778  15.873   4.155
29752W        W44599  15.560  15.385  12.357
29753W        W44600  14.133  10.043  14.302
29754W        W44601  16.987  13.415   4.616
29755W        W44602  16.015   8.074  13.796
29756W        W44603  16.027  11.470  13.837
29757W        W44604  15.072   1.715   0.769
29758W        W44605  12.272  19.768  13.313
29759W        W44606  14.590   2.202   1.226
29760W        W44607  15.081  11.952  14.295
29761W        W44608  19.322   4.671   0.246
29762W        W44609  16.029  17.361   3.190
29763W        W44610  18.362   9.540   4.630
29764W        W44611  14.595  19.289   9.960
29765W        W44612  15.530   7.574  12.380
29766W        W44613  17.887  19.313   3.650
29767W        W44614  19.801  10.999  10.418
29768W        W44615  16.970   9.056   0.731
29769W        W44616  18.382  11.496   3.635
29770W        W44617  14.128  11.981   4.607
29771W        W44618  19.330  10.014   0.253
29772W        W44619  16.517  13.924  13.315
29773W        W44620  17.419   1.745  12.352
29774W        W44621  18.383  11.014  14.314
29775W        W44622  14.157  11.500   2.189
29776W        W44623  14.618  13.453  11.901
29777W        W44624  14.137  12.458  13.315
29778W        W44625  16.047  13.910   0.773
29779W        W44626  13.193  12.956   1.224
29780W        W44627  14.616   5.646   1.698
29781W        W44628  18.373  11.969  13.832
29782W        W44629  13.187   0.769  14.773
29783W        W44630  13.664   1.227   1.233
29784W        W44631  17.897  19.785   2.208
29785W        W44632  18.855  17.826  14.282
29786W        W44633  18.852   3.680   0.259
29787W        W44634  15.566  11.973  10.434
29788W        W44635  15.554  17.328   3.160
29789W        W44636  17.884   2.709   3.671
29790W        W44637  17.439   9.061   2.683
29791W        W44638  19.299  13.437  14.761
29792W        W44639  15.549  19.798  13.321
29793W        W44640  14.625   9.525  11.901
29794W        W44641  18.869  18.782  11.390
29795W        W44642  17.441  11.465   4.628
29796W        W44643  15.076  15.379  10.429
29797W        W44644  15.079   6.142   4.152
29798W        W44645  12.742   4.184   1.212
29799W        W44646  12.248  17.825  10.442
29800W        W44647  13.652  10.022  12.865
29801W        W44648  14.622  10.998   3.186
29802W        W44649  13.194   2.699   4.634
29803W        W44650  13.223   4.653   3.663
29804W        W44651  16.516  10.041  12.344
29805W        W44652  15.531  10.521   9.955
29806W        W44653  12.264  16.354  12.355
29807W        W44654  18.388   1.231   2.199
29808W        W44655  12.262   5.638  12.855
29809W        W44656  14.129   3.173  10.897
29810W        W44657  17.902   5.620   0.770
29811W        W44658  15.560   2.225   4.141
29812W        W44659  19.780  12.479   5.093
29813W        W44660  14.161   4.664  13.347
29814W        W44661  18.844   3.177  10.898
29815W        W44662  17.451  14.887   3.166
29816W        W44663  16.483   0.275   0.732
29817W        W44664  16.949  12.472   3.643
29818W        W44665  12.266   5.643   3.669
29819W        W44666  18.860   6.114  11.896
29820W        W44667  14.622  11.468   1.214
29821W        W44668  13.648   7.104  11.901
29822W        W44669  14.633   9.025  14.288
29823W        W44670  17.929  14.418   2.208
29824W        W44671  16.500   2.202   4.123
29825W        W44672  13.652   3.189   0.288
29826W        W44673  13.177   0.259  13.325
29827W        W44674  15.567  18.321   2.211
29828W        W44675  12.275   0.246  13.816
29829W        W44676  16.486   8.071   3.653
29830W        W44677  18.838   2.731   3.162
29831W        W44678  15.559   0.768   4.612
29832W        W44679  17.422  12.469   3.676
29833W        W44680  14.630  17.341   3.632
29834W        W44681  15.080  16.837   0.243
29835W        W44682  14.617  15.882   3.162
29836W        W44683  19.778   2.721   9.943
29837W        W44684  15.061   7.084  10.424
29838W        W44685  19.336   1.753  13.341
29839W        W44686  18.368   8.095  14.762
29840W        W44687  16.507  18.792  13.328
29841W        W44688  19.771   9.536  13.792
29842W        W44689  13.215   6.116   4.645
29843W        W44690  12.238  10.986  10.408
29844W        W44691  19.811   9.065   3.650
29845W        W44692  15.086  13.432  11.877
29846W        W44693  17.449   8.057  10.898
29847W        W44694  14.129   7.569   4.160
29848W        W44695  19.335  12.955   0.726
29849W        W44696  15.081   3.662  13.810
29850W        W44697  12.733  15.862   5.120
29851W        W44698  12.719   2.716   0.741
29852W        W44699  14.601  13.928  14.785
29853W        W44700  18.834  12.469   4.627
29854W        W44701  17.924   7.583   0.767
29855W        W44702  19.790  10.992   0.766
29856W        W44703  13.192  15.414  14.789
29857W        W44704  16.943   2.701  11.405
29858W        W44705  12.742  19.781  14.296
29859W        W44706  19.799   6.116  13.807
29860W        W44707  17.420   2.231   4.629
29861W        W44708  14.608   0.767  10.430
29862W        W44709  15.099   3.689   1.210
29863W        W44710  17.902   5.641   5.083
29864W        W44711  17.929   6.128  11.901
29865W        W44712  16.041   2.691   2.667
29866W        W44713  16.983  12.447  11.860
29867W        W44714  15.557  11.981   3.161
29868W        W44715  19.322  11.990  13.323
29869W        W44716  17.427  15.855  13.323
29870W        W44717  13.191   1.749   2.707
29871W        W44718  14.126  19.308  10.412
29872W        W44719  14.599   4.664   3.672
29873W        W44720  13.680  10.024   0.255
29874W        W44721  17.888  10.028   1.257
29875W        W44722  12.710  15.899  13.340
29876W        W44723  18.850   1.267   3.634
29877W        W44724  18.389  14.404   4.613
29878W        W44725  18.824  16.387  13.812
29879W        W44726  14.131  11.510  12.860
29880W        W44727  19.328   1.748   3.674
29881W        W44728  13.223  19.799  14.305
29882W        W44729  19.768  12.970  14.791
29883W        W44730  13.200  19.794   9.935
29884W        W44731  13.194   0.735  14.291
29885W        W44732  12.264   1.728   2.708
29886W        W44733  19.306  11.490  13.825
29887W        W44734  13.676  12.469   1.250
29888W        W44735  17.423  11.954   4.146
29889W        W44736  17.429   6.136   0.281
29890W        W44737  12.749  10.038  14.798
29891W        W44738  16.964  18.801   4.636
29892W        W44739  17.421   1.264  10.437
29893W        W44740  13.185   0.743   2.707
29894W        W44741  14.596  14.927   3.158
29895W        W44742  14.163   0.279  12.378
29896W        W44743  17.883   9.545  13.339
29897W        W44744  12.717  10.992   4.603
29898W        W44745  15.083  17.353   1.236
29899W        W44746  15.062   6.098   0.730
29900W        W44747  19.775   7.102   1.216
29901W        W44748  12.267  19.294   4.621
29902W        W44749  19.302  16.859   4.141
29903W        W44750  18.395  14.414  11.373
29904W        W44751  17.906  11.008  14.792
29905W        W44752  13.188  13.447  13.811
29906W        W44753  19.300  15.390  10.439
29907W        W44754  15.557   4.680   4.618
29908W        W44755  12.275   8.081   4.151
29909W        W44756  14.591  13.912  13.310
29910W        W44757  16.019   2.690  10.446
29911W        W44758  18.393   8.579   1.232
29912W        W44759  16.001  12.929   3.638
29913W        W44760  13.657   4.647  11.402
29914W        W44761  18.845   4.670  13.827
29915W        W44762  15.566  13.923  13.795
29916W        W44763  17.458   7.109   1.704
29917W        W44764  17.455   6.139  10.419
29918W        W44765  19.782   5.612   5.102
29919W        W44766  12.741   1.744  14.304
29920W        W44767  19.785  14.399   3.149
29921W        W44768  14.158  18.809  10.890
29922W        W44769  16.492   8.578  14.786
29923W        W44770  18.398  19.293   4.149
29924W        W44771  13.669  16.387  10.432
29925W        W44772  18.866   5.150  14.783
29926W        W44773  18.850   7.102   0.247
29927W        W44774  13.686  10.980  11.413
29928W        W44775  14.119   2.221   4.604
29929W        W44776  19.298  12.964  14.292
29930W        W44777  17.913  15.388  12.833
29931W        W44778  12.282   6.129   2.701
29932W        W44779  12.240  16.385   4.625
29933W        W44780  13.657   4.654   1.250
29934W        W44781  15.059   9.536   3.632
29935W        W44782  16.045  10.013  12.340
29936W        W44783  16.024   2.213   4.126
29937W        W44784  17.896  10.987   3.153
29938W        W44785  19.322  11.502   2.702
29939W        W44786  16.952   7.610  13.816
29940W        W44787  13.671   6.626   0.281
29941W        W44788  19.787  14.927  11.405
29942W        W44789  12.750  13.430  10.908
29943W        W44790  14.621  11.511   3.674
29944W        W44791  19.304   8.569  11.868
29945W        W44792  14.163   6.123  11.376
29946W        W44793  16.977   3.660   2.670
29947W        W44794  16.027  11.953   1.224
29948W        W44795  17.915   9.026  10.901
29949W        W44796  17.427  18.312   0.279
29950W        W44797  17.894   9.052   4.140
29951W        W44798  12.271   9.064   1.254
29952W        W44799  18.831  13.945   0.253
29953W        W44800  17.903   1.711  13.308
29954W        W44801  16.513   0.744  14.322
29955W        W44802  15.085  10.534  13.320
29956W        W44803  13.195  11.489  11.897
29957W        W44804  17.926  15.858   5.091
29958W        W44805  18.379  13.429   3.633
29959W        W44806  16.951   9.537   1.713
29960W        W44807  19.305   7.082  12.858
29961W        W44808  19.768   8.095   1.245
29962W        W44809  13.651  11.969  11.391
29963W        W44810  15.088  16.841   4.599
29964W        W44811  19.791  17.853   2.663
29965W        W44812  16.959  14.436   0.285
29966W        W44813  16.034  19.313  10.428
29967W        W44814  12.752   8.560   1.247
29968W        W44815  19.805  15.897  12.379
29969W        W44816  18.371   5.612   0.754
29970W        W44817  16.988  13.450   1.738
29971W        W44818  16.022   9.558   1.255
29972W        W44819  12.252  18.328  13.329
29973W        W44820  15.569   1.251   2.184
29974W        W44821  12.245  11.505   3.160
29975W        W44822  18.384  11.478  13.329
29976W        W44823  15.562  10.007   3.645
29977W        W44824  17.916   4.636  14.784
29978W        W44825  16.947   1.260  11.385
29979W        W44826  13.675  10.001   5.111
29980W        W44827  14.626  12.464   4.116
29981W        W44828  17.450  10.016   3.158
29982W        W44829  12.250   1.234  11.414
29983W        W44830  12.260   7.076   1.255
29984W        W44831  12.262   9.042  14.797
29985W        W44832  13.673  12.450   0.263
29986W        W44833  15.081   6.099   2.672
29987W        W44834  19.325  19.268   2.211
29988W        W44835  18.375   4.639   1.717
29989W        W44836  19.791   5.158  11.880
29990W        W44837  15.090  10.494  12.834
29991W        W44838  17.444  14.924   0.766
29992W        W44839  14.607  13.950   3.173
29993W        W44840  13.647  19.275   5.122
29994W        W44841  13.200  18.300   2.707
29995W        W44842  18.870   5.128   9.922
29996W        W44843  13.669  13.904   5.091
29997W        W44844  16.510   2.704   0.771
29998W        W44845  17.420  16.346  13.804
29999W        W44846  16.003  19.805  13.815
30000W        W44847  18.387   6.618   1.210
30001W        W44848  12.242   2.688   0.243
30002W        W44849  12.250   0.271  10.897
30003W        W44850  15.576   6.139   2.707
30004W        W44851  18.844   3.686   0.759
30005W        W44852  12.261  13.945  10.914
30006W        W44853  13.202  15.398   2.673
30007W        W44854  16.487   8.538  12.364
30008W        W44855  14.154   5.611   4.114
30009W        W44856  14.165   8.080  14.300
30010W        W44857  19.307   3.189  11.881
30011W        W44858  16.018  18.319   1.695
30012W        W44859  18.830   8.548  12.833
30013W        W44860  17.430  10.982  13.330
30014W        W44861  17.440  18.799  11.903
30015W        W44862  17.906  14.896   2.687
30016W        W44863  18.836  10.026   4.124
30017W        W44864  17.438  13.924  14.785
30018W        W44865  17.883  18.326   1.714
30019W        W44866  13.691  13.451   9.926
30020W        W44867  12.261   7.101   4.601
30021W        W44868  16.509  14.427  13.798
30022W        W44869  17.883   3.660   4.608
30023W        W44870  12.249  14.438  12.838
30024W        W44871  14.630  17.340  12.341
30025W        W44872  16.975   8.575   1.229
30026W        W44873  17.902  15.375   4.629
30027W        W44874  16.953  15.869   4.635
30028W        W44875  12.749  14.912  14.771
30029W        W44876  15.081  10.533   1.257
30030W        W44877  13.690  19.306   9.957
30031W        W44878  16.023  11.510   3.180
30032W        W44879  13.179  13.950  10.428
30033W        W44880  18.852   7.599   1.724
30034W        W44881  19.333  14.907  10.417
30035W        W44882  15.093  19.804  12.361
30036W        W44883  13.683   0.751   1.210
30037W        W44884  12.724  15.406  12.368
30038W        W44885  15.102  14.895  12.869
30039W        W44886  18.858   1.242   4.635
30040W        W44887  16.038   2.219   1.220
30041W        W44888  15.106   8.551  12.851
30042W        W44889  15.560   6.623   9.921
30043W        W44890  18.840   4.675   3.662
30044W        W44891  14.623  15.869   0.245
30045W        W44892  18.868   3.679  14.803
30046W        W44893  13.221   3.173   2.193
30047W        W44894  14.594   1.726   3.172
30048W        W44895  12.245  12.463  14.321
30049W        W44896  15.544   5.620   4.131
30050W        W44897  16.474  11.506   2.188
30051W        W44898  13.184  10.043  10.925
30052W        W44899  13.219   4.152   3.151
30053W        W44900  16.955  16.842   2.203
30054W        W44901  16.024  16.868  13.323
30055W        W44902  16.959   4.673  10.418
30056W        W44903  18.835   8.084   2.694
30057W        W44904  17.895   5.139  11.404
30058W        W44905  19.299  12.484  14.276
30059W        W44906  12.238   5.134  10.920
30060W        W44907  14.600  14.891   0.734
30061W        W44908  19.809   5.129   4.121
30062W        W44909  15.073   3.203   4.139
30063W        W44910  17.447  14.398  14.792
30064W        W44911  16.011  10.535   1.216
30065W        W44912  17.430   0.249   0.289
30066W        W44913  17.430   4.188   1.697
30067W        W44914  15.572   3.181  12.373
30068W        W44915  13.676  18.795  12.857
30069W        W44916  15.544  17.820   5.108
30070W        W44917  16.021   2.236  11.873
30071W        W44918  18.858  13.933   3.642
30072W        W44919  13.183  19.285  10.916
30073W        W44920  17.440  13.461  12.349
30074W        W44921  14.119   8.579   1.248
30075W        W44922  14.157  14.438  11.410
30076W        W44923  13.183  10.513  11.401
30077W        W44924  16.514   1.257   1.712
30078W        W44925  12.282  10.036   1.253
30079W        W44926  19.791   0.285   1.721
30080W        W44927  16.944  18.803  14.770
30081W        W44928  16.984   6.630   2.223
30082W        W44929  14.139   3.188   1.695
30083W        W44930  14.160   1.742  13.794
30084W        W44931  17.907  13.912   0.269
30085W        W44932  15.535   6.605   4.617
30086W        W44933  14.149   1.753  14.321
30087W        W44934  17.413  12.974   0.751
30088W        W44935  18.840  12.957   4.157
30089W        W44936  13.663   8.088  10.444
30090W        W44937  12.710   5.612  12.823
30091W        W44938  16.021  14.423  14.320
30092W        W44939  15.081   6.596  10.935
30093W        W44940  19.806  15.390   4.149
30094W        W44941  14.142   3.700   4.161
30095W        W44942  16.489  18.795   2.197
30096W        W44943  18.392  10.507  10.438
30097W        W44944  17.453   8.091  10.425
30098W        W44945  16.476   4.187   2.186
30099W        W44946  16.970   2.226  14.312
30100W        W44947  15.085  18.808   9.953
30101W        W44948  13.216  12.469  14.293
30102W        W44949  19.799   0.247  13.805
30103W        W44950  16.955  17.354  10.894
30104W        W44951  14.594   8.561   0.263
30105W        W44952  16.503   8.081   2.203
30106W        W44953  14.119   8.069   3.176
30107W        W44954  12.742   1.753   5.109
30108W        W44955  16.031  13.432   0.742
30109W        W44956  17.443   6.602  14.289
30110W        W44957  13.217   2.226  14.292
30111W        W44958  14.610  16.360   4.642
30112W        W44959  19.769  16.873   3.159
30113W        W44960  14.141  19.309   3.160
30114W        W44961  16.035   3.199  11.405
30115W        W44962  19.802  10.029   0.263
30116W        W44963  13.662  14.917  14.286
30117W        W44964  14.154  13.446   1.695
30118W        W44965  15.536   8.563   0.744
30119W        W44966  16.493  15.897   4.152
30120W        W44967  14.139   4.165   1.731
30121W        W44968  18.831   2.244  14.303
30122W        W44969  12.749  19.786   1.227
30123W        W44970  15.100   1.243  13.326
30124W        W44971  13.216   4.680  13.830
30125W        W44972  19.330   1.263  13.314
30126W        W44973  19.786  18.338  14.802
30127W        W44974  16.484   6.624   4.152
30128W        W44975  19.323  11.486   5.100
30129W        W44976  17.914  19.299   4.623
30130W        W44977  16.983  19.302  10.890
30131W        W44978  14.590   3.668   2.664
30132W        W44979  16.007   4.674   2.208
30133W        W44980  15.537  16.358   2.702
30134W        W44981  12.749   6.588  14.279
30135W        W44982  15.533   1.715  11.886
30136W        W44983  16.982  14.407  10.443
30137W        W44984  18.366   1.736   5.122
30138W        W44985  13.655  12.975   0.254
30139W        W44986  16.956   2.239   1.711
30140W        W44987  17.431  11.021   4.127
30141W        W44988  14.142   6.604   4.622
30142W        W44989  14.624   2.238   0.767
30143W        W44990  16.478   6.629  12.357
30144W        W44991  18.357   5.620   3.654
30145W        W44992  15.091  10.983  14.780
30146W        W44993  13.196  19.799  14.760
30147W        W44994  18.386  15.412  13.796
30148W        W44995  15.099   7.107   4.125
30149W        W44996  12.250  10.510  11.871
30150W        W44997  19.796   6.619   4.641
30151W        W44998  12.722  16.844  12.840
30152W        W44999  12.241   9.521   0.261
30153W        W45000  14.591  12.473   4.645
30154W        W45001  19.327   9.524  13.334
30155W        W45002  14.628   6.620  10.892
30156W        W45003  19.332  12.475  11.892
30157W        W45004  17.895  13.429  12.860
30158W        W45005  14.149   7.086  14.277
30159W        W45006  15.551  14.435   4.640
30160W        W45007  16.495  13.429  13.836
30161W        W45008  17.888  13.917   4.626
30162W        W45009  17.909  19.301  14.303
30163W        W45010  19.767   8.546   5.125
30164W        W45011  12.251   9.066  13.315
30165W        W45012  13.692  15.378   3.152
30166W        W45013  18.827  19.758   1.705
30167W        W45014  12.740  15.873  13.821
30168W        W45015  16.979   3.698  10.425
30169W        W45016  17.445   9.552   9.967
30170W        W45017  19.775  19.285  10.447
30171W        W45018  15.549  11.974   4.640
30172W        W45019  16.046   4.637   9.935
30173W        W45020  19.298   8.548   3.648
30174W        W45021  16.495   7.103   1.706
30175W        W45022  18.373   7.115  13.326
30176W        W45023  19.338   6.133   2.670
30177W        W45024  14.606   3.677  11.374
30178W        W45025  14.162   6.105   4.124
30179W        W45026  16.984  14.429  10.893
30180W        W45027  16.005  13.420   4.627
30181W        W45028  13.221  16.353  13.309
30182W        W45029  16.029   7.083   3.181
30183W        W45030  14.150   1.743  11.401
30184W        W45031  13.650  15.389   4.610
30185W        W45032  14.600  18.796   0.749
30186W        W45033  19.795   8.072   0.764
30187W        W45034  17.905  10.012  11.419
30188W        W45035  16.495   9.522   1.238
30189W        W45036  19.318  15.881  11.871
30190W        W45037  19.804   9.028   0.272
30191W        W45038  17.422   7.097  13.794
30192W        W45039  12.270   6.630   2.672
30193W        W45040  13.694  15.392   1.246
30194W        W45041  18.858  11.504   4.148
30195W        W45042  19.307  19.758  12.848
30196W        W45043  12.263   0.261  14.276
30197W        W45044  16.964   6.103   1.211
30198W        W45045  13.196  13.922  14.275
30199W        W45046  13.693   1.739   1.732
30200W        W45047  18.385  17.810  13.323
30201W        W45048  13.217   2.218  13.339
30202W        W45049  15.534  17.835  12.854
30203W        W45050  18.375  12.935  11.897
30204W        W45051  12.713  12.483   3.673
30205W        W45052  15.081  12.939  11.877
30206W        W45053  12.238   9.515   4.631
30207W        W45054  13.180   0.283  11.886
30208W        W45055  16.959   5.143   2.706
30209W        W45056  18.868   3.185   5.111
30210W        W45057  12.257  11.995   3.183
30211W        W45058  19.766  16.361  14.792
30212W        W45059  18.393  19.279  13.333
30213W        W45060  17.891   0.735  13.823
30214W        W45061  16.025  19.768  13.328
30215W        W45062  15.092  12.443   1.733
30216W        W45063  12.238  16.852   3.663
30217W        W45064  16.034  13.915  10.923
30218W        W45065  14.620  10.044  14.286
30219W        W45066  16.951  15.871  14.311
30220W        W45067  16.001  12.487  13.334
30221W        W45068  14.630  19.791   3.150
30222W        W45069  12.708   1.717   2.202
30223W        W45070  13.223  19.760   0.269
30224W        W45071  14.588  18.295  14.319
30225W        W45072  18.399  11.006   3.635
30226W        W45073  14.597  19.283   3.182
30227W        W45074  12.720   9.525   5.127
30228W        W45075  12.269   3.689   0.738
30229W        W45076  17.912  14.926  14.800
30230W        W45077  16.489   1.739  13.828
30231W        W45078  12.247  15.885   4.139
30232W        W45079  16.496  18.828   3.647
30233W        W45080  12.710  17.838  14.289
30234W        W45081  19.777  18.324   4.126
30235W        W45082  14.137  12.477   1.742
30236W        W45083  16.490  17.824   1.730
30237W        W45084  13.659   0.248  12.368
30238W        W45085  15.564  17.366   1.699
30239W        W45086  17.917  18.782   3.669
30240W        W45087  13.662   0.282  10.907
30241W        W45088  18.357   0.748  13.823
30242W        W45089  19.788  17.847  12.823
30243W        W45090  16.518   8.066  11.876
30244W        W45091  18.364   8.049  13.319
30245W        W45092  16.004   1.732  13.307
30246W        W45093  12.717   5.612  12.363
30247W        W45094  17.425  12.943   3.663
30248W        W45095  12.254  10.037  14.285
30249W        W45096  19.339  13.455  10.933
30250W        W45097  15.085  10.978   4.145
30251W        W45098  15.533  10.045   1.237
30252W        W45099  18.856   6.143   3.659
30253W        W45100  13.691  16.872  12.381
30254W        W45101  16.507  12.961  13.805
30255W        W45102  15.101  13.933  14.774
30256W        W45103  14.123  13.950   2.224
30257W        W45104  14.624   2.721  10.924
30258W        W45105  16.970  16.372  12.346
30259W        W45106  15.090   0.759  11.401
30260W        W45107  16.478  18.808  12.860
30261W        W45108  13.661   5.143  11.389
30262W        W45109  17.910   9.059  10.423
30263W        W45110  12.741  17.806  14.800
30264W        W45111  13.692  18.306  12.828
30265W        W45112  14.147  15.861  14.780
30266W        W45113  17.423  17.807   0.282
30267W        W45114  13.182   1.718   1.243
30268W        W45115  12.266   2.216   4.603
30269W        W45116  12.749   2.699   4.613
30270W        W45117  16.964   2.726  13.328
30271W        W45118  16.504  19.279  11.418
30272W        W45119  12.270  10.512   1.735
30273W        W45120  19.300   6.112  13.319
30274W        W45121  18.391  12.480  14.305
30275W        W45122  18.828   2.232  13.310
30276W        W45123  14.630  14.394  10.895
30277W        W45124  12.734  12.479   1.254
30278W        W45125  14.141  19.270  12.828
30279W        W45126  16.955   2.201  13.328
30280W        W45127  15.530  18.313   0.730
30281W        W45128  15.537   4.654   1.720
30282W        W45129  17.889  10.536   4.612
30283W        W45130  17.441  19.760   4.116
30284W        W45131  19.798  11.959  14.321
30285W        W45132  14.137  10.038  10.904
30286W        W45133  15.568   3.674   2.666
30287W        W45134  12.246   9.038   3.642
30288W        W45135  13.218   4.194  13.348
30289W        W45136  17.896   2.724  13.822
30290W        W45137  17.910   2.239  11.389
30291W        W45138  12.746   6.633  13.827
30292W        W45139  16.025   8.556   4.141
30293W        W45140  16.986   8.541   0.749
30294W        W45141  13.216   2.216  11.871
30295W        W45142  13.678  15.369   2.692
30296W        W45143  12.280  18.328  11.384
30297W        W45144  18.367   3.666   9.926
30298W        W45145  16.965  17.831   1.228
30299W        W45146  13.653  15.396  10.417
30300W        W45147  16.950  14.893  10.888
30301W        W45148  12.749  16.866  13.340
30302W        W45149  15.535   0.266   4.118
30303W        W45150  13.679  18.819  10.923
30304W        W45151  17.426   2.224  10.889
30305W        W45152  13.676  14.927  13.798
30306W        W45153  16.981  15.870   3.173
30307W        W45154  14.625   7.574  12.838
30308W        W45155  15.081   0.752   2.208
30309W        W45156  18.360   2.729  10.902
30310W        W45157  19.307  10.526  12.354
30311W        W45158  17.927   5.153  11.858
30312W        W45159  16.975  12.962  10.893
30313W        W45160  12.707  12.485  14.780
30314W        W45161  17.922  19.778   9.953
30315W        W45162  15.570   1.724  11.397
30316W        W45163  19.297   6.611  13.329
30317W        W45164  19.306   9.548  11.866
30318W        W45165  17.440   7.118   5.118
30319W        W45166  12.249   3.203  10.430
30320W        W45167  19.318   0.280   3.185
30321W        W45168  13.689  18.802   0.270
30322W        W45169  16.483  10.518  11.394
30323W        W45170  17.448  10.503   3.181
30324W        W45171  17.888  12.951  10.935
30325W        W45172  14.626  13.906  14.296
30326W        W45173  19.786  11.988  10.412
30327W        W45174  12.729   0.284   4.124
30328W        W45175  14.593   1.233   5.110
30329W        W45176  15.570   5.139   0.766
30330W        W45177  18.385   0.284   2.703
30331W        W45178  13.201   2.225   3.174
30332W        W45179  13.689   4.669   4.135
30333W        W45180  14.129  18.813   2.187
30334W        W45181  13.667   1.728   0.743
30335W        W45182  14.596  12.968  14.792
30336W        W45183  12.736   3.210  14.788
30337W        W45184  13.675  14.906   4.644
30338W        W45185  12.738   6.137   3.667
30339W        W45186  17.886   5.170   0.284
30340W        W45187  15.550  12.958  10.918
30341W        W45188  15.561  11.971   3.655
30342W        W45189  14.600  18.297   2.197
30343W        W45190  13.690   5.148   3.665
30344W        W45191  16.965  15.896  13.325
30345W        W45192  17.416   3.192   4.124
30346W        W45193  18.865  16.844   0.244
30347W        W45194  19.296   1.730  12.363
30348W        W45195  12.711  17.842   0.261
30349W        W45196  12.719   8.584  10.919
30350W        W45197  16.984  10.998  11.897
30351W        W45198  13.684   1.737   0.261
30352W        W45199  18.376  19.268   5.091
30353W        W45200  12.272   5.146  12.356
30354W        W45201  16.981   3.182   2.664
30355W        W45202  16.966  17.831   3.185
30356W        W45203  12.256   9.517  14.311
30357W        W45204  17.888  18.317  12.870
30358W        W45205  19.807   2.231  10.411
30359W        W45206  13.177   0.290   0.736
30360W        W45207  16.517  15.880   0.758
30361W        W45208  14.595  17.823   1.231
30362W        W45209  16.508  19.278   0.265
30363W        W45210  16.009   6.139  11.893
30364W        W45211  12.281  10.019  11.855
30365W        W45212  15.535  10.034  12.377
30366W        W45213  12.736   1.249  10.404
30367W        W45214  12.715   3.679  12.858
30368W        W45215  17.440  10.495  14.796
30369W        W45216  15.533   5.630  14.308
30370W        W45217  14.120   9.516   2.707
30371W        W45218  17.889  15.888   3.168
30372W        W45219  19.767   6.603  10.426
30373W        W45220  15.088   9.070  13.341
30374W        W45221  19.773  17.349   1.727
30375W        W45222  19.771  10.533   3.649
30376W        W45223  18.362  15.892  12.844
30377W        W45224  15.060  10.047  14.770
30378W        W45225  12.740   2.716   3.147
30379W        W45226  16.021   1.252  10.435
30380W        W45227  16.487   7.087   4.160
30381W        W45228  17.431  18.793  12.351
30382W        W45229  12.256  15.864  14.797
30383W        W45230  13.659  19.309   0.258
30384W        W45231  12.238  10.535  14.284
30385W        W45232  12.743   8.539   0.252
30386W        W45233  19.325  11.000   0.762
30387W        W45234  19.322  18.818   0.773
30388W        W45235  18.368   0.770  12.868
30389W        W45236  14.601   8.553   1.728
30390W        W45237  15.095  15.864   2.201
30391W        W45238  13.192  11.975   3.169
30392W        W45239  12.242  14.391   4.622
30393W        W45240  13.181  11.511  14.292
30394W        W45241  16.001   2.709  10.925
30395W        W45242  13.220  18.326   9.930
30396W        W45243  16.515   0.265  14.315
30397W        W45244  16.491   2.212  14.303
30398W        W45245  19.809   5.133  10.448
30399W        W45246  18.844   9.035   4.132
30400W        W45247  15.564  15.407   3.650
30401W        W45248  19.788   3.215  14.779
30402W        W45249  15.092  11.464   0.756
30403W        W45250  19.772   8.072   4.597
30404W        W45251  18.839   5.155  12.348
30405W        W45252  16.039  14.912   4.606
30406W        W45253  14.596   8.058   2.194
30407W        W45254  16.003   6.619  14.786
30408W        W45255  12.281   2.205  11.884
30409W        W45256  13.219   9.032  14.781
30410W        W45257  12.752  19.314   0.745
30411W        W45258  17.899   7.594  11.404
30412W        W45259  13.202  18.318  10.422
30413W        W45260  13.213   7.572   0.741
30414W        W45261  13.660   6.619  11.879
30415W        W45262  15.080   6.613  13.330
30416W        W45263  17.413  18.804   0.287
30417W        W45264  18.866   1.719   4.637
30418W        W45265  12.735  17.811   4.126
30419W        W45266  14.604  13.907  12.352
30420W        W45267  12.713   1.733  11.379
30421W        W45268  12.237  11.971  13.798
30422W        W45269  14.597  16.837   1.219
30423W        W45270  15.565   0.761  10.413
30424W        W45271  18.374  15.366  13.311
30425W        W45272  12.746  19.271  11.407
30426W        W45273  16.017   8.549   0.755
30427W        W45274  12.274  19.777   2.663
30428W        W45275  16.491   1.263  14.317
30429W        W45276  16.475  19.782  12.848
30430W        W45277  15.565   0.262   3.181
30431W        W45278  16.039  11.488   3.675
30432W        W45279  19.785  19.795   2.681
30433W        W45280  15.060   3.192  13.804
30434W        W45281  14.156   9.546  10.910
30435W        W45282  12.276   6.596   2.200
30436W        W45283  17.439   2.697   2.200
30437W        W45284  13.680   2.692  12.380
30438W        W45285  12.724   2.699  14.766
30439W        W45286  12.254  14.412  14.310
30440W        W45287  15.103  14.432   1.717
30441W        W45288  19.316   2.696  10.435
30442W        W45289  17.890  12.975  12.372
30443W        W45290  16.966  12.942   0.732
30444W        W45291  15.562   9.560  11.398
30445W        W45292  19.776  15.401  12.358
30446W        W45293  19.330   4.657   2.215
30447W        W45294  18.828  13.452   4.630
30448W        W45295  16.481   8.567  13.352
30449W        W45296  17.891   6.603  13.320
30450W        W45297  14.150  10.982  14.769
30451W        W45298  14.615  13.436   0.257
30452W        W45299  15.094   0.257   4.606
30453W        W45300  18.390   8.574  10.443
30454W        W45301  14.595  19.298   4.160
30455W        W45302  13.216  14.424   4.158
30456W        W45303  19.316   3.682   4.119
30457W        W45304  12.723  18.330  11.413
30458W        W45305  16.500  19.797  13.311
30459W        W45306  13.180   0.756  12.852
30460W        W45307  13.220  10.998   2.189
30461W        W45308  18.831   1.715   3.642
30462W        W45309  14.603   0.259   3.193
30463W        W45310  16.020   9.054   3.188
30464W        W45311  12.269   3.667   5.088
30465W        W45312  16.007  11.015  13.827
30466W        W45313  12.711   0.752   3.651
30467W        W45314  19.769  15.866   3.657
30468W        W45315  13.670  12.446   0.762
30469W        W45316  15.105   4.181   3.166
30470W        W45317  17.442   5.614   3.172
30471W        W45318  17.908  11.979  13.341
30472W        W45319  13.194   6.110  10.923
30473W        W45320  15.535   4.677   5.123
30474W        W45321  17.417   1.721  13.344
30475W        W45322  12.706  18.320   4.132
30476W        W45323  15.531   2.226   3.670
30477W        W45324  17.924   4.185  14.306
30478W        W45325  17.913   7.566   1.734
30479W        W45326  12.747   3.187   4.637
30480W        W45327  15.556   5.636  12.339
30481W        W45328  12.721  10.022   5.116
30482W        W45329  19.306  10.977   3.178
30483W        W45330  19.341   6.110  14.800
30484W        W45331  17.425  17.837  11.873
30485W        W45332  12.238  18.298   1.211
30486W        W45333  15.554  14.432   0.736
30487W        W45334  14.610  10.006  11.903
30488W        W45335  12.250   1.243  14.311
30489W        W45336  19.783   2.718  10.899
30490W        W45337  15.550   4.647  10.446
30491W        W45338  18.399   5.166  12.385
30492W        W45339  15.105   1.266   2.177
30493W        W45340  13.186   5.122  14.778
30494W        W45341  12.751  11.021  10.919
30495W        W45342  18.843  17.809  10.428
30496W        W45343  15.551   6.624   3.640
30497W        W45344  16.475  16.865  11.403
30498W        W45345  16.958   0.756  10.410
30499W        W45346  19.297   1.261   2.682
30500W        W45347  18.862   7.586   2.186
30501W        W45348  12.278  13.459   4.612
30502W        W45349  14.621   9.533   3.153
30503W        W45350  13.652  12.477  14.283
30504W        W45351  12.276  10.049   2.210
30505W        W45352  15.101   0.279   0.243
30506W        W45353  19.340  10.490   0.286
30507W        W45354  12.237  14.895   3.167
30508W        W45355  14.601   2.232  14.776
30509W        W45356  12.237   0.737  12.835
30510W        W45357  12.742  19.775  11.388
30511W        W45358  18.355  19.279  14.764
30512W        W45359  16.019   0.248  10.436
30513W        W45360  12.238  17.323   4.622
30514W        W45361  16.027  18.308  13.803
30515W        W45362  14.129  17.816  12.833
30516W        W45363  18.827  19.290   0.760
30517W        W45364  18.842  19.802  12.826
30518W        W45365  16.034  16.349  11.879
30519W        W45366  12.740  11.480   4.121
30520W        W45367  19.800  19.774   4.625
30521W        W45368  18.358  18.298   3.179
30522W        W45369  13.691   5.125   1.257
30523W        W45370  19.334  17.357  14.308
30524W        W45371  16.479   9.512  12.378
30525W        W45372  17.916  12.455  12.342
30526W        W45373  15.089   2.215   3.640
30527W        W45374  18.833  17.353  13.314
30528W        W45375  17.914   8.554  14.759
30529W        W45376  15.570  13.912  14.776
30530W        W45377  16.946  13.927   0.739
30531W        W45378  16.959  15.900   4.115
30532W        W45379  13.688  18.828   0.737
30533W        W45380  17.429   9.540   3.668
30534W        W45381  16.486   5.135   4.161
30535W        W45382  12.242   7.113   1.701
30536W        W45383  12.273   6.595  12.344
30537W        W45384  19.785  15.406  11.901
30538W        W45385  13.195  18.803  13.800
30539W        W45386  19.799  15.897   0.249
30540W        W45387  13.687   1.751  14.793
30541W        W45388  15.079   3.176   3.659
30542W        W45389  12.711  18.309   3.188
30543W        W45390  17.420  13.912  12.826
30544W        W45391  17.906  16.385   5.121
30545W        W45392  14.628  12.444   2.688
30546W        W45393  17.895  10.041  13.323
30547W        W45394  19.307   2.230  10.421
30548W        W45395  16.953   4.156  10.928
30549W        W45396  12.714  14.905  13.810
30550W        W45397  13.673   1.720   5.093
30551W        W45398  17.898   3.663  11.419
30552W        W45399  13.656   3.202  10.430
30553W        W45400  17.902   6.138  10.448
30554W        W45401  13.218  11.969  14.321
30555W        W45402  17.912  14.909   1.232
30556W        W45403  17.892  18.810  13.821
30557W        W45404  18.393   0.766   4.152
30558W        W45405  19.303  14.927  13.801
30559W        W45406  16.017   7.108  14.806
30560W        W45407  14.619   3.193  14.319
30561W        W45408  16.008   2.244  14.277
30562W        W45409  13.198   9.534   4.624
30563W        W45410  15.543   6.100  13.341
30564W        W45411  13.198   5.125  12.862
30565W        W45412  19.788  17.329   0.289
30566W        W45413  14.599  15.876  13.324
30567W        W45414  15.556  13.910  12.827
30568W        W45415  16.013   5.155  13.350
30569W        W45416  17.907  11.488  10.446
30570W        W45417  12.732   5.625  13.831
30571W        W45418  15.570  13.912  14.315
30572W        W45419  19.786  16.841  12.831
30573W        W45420  12.237  11.999   4.114
30574W        W45421  19.768   5.149   2.184
30575W        W45422  18.861  12.474  12.359
30576W        W45423  18.843  17.829   4.611
30577W        W45424  17.917   3.694  14.281
30578W        W45425  13.665  18.321   1.718
30579W        W45426  16.949   1.728   4.151
30580W        W45427  18.833   3.195   1.722
30581W        W45428  13.219  11.470  11.384
30582W        W45429  16.505   3.659  14.300
30583W        W45430  16.013  12.465  14.279
30584W        W45431  13.211  14.437   3.160
30585W        W45432  19.798   3.177   4.160
30586W        W45433  16.023   7.112  12.344
30587W        W45434  15.569   5.130  14.763
30588W        W45435  13.208  10.514   0.274
30589W        W45436  14.612   3.704   0.737
30590W        W45437  17.441   1.241  11.395
30591W        W45438  12.713  19.298   1.740
30592W        W45439  16.035  16.854  12.379
30593W        W45440  16.972   8.560   3.156
30594W        W45441  17.926   6.605   1.738
30595W        W45442  16.003   0.288  12.355
30596W        W45443  16.957  14.426   4.125
30597W        W45444  19.338   2.721   3.633
30598W        W45445  15.095  17.850  12.354
30599W        W45446  14.597  11.466  10.416
30600W        W45447  18.353   2.241  10.911
30601W        W45448  18.852   1.750  11.858
30602W        W45449  18.392   2.228  14.299
30603W        W45450  16.968  13.438  11.408
30604W        W45451  13.204   3.212   4.157
30605W        W45452  18.831  15.398   1.694
30606W        W45453  18.354   4.153  14.284
30607W        W45454  12.236   5.654   2.223
30608W        W45455  16.490   8.547  12.847
30609W        W45456  12.730  13.415   0.733
30610W        W45457  17.910   6.593  12.363
30611W        W45458  13.671  17.324   3.171
30612W        W45459  16.020   8.094   1.705
30613W        W45460  15.564   9.035   0.263
30614W        W45461  19.304   7.101   4.140
30615W        W45462  19.771  12.458  13.323
30616W        W45463  13.675   3.189  10.930
30617W        W45464  13.196   7.567  14.794
30618W        W45465  15.077   5.618   0.283
30619W        W45466  12.256   8.548   3.632
30620W        W45467  15.060  11.480  13.354
30621W        W45468  13.662   8.060  14.307
30622W        W45469  14.118   9.519   4.134
30623W        W45470  13.217  11.993  10.407
30624W        W45471  12.748  12.947   1.716
30625W        W45472  12.258  17.837  14.284
30626W        W45473  16.027   3.201  14.278
30627W        W45474  16.494   2.224  10.919
30628W        W45475  15.077   1.236   4.116
30629W        W45476  16.988  14.415  11.412
30630W        W45477  18.370   7.104  11.873
30631W        W45478  12.247   5.132  13.832
30632W        W45479  12.272  15.382  14.794
30633W        W45480  13.691   2.214   3.639
30634W        W45481  14.606   1.712  10.423
30635W        W45482  12.724  19.277   1.246
30636W        W45483  18.362   3.679   1.700
30637W        W45484  17.906  10.537  11.864
30638W        W45485  19.309  14.923  12.845
30639W        W45486  19.776  13.905  10.447
30640W        W45487  15.563   8.077   1.249
30641W        W45488  18.380  12.945   3.181
30642W        W45489  16.042  13.438   0.276
30643W        W45490  16.006  10.016  11.887
30644W        W45491  19.787   8.067   0.250
30645W        W45492  15.560   1.745  12.853
30646W        W45493  14.588   9.032  10.902
30647W        W45494  18.838   1.720  13.339
30648W        W45495  19.800   3.691  11.379
30649W        W45496  14.160  18.825   5.102
30650W        W45497  12.718  13.440  14.779
30651W        W45498  18.400   5.637   4.159
30652W        W45499  16.962   5.612   2.669
30653W        W45500  13.658  12.934  14.275
30654W        W45501  16.505  15.883  13.347
30655W        W45502  16.478   5.644   3.165
30656W        W45503  16.957  13.444  13.820
30657W        W45504  18.856   2.685  12.373
30658W        W45505  13.648   4.167  13.833
30659W        W45506  17.443  11.972  10.438
30660W        W45507  12.732   8.055   0.728
30661W        W45508  15.096  13.418  13.806
30662W        W45509  18.393   6.607   0.771
30663W        W45510  15.096   9.054   3.167
30664W        W45511  19.783   9.029  14.305
30665W        W45512  16.976   1.743   0.245
30666W        W45513  12.280  13.422  11.900
30667W        W45514  13.213   9.548  13.328
30668W        W45515  13.666  16.852   4.155
30669W        W45516  16.505  14.425   0.727
30670W        W45517  13.187   0.775  13.334
30671W        W45518  19.775  14.898   1.734
30672W        W45519  15.072   0.283   9.941
30673W        W45520  16.472  11.994   9.959
30674W        W45521  14.609  17.815   2.704
30675W        W45522  12.254   4.641  11.379
30676W        W45523  17.429   6.130  13.345
30677W        W45524  14.125  13.921   4.608
30678W        W45525  14.598  18.787  10.434
30679W        W45526  16.497   4.167  13.334
30680W        W45527  12.740   6.608   0.762
30681W        W45528  15.564  14.922   9.953
30682W        W45529  17.905   4.174   2.667
30683W        W45530  18.381  10.505  13.336
30684W        W45531  16.973  10.037  12.837
30685W        W45532  18.370   3.191  13.804
30686W        W45533  13.177  10.490  10.933
30687W        W45534  17.418   1.746   5.097
30688W        W45535  14.164  13.448   2.691
30689W        W45536  18.865  12.965   3.165
30690W        W45537  15.083  13.910  10.924
30691W        W45538  17.911   5.122   1.696
30692W        W45539  17.429   5.641  14.763
30693W        W45540  12.722  12.940  11.386
30694W        W45541  17.905   1.223  13.344
30695W        W45542  12.261   5.611  14.286
30696W        W45543  15.576  18.802  12.366
30697W        W45544  19.775   9.051  13.335
30698W        W45545  13.195   0.250  14.769
30699W        W45546  12.274  17.343   2.690
30700W        W45547  15.062  16.869   2.682
30701W        W45548  19.333   9.032  13.333
30702W        W45549  15.542  19.775  13.811
30703W        W45550  12.706  14.924   1.713
30704W        W45551  14.133   0.291  14.318
30705W        W45552  14.157   2.208  10.430
30706W        W45553  19.322   5.623  14.275
30707W        W45554  18.851  10.498  13.831
30708W        W45555  17.425   9.034   5.093
30709W        W45556  14.600  19.771  10.434
30710W        W45557  12.280   1.726  12.368
30711W        W45558  15.547   0.745  11.382
30712W        W45559  14.609  13.926   2.224
30713W        W45560  12.746   5.160   9.934
30714W        W45561  13.200  11.498  10.892
30715W        W45562  14.142  11.978  12.358
30716W        W45563  13.686   9.549  12.381
30717W        W45564  15.554  13.419  11.867
30718W        W45565  18.394  13.940  10.428
30719W        W45566  12.752   0.738  10.426
30720W        W45567  19.314   4.182   3.193
30721W        W45568  19.330   4.678  13.339
30722W        W45569  17.447   7.583  10.889
30723W        W45570  17.891  11.952   3.173
30724W        W45571  17.452   4.677   4.137
30725W        W45572  15.569  19.281  13.334
30726W        W45573  19.790   6.098   4.617
30727W        W45574  14.140   7.609  10.449
30728W        W45575  15.538  16.839  14.799
30729W        W45576  13.687  19.760   9.967
30730W        W45577  14.618  16.350  10.914
30731W        W45578  17.916   5.619  13.798
30732W        W45579  16.511   5.653   1.725
30733W        W45580  13.686   8.089  12.846
30734W        W45581  14.146  18.801  12.380
30735W        W45582  16.497   0.291   2.673
30736W        W45583  13.649  13.462   4.616
30737W        W45584  14.592  12.455  10.888
30738W        W45585  15.552   6.599  12.360
30739W        W45586  16.013  13.910  12.381
30740W        W45587  18.846   6.622   4.114
30741W        W45588  14.608  13.415   3.633
30742W        W45589  12.737  14.430  11.889
30743W        W45590  12.244  19.274  14.778
30744W        W45591  15.575   2.239  12.343
30745W        W45592  16.003   3.186  11.867
30746W        W45593  17.429  12.481   1.719
30747W        W45594  18.355   1.236   1.244
30748W        W45595  17.427  11.487   3.177
30749W        W45596  19.304  11.997  14.791
30750W        W45597  15.552  15.871   3.643
30751W        W45598  12.245  17.327   2.196
30752W        W45599  15.091  15.399  13.325
30753W        W45600  19.326  11.477  14.800
30754W        W45601  13.207  17.827  12.843
30755W        W45602  14.127  12.487   1.243
30756W        W45603  17.919  11.995  13.804
30757W        W45604  16.014  15.411   1.720
30758W        W45605  12.713  17.839   0.772
30759W        W45606  19.301  11.011   3.662
30760W        W45607  12.241   0.735   0.755
30761W        W45608  16.471   4.172   4.151
30762W        W45609  17.919   8.553  10.922
30763W        W45610  18.858   5.613   3.180
30764W        W45611  16.004  10.514  11.900
30765W        W45612  15.085  13.926   1.720
30766W        W45613  13.220  13.428   9.920
30767W        W45614  17.430  19.275   3.636
30768W        W45615  12.258  17.335  14.774
30769W        W45616  14.622  14.428   0.756
30770W        W45617  14.635   8.064  14.282
30771W        W45618  16.477   1.249   3.176
30772W        W45619  16.022  11.470  14.782
30773W        W45620  15.088   9.051   2.225
30774W        W45621  16.480   0.765   3.653
30775W        W45622  19.329   6.130   1.733
30776W        W45623  18.841  19.272   1.235
30777W        W45624  16.043   0.771  12.860
30778W        W45625  14.626  11.005  14.315
30779W        W45626  19.341   4.182   0.735
30780W        W45627  16.486  12.465   1.234
30781W        W45628  17.425  14.408  11.406
30782W        W45629  16.947  13.453   0.727
30783W        W45630  16.045  19.777   1.258
30784W        W45631  15.554   9.515   2.219
30785W        W45632  14.589   4.654  12.848
30786W        W45633  13.665   7.567  12.856
30787W        W45634  18.833  10.519   3.148
30788W        W45635  15.098  13.441   3.648
30789W        W45636  12.235  19.277   0.250
30790W        W45637  15.548  14.886   3.651
30791W        W45638  15.536   2.205   4.630
30792W        W45639  15.077  12.472   1.220
30793W        W45640  19.295  17.321  12.863
30794W        W45641  12.728   5.632  11.373
30795W        W45642  16.985   2.731  10.913
30796W        W45643  15.080  13.922  12.858
30797W        W45644  16.978   3.703   4.625
30798W        W45645  14.130  12.932   3.163
30799W        W45646  19.310   5.630  12.376
30800W        W45647  13.657   7.078   3.162
30801W        W45648  19.334  11.464  13.325
30802W        W45649  13.667  12.969  12.358
30803W        W45650  18.362   0.736   3.158
30804W        W45651  12.717   9.517  12.826
30805W        W45652  14.629   8.554   1.237
30806W        W45653  12.709   6.099  14.805
30807W        W45654  14.123  17.323  10.445
30808W        W45655  12.724  15.868   4.638
30809W        W45656  16.042  11.999  11.865
30810W        W45657  12.270  15.414  11.867
30811W        W45658  19.810   1.220  12.867
30812W        W45659  16.474  11.978  14.286
30813W        W45660  16.987  10.522   1.233
30814W        W45661  18.850   6.613   4.618
30815W        W45662  15.541   4.150  10.905
30816W        W45663  12.273  11.954   1.712
30817W        W45664  19.306  17.358   2.214
30818W        W45665  17.902   6.124   2.224
30819W        W45666  19.794   6.602  13.327
30820W        W45667  17.916   2.203   2.224
30821W        W45668  14.136   9.549  12.868
30822W        W45669  13.685  16.850   2.701
30823W        W45670  14.617   3.187   1.254
30824W        W45671  19.319   2.698   0.761
30825W        W45672  15.102   2.716   4.137
30826W        W45673  19.783   1.747   3.178
30827W        W45674  13.680  12.454  13.803
30828W        W45675  17.901  18.821  10.893
30829W        W45676  17.922  10.026   2.182
30830W        W45677  16.044   1.238   0.269
30831W        W45678  19.779   5.154   0.747
30832W        W45679  13.218  13.904   1.228
30833W        W45680  16.494   3.173   1.696
30834W        W45681  16.490  12.439   4.634
30835W        W45682  13.180  17.355   4.124
30836W        W45683  12.726  15.408   4.607
30837W        W45684  13.650  18.811   9.939
30838W        W45685  15.575   9.561  10.437
30839W        W45686  16.507  15.400   0.773
30840W        W45687  12.271   0.250   2.210
30841W        W45688  17.415  12.965  11.862
30842W        W45689  19.778  19.304  14.766
30843W        W45690  13.672  17.333   1.240
30844W        W45691  19.299   2.687  10.918
30845W        W45692  14.591  17.805   5.088
30846W        W45693  18.357  15.898   1.708
30847W        W45694  12.263   4.171  14.313
30848W        W45695  18.870   0.287  12.380
30849W        W45696  17.429  19.766   4.639
30850W        W45697  16.504   3.217  11.888
30851W        W45698  15.563  11.502   4.626
30852W        W45699  18.356  14.905   2.702
30853W        W45700  12.240  17.332  10.404
30854W        W45701  19.324   0.280   0.264
30855W        W45702  18.849   7.578   0.279
30856W        W45703  16.492  14.927  13.809
30857W        W45704  19.334  17.348  14.783
30858W        W45705  18.844  14.909  13.837
30859W        W45706  12.722   3.216  12.826
30860W        W45707  15.097   4.165  12.382
30861W        W45708  16.024   4.667  14.309
30862W        W45709  12.752  18.339  11.873
30863W        W45710  19.340   1.715   4.643
30864W        W45711  13.650   7.570  13.799
30865W        W45712  15.074  11.495  11.858
30866W        W45713  15.067   4.658  14.792
30867W        W45714  15.573  10.520   0.771
30868W        W45715  13.650   2.726   3.651
30869W        W45716  14.589   6.126   2.188
30870W        W45717  17.894   3.173   1.239
30871W        W45718  18.372   8.541  12.353
30872W        W45719  18.397  14.426  12.834
30873W        W45720  12.269   3.689   2.207
30874W        W45721  18.356  13.941   1.740
30875W        W45722  15.082   5.132   1.247
30876W        W45723  16.988   3.662  12.839
30877W        W45724  15.074   3.183  11.872
30878W        W45725  18.379  18.334  10.426
30879W        W45726  14.593  11.506  11.379
30880W        W45727  18.374  18.298  12.371
30881W        W45728  17.891   8.060  11.873
30882W        W45729  17.892  14.399   3.188
30883W        W45730  15.572   4.168   5.114
30884W        W45731  17.915  13.949   0.768
30885W        W45732  13.648   4.176  13.323
30886W        W45733  12.249  14.432   1.734
30887W        W45734  18.381   0.773   4.603
30888W        W45735  15.532  13.456   1.736
30889W        W45736  19.768  16.351  11.384
30890W        W45737  15.105  10.976  12.371
30891W        W45738  16.987   6.605  13.354
30892W        W45739  18.825   5.145  10.895
30893W        W45740  17.429   1.244   0.272
30894W        W45741  16.489  11.004  13.343
30895W        W45742  17.424   5.168  14.767
30896W        W45743  17.928   5.156  13.829
30897W        W45744  15.570  15.369  10.903
30898W        W45745  14.613   0.778   2.670
30899W        W45746  17.897  13.456   0.260
30900W        W45747  13.196   9.549   3.159
30901W        W45748  16.033   3.173   1.253
30902W        W45749  17.918  10.024   4.642
30903W        W45750  19.774  10.982   1.717
30904W        W45751  16.472  12.934   2.676
30905W        W45752  13.675   9.537   4.632
30906W        W45753  14.124  15.367  12.363
30907W        W45754  14.119  17.850   2.664
30908W        W45755  17.907  15.381   2.674
30909W        W45756  17.451  11.484   2.675
30910W        W45757  19.323   4.191  11.877
30911W        W45758  14.142  11.997  14.788
30912W        W45759  18.356  18.311  12.838
30913W        W45760  17.416  15.383  12.382
30914W        W45761  17.433   3.660  14.805
30915W        W45762  18.377   1.223   3.646
30916W        W45763  15.567   3.698   1.232
30917W        W45764  19.299  10.041  10.419
30918W        W45765  17.892  13.934  14.781
30919W        W45766  13.666  17.818  10.935
30920W        W45767  12.279  16.844   5.129
30921W        W45768  12.733   4.164  11.374
30922W        W45769  18.828   5.636  13.813
30923W        W45770  14.126  18.314   4.631
30924W        W45771  16.479  15.877   5.088
30925W        W45772  16.033  12.955  12.838
30926W        W45773  15.073   9.540  12.848
30927W        W45774  16.971   2.696   2.202
30928W        W45775  14.592   4.173   0.268
30929W        W45776  17.901  15.387  10.924
30930W        W45777  15.560  13.441  12.824
30931W        W45778  12.736   5.628  10.896
30932W        W45779  12.274  10.035  13.799
30933W        W45780  18.397  13.907   2.210
30934W        W45781  19.306   3.659  10.413
30935W        W45782  12.242   4.660   1.223
30936W        W45783  16.020   2.217  10.929
30937W        W45784  16.951  17.334  14.779
30938W        W45785  16.955  10.507  12.368
30939W        W45786  19.788  14.890   0.256
30940W        W45787  12.711  19.761   4.610
30941W        W45788  19.796   3.668   0.287
30942W        W45789  17.435  16.375   9.926
30943W        W45790  16.028   1.235   0.773
30944W        W45791  19.341  17.319  11.859
30945W        W45792  13.217  14.415   1.253
30946W        W45793  16.475   0.271  14.776
30947W        W45794  15.565  10.511   2.691
30948W        W45795  12.732  19.303  12.374
30949W        W45796  13.177  14.920   0.739
30950W        W45797  18.842   4.163  10.414
30951W        W45798  17.419   7.076   4.608
30952W        W45799  14.633  19.789   0.284
30953W        W45800  17.885   0.735   0.290
30954W        W45801  16.020  19.284   3.637
30955W        W45802  14.144   7.083   4.615
30956W        W45803  13.693   9.063  14.309
30957W        W45804  16.012  11.976   4.599
30958W        W45805  13.683  10.524  12.859
30959W        W45806  16.489  10.495  11.885
30960W        W45807  18.379   1.245  14.283
30961W        W45808  19.811   1.268   1.735
30962W        W45809  12.721   6.601  14.800
30963W        W45810  17.419  10.016  11.386
30964W        W45811  17.929  13.452  14.295
30965W        W45812  16.970   4.157   3.632
30966W        W45813  12.726  13.950   3.188
30967W        W45814  17.447   5.611   2.199
30968W        W45815  19.298  14.402  12.348
30969W        W45816  17.913   6.623   5.091
30970W        W45817  14.148   3.680   0.729
30971W        W45818  14.145   7.084  11.902
30972W        W45819  18.828   8.061  12.340
30973W        W45820  13.220   8.094  10.920
30974W        W45821  16.039   1.715  11.867
30975W        W45822  16.947  14.893  11.874
30976W        W45823  18.395   1.221   4.125
30977W        W45824  12.280  17.818  11.902
30978W        W45825  15.537  17.356   2.183
30979W        W45826  15.070   6.630   2.672
30980W        W45827  12.247  12.935   4.126
30981W        W45828  16.478  16.379   5.102
30982W        W45829  12.254   1.733   0.283
30983W        W45830  12.264   7.588   1.210
30984W        W45831  16.515  13.453   3.190
30985W        W45832  12.250  16.376   0.754
30986W        W45833  13.214  13.941  11.418
30987W        W45834  13.660  19.799   3.152
30988W        W45835  18.378   4.663  14.317
30989W        W45836  16.021   6.602  14.275
30990W        W45837  16.041  15.871   3.157
30991W        W45838  12.260   2.214  14.770
30992W        W45839  12.271  13.448  10.415
30993W        W45840  19.300  16.345   3.152
30994W        W45841  19.300   3.678   2.684
30995W        W45842  15.532  15.891   9.948
30996W        W45843  18.855  11.501   2.179
30997W        W45844  16.509   2.690  10.434
30998W        W45845  15.061   9.029   1.221
30999W        W45846  14.127  11.498  10.431
31000W        W45847  18.376  12.938   2.209
31001W        W45848  14.121   5.629  12.344
31002W        W45849  17.421  10.023  13.312
31003W        W45850  13.682   5.127   3.162
31004W        W45851  15.097   0.283   1.737
31005W        W45852  16.040   0.265  12.850
31006W        W45853  14.596   3.219   5.095
31007W        W45854  15.063   9.538   2.222
31008W        W45855  18.371   2.210   4.619
31009W        W45856  14.634   4.665   1.225
31010W        W45857  18.388  16.346   1.243
31011W        W45858  18.844   6.117   0.748
31012W        W45859  19.324  19.776   4.620
31013W        W45860  15.562  18.816   3.676
31014W        W45861  19.330   9.549   5.091
31015W        W45862  19.785  13.448  14.300
31016W        W45863  15.069  17.328   4.642
31017W        W45864  16.982   7.567   0.242
31018W        W45865  12.242  11.967   0.746
31019W        W45866  12.710   7.569  14.306
31020W        W45867  15.078   9.067   4.114
31021W        W45868  14.597  10.522  13.340
31022W        W45869  17.885  18.317   4.154
31023W        W45870  13.178  18.820   0.252
31024W        W45871  18.385  14.406   4.151
31025W        W45872  13.688  14.400   0.744
31026W        W45873  16.511  18.338   0.745
31027W        W45874  19.802  13.905  14.785
31028W        W45875  13.219  11.017  11.888
31029W        W45876  14.593  13.433   0.755
31030W        W45877  15.530  10.977   4.160
31031W        W45878  18.867   7.109   1.230
31032W        W45879  14.589   8.542   4.622
31033W        W45880  19.314  15.380  11.412
31034W        W45881  16.483  16.838  12.871
31035W        W45882  12.273  13.937  12.345
31036W        W45883  19.777   3.684  11.870
31037W        W45884  13.675  15.898  13.319
31038W        W45885  16.489   9.057   4.642
31039W        W45886  19.803  17.340   3.192
31040W        W45887  12.725   2.204   1.738
31041W        W45888  14.619   1.233   4.125
31042W        W45889  14.593   1.267   1.736
31043W        W45890  15.547   1.251  14.801
31044W        W45891  12.723   2.197  14.765
31045W        W45892  14.611   8.053  13.324
31046W        W45893  13.193  17.811   3.162
31047W        W45894  16.000  13.454   5.092
31048W        W45895  19.332  11.018  10.910
31049W        W45896  19.772  16.355  13.815
31050W        W45897  13.182  11.507  13.833
31051W        W45898  14.142  15.412  13.321
31052W        W45899  18.382  13.924   4.605
31053W        W45900  15.571   2.217   1.712
31054W        W45901  16.033   3.205   3.674
31055W        W45902  16.035  16.860   3.150
31056W        W45903  19.767   6.108  13.323
31057W        W45904  18.841   9.030  12.858
31058W        W45905  17.899  14.438  13.800
31059W        W45906  19.330  10.001  12.850
31060W        W45907  18.855   9.058  10.913
31061W        W45908  18.399  15.900   4.613
31062W        W45909  14.145  18.803   0.250
31063W        W45910  19.317   9.055   5.100
31064W        W45911  18.390   2.701   0.277
31065W        W45912  14.630  16.349   0.270
31066W        W45913  16.020   9.066   4.631
31067W        W45914  18.400  15.371  14.285
31068W        W45915  16.958  18.333   3.645
31069W        W45916  18.381   4.194  13.805
31070W        W45917  19.326  16.869   2.679
31071W        W45918  17.898  16.838   0.257
31072W        W45919  15.087  17.819  13.344
31073W        W45920  15.077   3.180   3.146
31074W        W45921  16.471   1.235   0.279
31075W        W45922  16.972   2.725  11.864
31076W        W45923  15.533   3.205   4.154
31077W        W45924  13.681  17.344  13.326
31078W        W45925  14.611   0.759   4.627
31079W        W45926  13.687   0.752  11.900
31080W        W45927  18.362   5.637   1.240
31081W        W45928  19.313  11.012  12.354
31082W        W45929  12.720  11.996  12.370
31083W        W45930  12.248  10.020  11.412
31084W        W45931  16.507  14.427   4.624
31085W        W45932  14.120   1.725   0.759
31086W        W45933  12.743  15.379  11.896
31087W        W45934  19.306   0.772   3.652
31088W        W45935  18.830  12.461   1.244
31089W        W45936  15.076   0.749   0.772
31090W        W45937  15.070  17.825   1.249
31091W        W45938  12.262   6.121  13.817
31092W        W45939  18.868   5.132   2.664
31093W        W45940  13.689   5.149   4.131
31094W        W45941  13.204  11.015   2.678
31095W        W45942  12.260  12.484  13.826
31096W        W45943  13.682  16.347  12.380
31097W        W45944  13.204  17.342  12.826
31098W        W45945  16.963  19.761   4.115
31099W        W45946  15.554  17.348   0.749
31100W        W45947  17.888  15.398   4.144
31101W        W45948  15.537  12.467  13.814
31102W        W45949  18.373   6.607  11.870
31103W        W45950  12.273   6.626   9.959
31104W        W45951  16.969   2.230  12.377
31105W        W45952  17.894   0.251   2.217
31106W        W45953  12.256   1.735  13.317
31107W        W45954  12.723   1.229   4.609
31108W        W45955  19.809  14.413   2.194
31109W        W45956  16.000   7.095   2.671
31110W        W45957  18.865  12.467  12.871
31111W        W45958  14.165  15.898   9.967
31112W        W45959  14.139  18.818  13.351
31113W        W45960  17.438  12.949   2.182
31114W        W45961  16.943  15.411   0.266
31115W        W45962  13.688  16.350   0.290
31116W        W45963  15.561  11.008   3.169
31117W        W45964  13.210  15.878   1.254
31118W        W45965  12.720   9.031   2.673
31119W        W45966  12.749   2.711  12.828
31120W        W45967  18.842  19.282   0.283
31121W        W45968  13.672   0.254  14.779
31122W        W45969  13.201   1.731   0.248
31123W        W45970  15.080  16.382  14.315
31124W        W45971  17.417   8.063  11.873
31125W        W45972  13.197   8.090   5.084
31126W        W45973  14.153   0.751  14.780
31127W        W45974  16.957   9.549   0.267
31128W        W45975  17.431  11.013  12.383
31129W        W45976  12.277   4.172   4.640
31130W        W45977  12.237  16.877  10.444
31131W        W45978  16.497  17.816  14.317
31132W        W45979  12.713   4.646  12.359
31133W        W45980  16.513   7.107  10.916
31134W        W45981  16.027   0.773  13.823
31135W        W45982  13.662  14.889  10.890
31136W        W45983  16.942  15.402   5.081
31137W        W45984  14.603   6.127  10.917
31138W        W45985  16.486  19.774  10.933
31139W        W45986  19.805   4.646   1.731
31140W        W45987  18.830  12.466  11.416
31141W        W45988  16.014   5.651  12.823
31142W        W45989  14.135  19.780   0.756
31143W        W45990  15.091   3.676   0.281
31144W        W45991  16.506   3.696   4.622
31145W        W45992  16.984  11.476   4.641
31146W        W45993  19.803  12.940  10.910
31147W        W45994  15.563   9.065  11.401
31148W        W45995  12.255  13.938   1.698
31149W        W45996  18.849   2.205  12.841
31150W        W45997  19.780  11.964  11.885
31151W        W45998  13.192  18.338  13.339
31152W        W45999  15.071   9.549   9.923
31153W        W46000  14.609   8.550   2.222
31154W        W46001  19.768   5.128  12.848
31155W        W46002  16.963  13.943   5.119
31156W        W46003  15.067  18.782   2.200
31157W        W46004  16.039   6.107   0.745
31158W        W46005  16.015   4.188  10.901
31159W        W46006  16.475  14.904  13.309
31160W        W46007  12.239  15.412   0.730
31161W        W46008  14.598  12.961  11.895
31162W        W46009  14.612   9.546  14.804
31163W        W46010  13.217   5.624  14.775
31164W        W46011  16.488   0.736  13.343
31165W        W46012  15.097   8.575  11.414
31166W        W46013  18.868  11.488  14.287
31167W        W46014  13.185  11.992  13.792
31168W        W46015  17.418  19.301   4.147
31169W        W46016  16.003  11.982   0.255
31170W        W46017  18.852   2.216  11.377
31171W        W46018  18.827   1.727   4.154
31172W        W46019  18.359   4.161   9.941
31173W        W46020  12.709  15.413   0.269
31174W        W46021  16.982  11.511   1.254
31175W        W46022  13.661  13.433   0.278
31176W        W46023  16.034   5.135   0.771
31177W        W46024  17.908  12.974   1.740
31178W        W46025  13.206   8.560  11.900
31179W        W46026  17.437  19.316  12.374
31180W        W46027  18.839   9.520  11.887
31181W        W46028  13.681  14.391  12.353
31182W        W46029  16.980   5.144  11.404
31183W        W46030  15.568  13.447  11.416
31184W        W46031  14.591   3.666  14.314
31185W        W46032  13.692  11.477   3.652
31186W        W46033  15.080  15.393  14.299
31187W        W46034  19.800  18.311   3.166
31188W        W46035  16.497  19.315  13.830
31189W        W46036  12.738  13.942   1.729
31190W        W46037  16.007  15.898   3.676
31191W        W46038  14.133   5.656   3.638
31192W        W46039  14.133   2.213  14.775
31193W        W46040  18.842  16.346  12.870
31194W        W46041  16.508   8.094   1.739
31195W        W46042  13.191   4.657   0.744
31196W        W46043  15.534  10.534  12.360
31197W        W46044  17.426   9.556  13.318
31198W        W46045  14.591  16.871  10.406
31199W        W46046  14.616  12.449   1.702
31200W        W46047  12.711  17.338   2.203
31201W        W46048  13.655   0.261  12.827
31202W        W46049  12.278   8.560   0.756
31203W        W46050  16.037   6.590   4.123
31204W        W46051  19.798  16.362   4.130
31205W        W46052  15.083   1.748   4.148
31206W        W46053  14.601  17.318  10.933
31207W        W46054  18.386  19.769   4.133
31208W        W46055  19.302   7.572   4.135
31209W        W46056  12.275  11.964  10.898
31210W        W46057  17.420  14.411   2.179
31211W        W46058  13.197   9.560   1.217
31212W        W46059  12.272   4.666   0.742
31213W        W46060  14.602  11.015   0.264
31214W        W46061  14.632  14.395  12.840
31215W        W46062  19.301   1.732   4.146
31216W        W46063  19.791  10.018   2.689
31217W        W46064  19.800   2.235  10.891
31218W        W46065  12.743  13.950  12.849
31219W        W46066  19.785   7.601   2.182
31220W        W46067  19.300  18.337  14.298
31221W        W46068  15.094  11.968  13.808
31222W        W46069  17.453   1.257   2.208
31223W        W46070  19.340  13.939  10.408
31224W        W46071  13.207  19.283   4.125
31225W        W46072  13.219  17.820   2.188
31226W        W46073  18.379  17.321  10.421
31227W        W46074  16.040  12.975   2.190
31228W        W46075  13.210   5.644   3.668
31229W        W46076  19.312   9.550   3.653
31230W        W46077  18.849  17.849   2.695
31231W        W46078  18.868  17.356   3.677
31232W        W46079  14.601  19.281   0.738
31233W        W46080  19.317  17.815   0.753
31234W        W46081  15.552  13.934  11.391
31235W        W46082  19.337   5.161  12.344
31236W        W46083  14.600  16.367   4.159
31237W        W46084  14.608  14.906   1.712
31238W        W46085  18.358   7.115   3.664
31239W        W46086  12.259   3.702  13.341
31240W        W46087  16.001  16.846  11.891
31241W        W46088  19.784  11.502   4.143
31242W        W46089  12.721   3.665  13.799
31243W        W46090  15.553  15.872  11.381
31244W        W46091  16.979   8.565   2.691
31245W        W46092  18.859  16.837  13.808
31246W        W46093  14.619   2.715  14.775
31247W        W46094  19.784   6.633   3.163
31248W        W46095  18.854   3.673  13.340
31249W        W46096  16.977  10.018   1.232
31250W        W46097  16.473   7.099  13.313
31251W        W46098  18.390  12.941   0.742
31252W        W46099  16.033  18.787  11.376
31253W        W46100  15.082  18.314  11.405
31254W        W46101  17.455   2.698   1.710
31255W        W46102  14.126   0.247   1.225
31256W        W46103  19.311  18.296   2.202
31257W        W46104  19.324   4.188   2.182
31258W        W46105  14.609   2.727   2.686
31259W        W46106  12.713  18.338  13.314
31260W        W46107  19.807   2.208   4.612
31261W        W46108  13.194   2.204   9.933
31262W        W46109  17.433  17.330  12.353
31263W        W46110  17.438   8.097   0.732
31264W        W46111  19.313  16.834   1.230
31265W        W46112  16.982  11.975   2.709
31266W        W46113  14.139   7.566   2.695
31267W        W46114  13.216  16.858   1.252
31268W        W46115  13.648  19.311  11.376
31269W        W46116  18.364   0.254   4.126
31270W        W46117  14.590  13.927   1.230
31271W        W46118  12.749  10.004  10.922
31272W        W46119  14.612  17.319   4.156
31273W        W46120  15.071   1.239   1.706
31274W        W46121  16.001  15.866  11.406
31275W        W46122  19.804  10.525  12.832
31276W        W46123  13.693   2.228   1.253
31277W        W46124  13.656  15.412   0.728
31278W        W46125  18.840   7.111  10.905
31279W        W46126  12.743  15.375  10.446
31280W        W46127  12.245  18.823  11.415
31281W        W46128  13.186  15.882   3.642
31282W        W46129  16.945   9.555  14.799
31283W        W46130  18.867  18.315   4.640
31284W        W46131  16.481  12.951  10.442
31285W        W46132  16.984   4.649  11.895
31286W        W46133  16.013  11.955   1.723
31287W        W46134  13.200   0.760   1.728
31288W        W46135  15.084  16.372   2.204
31289W        W46136  12.272  13.942   5.095
31290W        W46137  13.689   6.593   0.740
31291W        W46138  12.712  15.876  12.366
31292W        W46139  13.649  17.837   4.139
31293W        W46140  16.011   9.542  10.906
31294W        W46141  13.212   5.628  13.322
31295W        W46142  12.245   3.706  14.301
31296W        W46143  19.766   3.676   0.747
31297W        W46144  14.133  12.962  11.891
31298W        W46145  16.951   2.203  11.859
31299W        W46146  14.157   0.255   1.701
31300W        W46147  14.611   4.178  14.785
31301W        W46148  13.662   0.755  14.763
31302W        W46149  16.026  19.301   4.634
31303W        W46150  18.363  11.489  13.833
31304W        W46151  17.440   5.646   1.254
31305W        W46152  17.898   2.694  12.365
31306W        W46153  14.635   8.554  11.868
31307W        W46154  17.886   7.562   9.933
31308W        W46155  15.097   4.670  12.850
31309W        W46156  16.040  12.973   4.631
31310W        W46157  19.803  11.478   3.177
31311W        W46158  13.194  10.976  12.848
31312W        W46159  19.765   1.232  13.307
31313W        W46160  18.358   3.674   3.165
31314W        W46161  13.652   4.161   4.597
31315W        W46162  15.543   1.737  14.308
31316W        W46163  17.446  19.779   2.201
31317W        W46164  12.707   5.166   0.284
31318W        W46165  16.984  12.975  11.407
31319W        W46166  16.968   0.287  12.364
31320W        W46167  17.413  13.942   3.180
31321W        W46168  13.654   2.197   3.164
31322W        W46169  13.675  17.809  13.828
31323W        W46170  12.733  15.381   1.218
31324W        W46171  17.917   6.600  13.826
31325W        W46172  19.782   9.518   4.132
31326W        W46173  13.203  15.400  12.833
31327W        W46174  18.851  18.828   3.176
31328W        W46175  17.902   9.528  12.838
31329W        W46176  19.299  13.949   0.765
31330W        W46177  18.854  19.316   2.703
31331W        W46178  18.356   5.163  10.927
31332W        W46179  16.944   4.167  14.282
31333W        W46180  19.328   7.099  13.340
31334W        W46181  12.734   2.229   4.615
31335W        W46182  19.803   7.606  13.832
31336W        W46183  14.612   0.765  13.331
31337W        W46184  12.733  12.451  11.375
31338W        W46185  19.771  11.988   4.637
31339W        W46186  16.963  15.868  10.890
31340W        W46187  13.220  14.433   2.678
31341W        W46188  13.670   8.562  13.343
31342W        W46189  13.649   3.674   1.738
31343W        W46190  13.201   1.713  13.323
31344W        W46191  16.500  16.363   3.631
31345W        W46192  19.803   4.682   2.190
31346W        W46193  12.264   3.673  12.835
31347W        W46194  13.219  13.452   3.160
31348W        W46195  18.844  10.993  10.416
31349W        W46196  18.862  19.291  13.812
31350W        W46197  16.021  17.342  11.379
31351W        W46198  18.366   9.062  10.927
31352W        W46199  19.778  14.413   1.730
31353W        W46200  19.303  15.413   0.246
31354W        W46201  18.843   5.167   1.701
31355W        W46202  13.665  12.464   2.705
31356W        W46203  19.797   8.543  10.931
31357W        W46204  15.064  14.397  10.929
31358W        W46205  13.181  10.048   3.661
31359W        W46206  14.132   3.214  14.313
31360W        W46207  19.313   8.067  14.301
31361W        W46208  18.389  15.895  14.286
31362W        W46209  18.392  15.900   4.144
31363W        W46210  15.550  15.381   2.205
31364W        W46211  19.338  17.823   3.180
31365W        W46212  13.675  11.958  14.786
31366W        W46213  12.729   3.172   3.658
31367W        W46214  12.237  16.848   3.162
31368W        W46215  13.206   1.725  13.808
31369W        W46216  14.151  12.941  13.326
31370W        W46217  17.425   4.172  14.285
31371W        W46218  18.859  10.536  14.296
31372W        W46219  15.562  18.315  14.800
31373W        W46220  19.307  13.459   0.248
31374W        W46221  16.484   8.542   9.934
31375W        W46222  19.325   5.161   1.243
31376W        W46223  16.002   9.041  13.821
31377W        W46224  16.513  14.394  12.842
31378W        W46225  18.391   3.679   0.269
31379W        W46226  17.416  17.324  11.408
31380W        W46227  13.206   0.257  10.434
31381W        W46228  18.382   7.076   4.635
31382W        W46229  15.075  11.479  13.833
31383W        W46230  16.032  11.007   0.728
31384W        W46231  13.649   8.081   2.221
31385W        W46232  13.209  17.321   4.600
31386W        W46233  14.144  17.362   0.284
31387W        W46234  12.726  14.910   2.706
31388W        W46235  16.479  16.839   4.132
31389W        W46236  16.040   8.089   0.245
31390W        W46237  16.988  12.452   0.730
31391W        W46238  13.210   4.673  11.388
31392W        W46239  18.836   1.732   2.686
31393W        W46240  13.672   2.707  11.386
31394W        W46241  13.649   7.098  14.307
31395W        W46242  19.297  13.449   1.711
31396W        W46243  15.103  15.379   3.635
31397W        W46244  16.037   8.573  11.861
31398W        W46245  16.518   3.679   0.755
31399W        W46246  16.480  10.492   2.706
31400W        W46247  17.916  13.918  14.300
31401W        W46248  19.332   2.203  13.826
31402W        W46249  19.811  11.020   5.085
31403W        W46250  16.513   6.588   4.615
31404W        W46251  14.621   4.163   2.194
31405W        W46252  16.016  16.357   4.127
31406W        W46253  14.625  17.845  10.921
31407W        W46254  16.948   8.051  10.889
31408W        W46255  13.199  16.352   2.690
31409W        W46256  16.985   0.265   5.119
31410W        W46257  13.209  10.524   2.202
31411W        W46258  12.252   3.705   4.622
31412W        W46259  17.890   5.611   2.178
31413W        W46260  17.453   9.034   4.617
31414W        W46261  14.140   5.622  13.826
31415W        W46262  13.193  18.310  12.826
31416W        W46263  14.591  19.772   4.623
31417W        W46264  16.983   7.569  11.417
31418W        W46265  19.297   1.246   4.598
31419W        W46266  18.367  15.413  10.906
31420W        W46267  18.828   0.257   1.226
31421W        W46268  14.141   6.588   2.671
31422W        W46269  16.024   9.056  12.385
31423W        W46270  12.267  19.280   2.185
31424W        W46271  19.793   7.592  11.868
31425W        W46272  19.305  11.008   0.270
31426W        W46273  14.601  17.812   3.192
31427W        W46274  13.655   0.291   2.211
31428W        W46275  18.863  11.019   0.750
31429W        W46276  12.252   8.083  12.865
31430W        W46277  16.960   0.257   4.609
31431W        W46278  15.559  10.534   0.288
31432W        W46279  14.131  15.398   3.177
31433W        W46280  14.153   5.621   2.187
31434W        W46281  13.663  10.044   1.247
31435W        W46282  15.571   7.591  12.847
31436W        W46283  14.616  17.352  13.332
31437W        W46284  15.085   5.143  14.283
31438W        W46285  12.714  13.951  11.894
31439W        W46286  12.256  19.762  12.380
31440W        W46287  15.079  19.299  10.414
31441W        W46288  17.413   2.200   3.669
31442W        W46289  14.631   1.719  14.790
31443W        W46290  13.653  10.534   2.663
31444W        W46291  18.846   7.601  14.302
31445W        W46292  13.206   2.702  11.901
31446W        W46293  16.004  15.405  13.313
31447W        W46294  17.449  14.919  12.384
31448W        W46295  19.775   7.107  13.351
31449W        W46296  15.573  19.291  13.809
31450W        W46297  17.422  10.501   1.243
31451W        W46298  12.734   5.653   0.284
31452W        W46299  19.328  16.347   1.221
31453W        W46300  12.252   5.123  14.798
31454W        W46301  12.749   7.112  12.832
31455W        W46302  19.803   6.103   1.226
31456W        W46303  19.780  15.397  10.907
31457W        W46304  18.833  13.951   4.642
31458W        W46305  18.867  11.971  12.841
31459W        W46306  18.852   6.598   9.953
31460W        W46307  15.530  14.893  13.310
31461W        W46308  18.860   1.253   4.119
31462W        W46309  14.129   9.059  11.412
31463W        W46310  19.798   4.654  11.856
31464W        W46311  13.672  14.395  14.761
31465W        W46312  12.731  16.371   0.772
31466W        W46313  19.295  17.355   3.162
31467W        W46314  15.090   5.637   1.739
31468W        W46315  14.590  10.527   3.656
31469W        W46316  13.201   9.030   1.242
31470W        W46317  14.152   9.064   0.774
31471W        W46318  18.869  17.329  14.791
31472W        W46319  14.118  11.952   0.247
31473W        W46320  19.303  16.830   1.727
31474W        W46321  12.724   1.712   2.696
31475W        W46322  18.859   8.577   2.697
31476W        W46323  15.061   0.755   3.149
31477W        W46324  19.301  13.930  11.856
31478W        W46325  12.706  11.471   1.244
31479W        W46326  18.357  11.991   1.229
31480W        W46327  19.299  16.350   4.628
31481W        W46328  19.796  19.790   1.211
31482W        W46329  12.738  19.286  12.827
31483W        W46330  18.828   1.725   5.087
31484W        W46331  13.181  11.490   1.228
31485W        W46332  13.684  16.835   2.203
31486W        W46333  13.667   4.167   1.237
31487W        W46334  19.305  19.789  10.893
31488W        W46335  15.531  10.005   4.616
31489W        W46336  12.260   0.774   1.701
31490W        W46337  19.299  14.405  10.423
31491W        W46338  13.186  10.987   3.652
31492W        W46339  16.014  10.521  13.332
31493W        W46340  17.412  12.946   2.695
31494W        W46341  17.452  12.447  13.818
31495W        W46342  15.576  16.358  13.317
31496W        W46343  16.958   1.231   1.211
31497W        W46344  16.950  13.951  12.346
31498W        W46345  19.779   5.147  14.794
31499W        W46346  16.504  11.485  11.381
31500W        W46347  16.024   1.743   4.634
31501W        W46348  18.845  19.772  12.356
31502W        W46349  17.445  16.837   4.601
31503W        W46350  14.139   1.752  13.317
31504W        W46351  16.503  11.013  14.762
31505W        W46352  14.155  15.855   0.278
31506W        W46353  19.778  13.921   9.924
31507W        W46354  17.416  16.363   0.766
31508W        W46355  18.394   6.624  10.414
31509W        W46356  14.146  16.383  10.935
31510W        W46357  12.269  19.293  11.903
31511W        W46358  18.838  19.771  11.858
31512W        W46359  18.863  16.832   3.670
31513W        W46360  13.220  16.380  11.414
31514W        W46361  16.976   5.170   4.629
31515W        W46362  16.019  10.039   1.714
31516W        W46363  12.721  18.308   1.713
31517W        W46364  14.600  12.472  11.372
31518W        W46365  16.511   9.030  11.870
31519W        W46366  12.727   2.226  10.417
31520W        W46367  17.925  19.301   2.188
31521W        W46368  14.599   0.742   0.261
31522W        W46369  17.457   9.513  14.784
31523W        W46370  14.618   5.640   0.736
31524W        W46371  19.787   4.168  14.771
31525W        W46372  19.319  12.974  12.372
31526W        W46373  17.448   8.545   2.207
31527W        W46374  17.919   4.660   0.256
31528W        W46375  15.574   7.589  13.816
31529W        W46376  18.383   4.160  10.432
31530W        W46377  14.616   2.235  14.314
31531W        W46378  16.943   5.140  10.892
31532W        W46379  12.752  15.398  14.764
31533W        W46380  19.806   8.075  13.802
31534W        W46381  14.591  11.465  14.765
31535W        W46382  16.042   6.120  12.834
31536W        W46383  16.046   0.267   3.657
31537W        W46384  17.928  14.924  10.899
31538W        W46385  19.791   7.121  13.818
31539W        W46386  15.548   2.729  12.361
31540W        W46387  18.870  16.865  11.376
31541W        W46388  16.965  11.011   0.268
31542W        W46389  18.833  19.770  13.307
31543W        W46390  16.018   2.698   4.137
31544W        W46391  16.472  15.896   1.728
31545W        W46392  12.746  14.420   4.645
31546W        W46393  18.365  19.788   5.113
31547W        W46394  15.059  14.894   4.131
31548W        W46395  15.088   6.590  14.793
31549W        W46396  15.532   2.206   3.176
31550W        W46397  12.244   7.565   1.701
31551W        W46398  19.302  14.397  13.791
31552W        W46399  14.634   1.717  10.901
31553W        W46400  15.568   9.519   9.928
31554W        W46401  12.740   5.168  11.409
31555W        W46402  15.536   4.154  13.342
31556W        W46403  19.311  18.804   2.684
31557W        W46404  18.373   6.107   4.118
31558W        W46405  12.732  14.918  13.342
31559W        W46406  13.180  17.817  10.900
31560W        W46407  19.779   3.669  12.370
31561W        W46408  18.382   9.034   2.193
31562W        W46409  17.455   4.178  13.314
31563W        W46410  14.625   4.161  12.339
31564W        W46411  17.890  19.287  10.446
31565W        W46412  13.211  13.949  13.327
31566W        W46413  18.859  17.357  10.414
31567W        W46414  18.827   1.241   2.224
31568W        W46415  16.971   7.562  11.876
31569W        W46416  15.544  12.958   0.767
31570W        W46417  12.708  10.996  14.768
31571W        W46418  16.958   0.749  10.895
31572W        W46419  16.022   7.081   1.702
31573W        W46420  14.147   4.156   4.599
31574W        W46421  18.838  14.429   9.943
31575W        W46422  14.118  18.819   1.716
31576W        W46423  14.147   6.620  14.305
31577W        W46424  17.894   7.600   3.631
31578W        W46425  18.837   1.710  10.420
31579W        W46426  17.455  12.943  13.815
31580W        W46427  19.336  13.462   0.743
31581W        W46428  18.828   4.167   0.766
31582W        W46429  15.084   1.243  12.362
31583W        W46430  15.532   6.625   4.139
31584W        W46431  16.038   5.637  10.431
31585W        W46432  12.276  10.508  13.328
31586W        W46433  18.845  13.915  12.340
31587W        W46434  18.359   7.609  14.768
31588W        W46435  13.214  13.433  13.334
31589W        W46436  19.792   3.196   3.153
31590W        W46437  14.156   6.595  11.410
31591W        W46438  16.026   9.073  14.321
31592W        W46439  15.101  19.786  10.890
31593W        W46440  14.157  19.279   4.121
31594W        W46441  12.714  10.039   2.223
31595W        W46442  15.538   5.649  10.920
31596W        W46443  12.282   4.660  12.869
31597W        W46444  19.315  10.511   4.629
31598W        W46445  17.913   3.188  14.306
31599W        W46446  13.664  19.758   2.191
31600W        W46447  17.448   2.219   1.228
31601W        W46448  14.160  17.807  10.450
31602W        W46449  14.623   4.156   1.718
31603W        W46450  15.570   7.592  14.315
31604W        W46451  17.922   7.590   1.219
31605W        W46452  13.190  15.860  13.349
31606W        W46453  12.713   9.560   4.641
31607W        W46454  15.061   7.117   4.630
31608W        W46455  16.493  14.923   0.750
31609W        W46456  16.025  14.432  13.323
31610W        W46457  15.097  15.872  13.838
31611W        W46458  16.004  15.371  11.889
31612W        W46459  15.559   2.205  10.906
31613W        W46460  17.439  11.988   4.630
31614W        W46461  16.042   8.066   0.769
31615W        W46462  13.681  15.900   1.251
31616W        W46463  16.944  17.320   0.744
31617W        W46464  19.789  16.343   2.198
31618W        W46465  17.908  11.007  13.811
31619W        W46466  12.264  14.391  13.323
31620W        W46467  15.536   9.030   2.703
31621W        W46468  17.915  16.389   4.610
31622W        W46469  18.362   9.519   2.671
31623W        W46470  12.728  14.432   1.214
31624W        W46471  12.256  17.333   0.260
31625W        W46472  16.499   8.564   3.673
31626W        W46473  16.985   0.273  11.397
31627W        W46474  19.304  17.351   3.671
31628W        W46475  15.074  13.924  13.347
31629W        W46476  14.122   5.147   0.755
31630W        W46477  16.041   7.079   0.290
31631W        W46478  18.367  19.308  10.413
31632W        W46479  19.780   7.610  11.373
31633W        W46480  18.381  14.887  10.900
31634W        W46481  17.917   1.241  10.915
31635W        W46482  18.373   5.162   1.714
31636W        W46483  13.197  11.966   0.748
31637W        W46484  12.259  18.303  12.340
31638W        W46485  15.564   7.586   0.273
31639W        W46486  12.273   0.277   4.600
31640W        W46487  16.471   8.058  12.838
31641W        W46488  18.392  11.016  12.857
31642W        W46489  15.077  11.001   2.186
31643W        W46490  17.929  14.926  11.384
31644W        W46491  17.442   2.208  14.303
31645W        W46492  16.474  14.410  13.350
31646W        W46493  12.749  19.804   2.702
31647W        W46494  16.024   3.690   3.154
31648W        W46495  14.120  19.308  11.392
31649W        W46496  18.364   4.674   3.636
31650W        W46497  15.562  11.493   3.173
31651W        W46498  18.869   2.211   1.257
31652W        W46499  15.533   3.181   0.276
31653W        W46500  15.547   1.259  13.796
31654W        W46501  18.376   3.678   1.255
31655W        W46502  13.658  11.993   0.739
31656W        W46503  15.079  14.403   2.704
31657W        W46504  16.001   7.105  13.790
31658W        W46505  16.950  11.481  13.823
31659W        W46506  12.740   3.696   5.122
31660W        W46507  17.447  10.510   2.213
31661W        W46508  15.564   8.565   3.655
31662W        W46509  17.437   3.209  12.349
31663W        W46510  15.072  14.919  11.381
31664W        W46511  15.573   1.728  14.760
31665W        W46512  16.977  12.941   0.249
31666W        W46513  16.970  18.321  13.308
31667W        W46514  12.728   9.041  13.822
31668W        W46515  12.281  16.387   0.279
31669W        W46516  12.718  16.351   0.248
31670W        W46517  18.378  16.358   0.243
31671W        W46518  19.771   7.117   3.656
31672W        W46519  18.843  11.015  14.281
31673W        W46520  16.475   3.707  10.434
31674W        W46521  14.153  14.392  11.863
31675W        W46522  12.239  17.337   1.214
31676W        W46523  17.416   5.641  11.900
31677W        W46524  18.391   1.728  14.285
31678W        W46525  17.917  17.823   1.707
31679W        W46526  13.200  11.466   0.255
31680W        W46527  19.297   1.742   0.250
31681W        W46528  18.360   9.517   3.192
31682W        W46529  15.543   6.592   0.748
31683W        W46530  14.147   1.242   0.773
31684W        W46531  17.430  18.812   9.933
31685W        W46532  16.016   3.699  12.341
31686W        W46533  14.156  15.859  13.808
31687W        W46534  19.313   2.235   2.208
31688W        W46535  17.435  14.412  14.290
31689W        W46536  15.070  12.478  14.798
31690W        W46537  15.571  16.376   1.710
31691W        W46538  19.792  16.864   0.263
31692W        W46539  13.690   4.680   0.730
31693W        W46540  14.606   9.064  13.320
31694W        W46541  19.782   1.739  13.797
31695W        W46542  18.833  14.895  13.341
31696W        W46543  19.766   7.587   3.191
31697W        W46544  17.434   2.707  13.826
31698W        W46545  14.610   1.712   0.243
31699W        W46546  14.144  15.414  11.893
31700W        W46547  17.924  13.439  10.416
31701W        W46548  12.740  18.803  12.350
31702W        W46549  16.017   2.202  14.797
31703W        W46550  16.963  15.856  12.370
31704W        W46551  19.786  13.912   2.678
31705W        W46552  15.534   2.731  11.404
31706W        W46553  18.379  16.365   4.644
31707W        W46554  18.840   4.159   2.705
31708W        W46555  16.516  12.469   9.962
31709W        W46556  15.558  17.366   1.229
31710W        W46557  19.810  10.016   1.708
31711W        W46558  12.262  13.908  13.798
31712W        W46559  19.805  11.015  14.286
31713W        W46560  16.037  14.890  11.375
31714W        W46561  12.239   9.059   0.258
31715W        W46562  18.395   8.076  13.816
31716W        W46563  16.968   5.145  10.435
31717W        W46564  14.135   4.190   2.221
31718W        W46565  14.605   7.601  12.377
31719W        W46566  17.437   6.605  12.340
31720W        W46567  19.337  12.952  13.319
31721W        W46568  16.017  14.925  13.825
31722W        W46569  17.902   5.640  12.850
31723W        W46570  16.977   3.195   2.219
31724W        W46571  16.025  14.881   1.228
31725W        W46572  14.596  12.936   0.734
31726W        W46573  19.788  18.304  14.299
31727W        W46574  19.775   5.641  14.779
31728W        W46575  13.666   2.722  13.814
31729W        W46576  17.434   5.133  13.349
31730W        W46577  18.827  18.320   1.714
31731W        W46578  12.265   2.198   4.156
31732W        W46579  13.688   6.589   4.643
31733W        W46580  17.905  19.757   3.651
31734W        W46581  17.447  18.337   4.147
31735W        W46582  17.924  17.834  10.910
31736W        W46583  18.384   6.101  14.318
31737W        W46584  16.477   5.655   4.123
31738W        W46585  16.976  10.018  13.794
31739W        W46586  15.540  10.012  10.405
31740W        W46587  14.131  11.511  10.905
31741W        W46588  16.047   6.108  14.783
31742W        W46589  13.682   7.563   4.151
31743W        W46590  18.867   8.096  11.866
31744W        W46591  16.967  18.304  11.407
31745W        W46592  19.784   1.732   0.279
31746W        W46593  19.787   4.663   1.245
31747W        W46594  18.366  16.375   1.721
31748W        W46595  16.962  10.046   4.628
31749W        W46596  17.929  14.905  14.298
31750W        W46597  13.177  12.949   2.670
31751W        W46598  14.621   6.138   0.732
31752W        W46599  16.954  16.353   0.769
31753W        W46600  18.360  14.905   1.722
31754W        W46601  13.219   7.595  10.922
31755W        W46602  13.177  10.034   3.156
31756W        W46603  15.554   5.138   9.935
31757W        W46604  17.890  14.393   4.598
31758W        W46605  18.829   1.249   1.212
31759W        W46606  14.625   6.595   0.740
31760W        W46607  19.809   3.178   2.693
31761W        W46608  14.141   0.254   2.700
31762W        W46609  17.924  19.796  10.419
31763W        W46610  17.889   4.168  10.915
31764W        W46611  18.826  10.995  12.374
31765W        W46612  16.505  10.506   0.753
31766W        W46613  15.094   8.095  10.889
31767W        W46614  19.770   5.645   1.728
31768W        W46615  13.184  15.415   1.245
31769W        W46616  14.598  12.467   3.187
31770W        W46617  13.656   1.221  14.789
31771W        W46618  18.865  13.919  13.333
31772W        W46619  16.026  11.955   3.153
31773W        W46620  17.420  10.491   3.663
31774W        W46621  15.078  19.314   5.125
31775W        W46622  12.269  10.037   3.658
31776W        W46623  18.383   9.538  14.783
31777W        W46624  14.623  19.803  11.393
31778W        W46625  16.501   5.143   2.188
31779W        W46626  14.145   4.677  10.433
31780W        W46627  13.683   4.649  12.863
31781W        W46628  16.047   6.114   4.136
31782W        W46629  15.563   6.625  13.807
31783W        W46630  12.266  14.922  11.397
31784W        W46631  12.746   1.740   1.734
31785W        W46632  14.631  18.311   3.664
31786W        W46633  18.394   0.772  11.877
31787W        W46634  15.543  19.794   2.200
31788W        W46635  15.070  10.490  13.836
31789W        W46636  18.362   9.057  10.444
31790W        W46637  17.910   7.607  14.316
31791W        W46638  16.508   5.122  10.920
31792W        W46639  16.008   9.042   5.096
31793W        W46640  19.336  11.976  11.389
31794W        W46641  12.270  19.803   0.735
31795W        W46642  19.327   5.136   1.722
31796W        W46643  12.714   5.150  13.345
31797W        W46644  14.606  11.965   2.669
31798W        W46645  16.019   1.746   1.726
31799W        W46646  13.177   8.084   4.115
31800W        W46647  13.658   3.691   3.163
31801W        W46648  19.300   1.710  11.376
31802W        W46649  12.727   7.567  10.924
31803W        W46650  15.062  15.877   0.277
31804W        W46651  15.559  11.955   1.222
31805W        W46652  16.492   0.744   1.696
31806W        W46653  15.082   8.564  10.422
31807W        W46654  16.040  14.906  12.381
31808W        W46655  19.769  10.977  11.880
31809W        W46656  17.417  11.021   2.666
31810W        W46657  19.809  14.892  11.864
31811W        W46658  19.323  19.297   3.181
31812W        W46659  14.132  10.496   1.254
31813W        W46660  17.908   0.757  13.327
31814W        W46661  17.421  11.511   0.257
31815W        W46662  16.472  12.460  13.321
31816W        W46663  14.623  17.329  14.283
31817W        W46664  14.622   5.127  10.900
31818W        W46665  12.273   0.756  10.421
31819W        W46666  14.152  19.293   0.733
31820W        W46667  16.955   7.570  10.911
31821W        W46668  18.371  15.900  13.812
31822W        W46669  13.212   1.733  10.898
31823W        W46670  17.912   6.131  14.792
31824W        W46671  13.214  10.017  14.295
31825W        W46672  16.498  12.957   1.696
31826W        W46673  16.041  19.797  12.377
31827W        W46674  13.684   1.730   4.598
31828W        W46675  16.964   2.690   2.670
31829W        W46676  16.011  18.811   4.628
31830W        W46677  19.784   9.051   2.196
31831W        W46678  14.151  12.453   2.697
31832W        W46679  15.085   8.070   3.661
31833W        W46680  18.826   2.721   4.145
31834W        W46681  12.240   3.203  13.339
31835W        W46682  15.072   2.218  12.352
31836W        W46683  14.633  15.368  14.794
31837W        W46684  19.800  19.764   0.254
31838W        W46685  12.749   0.254   3.664
31839W        W46686  18.391  17.357   2.215
31840W        W46687  15.550  13.951   4.608
31841W        W46688  15.550  16.865  12.834
31842W        W46689  17.446   2.227  12.341
31843W        W46690  18.398  19.787   1.228
31844W        W46691  17.899  19.768   0.771
31845W        W46692  17.884  15.898   0.756
31846W        W46693  18.832  16.379   3.168
31847W        W46694  18.837   9.545   3.188
31848W        W46695  14.588  11.005  11.870
31849W        W46696  15.548   2.684  10.420
31850W        W46697  19.812   8.565   2.677
31851W        W46698  16.942   3.704   3.167
31852W        W46699  17.925   0.251  13.801
31853W        W46700  13.202  11.509   2.689
31854W        W46701  18.854  19.312   3.643
31855W        W46702  12.745   4.642  14.793
31856W        W46703  16.972   6.126  13.822
31857W        W46704  15.099   7.088   3.649
31858W        W46705  16.952  12.957  14.767
31859W        W46706  12.716   7.100  14.284
31860W        W46707  13.653  15.873  11.882
31861W        W46708  14.119  17.808   3.154
31862W        W46709  16.977   2.197   4.146
31863W        W46710  14.160  13.415  11.395
31864W        W46711  18.400   6.629  14.786
31865W        W46712  14.127   2.712   2.215
31866W        W46713  18.836   8.050   9.935
31867W        W46714  19.810   7.121  11.894
31868W        W46715  16.506  11.991   4.625
31869W        W46716  16.972  18.790  10.914
31870W        W46717  16.950  14.424   4.632
31871W        W46718  17.891   8.547  11.859
31872W        W46719  16.495  16.355  11.886
31873W        W46720  12.241  13.919  11.387
31874W        W46721  17.422  19.284   4.617
31875W        W46722  19.771   8.085  11.393
31876W        W46723  14.622  10.032   4.628
31877W        W46724  14.597  11.013  14.764
31878W        W46725  18.836  10.980   0.261
31879W        W46726  12.246   8.554  11.868
31880W        W46727  18.378  10.029  10.420
31881W        W46728  14.593   6.594  12.384
31882W        W46729  18.842  15.857   5.115
31883W        W46730  17.447  11.988  12.372
31884W        W46731  14.614   3.693   4.635
31885W        W46732  16.479  10.507  10.418
31886W        W46733  15.557  12.441  14.274
31887W        W46734  19.768  16.380  12.856
31888W        W46735  13.659  11.469   0.769
31889W        W46736  15.071   2.690  14.276
31890W        W46737  15.093  18.791   3.146
31891W        W46738  15.097  10.012   3.659
31892W        W46739  16.037   5.640   3.657
31893W        W46740  16.475   7.592   1.721
31894W        W46741  19.800   6.594  12.848
31895W        W46742  13.188  15.862  11.390
31896W        W46743  18.384  16.347  12.857
31897W        W46744  12.733   9.049  11.885
31898W        W46745  15.545  17.322  12.871
31899W        W46746  12.275  13.434   2.182
31900W        W46747  15.078  10.992  10.933
31901W        W46748  13.195  14.428  10.439
31902W        W46749  12.729  14.884  10.451
31903W        W46750  14.623  19.790  14.275
31904W        W46751  15.545   9.528   3.675
31905W        W46752  18.837   1.237  10.447
31906W        W46753  16.971  19.762  10.431
31907W        W46754  16.971   6.599   1.696
31908W        W46755  12.275   2.683   9.965
31909W        W46756  14.605  10.031  13.328
31910W        W46757  12.239   4.673   1.727
31911W        W46758  19.804  15.405  14.802
31912W        W46759  17.431   6.107   4.130
31913W        W46760  15.069  17.843  14.295
31914W        W46761  15.532  13.451   2.702
31915W        W46762  16.010  19.272   0.738
31916W        W46763  16.482  19.293  12.348
31917W        W46764  12.733  14.920   0.755
31918W        W46765  14.153   4.672   3.159
31919W        W46766  16.970  10.022   0.761
31920W        W46767  18.369   9.027   4.597
31921W        W46768  15.540   7.103   1.253
31922W        W46769  17.884  12.469  11.874
31923W        W46770  13.213  19.776  11.391
31924W        W46771  15.543  13.943  12.387
31925W        W46772  18.386  11.004  10.914
31926W        W46773  18.827  14.407   0.246
31927W        W46774  15.531  13.948   0.768
31928W        W46775  14.127  10.534  14.793
31929W        W46776  14.118   0.292   4.605
31930W        W46777  18.865  12.444   0.288
31931W        W46778  15.543  15.865   0.274
31932W        W46779  16.946  11.512   4.158
31933W        W46780  16.500   1.732  11.862
31934W        W46781  18.386   3.701   2.218
31935W        W46782  16.480  12.456  14.294
31936W        W46783  17.888  16.377  10.440
31937W        W46784  16.984   7.115  14.759
31938W        W46785  16.514   2.196  12.346
31939W        W46786  19.799  17.344  13.821
31940W        W46787  14.153   4.653   0.753
31941W        W46788  17.894   7.074   4.598
31942W        W46789  12.253   0.749   9.949
31943W        W46790  13.203   7.592   4.608
31944W        W46791  19.303  10.997  10.432
31945W        W46792  15.531  11.494  11.895
31946W        W46793  16.009  18.327  14.305
31947W        W46794  14.635  19.311   1.701
31948W        W46795  12.717  10.489   4.149
31949W        W46796  19.319  10.040   2.185
31950W        W46797  18.835  17.361  13.823
31951W        W46798  12.739  16.870  12.368
31952W        W46799  16.020   9.526   3.168
31953W        W46800  16.020  13.416  13.331
31954W        W46801  14.118   9.044   1.255
31955W        W46802  12.268   9.060   4.613
31956W        W46803  13.189   8.547  13.331
31957W        W46804  16.026   2.690   0.733
31958W        W46805  16.965  17.847  10.911
31959W        W46806  15.084  12.444   0.270
31960W        W46807  14.613  15.372  13.795
31961W        W46808  16.943  17.813  12.377
31962W        W46809  13.189  14.437   0.762
31963W        W46810  13.179  16.349   3.159
31964W        W46811  12.751  19.309   5.110
31965W        W46812  15.567   9.055  10.415
31966W        W46813  19.778   9.028  12.368
31967W        W46814  17.885  17.332  11.864
31968W        W46815  15.565   3.200  13.797
31969W        W46816  12.264   6.618   4.114
31970W        W46817  12.273   0.291   4.115
31971W        W46818  13.689   1.229  12.844
31972W        W46819  17.918  12.478  13.339
31973W        W46820  19.807   0.253   4.644
31974W        W46821  13.208   4.173  12.825
31975W        W46822  19.807  19.778  11.856
31976W        W46823  17.913  13.429  10.930
31977W        W46824  14.630   2.703   2.218
31978W        W46825  16.492   3.677   1.234
31979W        W46826  19.786  17.822   4.628
31980W        W46827  17.436   6.625  11.889
31981W        W46828  16.960  13.906  14.286
31982W        W46829  16.494   8.567   1.737
31983W        W46830  15.093  13.448   9.923
31984W        W46831  18.387   8.540   4.136
31985W        W46832  18.838   2.701   4.599
31986W        W46833  15.544  13.443  12.361
31987W        W46834  13.685   4.648   5.094
31988W        W46835  16.031  14.431  10.425
31989W        W46836  17.452   9.055  11.414
31990W        W46837  16.954   1.741   4.632
31991W        W46838  19.301   2.214   1.697
31992W        W46839  18.846   3.701   2.194
31993W        W46840  19.780   2.712   1.732
31994W        W46841  15.573  17.365  12.379
31995W        W46842  17.450  17.365  14.318
31996W        W46843  13.647   7.108  12.355
31997W        W46844  16.478  12.485  13.793
31998W        W46845  14.126   0.749   4.125
31999W        W46846  14.618  15.882   1.708
32000W        W46847  19.317   2.207  12.853
32001W        W46848  18.356  11.482  14.778
32002W        W46849  17.428   6.126   5.128
32003W        W46850  19.789   3.218  10.436
32004W        W46851  19.772   8.559   3.149
32005W        W46852  12.719   3.688   2.672
32006W        W46853  17.927   9.547   1.727
32007W        W46854  16.985   0.759   4.610
32008W        W46855  19.784   9.556   1.700
32009W        W46856  16.026  10.522  10.437
32010W        W46857  12.733  11.487  14.287
32011W        W46858  13.208  10.015  10.421
32012W        W46859  15.072  10.042   5.098
32013W        W46860  16.036  15.887  14.305
32014W        W46861  19.786  10.023  13.825
32015W        W46862  19.314   6.606  11.857
32016W        W46863  14.133  14.430  14.793
32017W        W46864  16.031   1.264  11.898
32018W        W46865  14.588   7.091  13.816
32019W        W46866  19.314   6.619   1.732
32020W        W46867  13.210  17.322  14.801
32021W        W46868  19.783   1.238   0.767
32022W        W46869  17.440   4.666   1.256
32023W        W46870  16.988   7.120  14.315
32024W        W46871  16.517  10.490   1.254
32025W        W46872  15.537   7.573   5.111
32026W        W46873  13.202  11.010  13.322
32027W        W46874  12.243  15.388  10.892
32028W        W46875  19.306   8.553  11.402
32029W        W46876  16.948   1.717   1.243
32030W        W46877  16.976   2.720  13.822
32031W        W46878  18.846  10.508   2.707
32032W        W46879  18.859  18.827   4.119
32033W        W46880  16.495   9.517  11.887
32034W        W46881  18.844   7.100  13.345
32035W        W46882  15.541  18.813   2.218
32036W        W46883  12.733   2.223  13.791
32037W        W46884  12.712  18.331   1.232
32038W        W46885  12.712  10.501  14.772
32039W        W46886  13.658   4.674   2.180
32040W        W46887  15.542   3.706   0.741
32041W        W46888  12.711  18.790   4.645
32042W        W46889  13.668   5.658   0.272
32043W        W46890  18.387   2.712   4.600
32044W        W46891  13.693   2.719   1.735
32045W        W46892  18.828   4.655  12.377
32046W        W46893  18.840  11.964   4.603
32047W        W46894  13.675  17.850   5.125
32048W        W46895  16.015   0.734   3.650
32049W        W46896  12.256   1.756  11.889
32050W        W46897  17.928  11.988   1.239
32051W        W46898  17.915   6.110  14.300
32052W        W46899  12.751  16.839  10.905
32053W        W46900  16.014   1.715  11.378
32054W        W46901  15.574  13.446   4.141
32055W        W46902  16.007   5.641  14.309
32056W        W46903  13.647  13.921  14.768
32057W        W46904  13.667   0.245  13.325
32058W        W46905  14.152  19.759   2.704
32059W        W46906  12.267  11.998   3.664
32060W        W46907  17.429  13.441  12.824
32061W        W46908  14.135   8.551   2.669
32062W        W46909  17.415  13.905   4.157
32063W        W46910  12.271   0.773   4.603
32064W        W46911  16.030   0.767   4.603
32065W        W46912  16.024  16.387  11.375
32066W        W46913  16.475   5.643  13.337
32067W        W46914  15.090   7.091   0.754
32068W        W46915  16.012  10.012   0.746
32069W        W46916  16.966  17.356   2.676
32070W        W46917  14.142  13.416   3.153
32071W        W46918  12.251   8.566   1.211
32072W        W46919  15.554  15.366   4.609
32073W        W46920  14.164   5.648   4.641
32074W        W46921  12.730   4.673  13.328
32075W        W46922  15.062   7.579   0.288
32076W        W46923  12.277  10.035   0.267
32077W        W46924  12.749  17.334  14.787
32078W        W46925  14.607  14.888  14.762
32079W        W46926  12.239  10.501   4.640
32080W        W46927  15.092   9.550  11.384
32081W        W46928  17.916   8.092   9.942
32082W        W46929  17.925  19.787   1.225
32083W        W46930  12.718   7.571  11.893
32084W        W46931  17.428   4.641  11.860
32085W        W46932  15.104   7.101   2.205
32086W        W46933  18.857   3.664  10.440
32087W        W46934  18.868  12.486   2.202
32088W        W46935  17.888   9.550  14.797
32089W        W46936  18.384   9.542   3.643
32090W        W46937  16.483  19.290   2.708
32091W        W46938  14.144   1.714   1.227
32092W        W46939  18.388   7.571  12.374
32093W        W46940  12.265  14.436   0.247
32094W        W46941  14.159  12.943  11.416
32095W        W46942  13.649   5.634   4.133
32096W        W46943  15.561   9.518   1.222
32097W        W46944  19.295  10.035   4.601
32098W        W46945  18.356   2.230   1.732
32099W        W46946  18.858   7.584  11.867
32100W        W46947  12.248   8.547  13.342
32101W        W46948  15.080  12.442   2.676
32102W        W46949  15.099  18.808  12.825
32103W        W46950  17.448  18.313   1.234
32104W        W46951  16.022  10.987   0.277
32105W        W46952  12.729  15.880   3.150
32106W        W46953  12.256  11.962   2.179
32107W        W46954  18.365   6.112  11.408
32108W        W46955  19.777  18.787   0.269
32109W        W46956  19.304   3.691  12.376
32110W        W46957  14.609   3.196  13.308
32111W        W46958  18.384   2.702   4.135
32112W        W46959  15.062   4.642   4.120
32113W        W46960  16.015  12.480  12.863
32114W        W46961  19.805   9.539  14.311
32115W        W46962  13.676   4.176   0.262
32116W        W46963  16.487   8.545   5.107
32117W        W46964  16.974  18.320   0.242
32118W        W46965  18.370  12.463   3.651
32119W        W46966  14.597  19.804   2.218
32120W        W46967  18.371  17.841   2.207
32121W        W46968  17.922  10.999  10.443
32122W        W46969  16.977   8.082   3.661
32123W        W46970  18.364  16.364   3.190
32124W        W46971  19.812  13.926  13.821
32125W        W46972  15.535  10.040   0.259
32126W        W46973  12.267  12.441   1.232
32127W        W46974  14.143  13.909   3.655
32128W        W46975  17.441  12.946  14.774
32129W        W46976  16.967   9.050  13.324
32130W        W46977  13.185  14.393   0.260
32131W        W46978  16.980   0.254   3.168
32132W        W46979  19.796  13.924  12.845
32133W        W46980  16.974   1.243   2.681
32134W        W46981  12.272  11.974  12.848
32135W        W46982  19.792   3.671   1.701
32136W        W46983  15.093  14.916  14.770
32137W        W46984  16.486  12.969   4.124
32138W        W46985  18.864  19.782   4.144
32139W        W46986  17.451  12.447  13.311
32140W        W46987  12.276  12.945  14.791
32141W        W46988  17.914  15.883  10.929
32142W        W46989  12.252  18.788   4.155
32143W        W46990  16.985   7.078  12.380
32144W        W46991  15.565  12.447   0.283
32145W        W46992  18.360   5.169   4.631
32146W        W46993  13.222   8.051   2.686
32147W        W46994  15.099  12.959  12.866
32148W        W46995  15.062  18.337  14.287
32149W        W46996  19.793  13.423   4.123
32150W        W46997  12.737  14.417   1.714
32151W        W46998  18.855  11.987  14.772
32152W        W46999  12.732   4.675   4.157
32153W        W47000  18.382  10.531  13.821
32154W        W47001  17.435  19.799   0.745
32155W        W47002  15.059  12.479  13.325
32156W        W47003  18.825   1.709   0.242
32157W        W47004  17.427  17.836  10.442
32158W        W47005  16.967  17.823  13.806
32159W        W47006  18.394   3.216   2.670
32160W        W47007  18.380   8.083   2.203
32161W        W47008  17.432  10.520  12.366
32162W        W47009  13.689  13.903  11.900
32163W        W47010  18.851  17.852  11.901
32164W        W47011  14.627  12.936   3.660
32165W        W47012  15.570   4.668  13.799
32166W        W47013  16.976  16.372  13.338
32167W        W47014  16.000   2.716  11.872
32168W        W47015  15.101   9.071  11.389
32169W        W47016  17.457   9.033   0.249
32170W        W47017  12.282   8.096  11.411
32171W        W47018  16.976  13.919   1.711
32172W        W47019  15.565  16.863   9.952
32173W        W47020  18.826  17.839   4.124
32174W        W47021  16.974  17.359  12.850
32175W        W47022  13.686  10.996   3.663
32176W        W47023  19.335   7.077   5.087
32177W        W47024  14.626   3.706  13.325
32178W        W47025  17.907   3.679  11.884
32179W        W47026  19.775  11.002   3.169
32180W        W47027  16.969   2.203  11.418
32181W        W47028  19.785  17.816  10.438
32182W        W47029  18.377  15.393  12.376
32183W        W47030  15.060  15.900  11.414
32184W        W47031  19.782  16.861   4.632
32185W        W47032  12.260   5.654  10.408
32186W        W47033  14.626   6.140   1.213
32187W        W47034  15.074   6.129   1.717
32188W        W47035  17.913  11.486  10.891
32189W        W47036  12.249   5.153   1.741
32190W        W47037  16.959   2.220   2.216
32191W        W47038  17.458   5.651   2.673
32192W        W47039  15.531   1.268  10.926
32193W        W47040  16.038   3.687   0.761
32194W        W47041  17.438   3.194   0.773
32195W        W47042  12.256   2.715  13.811
32196W        W47043  13.662   7.585  12.371
32197W        W47044  15.094  10.009  14.276
32198W        W47045  15.075   2.701  10.917
32199W        W47046  19.788  15.888  12.829
32200W        W47047  17.459   1.736  10.413
32201W        W47048  18.360   1.742  12.346
32202W        W47049  13.196   8.545  10.433
32203W        W47050  13.652  16.865   1.700
32204W        W47051  17.927  17.814   9.942
32205W        W47052  13.657  16.873   4.624
32206W        W47053  13.178  19.798   1.240
32207W        W47054  17.905   5.645  14.802
32208W        W47055  13.669  19.768  10.931
32209W        W47056  15.534  17.849   4.603
32210W        W47057  17.423  12.956   4.138
32211W        W47058  19.311  17.807  14.758
32212W        W47059  13.198  14.893   1.241
32213W        W47060  14.620   8.076   4.153
32214W        W47061  19.797  14.396  10.933
32215W        W47062  17.895  12.482  10.930
32216W        W47063  15.558   3.218  11.877
32217W        W47064  18.868  14.922   4.609
32218W        W47065  12.730   9.534  13.795
32219W        W47066  19.766   6.611  13.828
32220W        W47067  14.145  16.374   9.959
32221W        W47068  15.091  10.495   0.760
32222W        W47069  12.739  12.968   3.163
32223W        W47070  14.635  17.330  13.838
32224W        W47071  16.034   8.084   1.226
32225W        W47072  16.478   1.227   2.663
32226W        W47073  17.428  11.495  14.765
32227W        W47074  12.731  19.762  11.867
32228W        W47075  14.131  18.333   3.662
32229W        W47076  18.382   3.209   4.147
32230W        W47077  18.370   7.077  11.396
32231W        W47078  14.630  15.377  11.902
32232W        W47079  13.689  19.775   4.612
32233W        W47080  16.046   1.226  12.373
32234W        W47081  12.707   5.151   1.225
32235W        W47082  17.428   4.666   4.619
32236W        W47083  19.322   0.263  10.442
32237W        W47084  14.121  13.438   4.625
32238W        W47085  19.314  16.378   0.731
32239W        W47086  12.716  18.813   4.127
32240W        W47087  13.197  13.445   3.661
32241W        W47088  14.609  19.310  11.404
32242W        W47089  12.263  15.887   0.759
32243W        W47090  12.738  16.382  13.791
32244W        W47091  14.154   0.767   0.772
32245W        W47092  16.499   8.578  11.890
32246W        W47093  13.222  18.296  10.892
32247W        W47094  19.318   1.237   1.696
32248W        W47095  13.678  16.850  12.835
32249W        W47096  13.201   9.043  11.413
32250W        W47097  12.739   6.607   1.221
32251W        W47098  18.867   4.665  11.417
32252W        W47099  15.084   4.677  11.880
32253W        W47100  17.902   9.547   3.643
32254W        W47101  19.320  12.935   1.722
32255W        W47102  17.441  10.526   0.748
32256W        W47103  19.299  16.860   0.766
32257W        W47104  16.032  11.504  10.436
32258W        W47105  15.571  16.864  10.407
32259W        W47106  13.197  13.452   0.736
32260W        W47107  18.369   1.745   3.158
32261W        W47108  16.957  15.869  10.429
32262W        W47109  13.665  12.940   1.725
32263W        W47110  19.804  10.032   3.638
32264W        W47111  13.223  10.995   1.254
32265W        W47112  15.546  15.870  10.433
32266W        W47113  13.216  17.336   1.224
32267W        W47114  12.244   7.564   3.190
32268W        W47115  13.199  19.304   3.177
32269W        W47116  17.452   9.530   1.235
32270W        W47117  17.456   6.145   3.674
32271W        W47118  15.565  15.410   4.116
32272W        W47119  16.946   8.558  12.861
32273W        W47120  18.832  12.957  13.811
32274W        W47121  16.952   5.658   0.753
32275W        W47122  17.916   1.231   0.246
32276W        W47123  14.609  14.432   3.638
32277W        W47124  15.557   2.227  14.312
32278W        W47125  19.295  19.781  10.407
32279W        W47126  17.423   0.772   2.197
32280W        W47127  16.944   2.696   4.138
32281W        W47128  18.376  17.815   1.734
32282W        W47129  19.791  12.933   1.257
32283W        W47130  18.859  16.389   0.285
32284W        W47131  18.372  17.823  11.378
32285W        W47132  19.323   6.590   1.243
32286W        W47133  15.537  11.001   1.718
32287W        W47134  12.746   3.173   0.755
32288W        W47135  15.064  18.304  12.378
32289W        W47136  13.650  16.834  13.835
32290W        W47137  16.036  10.039   4.156
32291W        W47138  16.502   2.724  12.368
32292W        W47139  17.447   5.621  10.898
32293W        W47140  16.505  10.983  12.382
32294W        W47141  17.426  16.839   2.703
32295W        W47142  12.715   8.547   0.773
32296W        W47143  13.208   2.231  12.372
32297W        W47144  14.143  19.276  14.318
32298W        W47145  15.574  12.934   4.127
32299W        W47146  16.484   8.060  13.810
32300W        W47147  12.752   0.252  10.887
32301W        W47148  17.448   2.205   2.205
32302W        W47149  16.975   9.071   4.136
32303W        W47150  14.588  16.836   0.740
32304W        W47151  15.065   4.180   1.230
32305W        W47152  19.296   9.533   2.668
32306W        W47153  12.242   2.223  14.301
32307W        W47154  14.593   1.729  11.880
32308W        W47155  13.196  18.827   1.735
32309W        W47156  12.239  15.874   2.681
32310W        W47157  17.890   3.687   0.248
32311W        W47158  12.711   4.178  13.822
32312W        W47159  13.200   4.646   1.256
32313W        W47160  14.160  11.492   4.123
32314W        W47161  19.301   1.225   1.244
32315W        W47162  19.773  12.486  14.770
32316W        W47163  16.971  10.039   0.244
32317W        W47164  17.910   9.045   1.709
32318W        W47165  19.298   9.519  10.887
32319W        W47166  12.264  11.008   1.726
32320W        W47167  15.532   5.621  11.895
32321W        W47168  18.374  13.905  14.311
32322W        W47169  16.498   1.733   4.158
32323W        W47170  18.374  17.848   4.604
32324W        W47171  19.772   7.593   4.621
32325W        W47172  19.797  15.887  13.821
32326W        W47173  12.237  12.952  12.347
32327W        W47174  16.496  12.962   3.156
32328W        W47175  13.205   1.245  13.804
32329W        W47176  13.187   3.190  11.886
32330W        W47177  14.633   9.030   0.290
32331W        W47178  14.164   0.780   1.211
32332W        W47179  13.666   4.193  10.438
32333W        W47180  19.802  10.979   3.643
32334W        W47181  14.608  10.505  14.314
32335W        W47182  14.591  10.013  12.379
32336W        W47183  16.988   2.722   4.628
32337W        W47184  17.455   7.568   0.253
32338W        W47185  14.603   6.627   1.727
32339W        W47186  13.665  16.360   1.247
32340W        W47187  16.034  18.320  12.365
32341W        W47188  14.597   1.257   2.180
32342W        W47189  19.811  18.302  13.802
32343W        W47190  16.012  13.428   3.154
32344W        W47191  18.394  11.511  11.413
32345W        W47192  13.188  13.449   4.142
32346W        W47193  16.488   6.143  10.921
32347W        W47194  17.456   2.706  12.355
32348W        W47195  14.618   9.532  12.385
32349W        W47196  14.134  12.970  10.933
32350W        W47197  19.338  15.860   3.633
32351W        W47198  12.727   0.269  14.773
32352W        W47199  18.835   0.772  13.345
32353W        W47200  18.850  11.014   3.629
32354W        W47201  13.672   8.538  12.377
32355W        W47202  18.360   7.094  12.381
32356W        W47203  18.843  17.352   2.182
32357W        W47204  19.340  19.774  11.416
32358W        W47205  16.481   2.243  14.773
32359W        W47206  12.273   0.741  14.769
32360W        W47207  16.501  13.905   5.106
32361W        W47208  15.571   3.694  11.397
32362W        W47209  13.674   2.697   2.707
32363W        W47210  12.739   0.773  11.375
32364W        W47211  16.005   5.144  11.397
32365W        W47212  14.604  17.820  12.855
32366W        W47213  14.619  19.799   2.677
32367W        W47214  15.550  11.473  14.315
32368W        W47215  16.956  13.419  12.843
32369W        W47216  16.484   5.619  11.883
32370W        W47217  19.785   0.275   2.210
32371W        W47218  16.964   3.688  12.343
32372W        W47219  15.576   6.592  10.410
32373W        W47220  15.080   3.203   0.753
32374W        W47221  16.970  11.986   4.604
32375W        W47222  17.434   3.218   2.206
32376W        W47223  13.675   6.140  11.870
32377W        W47224  14.147   9.544  14.774
32378W        W47225  17.928  18.820  11.411
32379W        W47226  16.945  14.415  14.794
32380W        W47227  19.765   8.049   2.682
32381W        W47228  19.312   5.134   2.709
32382W        W47229  14.160  18.338  12.864
32383W        W47230  14.137  13.919   1.247
32384W        W47231  17.424   0.261   1.233
32385W        W47232  15.076   5.124   2.225
32386W        W47233  13.218   0.764   4.131
32387W        W47234  14.135  10.990   3.176
32388W        W47235  19.330  10.995  12.864
32389W        W47236  17.883  14.905   0.274
32390W        W47237  15.546  10.011  13.315
32391W        W47238  15.082  12.942   1.223
32392W        W47239  14.608   9.061   4.637
32393W        W47240  15.532  18.819  14.279
32394W        W47241  13.188   2.718   3.148
32395W        W47242  16.041   3.699   2.183
32396W        W47243  15.546   9.054   3.671
32397W        W47244  16.950   8.062   4.604
32398W        W47245  13.206  13.421   4.636
32399W        W47246  12.239   9.027   2.697
32400W        W47247  19.797   1.225   3.179
32401W        W47248  13.197   1.732  14.301
32402W        W47249  16.035  15.857   0.727
32403W        W47250  15.086   9.051   0.752
32404W        W47251  19.771  10.002   0.751
32405W        W47252  14.137  12.466  13.822
32406W        W47253  17.454  13.907  13.817
32407W        W47254  14.134   5.166   1.249
32408W        W47255  19.327   1.250  11.878
32409W        W47256  15.563   6.111   0.741
32410W        W47257  17.429   7.579   3.642
32411W        W47258  13.217   6.121   3.164
32412W        W47259  15.576   2.713   2.678
32413W        W47260  19.319  10.045   5.083
32414W        W47261  18.865   7.583  10.930
32415W        W47262  14.597   9.548  10.421
32416W        W47263  16.011   1.711  14.315
32417W        W47264  12.240   0.247  11.393
32418W        W47265  14.626   9.558   1.735
32419W        W47266  13.180   3.669   0.770
32420W        W47267  13.210  14.901  13.308
32421W        W47268  17.417  11.988   2.664
32422W        W47269  12.279   4.667  10.420
32423W        W47270  14.133  19.312   3.659
32424W        W47271  12.274   5.612  11.896
32425W        W47272  18.837  11.990  12.361
32426W        W47273  17.436   1.252   0.738
32427W        W47274  19.811  10.048   1.227
32428W        W47275  12.735  15.889   2.201
32429W        W47276  17.443   7.596  12.850
32430W        W47277  18.850   3.216   3.642
32431W        W47278  13.213   3.205  10.914
32432W        W47279  13.659  13.418  12.829
32433W        W47280  14.614  14.402   2.704
32434W        W47281  18.369   0.754   0.768
32435W        W47282  19.294  17.810   4.129
32436W        W47283  14.633  11.983   1.714
32437W        W47284  19.307  14.402  14.299
32438W        W47285  16.516   4.668  11.872
32439W        W47286  18.826  10.000   2.215
32440W        W47287  17.427  16.831  13.352
32441W        W47288  17.884   9.026   0.736
32442W        W47289  18.850   4.173  14.292
32443W        W47290  17.906   2.732  13.333
32444W        W47291  16.026  12.945   1.723
32445W        W47292  13.189   5.650   4.602
32446W        W47293  16.475   6.596  11.388
32447W        W47294  16.954   2.214  10.894
32448W        W47295  13.692  17.329   2.691
32449W        W47296  14.606   6.137   0.249
32450W        W47297  18.390  19.293  12.351
32451W        W47298  14.139   1.255   1.225
32452W        W47299  12.264   9.535   2.691
32453W        W47300  18.397   3.203  14.774
32454W        W47301  15.093  14.429   4.133
32455W        W47302  19.302   8.573  14.320
32456W        W47303  12.255   7.108   0.732
32457W        W47304  17.905  17.324  10.411
32458W        W47305  17.906   3.674  12.831
32459W        W47306  17.454  14.915  10.894
32460W        W47307  14.147   2.203   2.704
32461W        W47308  12.750  11.991  11.878
32462W        W47309  13.660   6.133  12.862
32463W        W47310  19.303   3.684   2.225
32464W        W47311  15.559   9.048  14.311
32465W        W47312  19.334   7.576   5.092
32466W        W47313  14.595  17.808   0.255
32467W        W47314  16.955  11.483   0.734
32468W        W47315  12.748  13.917   5.093
32469W        W47316  19.787  11.989   3.157
32470W        W47317  16.500   6.116  10.409
32471W        W47318  14.597   9.040   3.188
32472W        W47319  17.901   6.145   3.171
32473W        W47320  18.842  16.380  14.314
32474W        W47321  18.839  17.327   0.765
32475W        W47322  14.619   8.084   3.147
32476W        W47323  16.476   8.539  10.889
32477W        W47324  19.318   8.542   1.241
32478W        W47325  16.513   2.719   1.710
32479W        W47326  12.747  19.771   1.725
32480W        W47327  18.855  15.407  14.796
32481W        W47328  16.982  10.506  13.791
32482W        W47329  19.797  13.934   4.632
32483W        W47330  18.858   3.180   0.259
32484W        W47331  16.515   4.674  14.287
32485W        W47332  14.601  13.950  13.829
32486W        W47333  13.182   8.581  12.340
32487W        W47334  14.601   1.268  14.758
32488W        W47335  16.955  19.783  12.837
32489W        W47336  12.274   1.266  12.828
32490W        W47337  16.956   5.657   9.951
32491W        W47338  19.317  19.287  14.286
32492W        W47339  12.261   0.758   4.151
32493W        W47340  16.012  15.414   4.147
32494W        W47341  19.307   2.216   4.642
32495W        W47342  19.792  10.494   4.611
32496W        W47343  18.384  12.477   1.244
32497W        W47344  16.498  10.498   4.121
32498W        W47345  15.541   5.644   9.946
32499W        W47346  17.920   8.555   2.693
32500W        W47347  14.602   7.590   0.769
32501W        W47348  18.361  12.952  12.858
32502W        W47349  19.314   6.144   4.149
32503W        W47350  14.611   2.718  14.319
32504W        W47351  12.741  15.856   1.229
32505W        W47352  14.622  10.998  13.808
32506W        W47353  18.388   2.708  11.899
32507W        W47354  18.355  10.999   1.227
32508W        W47355  13.674   3.184   1.228
32509W        W47356  16.047   8.550   2.694
32510W        W47357  15.564  10.045   3.170
32511W        W47358  19.809  10.513   0.748
32512W        W47359  17.883  13.940   3.149
32513W        W47360  18.353  13.905  10.891
32514W        W47361  16.031  18.803  14.322
32515W        W47362  12.274  16.362   4.137
32516W        W47363  16.041   5.142   3.629
32517W        W47364  15.096   6.592  13.798
32518W        W47365  13.658   1.222  11.375
32519W        W47366  12.745   7.579  13.332
32520W        W47367  13.202  12.455   0.265
32521W        W47368  12.728   8.078  14.802
32522W        W47369  18.842  11.964   1.725
32523W        W47370  18.851   3.183   4.643
32524W        W47371  16.471   0.287   0.243
32525W        W47372  14.595  17.330  11.874
32526W        W47373  13.679  18.799   4.633
32527W        W47374  19.775  10.518   1.721
32528W        W47375  15.567  18.312  12.860
32529W        W47376  15.105  11.971  12.355
32530W        W47377  15.097  15.399   0.751
32531W        W47378  15.573  18.783   4.619
32532W        W47379  14.617   6.617   3.162
32533W        W47380  16.953  11.007  10.932
32534W        W47381  19.314   3.206  13.324
32535W        W47382  16.010   7.088  13.337
32536W        W47383  12.273   2.714  10.420
32537W        W47384  16.948   2.202   1.252
32538W        W47385  14.152  12.931   0.281
32539W        W47386  18.849  10.489   4.602
32540W        W47387  17.903  11.016   2.210
32541W        W47388  16.027   0.264   5.092
32542W        W47389  14.632   9.065  12.345
32543W        W47390  12.267  15.411   4.626
32544W        W47391  17.445   7.096  14.280
32545W        W47392  19.798   5.141  12.366
32546W        W47393  18.844  14.409   0.749
32547W        W47394  19.308  18.790  13.313
32548W        W47395  18.857   0.753  14.319
32549W        W47396  16.980  19.278  12.348
32550W        W47397  17.891  15.889  13.806
32551W        W47398  12.239   1.264  12.369
32552W        W47399  14.147   2.218  11.408
32553W        W47400  18.842  17.362  12.358
32554W        W47401  18.383  10.985  12.370
32555W        W47402  13.666  10.987   0.283
32556W        W47403  15.550   1.253  10.404
32557W        W47404  12.718  13.432   4.625
32558W        W47405  12.749  14.911   0.290
32559W        W47406  16.502  11.008  10.899
32560W        W47407  14.162  18.790  14.291
32561W        W47408  16.038  17.360   4.124
32562W        W47409  16.483   2.206   1.716
32563W        W47410  12.734   2.208  14.310
32564W        W47411  14.133   4.660   1.211
32565W        W47412  16.477   3.174  14.774
32566W        W47413  12.242  16.357  10.930
32567W        W47414  18.857   8.557   3.183
32568W        W47415  19.779   4.647  12.859
32569W        W47416  12.740  13.438  12.862
32570W        W47417  16.970   4.667   3.664
32571W        W47418  15.564  10.005   2.215
32572W        W47419  12.743  15.381  13.794
32573W        W47420  14.120  18.296  10.412
32574W        W47421  18.385  14.916  10.407
32575W        W47422  14.634  18.803   1.230
32576W        W47423  17.447  19.775  10.903
32577W        W47424  15.095  16.850   4.116
32578W        W47425  13.202   2.721   2.179
32579W        W47426  12.741  15.396  14.320
32580W        W47427  15.075   9.062  10.438
32581W        W47428  15.549  10.502  13.348
32582W        W47429  14.124   3.182  12.344
32583W        W47430  14.133  19.775   2.213
32584W        W47431  18.866  11.479   4.606
32585W        W47432  17.902  11.510  12.371
32586W        W47433  12.259   1.255  10.415
32587W        W47434  14.126  18.801   3.176
32588W        W47435  16.492   6.602  14.793
32589W        W47436  16.959   0.757   2.673
32590W        W47437  15.099  13.463   0.290
32591W        W47438  14.596   4.193   2.690
32592W        W47439  13.185   7.104  14.767
32593W        W47440  19.313   7.099   1.710
32594W        W47441  12.249  12.480  10.902
32595W        W47442  12.255   8.078   4.610
32596W        W47443  19.340   6.098  11.856
32597W        W47444  17.440   4.656  11.378
32598W        W47445  13.675  15.380  11.889
32599W        W47446  19.794   8.545  11.401
32600W        W47447  18.851   7.108  14.290
32601W        W47448  13.679   1.734  11.387
32602W        W47449  12.740   7.595   3.651
32603W        W47450  19.310  10.532   1.237
32604W        W47451  13.190   3.690  11.867
32605W        W47452  19.331  19.315   4.632
32606W        W47453  12.244  16.853  13.806
32607W        W47454  19.791   1.227  10.450
32608W        W47455  16.953  11.511   3.673
32609W        W47456  17.929  17.806   3.638
32610W        W47457  14.125  18.305  10.930
32611W        W47458  14.628  13.426   3.159
32612W        W47459  18.838   0.288   0.250
32613W        W47460  12.744   5.622   1.712
32614W        W47461  12.750  17.340  12.365
32615W        W47462  13.674   1.228   2.181
32616W        W47463  16.510   9.064  10.451
32617W        W47464  12.733  15.883   0.733
32618W        W47465  12.266  17.835  10.923
32619W        W47466  18.834  12.485  10.935
32620W        W47467  17.435  11.472  11.877
32621W        W47468  18.837   3.200  11.404
32622W        W47469  16.980  10.523   4.116
32623W        W47470  14.596  15.399   2.204
32624W        W47471  16.001  15.880   1.241
32625W        W47472  12.745  11.468  13.324
32626W        W47473  19.780   6.131   2.193
32627W        W47474  12.753   2.200  10.910
32628W        W47475  12.706  14.916  10.931
32629W        W47476  18.833   6.611  14.773
32630W        W47477  13.206   4.154  14.777
32631W        W47478  16.479   8.549   0.290
32632W        W47479  19.801   6.133   3.645
32633W        W47480  12.271   4.640  14.283
32634W        W47481  16.503   0.262  12.862
32635W        W47482  13.684   9.032   0.251
32636W        W47483  16.981  13.428   4.142
32637W        W47484  12.715   4.679   1.715
32638W        W47485  13.220   7.081   1.699
32639W        W47486  13.206   7.075  11.887
32640W        W47487  16.512  15.376  14.782
32641W        W47488  12.709  12.967  13.323
32642W        W47489  12.247  17.366   3.168
32643W        W47490  17.898  11.506  14.759
32644W        W47491  16.509  13.911  11.882
32645W        W47492  13.681  11.022   5.093
32646W        W47493  17.413   6.587   2.192
32647W        W47494  13.673   1.233   4.635
32648W        W47495  16.482   5.128  11.406
32649W        W47496  19.319   4.148   4.131
32650W        W47497  13.216   6.628   1.716
32651W        W47498  16.487   0.268  11.419
32652W        W47499  17.437  17.331   2.225
32653W        W47500  17.924   0.248  10.891
32654W        W47501  12.752   7.583   4.642
32655W        W47502  14.142   7.587  10.910
32656W        W47503  14.135   6.109  13.797
32657W        W47504  18.366   3.196   1.704
32658W        W47505  19.793   6.625  14.759
32659W        W47506  18.359   3.174  11.387
32660W        W47507  18.353  19.288   3.630
32661W        W47508  12.749   6.131  12.867
32662W        W47509  13.676  16.383  14.805
32663W        W47510  13.650   6.113   2.207
32664W        W47511  15.068   8.062  10.430
32665W        W47512  19.334   5.611   3.663
32666W        W47513  12.721  19.794  14.797
32667W        W47514  18.869   5.134  14.322
32668W        W47515  14.609   7.584   0.250
32669W        W47516  19.792   7.580  14.319
32670W        W47517  13.203  17.805   1.229
32671W        W47518  12.734  16.856   1.243
32672W        W47519  18.386   3.682   3.650
32673W        W47520  17.890   3.179   1.700
32674W        W47521  15.102  18.300   2.225
32675W        W47522  19.776   1.714   1.712
32676W        W47523  19.332  14.910  11.372
32677W        W47524  13.685  12.963  10.904
32678W        W47525  17.438  15.857   3.636
32679W        W47526  14.590   1.237  11.395
32680W        W47527  12.256   4.643  10.911
32681W        W47528  12.268   3.669  13.826
32682W        W47529  15.099   2.215  13.805
32683W        W47530  17.909   8.581   3.168
32684W        W47531  16.479   6.601  10.408
32685W        W47532  12.244   2.717  11.371
32686W        W47533  13.206   7.589  12.364
32687W        W47534  18.866   9.526  13.807
32688W        W47535  14.130  11.983   3.644
32689W        W47536  15.082   3.186  11.403
32690W        W47537  15.558  11.020  11.396
32691W        W47538  19.335  15.377   1.707
32692W        W47539  19.806  13.924  13.310
32693W        W47540  12.282   7.578  12.854
32694W        W47541  14.139   2.239  13.839
32695W        W47542  12.258   9.544   1.217
32696W        W47543  16.968  12.976   3.151
32697W        W47544  14.624  10.490  10.891
32698W        W47545  19.773  13.434  13.308
32699W        W47546  13.673  15.890  14.795
32700W        W47547  17.430  19.801   3.650
32701W        W47548  15.071  10.521   2.702
32702W        W47549  15.067  10.501   4.609
32703W        W47550  15.546  17.326  10.409
32704W        W47551  17.438  15.861   1.227
32705W        W47552  14.140  15.366   2.196
32706W        W47553  15.535   0.742   2.702
32707W        W47554  12.727  11.002   2.693
32708W        W47555  12.737   0.252  12.346
32709W        W47556  12.270   8.573  12.850
32710W        W47557  13.178   3.195   1.252
32711W        W47558  12.738   5.610   4.158
32712W        W47559  14.594  18.786  13.829
32713W        W47560  18.388   1.731   0.262
32714W        W47561  12.236  11.497  11.881
32715W        W47562  16.486   9.538   9.933
32716W        W47563  14.635  18.307  12.365
32717W        W47564  17.892  13.442   4.619
32718W        W47565  17.922   0.268   2.691
32719W        W47566  15.573   9.558  13.345
32720W        W47567  12.255   9.042  11.884
32721W        W47568  17.434   4.652  13.824
32722W        W47569  19.332  12.453   3.184
32723W        W47570  16.498   9.057   4.137
32724W        W47571  19.809  10.512   9.929
32725W        W47572  18.868  16.371   1.249
32726W        W47573  16.513  11.963   1.255
32727W        W47574  14.619  17.325   4.599
32728W        W47575  15.088   3.208  12.359
32729W        W47576  13.694   9.071   3.650
32730W        W47577  19.777   1.733   5.128
32731W        W47578  13.211  14.909   4.133
32732W        W47579  18.381  19.761  13.835
32733W        W47580  18.359   8.577   0.751
32734W        W47581  18.843   6.123  12.854
32735W        W47582  12.239   5.645   4.600
32736W        W47583  16.983  15.389   1.740
32737W        W47584  15.096   9.554   0.771
32738W        W47585  12.721  11.477  11.896
32739W        W47586  17.904  11.490   2.210
32740W        W47587  14.162   6.614   1.235
32741W        W47588  18.394  10.982   2.209
32742W        W47589  19.336  19.769  13.328
32743W        W47590  16.985   9.045   0.275
32744W        W47591  16.943   0.284   1.694
32745W        W47592  12.747  10.985   1.213
32746W        W47593  14.159  19.305  12.356
32747W        W47594  13.198   2.200   0.277
32748W        W47595  14.621   4.193  10.889
32749W        W47596  13.657   6.111  14.292
32750W        W47597  15.061  11.477  12.343
32751W        W47598  14.625   8.567   3.652
32752W        W47599  19.788  12.963   9.941
32753W        W47600  18.864   9.517   2.224
32754W        W47601  12.272  16.379  13.349
32755W        W47602  15.563  18.304   4.607
32756W        W47603  13.190  11.506   5.100
32757W        W47604  19.321   3.191   0.272
32758W        W47605  15.558   8.088   0.767
32759W        W47606  12.280   1.256  10.921
32760W        W47607  12.746  18.800   1.696
32761W        W47608  17.455  16.382   4.131
32762W        W47609  15.558   2.222  13.308
32763W        W47610  13.686  13.947  12.832
32764W        W47611  16.471  14.884  11.858
32765W        W47612  14.620   2.692   9.952
32766W        W47613  14.132  18.825   4.137
32767W        W47614  12.269  14.391  11.900
32768W        W47615  16.045  16.863  11.377
32769W        W47616  16.039  14.898   4.156
32770W        W47617  13.200   5.143   4.644
32771W        W47618  16.014  13.947  11.856
32772W        W47619  13.218  14.398   1.710
32773W        W47620  16.016   0.764   4.145
32774W        W47621  15.065   4.161   1.724
32775W        W47622  18.377   4.149   3.668
32776W        W47623  14.629  18.337   4.604
32777W        W47624  13.193  18.800   2.688
32778W        W47625  19.783   4.643  11.413
32779W        W47626  15.105  12.928  12.341
32780W        W47627  14.138   5.146   2.679
32781W        W47628  12.717   3.197  11.412
32782W        W47629  19.297   8.583   2.180
32783W        W47630  17.911  16.851   0.758
32784W        W47631  12.727  11.509   2.181
32785W        W47632  14.152  15.900  14.287
32786W        W47633  17.445  19.802  11.386
32787W        W47634  13.207  15.384   4.129
32788W        W47635  12.732   6.625   4.643
32789W        W47636  19.308   9.532   1.696
32790W        W47637  15.091   5.166  10.931
32791W        W47638  12.707  13.923   2.689
32792W        W47639  18.868  18.334   0.746
32793W        W47640  14.159   5.656   0.268
32794W        W47641  14.617  11.969  11.901
32795W        W47642  17.912  14.892   2.212
32796W        W47643  16.967  17.365  10.436
32797W        W47644  19.335  12.478   4.120
32798W        W47645  13.191  12.940  12.860
32799W        W47646  16.508   0.762   0.246
32800W        W47647  13.650  18.325   2.701
32801W        W47648  14.129   4.164  11.401
32802W        W47649  12.730   0.262   4.634
32803W        W47650  15.089   4.653   1.223
32804W        W47651  17.902  11.504   2.709
32805W        W47652  19.793   9.560  14.779
32806W        W47653  18.828  13.423   2.222
32807W        W47654  16.021   9.549  13.832
32808W        W47655  17.924   2.208   2.680
32809W        W47656  19.315   8.551   0.257
32810W        W47657  16.956  19.795  11.400
32811W        W47658  14.138  11.489   5.102
32812W        W47659  13.688  10.516  14.321
32813W        W47660  17.901   9.544  10.409
32814W        W47661  18.828   8.574  10.431
32815W        W47662  19.766   3.209   5.109
32816W        W47663  15.531   9.027   9.946
32817W        W47664  16.027  15.872  12.358
32818W        W47665  16.482   0.278  12.351
32819W        W47666  14.151   7.587   4.607
32820W        W47667  19.311   3.677  11.408
32821W        W47668  13.221  12.929   4.137
32822W        W47669  12.725   8.064  12.828
32823W        W47670  18.850   6.120  11.383
32824W        W47671  16.509   4.651   3.159
32825W        W47672  13.212   3.216  11.377
32826W        W47673  19.302  15.390  13.344
32827W        W47674  14.597  18.803  11.878
32828W        W47675  19.800  13.433  13.792
32829W        W47676  13.205  14.907  14.767
32830W        W47677  14.601  12.950   9.949
32831W        W47678  19.769  10.002  10.924
32832W        W47679  18.382  11.498   0.756
32833W        W47680  16.959  12.466  13.822
32834W        W47681  14.593  11.020   9.942
32835W        W47682  17.430   2.202  13.810
32836W        W47683  18.389  11.998   0.275
32837W        W47684  16.495   9.533  13.802
32838W        W47685  17.884  13.913  13.329
32839W        W47686  19.338   6.124  13.800
32840W        W47687  16.477   8.076   0.254
32841W        W47688  12.740   7.564   2.185
32842W        W47689  13.678  11.001  12.340
32843W        W47690  12.712  12.451  13.802
32844W        W47691  17.887  16.837   2.672
32845W        W47692  18.859  10.530  12.870
32846W        W47693  12.257  16.849  14.293
32847W        W47694  17.437   2.202   0.764
32848W        W47695  19.323  18.331  11.885
32849W        W47696  14.614  13.434  10.415
32850W        W47697  13.683   3.692  10.934
32851W        W47698  15.568   0.260  11.401
32852W        W47699  19.772  18.787   3.630
32853W        W47700  17.914   9.529   0.275
32854W        W47701  16.948  10.004   1.736
32855W        W47702  12.253   8.559  14.287
32856W        W47703  13.210  11.003   4.637
32857W        W47704  18.832   5.647   3.643
32858W        W47705  17.898   0.256   0.758
32859W        W47706  16.957   6.612  13.824
32860W        W47707  14.155   1.727  10.935
32861W        W47708  19.772  13.930  11.411
32862W        W47709  17.453  18.339  14.805
32863W        W47710  17.902  18.812  10.432
32864W        W47711  12.253   6.120   4.132
32865W        W47712  14.135  10.012  11.885
32866W        W47713  13.204  12.969   5.096
32867W        W47714  16.958  18.787  13.308
32868W        W47715  19.318  19.311  13.354
32869W        W47716  12.277   0.265   0.768
32870W        W47717  12.751  15.400  12.848
32871W        W47718  18.377  17.842  12.350
32872W        W47719  12.719   5.620   2.205
32873W        W47720  16.985  11.019   0.766
32874W        W47721  15.537  13.936  13.339
32875W        W47722  15.542   4.177   4.156
32876W        W47723  15.549  18.331  13.838
32877W        W47724  18.833  13.463  11.889
32878W        W47725  16.015   5.653   9.940
32879W        W47726  16.974   9.046   3.186
32880W        W47727  16.956  11.003   3.667
32881W        W47728  12.277  16.360   2.679
32882W        W47729  19.776   7.108   2.675
32883W        W47730  18.855   0.251   0.740
32884W        W47731  17.916   1.714  14.306
32885W        W47732  16.942   5.630  13.314
32886W        W47733  18.374  12.955   4.600
32887W        W47734  16.482   6.601   0.758
32888W        W47735  19.315   6.617   4.636
32889W        W47736  12.728   5.164   3.191
32890W        W47737  13.208   4.178  12.361
32891W        W47738  16.039   0.736  11.857
32892W        W47739  16.497   8.554   2.207
32893W        W47740  13.655  15.901  14.300
32894W        W47741  13.196  11.993   3.630
32895W        W47742  16.038  19.775   2.222
32896W        W47743  14.618   2.237  13.800
32897W        W47744  12.248   4.673   2.214
32898W        W47745  17.916  12.961  14.308
32899W        W47746  15.067   6.592  10.437
32900W        W47747  14.634   8.577   0.760
32901W        W47748  12.252   3.210   4.142
32902W        W47749  18.393   8.541  13.319
32903W        W47750  12.256   8.551   4.627
32904W        W47751  15.086   5.160  13.314
32905W        W47752  12.282  14.404   2.178
32906W        W47753  16.002  14.917   2.202
32907W        W47754  13.195   0.264   2.203
32908W        W47755  12.280  16.849  12.842
32909W        W47756  13.214   3.659  12.854
32910W        W47757  16.044  12.473   3.629
32911W        W47758  15.543  14.891  13.809
32912W        W47759  12.723  14.924   3.641
32913W        W47760  17.910  13.921   2.219
32914W        W47761  13.222   4.646  12.382
32915W        W47762  18.367  18.784  14.761
32916W        W47763  18.853  17.336  11.391
32917W        W47764  12.277   1.755   1.707
32918W        W47765  13.201  13.921   2.701
32919W        W47766  15.572   3.704  10.933
32920W        W47767  13.691  17.825   1.229
32921W        W47768  16.007   4.666  12.354
32922W        W47769  17.418   8.583   1.252
32923W        W47770  17.435  12.929  10.893
32924W        W47771  17.905  16.845  13.815
32925W        W47772  17.432  17.360  13.315
32926W        W47773  14.144  18.783   4.637
32927W        W47774  13.647  19.315  12.845
32928W        W47775  19.775   5.161   1.237
32929W        W47776  17.927  16.350   0.289
32930W        W47777  12.275   9.066  14.284
32931W        W47778  12.277  16.869   2.677
32932W        W47779  14.118  15.883  13.346
32933W        W47780  14.150   6.109  10.422
32934W        W47781  18.382   5.657  14.790
32935W        W47782  16.511   9.543   3.647
32936W        W47783  19.774  18.308   2.662
32937W        W47784  18.840  12.445  11.864
32938W        W47785  17.431   7.590   2.668
32939W        W47786  15.096  11.003  11.372
32940W        W47787  18.842  14.404   1.700
32941W        W47788  18.375   1.720  11.419
32942W        W47789  13.213  15.885   2.216
32943W        W47790  15.565   2.701  11.873
32944W        W47791  18.860   4.678   0.743
32945W        W47792  18.855  12.463   3.153
32946W        W47793  13.195  16.841   0.277
32947W        W47794  15.568   5.648   2.670
32948W        W47795  15.570  19.315   0.746
32949W        W47796  18.868  11.016   5.106
32950W        W47797  14.157   0.776   0.256
32951W        W47798  19.296  15.879  14.781
32952W        W47799  19.791   8.583   3.671
32953W        W47800  19.327   3.191   0.770
32954W        W47801  12.707   4.184  14.772
32955W        W47802  18.393  11.976   1.728
32956W        W47803  17.433  17.853   1.699
32957W        W47804  17.443   8.547   5.111
32958W        W47805  13.666  19.313  10.924
32959W        W47806  12.726   3.687   4.131
32960W        W47807  19.774   2.706   4.628
32961W        W47808  14.160   1.246  13.837
32962W        W47809  16.041   9.027  12.861
32963W        W47810  19.299  12.953   9.958
32964W        W47811  19.331  10.977  11.415
32965W        W47812  14.144   6.128   0.739
32966W        W47813  12.251   5.617  14.770
32967W        W47814  19.313  13.427  14.303
32968W        W47815  16.962  17.325  13.811
32969W        W47816  19.786  17.850  13.335
32970W        W47817  18.835  10.991  12.849
32971W        W47818  14.151   5.637  13.321
32972W        W47819  16.504  12.487   0.759
32973W        W47820  14.125   7.607   2.179
32974W        W47821  12.740  12.973  14.772
32975W        W47822  17.428   0.292   3.646
32976W        W47823  19.794   0.736  13.810
32977W        W47824  17.412   1.725  13.800
32978W        W47825  13.182  17.347  12.357
32979W        W47826  17.434   9.532  13.816
32980W        W47827  16.478   3.676  13.349
32981W        W47828  18.380  14.402   2.710
32982W        W47829  17.456   8.538  14.286
32983W        W47830  14.605   6.620  10.438
32984W        W47831  19.305  11.488   4.146
32985W        W47832  17.892  16.344  10.919
32986W        W47833  17.429   1.713   2.667
32987W        W47834  15.073  13.445   1.217
32988W        W47835  14.594  17.832  14.277
32989W        W47836  16.041  14.405   1.711
32990W        W47837  16.047  19.793   0.260
32991W        W47838  14.127   1.744   3.156
32992W        W47839  19.330   5.141  10.887
32993W        W47840  13.662   3.706   1.222
32994W        W47841  18.829  14.396  13.835
32995W        W47842  18.843  18.335   3.636
32996W        W47843  13.204  15.389   0.270
32997W        W47844  17.423  11.482  14.278
32998W        W47845  18.868   5.133  12.855
32999W        W47846  13.191   4.182  14.302
33000W        W47847  14.635   7.584   1.258
33001W        W47848  13.655   7.098  14.770
33002W        W47849  19.329  19.311   0.761
33003W        W47850  13.680  16.379   4.633
33004W        W47851  13.689  18.329  13.341
33005W        W47852  12.707   4.657  14.276
33006W        W47853  16.033   5.654  13.802
33007W        W47854  18.375   1.231  12.831
33008W        W47855  19.808  15.380  14.295
33009W        W47856  15.572  19.782   4.134
33010W        W47857  13.689   5.131   0.754
33011W        W47858  13.687   8.080  10.920
33012W        W47859  18.845  19.797   0.771
33013W        W47860  13.657   9.537   1.718
33014W        W47861  14.596   4.637   1.694
33015W        W47862  17.440  19.309  13.318
33016W        W47863  17.447   2.707  10.901
33017W        W47864  12.247  16.837  11.867
33018W        W47865  18.838   7.587   0.743
33019W        W47866  17.451   6.109  12.861
33020W        W47867  12.239   2.228  13.332
33021W        W47868  19.329  17.805  14.276
33022W        W47869  13.187  17.352   5.126
33023W        W47870  16.487  13.925  14.286
33024W        W47871  14.627  10.510   1.251
33025W        W47872  18.361  14.883  13.352
33026W        W47873  18.828   5.124   3.171
33027W        W47874  19.326   4.191  13.817
33028W        W47875  14.123  16.364   0.735
33029W        W47876  13.667   5.636   2.678
33030W        W47877  17.447  16.864  11.380
33031W        W47878  14.615  13.943   5.120
33032W        W47879  13.214  19.803   5.094
33033W        W47880  19.321   0.251  11.880
33034W        W47881  15.552  13.456   4.598
33035W        W47882  18.354   9.512   1.246
33036W        W47883  18.865   5.640  10.920
33037W        W47884  16.511  17.323   4.144
33038W        W47885  15.544  17.820   1.237
33039W        W47886  16.516   4.167  11.871
33040W        W47887  16.031   6.624  11.900
33041W        W47888  15.574  15.413   3.171
33042W        W47889  14.604  10.025   0.767
33043W        W47890  15.104  16.845   2.220
33044W        W47891  18.853   7.090   2.695
33045W        W47892  13.656   2.207  13.820
33046W        W47893  15.074   2.228   4.157
33047W        W47894  17.421   1.262  11.866
33048W        W47895  15.542   9.048   4.160
33049W        W47896  16.978   6.633  14.763
33050W        W47897  12.243  19.804   3.191
33051W        W47898  17.434  13.906  13.318
33052W        W47899  16.009  12.963  14.307
33053W        W47900  15.570  16.873  12.362
33054W        W47901  12.712   6.600   4.151
33055W        W47902  13.217  15.881  14.292
33056W        W47903  16.034   3.199  13.331
33057W        W47904  17.898   5.133   1.231
33058W        W47905  19.320   6.619   3.638
33059W        W47906  14.607  11.996   0.255
33060W        W47907  18.360   6.100  10.888
33061W        W47908  16.977  12.465   0.256
33062W        W47909  13.217  13.415  11.393
33063W        W47910  15.080   8.090   2.182
33064W        W47911  14.159  14.897   2.706
33065W        W47912  13.672   8.538   0.269
33066W        W47913  14.617  16.839  11.407
33067W        W47914  18.378  18.809   4.635
33068W        W47915  16.978   8.568  13.836
33069W        W47916  17.436   4.182   5.107
33070W        W47917  12.725   0.279  13.316
33071W        W47918  16.975  19.800   2.192
33072W        W47919  13.683   0.245   2.662
33073W        W47920  18.390   1.725   2.707
33074W        W47921  18.862  18.796  13.342
33075W        W47922  15.092   9.534   5.089
33076W        W47923  17.449  15.881   4.148
33077W        W47924  12.725   2.212   0.735
33078W        W47925  14.118  15.396   0.281
33079W        W47926  16.964   2.222   4.642
33080W        W47927  14.130   4.681  14.762
33081W        W47928  19.294  13.934  14.779
33082W        W47929  18.372   3.688  10.426
33083W        W47930  14.151  13.910  12.842
33084W        W47931  18.871   3.697   4.154
33085W        W47932  15.549   2.727   3.178
33086W        W47933  16.967  16.870   1.694
33087W        W47934  14.118  12.949  12.825
33088W        W47935  12.241  15.393  14.281
33089W        W47936  14.155   9.546   2.184
33090W        W47937  16.500  17.325   2.682
33091W        W47938  17.917   4.180  13.828
33092W        W47939  13.210   6.608  11.881
33093W        W47940  18.860   2.211  10.930
33094W        W47941  12.723  11.968  14.787
33095W        W47942  17.437  11.990  11.371
33096W        W47943  13.220   6.612   4.151
33097W        W47944  16.489   7.599   2.681
33098W        W47945  14.154  17.348  12.363
33099W        W47946  16.499   2.200   2.683
33100W        W47947  18.376  14.886  14.782
33101W        W47948  14.163   1.720   4.152
33102W        W47949  14.142   9.556   0.741
33103W        W47950  16.942  17.814   2.675
33104W        W47951  18.385   6.116   3.638
33105W        W47952  12.259  19.786   1.227
33106W        W47953  19.305   9.549  12.358
33107W        W47954  19.770  17.351  10.923
33108W        W47955  12.717   8.584  13.800
33109W        W47956  19.296  17.359   0.743
33110W        W47957  19.781  10.527  14.759
33111W        W47958  15.562   7.089  12.382
33112W        W47959  19.767  16.837   2.189
33113W        W47960  13.674   1.244   0.269
33114W        W47961  16.975  15.868   1.726
33115W        W47962  13.206   0.285   0.273
33116W        W47963  19.768  15.893   1.725
33117W        W47964  13.673   6.139   3.629
33118W        W47965  19.771   0.265  13.346
33119W        W47966  16.045  11.006  11.886
33120W        W47967  13.207  19.293  14.766
33121W        W47968  19.771  17.810   0.733
33122W        W47969  18.847  12.936   1.227
33123W        W47970  13.672   2.221   4.640
33124W        W47971  18.834  19.316  11.855
33125W        W47972  16.006  18.304   3.674
33126W        W47973  19.794  18.820  14.275
33127W        W47974  17.905   7.120  10.923
33128W        W47975  18.357   5.618   1.739
33129W        W47976  16.947   0.252  10.407
33130W        W47977  18.353   5.138   0.731
33131W        W47978  14.143   0.762   5.088
33132W        W47979  16.985  14.431   1.700
33133W        W47980  18.359   0.733  12.372
33134W        W47981  16.022  10.523   0.756
33135W        W47982  18.400   2.692   1.696
33136W        W47983  19.797   0.752   4.618
33137W        W47984  13.216  16.869  12.842
33138W        W47985  12.741  19.785  10.914
33139W        W47986  12.241   0.282  12.369
33140W        W47987  19.783  12.958   2.185
33141W        W47988  14.137  13.919  10.426
33142W        W47989  19.797  13.924  10.925
33143W        W47990  17.901  18.787  13.348
33144W        W47991  18.393   1.249   1.734
33145W        W47992  13.677   8.538  14.777
33146W        W47993  12.267  11.476   1.698
33147W        W47994  16.004  15.385  11.387
33148W        W47995  18.370  12.939  12.380
33149W        W47996  15.537   0.250  14.796
33150W        W47997  17.420   2.690   3.675
33151W        W47998  17.415  15.374   1.712
33152W        W47999  18.865   3.172  12.385
33153W        W48000  17.917  10.987  11.410
33154W        W48001  19.305  18.790  14.782
33155W        W48002  17.447  10.976  11.384
33156W        W48003  12.710  17.820  13.330
33157W        W48004  18.841  10.996   1.219
33158W        W48005  15.097   5.611  13.337
33159W        W48006  18.866   2.221  14.805
33160W        W48007  16.511   8.570   0.727
33161W        W48008  17.927   3.683   4.150
33162W        W48009  16.028  16.861   3.642
33163W        W48010  13.656  10.491   1.727
33164W        W48011  19.333   3.187  12.825
33165W        W48012  16.489  18.795  10.440
33166W        W48013  15.069  15.405  11.391
33167W        W48014  18.393  15.894   0.276
33168W        W48015  16.004  18.339  13.343
33169W        W48016  16.026  14.417   9.957
33170W        W48017  19.335   8.577  12.855
33171W        W48018  17.918  10.518   9.945
33172W        W48019  13.203  10.023   2.670
33173W        W48020  15.565   0.747   1.211
33174W        W48021  14.130   3.180   0.763
33175W        W48022  14.146   3.181   2.688
33176W        W48023  16.985   3.192  11.399
33177W        W48024  19.302   0.749  11.866
33178W        W48025  16.000  12.487   1.221
33179W        W48026  16.497  17.817   2.193
33180W        W48027  18.355   8.049  11.872
33181W        W48028  19.810  13.424   3.186
33182W        W48029  18.385  19.777  10.404
33183W        W48030  15.557   2.706  13.807
33184W        W48031  12.267  10.038  10.901
33185W        W48032  13.201  13.442  12.844
33186W        W48033  13.673  17.320  10.430
33187W        W48034  16.948   6.587   4.135
33188W        W48035  12.749   5.642   0.772
33189W        W48036  18.379   7.117   2.189
33190W        W48037  13.652   5.136  12.368
33191W        W48038  19.320  12.975   2.676
33192W        W48039  16.032   7.598   0.763
33193W        W48040  15.091   0.776  11.858
33194W        W48041  14.623  10.022  12.867
33195W        W48042  16.941  14.881  12.378
33196W        W48043  12.727  17.320  12.852
33197W        W48044  19.802   2.224   3.166
33198W        W48045  16.486   7.098   3.630
33199W        W48046  12.711  14.436  14.781
33200W        W48047  19.795   5.626   4.603
33201W        W48048  13.205   8.081   1.705
33202W        W48049  13.688   7.079   2.693
33203W        W48050  18.852  12.957  12.860
33204W        W48051  18.362  13.926  12.351
33205W        W48052  14.632  15.384   1.713
33206W        W48053  13.663  11.011  12.845
33207W        W48054  16.946   3.688   1.715
33208W        W48055  14.627  11.024   1.254
33209W        W48056  14.136   3.180  12.838
33210W        W48057  16.008  13.914  11.385
33211W        W48058  18.841   5.636  11.391
33212W        W48059  19.794  12.453  12.842
33213W        W48060  13.662  17.817  10.428
33214W        W48061  15.572  14.410  12.834
33215W        W48062  12.260   3.697  11.403
33216W        W48063  14.629  17.323   2.183
33217W        W48064  15.532  17.835   1.701
33218W        W48065  16.020  15.367   2.203
33219W        W48066  19.765  19.311  14.303
33220W        W48067  17.445  15.882   2.198
33221W        W48068  18.863   2.202  12.347
33222W        W48069  14.592  18.809   2.671
33223W        W48070  17.900   3.211   4.119
33224W        W48071  17.445  19.299  14.793
33225W        W48072  14.608   3.174   4.138
33226W        W48073  16.484  10.023   2.202
33227W        W48074  18.868   4.648   2.202
33228W        W48075  19.298  15.407   2.187
33229W        W48076  19.336   4.665  12.866
33230W        W48077  15.538   0.740   2.208
33231W        W48078  18.362   9.534   0.757
33232W        W48079  13.682   0.763  14.275
33233W        W48080  12.274  13.430  14.766
33234W        W48081  15.551  12.973  13.828
33235W        W48082  16.010   3.196   1.696
33236W        W48083  13.185  16.878   0.762
33237W        W48084  17.413  19.278  14.293
33238W        W48085  12.707   1.754   4.612
33239W        W48086  15.096   8.584   2.699
33240W        W48087  15.545   6.141  12.369
33241W        W48088  13.221  15.888  11.880
33242W        W48089  13.684   9.544   0.743
33243W        W48090  14.154  13.440   4.160
33244W        W48091  15.567  16.849   2.666
33245W        W48092  17.437   3.176   3.149
33246W        W48093  15.092   4.671  11.418
33247W        W48094  16.506   7.078  14.779
33248W        W48095  12.752  18.806   1.233
33249W        W48096  16.963   8.550  10.929
33250W        W48097  16.509   3.674  12.847
33251W        W48098  16.504  18.332   1.236
33252W        W48099  17.429  19.765  13.324
33253W        W48100  18.366  13.434   4.118
33254W        W48101  15.567  10.990  10.930
33255W        W48102  16.491   0.282   3.650
33256W        W48103  17.899  16.869  14.764
33257W        W48104  12.723   3.193   3.156
33258W        W48105  16.503   6.098  12.852
33259W        W48106  12.247   1.721   2.219
33260W        W48107  12.236   0.772  12.339
33261W        W48108  16.959   6.617   0.249
33262W        W48109  19.804  19.317   3.168
33263W        W48110  15.564  10.025   2.691
33264W        W48111  18.830  17.853   3.180
33265W        W48112  13.183   5.651  14.280
33266W        W48113  18.362  19.801   2.667
33267W        W48114  19.794  17.329   9.941
33268W        W48115  18.393   7.078   1.729
33269W        W48116  12.710  18.328  14.309
33270W        W48117  17.885   8.570   4.134
33271W        W48118  17.441  13.909   1.726
33272W        W48119  19.315  14.424   9.935
33273W        W48120  16.984  19.791  14.764
33274W        W48121  19.322  18.305   4.627
33275W        W48122  15.095  14.435  12.855
33276W        W48123  16.000  19.305  10.919
33277W        W48124  14.136  19.309   2.187
33278W        W48125  17.452  15.856   2.705
33279W        W48126  13.667  14.419  14.308
33280W        W48127  19.794   4.660  12.348
33281W        W48128  19.803   4.169  12.850
33282W        W48129  13.183   1.728  12.867
33283W        W48130  18.374   7.096   0.774
33284W        W48131  18.869   4.643  10.918
33285W        W48132  13.682  19.304  12.354
33286W        W48133  17.448   7.605  12.382
33287W        W48134  16.011  11.019  13.336
33288W        W48135  16.485  19.797   5.103
33289W        W48136  16.507  14.889   4.620
33290W        W48137  19.777  19.276  11.886
33291W        W48138  14.159   3.218   3.183
33292W        W48139  16.979  18.827  11.870
33293W        W48140  16.505  15.857  11.868
33294W        W48141  15.078   2.719  13.824
33295W        W48142  12.726   2.690  12.351
33296W        W48143  15.558   9.536  12.379
33297W        W48144  14.140   3.691  10.898
33298W        W48145  19.322   1.246  12.376
33299W        W48146  19.811   5.615   0.728
33300W        W48147  17.912  14.414  10.431
33301W        W48148  15.092  11.971   3.669
33302W        W48149  18.830   0.282  14.295
33303W        W48150  13.681  15.401   1.710
33304W        W48151  16.984  15.889  12.863
33305W        W48152  17.444  14.908  14.282
33306W        W48153  18.849   9.025   4.638
33307W        W48154  15.560   6.625   0.247
33308W        W48155  13.202   8.564  10.909
33309W        W48156  18.866   7.578  11.382
33310W        W48157  14.591   9.559   2.196
33311W        W48158  15.558   3.214  14.283
33312W        W48159  18.355   3.689  10.900
33313W        W48160  15.551   7.608   4.610
33314W        W48161  12.240  12.963  11.387
33315W        W48162  18.831  10.030   3.163
33316W        W48163  19.766   1.729  12.376
33317W        W48164  12.717  19.306   4.130
33318W        W48165  16.481   5.129   1.697
33319W        W48166  17.434  17.809   2.683
33320W        W48167  12.282   0.273   0.287
33321W        W48168  13.221  16.359  14.775
33322W        W48169  13.672   0.268   1.703
33323W        W48170  14.120   9.059   1.712
33324W        W48171  16.501   5.160  11.896
33325W        W48172  12.722  19.789   2.217
33326W        W48173  14.132   4.180  14.803
33327W        W48174  15.556   8.571   2.192
33328W        W48175  19.781   2.729   1.230
33329W        W48176  15.555  10.492  14.766
33330W        W48177  15.537  17.358  11.891
33331W        W48178  17.908  19.298   3.180
33332W        W48179  18.393   0.739   0.252
33333W        W48180  14.623   1.729  14.300
33334W        W48181  12.265   0.250  12.829
33335W        W48182  18.861   9.546   2.667
33336W        W48183  12.751  14.884  11.380
33337W        W48184  17.907  11.978   0.282
33338W        W48185  18.357   1.714  13.341
33339W        W48186  12.748   9.550  14.281
33340W        W48187  15.093  13.902   4.619
33341W        W48188  13.689  16.358   3.149
33342W        W48189  15.101  14.893   0.247
33343W        W48190  16.972  14.399   3.645
33344W        W48191  16.483  17.356  10.438
33345W        W48192  19.340  17.851   0.257
33346W        W48193  16.017  10.534  11.382
33347W        W48194  19.302   3.689  11.884
33348W        W48195  16.979   6.616  11.886
33349W        W48196  19.332   4.171   2.708
33350W        W48197  15.061  12.963   4.638
33351W        W48198  16.038  18.309   4.141
33352W        W48199  14.129   6.116  11.856
33353W        W48200  18.386   4.653  11.378
33354W        W48201  19.811  15.893   2.704
33355W        W48202  18.841  11.958  11.404
33356W        W48203  18.825  13.419  13.801
33357W        W48204  15.101  10.529  14.788
33358W        W48205  14.124  16.374   1.714
33359W        W48206  16.003   7.076   2.180
33360W        W48207  17.448  12.480   1.223
33361W        W48208  16.506  10.496  14.291
33362W        W48209  13.189  12.953  12.379
33363W        W48210  12.255   2.215   1.731
33364W        W48211  12.242  18.320   3.161
33365W        W48212  17.450   8.546  12.370
33366W        W48213  16.492   6.121   2.709
33367W        W48214  13.683   6.112   4.141
33368W        W48215  14.152   8.058   5.101
33369W        W48216  18.844  17.830   2.205
33370W        W48217  16.974  10.036  13.342
33371W        W48218  12.741   0.247   3.164
33372W        W48219  17.454   7.583  10.438
33373W        W48220  13.193   3.213   0.275
33374W        W48221  12.736  15.855  12.843
33375W        W48222  17.419  18.318  11.382
33376W        W48223  14.143   6.591  11.878
33377W        W48224  19.790   8.054  14.766
33378W        W48225  16.492   3.213  13.346
33379W        W48226  13.673   1.751   1.254
33380W        W48227  14.152  11.000  13.824
33381W        W48228  15.069   0.732   1.716
33382W        W48229  15.061  13.453  12.862
33383W        W48230  16.035  17.342  12.369
33384W        W48231  12.264  17.365  13.355
33385W        W48232  13.662   6.137   4.608
33386W        W48233  13.219   0.263  14.278
33387W        W48234  16.472   3.174  10.935
33388W        W48235  19.295  17.348  10.913
33389W        W48236  18.835  15.891   2.682
33390W        W48237  19.335  11.001   5.081
33391W        W48238  19.335   1.726   3.187
33392W        W48239  19.780   1.727  11.860
33393W        W48240  13.669  19.798   0.772
33394W        W48241  17.885  16.848  12.837
33395W        W48242  17.425   8.562   0.753
33396W        W48243  14.602  10.991   2.190
33397W        W48244  19.771   7.102  11.393
33398W        W48245  15.538   2.693   2.179
33399W        W48246  16.478   1.246   3.677
33400W        W48247  12.279  11.004  11.882
33401W        W48248  13.685   0.275   0.268
33402W        W48249  14.593  19.295   3.672
33403W        W48250  18.376  11.977   4.599
33404W        W48251  12.739   3.691   1.217
33405W        W48252  16.962   9.044  11.863
33406W        W48253  16.979   9.544   1.220
33407W        W48254  14.150  11.495  14.281
33408W        W48255  16.954   4.657   4.145
33409W        W48256  18.373  18.822  11.861
33410W        W48257  19.303  14.920   3.666
33411W        W48258  19.308   4.659  12.371
33412W        W48259  18.868  16.364   4.135
33413W        W48260  14.125   6.630  13.312
33414W        W48261  16.513  15.400   4.157
33415W        W48262  17.435  16.375   3.161
33416W        W48263  18.359   8.575  14.802
33417W        W48264  16.516   4.682   1.717
33418W        W48265  18.379   9.548   1.721
33419W        W48266  15.077  19.795   1.707
33420W        W48267  18.396  16.378   5.118
33421W        W48268  17.424   8.555  10.423
33422W        W48269  15.543  19.774  14.800
33423W        W48270  15.086  10.019   3.159
33424W        W48271  17.909  16.365   2.185
33425W        W48272  17.427   9.521   2.693
33426W        W48273  18.865   4.660  14.277
33427W        W48274  13.181   7.111   3.160
33428W        W48275  16.007  11.505  12.862
33429W        W48276  13.204  12.479  13.816
33430W        W48277  16.038   4.644   4.619
33431W        W48278  12.278   6.134  12.357
33432W        W48279  14.600   3.689   2.218
33433W        W48280  19.301   8.052   0.251
33434W        W48281  19.302   3.703  14.763
33435W        W48282  16.982  16.383   5.116
33436W        W48283  17.899  14.432  12.365
33437W        W48284  12.749  12.929  14.318
33438W        W48285  14.157  14.901  11.893
33439W        W48286  16.971   0.743   5.100
33440W        W48287  16.512  19.769  11.885
33441W        W48288  18.360   9.070  13.331
33442W        W48289  15.098  18.309  13.323
33443W        W48290  12.253   4.167  11.389
33444W        W48291  15.574   9.035   3.161
33445W        W48292  12.740   5.645  13.350
33446W        W48293  16.487   4.173   2.703
33447W        W48294  18.391   0.735   1.210
33448W        W48295  13.688   0.755   0.281
33449W        W48296  12.719  15.880   2.664
33450W        W48297  18.858   2.696   2.226
33451W        W48298  14.622  10.020   2.709
33452W        W48299  19.329  19.779   4.149
33453W        W48300  12.730   1.232   2.190
33454W        W48301  17.430  13.415  11.888
33455W        W48302  16.969  17.335   3.632
33456W        W48303  13.216   5.622   3.165
33457W        W48304  18.856   4.181  10.920
33458W        W48305  16.009  12.449   2.225
33459W        W48306  14.632  11.012  12.847
33460W        W48307  12.262   8.076   2.191
33461W        W48308  13.654  17.832  13.328
33462W        W48309  18.869   7.110   4.147
33463W        W48310  14.591   4.659  10.912
33464W        W48311  19.311   8.542  12.350
33465W        W48312  14.126   3.191   2.195
33466W        W48313  13.670  18.331   4.617
33467W        W48314  17.887   6.617  11.873
33468W        W48315  12.243  15.899   3.179
33469W        W48316  19.327  11.494   1.218
33470W        W48317  18.837  15.867  12.353
33471W        W48318  17.915   9.550  11.377
33472W        W48319  19.767  18.307   1.226
33473W        W48320  16.500  19.309   3.673
33474W        W48321  15.078  13.428   2.680
33475W        W48322  14.122   6.116   1.742
33476W        W48323  18.865   7.078  11.400
33477W        W48324  14.155  14.432   2.703
33478W        W48325  18.861  14.880   4.134
33479W        W48326  17.917  15.854   2.676
33480W        W48327  18.844   7.112   5.101
33481W        W48328  19.801  13.442   1.733
33482W        W48329  17.440   6.594   4.642
33483W        W48330  12.742  15.861  14.280
33484W        W48331  16.498  12.453  11.868
33485W        W48332  17.886   1.259   4.147
33486W        W48333  13.680  16.833   1.258
33487W        W48334  19.807   8.542   0.773
33488W        W48335  16.030   0.278  13.343
33489W        W48336  15.091   2.214  10.924
33490W        W48337  13.680  18.812  14.797
33491W        W48338  16.004  17.363   4.633
33492W        W48339  18.827   7.121  12.380
33493W        W48340  14.126  16.357  10.441
33494W        W48341  12.278   4.655   4.613
33495W        W48342  17.413   8.060   2.700
33496W        W48343  14.142  18.809   3.634
33497W        W48344  16.032  17.837   3.673
33498W        W48345  14.622   6.125   2.707
33499W        W48346  17.897  12.954  14.764
33500W        W48347  13.681  13.939  14.295
33501W        W48348  17.893   8.578   2.221
33502W        W48349  15.552  10.512   3.181
33503W        W48350  19.803  19.283   5.103
33504W        W48351  13.210  10.494   4.161
33505W        W48352  16.005  18.795  14.788
33506W        W48353  16.017   7.592  14.804
33507W        W48354  19.799   4.174  11.401
33508W        W48355  14.599  15.874  14.316
33509W        W48356  15.575  18.819   2.682
33510W        W48357  19.783   4.167  12.357
33511W        W48358  13.206  11.472   4.607
33512W        W48359  13.666  10.984  14.762
33513W        W48360  16.038   8.053  14.289
33514W        W48361  19.807   6.591  11.899
33515W        W48362  17.436  12.479  11.899
33516W        W48363  13.191  17.809   3.647
33517W        W48364  18.865   9.046  11.878
33518W        W48365  17.424   0.756  10.926
33519W        W48366  15.084   7.109  12.846
33520W        W48367  12.263  19.781   4.157
33521W        W48368  18.368   7.588   4.638
33522W        W48369  17.443   8.566   4.143
33523W        W48370  13.683   5.619   4.597
33524W        W48371  14.146   8.081  12.366
33525W        W48372  13.650   3.701  11.402
33526W        W48373  15.082  11.503   4.148
33527W        W48374  19.316  13.436   1.219
33528W        W48375  13.194   9.532  13.818
33529W        W48376  12.238  12.446   0.772
33530W        W48377  15.082   3.178  14.295
33531W        W48378  16.003  12.448  14.784
33532W        W48379  13.666  17.325  11.379
33533W        W48380  14.152  15.868   0.772
33534W        W48381  16.020  10.021  10.923
33535W        W48382  17.897  18.312   1.237
33536W        W48383  16.042   9.054   0.258
33537W        W48384  16.967  14.414   2.215
33538W        W48385  16.517  11.483   0.272
33539W        W48386  19.340   0.268  14.779
33540W        W48387  16.475  11.989   0.757
33541W        W48388  14.596  14.897   4.149
33542W        W48389  13.200   1.746   3.651
33543W        W48390  15.088   2.720   0.266
33544W        W48391  15.100  11.507   3.663
33545W        W48392  16.501  14.430  11.385
33546W        W48393  18.390   6.632   2.186
33547W        W48394  17.925   8.057   3.182
33548W        W48395  12.258  18.336   3.673
33549W        W48396  15.531  18.307   4.159
33550W        W48397  12.741   0.279   0.262
33551W        W48398  12.746   1.755   0.258
33552W        W48399  13.679   8.059  13.325
33553W        W48400  19.793  18.326  11.404
33554W        W48401  12.274   6.108   1.723
33555W        W48402  13.654   9.536  14.296
33556W        W48403  12.734  14.397   0.244
33557W        W48404  18.355  16.372   0.731
33558W        W48405  16.001   7.608   4.643
33559W        W48406  13.693  10.524   5.090
33560W        W48407  13.659   4.147  10.899
33561W        W48408  18.361  15.367   2.221
33562W        W48409  15.547   5.634   0.732
33563W        W48410  14.160   8.548  11.891
33564W        W48411  19.304  11.492   0.765
33565W        W48412  16.472  12.930  12.845
33566W        W48413  18.869   9.534  11.405
33567W        W48414  18.838  14.896   3.148
33568W        W48415  13.672  11.508  13.817
33569W        W48416  14.602   3.210   3.637
33570W        W48417  15.532  19.310  14.768
33571W        W48418  17.886  18.295  12.377
33572W        W48419  16.016   2.232  12.360
33573W        W48420  13.217   8.085   0.765
33574W        W48421  13.664  12.947   2.179
33575W        W48422  19.313  17.322  12.340
33576W        W48423  18.863   3.686  11.886
33577W        W48424  12.259   7.093  13.811
33578W        W48425  19.777  11.490  14.316
33579W        W48426  12.725   3.202   4.126
33580W        W48427  17.902   2.711   0.751
33581W        W48428  18.867   6.127  14.296
33582W        W48429  14.607  12.935   4.628
33583W        W48430  13.215  13.456  14.771
33584W        W48431  16.008  19.759  12.829
33585W        W48432  16.983  11.963  14.784
33586W        W48433  18.355  11.991   3.160
33587W        W48434  12.709   2.687  10.903
33588W        W48435  16.006   8.580   5.083
33589W        W48436  14.154  18.319   4.155
33590W        W48437  14.615   0.757   3.663
33591W        W48438  17.432  15.375   3.183
33592W        W48439  15.061  15.401   5.112
33593W        W48440  19.770  14.402   3.659
33594W        W48441  14.593   8.053  10.438
33595W        W48442  18.833   1.239   0.747
33596W        W48443  12.258   7.579  10.906
33597W        W48444  16.948  11.991   0.729
33598W        W48445  15.076   9.528  13.320
33599W        W48446  17.431  15.373  11.379
33600W        W48447  16.499   1.737  14.778
33601W        W48448  13.178   5.128   3.641
33602W        W48449  14.161   2.709  11.417
33603W        W48450  17.427  13.418  13.829
33604W        W48451  18.382  18.798   1.257
33605W        W48452  13.678   6.145  13.328
33606W        W48453  16.504  11.482   3.654
33607W        W48454  17.434   6.123   3.150
33608W        W48455  12.730   4.653   3.188
33609W        W48456  17.908  13.913   1.724
33610W        W48457  13.687  14.431   4.641
33611W        W48458  19.794  15.379   1.257
33612W        W48459  18.386  17.358   2.693
33613W        W48460  18.829   4.189   9.926
33614W        W48461  12.257   1.740   4.630
33615W        W48462  16.499   8.547  13.812
33616W        W48463  18.395  11.491  10.893
33617W        W48464  13.655   6.631   2.709
33618W        W48465  14.149   8.572  10.432
33619W        W48466  14.138  14.894  12.858
33620W        W48467  14.151   8.562   5.127
33621W        W48468  18.851  13.913  14.278
33622W        W48469  14.626  19.800  12.841
33623W        W48470  14.154  12.445  14.295
33624W        W48471  19.312   3.196  13.792
33625W        W48472  16.955   1.238   0.770
33626W        W48473  19.315   8.056  14.772
33627W        W48474  16.987  14.921   3.639
33628W        W48475  12.263  11.971  11.410
33629W        W48476  18.868  16.389  14.787
33630W        W48477  16.044  12.927  13.813
33631W        W48478  19.798   0.277   3.664
33632W        W48479  19.340   1.228   3.637
33633W        W48480  14.607  16.378   0.736
33634W        W48481  14.601   0.246  12.352
33635W        W48482  19.303   3.213  14.794
33636W        W48483  16.958   2.723  14.775
33637W        W48484  15.530  11.987  11.415
33638W        W48485  15.082  15.863   4.145
33639W        W48486  12.275  15.373   4.139
33640W        W48487  16.036  17.823   0.252
33641W        W48488  17.430   3.683  10.446
33642W        W48489  15.565   3.205  10.922
33643W        W48490  15.072   5.628   4.627
33644W        W48491  16.024  17.811   2.685
33645W        W48492  19.331  13.945   1.238
33646W        W48493  19.335  13.912  12.370
33647W        W48494  18.378  19.782  14.308
33648W        W48495  12.745  10.494   1.736
33649W        W48496  17.431  11.494   1.252
33650W        W48497  13.681  10.995   1.215
33651W        W48498  18.399  18.334   2.196
33652W        W48499  17.457   8.061   1.730
33653W        W48500  18.354   0.278  10.418
33654W        W48501  17.897   6.120   4.624
33655W        W48502  19.792  18.808   5.099
33656W        W48503  13.682   3.209  12.827
33657W        W48504  12.720   7.122   5.082
33658W        W48505  12.731   7.076  11.409
33659W        W48506  14.601   6.593   2.670
33660W        W48507  14.159   8.088   0.266
33661W        W48508  14.618  17.819  13.797
33662W        W48509  16.031   0.285   3.192
33663W        W48510  15.100  15.408   2.208
33664W        W48511  16.473   3.684   4.149
33665W        W48512  19.806  18.322  10.422
33666W        W48513  15.532  12.951  10.407
33667W        W48514  16.988   8.580  11.374
33668W        W48515  19.779   9.556  11.869
33669W        W48516  19.297   7.577   3.653
33670W        W48517  13.692  13.948  13.796
33671W        W48518  19.303  19.290  11.386
33672W        W48519  13.679   2.703  14.794
33673W        W48520  16.031  16.861   2.195
33674W        W48521  17.435  18.319   2.706
33675W        W48522  19.309  16.857  10.897
33676W        W48523  14.621   8.096   1.217
33677W        W48524  18.400   5.613  12.867
33678W        W48525  15.103  13.926   2.691
33679W        W48526  17.428   2.690  13.315
33680W        W48527  16.965  11.952  12.829
33681W        W48528  19.304   8.081  12.860
33682W        W48529  19.794   4.662   4.114
33683W        W48530  18.375   3.676  14.280
33684W        W48531  13.666  17.345   4.623
33685W        W48532  13.661  10.038   4.122
33686W        W48533  17.423  14.436   4.627
33687W        W48534  16.501   3.682   3.646
33688W        W48535  13.217  13.418  11.881
33689W        W48536  15.096  15.857  14.775
33690W        W48537  18.826   9.554  13.337
33691W        W48538  16.988  15.876   2.178
33692W        W48539  16.011   5.131   4.158
33693W        W48540  17.449  11.994  14.785
33694W        W48541  12.752  18.798   0.290
33695W        W48542  16.478  15.897  14.793
33696W        W48543  16.516   2.691  14.773
33697W        W48544  18.395  17.346  13.341
33698W        W48545  16.942   9.049  14.798
33699W        W48546  14.595   7.576   3.658
33700W        W48547  19.305  11.990  12.374
33701W        W48548  19.785   0.767  10.443
33702W        W48549  18.855   8.066  10.431
33703W        W48550  17.904   7.091  14.778
33704W        W48551  15.541  11.511  10.896
33705W        W48552  13.651  19.291   2.701
33706W        W48553  16.964   6.131   2.704
33707W        W48554  15.095   6.130  14.285
33708W        W48555  12.722   9.036  11.393
33709W        W48556  15.563   7.608   2.664
33710W        W48557  12.256   6.589   3.647
33711W        W48558  18.391   9.559  11.899
33712W        W48559  15.077  10.529  14.321
33713W        W48560  13.685   7.564  13.339
33714W        W48561  19.780  17.340  11.888
33715W        W48562  18.398   6.612  14.293
33716W        W48563  16.985   0.246   2.191
33717W        W48564  16.476   5.127  12.857
33718W        W48565  12.268  18.817   4.609
33719W        W48566  13.218   3.696  14.780
33720W        W48567  18.362  15.902  10.448
33721W        W48568  17.910   7.575   2.675
33722W        W48569  14.146  16.354  14.321
33723W        W48570  13.687  12.946   4.135
33724W        W48571  18.358   0.290   1.695
33725W        W48572  12.270   5.171  12.869
33726W        W48573  15.095   1.268  10.411
33727W        W48574  18.836  13.458  13.309
33728W        W48575  19.296  13.437  11.894
33729W        W48576  19.811  15.368   2.194
33730W        W48577  16.985  11.957  13.334
33731W        W48578  18.358   7.114   5.116
33732W        W48579  13.222  13.425  10.412
33733W        W48580  15.076  11.002   3.631
33734W        W48581  19.297  17.805   4.622
33735W        W48582  14.596   4.659  14.301
33736W        W48583  14.149  14.918   4.637
33737W        W48584  18.864  15.414   2.668
33738W        W48585  12.277   4.649  13.837
33739W        W48586  18.860   7.587  13.335
33740W        W48587  18.379   6.595  12.850
33741W        W48588  15.575  14.899  12.377
33742W        W48589  13.684  14.889   4.114
33743W        W48590  16.028  11.492   1.224
33744W        W48591  15.550  17.838  12.377
33745W        W48592  19.307  11.477  10.929
33746W        W48593  13.186  12.968   0.734
33747W        W48594  16.971   9.052   5.127
33748W        W48595  12.722   0.754   3.154
33749W        W48596  16.482  17.809   4.630
33750W        W48597  12.241   4.641  12.368
33751W        W48598  14.131  13.460   0.286
33752W        W48599  17.902  10.029   9.960
33753W        W48600  16.497   5.630  11.418
33754W        W48601  13.184  15.368  12.384
33755W        W48602  12.249   2.235   1.255
33756W        W48603  14.629  13.434   4.625
33757W        W48604  15.569   7.605   9.934
33758W        W48605  12.263  12.460  12.861
33759W        W48606  13.200   1.742   2.214
33760W        W48607  13.180   9.548  10.450
33761W        W48608  16.492  14.414   5.087
33762W        W48609  15.555   6.625   1.714
33763W        W48610  14.122  10.495  12.858
33764W        W48611  12.276   3.218  11.378
33765W        W48612  19.793   3.181   1.716
33766W        W48613  14.157  10.021  12.870
33767W        W48614  15.087   0.266  11.874
33768W        W48615  16.956  13.943   3.167
33769W        W48616  19.315   3.670  14.277
33770W        W48617  14.628  11.482   2.687
33771W        W48618  12.263  10.499   2.220
33772W        W48619  16.976  12.454  12.383
33773W        W48620  19.328  12.486  12.836
33774W        W48621  16.985   3.677  14.787
33775W        W48622  19.332  11.965   2.699
33776W        W48623  14.161   7.098   1.238
33777W        W48624  16.951   6.141   1.719
33778W        W48625  16.499  10.498  12.383
33779W        W48626  15.099   7.599  13.321
33780W        W48627  17.890   6.127   5.129
33781W        W48628  18.864   6.624   2.194
33782W        W48629  13.188   2.703   1.235
33783W        W48630  16.961  18.326   3.178
33784W        W48631  17.437  14.421   0.755
33785W        W48632  12.712  17.823   1.218
33786W        W48633  14.150  13.905   5.101
33787W        W48634  15.072   0.767  10.406
33788W        W48635  19.765  10.490   2.685
33789W        W48636  13.205   1.728   4.601
33790W        W48637  15.548  14.419  13.313
33791W        W48638  16.004  15.880   4.618
33792W        W48639  14.131   5.623   2.667
33793W        W48640  15.555   4.658  14.768
33794W        W48641  13.651   3.181   5.101
33795W        W48642  17.920   4.190  12.831
33796W        W48643  12.241   5.170   4.630
33797W        W48644  17.421   3.707  12.861
33798W        W48645  17.883   3.664   3.647
33799W        W48646  14.134   8.558  10.933
33800W        W48647  14.135   2.727   4.157
33801W        W48648  14.147  15.373   1.739
33802W        W48649  18.832   4.178   1.703
33803W        W48650  16.034   9.556   9.923
33804W        W48651  13.209  17.815   5.087
33805W        W48652  12.751   4.682  11.872
33806W        W48653  19.339  13.426   2.190
33807W        W48654  12.248  15.399  12.359
33808W        W48655  12.721  11.500  12.381
33809W        W48656  15.530   5.159   3.661
33810W        W48657  18.365   4.659  14.770
33811W        W48658  15.068   8.083  13.352
33812W        W48659  12.735  18.336  14.805
33813W        W48660  13.182  12.480  11.894
33814W        W48661  18.843  13.931  10.899
33815W        W48662  16.028  16.838   4.154
33816W        W48663  15.093  10.029  12.357
33817W        W48664  13.651   0.256   5.092
33818W        W48665  16.493   7.606  13.820
33819W        W48666  17.925   1.712  12.867
33820W        W48667  16.029  14.897   0.732
33821W        W48668  18.365   2.729   2.202
33822W        W48669  17.896   4.666   1.235
33823W        W48670  15.074   4.194  11.391
33824W        W48671  13.185   0.275  13.796
33825W        W48672  12.250  12.951   3.656
33826W        W48673  13.206  12.457  12.344
33827W        W48674  17.419   5.638  11.410
33828W        W48675  16.035  13.922   3.671
33829W        W48676  12.274  19.777  13.792
33830W        W48677  15.572  17.844   4.114
33831W        W48678  18.380  12.930   2.705
33832W        W48679  17.424   3.189  13.346
33833W        W48680  16.484   6.143  14.777
33834W        W48681  17.458   2.721  11.896
33835W        W48682  19.796   9.027   4.136
33836W        W48683  13.664  14.424  12.844
33837W        W48684  15.091  13.443   4.135
33838W        W48685  13.200   8.062  13.307
33839W        W48686  16.033  11.007  12.825
33840W        W48687  16.501   6.622   0.266
33841W        W48688  15.540   0.293   2.677
33842W        W48689  13.177   4.648  10.408
33843W        W48690  19.301   1.250   2.199
33844W        W48691  15.096  15.888   1.716
33845W        W48692  17.896   8.075  12.858
33846W        W48693  12.751   9.062   3.645
33847W        W48694  19.331  18.826   4.154
33848W        W48695  12.734   6.130   0.274
33849W        W48696  13.196   3.213   3.673
33850W        W48697  18.397   4.189  14.759
33851W        W48698  17.888  15.874  11.385
33852W        W48699  17.919   4.637   4.136
33853W        W48700  12.247   2.684   1.247
33854W        W48701  12.242  12.962   2.225
33855W        W48702  17.452   9.052  12.382
33856W        W48703  18.836  10.510  12.375
33857W        W48704  18.848   0.770   4.609
33858W        W48705  16.962   4.158   1.737
33859W        W48706  12.713  11.006   0.747
33860W        W48707  15.088  14.391   0.771
33861W        W48708  14.161   1.236  10.891
33862W        W48709  16.944  13.453   0.250
33863W        W48710  14.128  15.407  12.848
33864W        W48711  13.664   1.749  10.443
33865W        W48712  19.774  16.382  12.383
33866W        W48713  17.927   4.665   0.748
33867W        W48714  15.074  17.840   3.179
33868W        W48715  17.421   1.750  14.320
33869W        W48716  13.182  12.973  14.792
33870W        W48717  14.159  14.413   3.179
33871W        W48718  15.533   1.226  13.320
33872W        W48719  16.950   8.067   3.162
33873W        W48720  13.221   8.559   4.139
33874W        W48721  14.601  19.308   0.267
33875W        W48722  15.557  16.383   3.659
33876W        W48723  14.159   7.096   1.739
33877W        W48724  15.560   5.624  14.791
33878W        W48725  12.745  10.498  11.868
33879W        W48726  16.486  12.951  13.338
33880W        W48727  18.868   6.612  12.835
33881W        W48728  18.828  17.817  14.778
33882W        W48729  13.190  12.964   0.273
33883W        W48730  14.141  14.418   4.601
33884W        W48731  14.629   4.160  10.413
33885W        W48732  19.808   5.620   3.659
33886W        W48733  13.653  12.975   0.770
33887W        W48734  13.677  15.859  10.423
33888W        W48735  12.237  10.980  10.901
33889W        W48736  17.910  19.306   1.727
33890W        W48737  15.568  11.003   0.264
33891W        W48738  16.503   8.073   3.157
33892W        W48739  13.196  11.021  14.280
33893W        W48740  13.206   0.756  12.343
33894W        W48741  19.300  12.441  10.443
33895W        W48742  13.649   7.074   4.148
33896W        W48743  14.151   7.112  10.916
33897W        W48744  14.613   5.154   1.739
33898W        W48745  16.981   1.724  10.908
33899W        W48746  19.324  12.928  10.903
33900W        W48747  13.205  12.462   4.127
33901W        W48748  13.205   0.777  11.893
33902W        W48749  19.317  18.798  11.883
33903W        W48750  14.605  11.498  10.899
33904W        W48751  12.239   4.162  12.371
33905W        W48752  16.970  17.356   3.147
33906W        W48753  16.004   6.121  10.451
33907W        W48754  12.265  14.418   4.142
33908W        W48755  17.420   6.604   1.226
33909W        W48756  15.530   1.229   3.146
33910W        W48757  16.019  18.803  13.836
33911W        W48758  16.483  19.301   1.720
33912W        W48759  18.357  10.980   0.771
33913W        W48760  17.926  11.978  11.896
33914W        W48761  17.439  16.862   3.176
33915W        W48762  19.800  10.978  13.321
33916W        W48763  13.222   5.646   0.289
33917W        W48764  14.158  16.852   4.616
33918W        W48765  16.515   9.034   2.201
33919W        W48766  15.090  11.962   0.250
33920W        W48767  15.097  11.471   0.290
33921W        W48768  12.257  17.357  11.387
33922W        W48769  19.791  18.331  12.851
33923W        W48770  19.333  17.831  13.792
33924W        W48771  15.078   4.158  10.440
33925W        W48772  13.202  10.517  13.795
33926W        W48773  13.679   2.200  11.384
33927W        W48774  18.844  18.301  12.379
33928W        W48775  14.139  10.521   2.690
33929W        W48776  18.836   7.077   3.650
33930W        W48777  16.982  13.939  12.868
33931W        W48778  15.550   7.101   0.737
33932W        W48779  19.334   8.063   1.696
33933W        W48780  15.538  11.960   4.115
33934W        W48781  15.099   6.621  12.348
33935W        W48782  13.661  19.769  11.397
33936W        W48783  19.308  17.839   3.654
33937W        W48784  17.894   9.036   0.290
33938W        W48785  16.484  13.903  13.798
33939W        W48786  18.355  15.857  10.889
33940W        W48787  14.135  16.358  12.376
33941W        W48788  18.386   0.266  11.388
33942W        W48789  12.259  13.445   2.702
33943W        W48790  16.966  19.273   3.190
33944W        W48791  13.675   5.147  10.422
33945W        W48792  19.778   4.188  14.309
33946W        W48793  19.788  13.919  14.311
33947W        W48794  13.188  10.514  14.295
33948W        W48795  12.265   4.153  10.404
33949W        W48796  12.258   7.568  13.800
33950W        W48797  18.859  11.981   1.230
33951W        W48798  17.443   5.641   3.635
33952W        W48799  15.554   3.202   1.740
33953W        W48800  19.309   6.589   9.922
33954W        W48801  19.305  15.888  10.409
33955W        W48802  16.485   7.607   0.756
33956W        W48803  19.320  11.491  12.826
33957W        W48804  13.193  19.773  12.359
33958W        W48805  13.661   9.537  11.397
33959W        W48806  15.533   9.557  10.888
33960W        W48807  15.081  18.323  13.833
33961W        W48808  13.689  12.478  12.836
33962W        W48809  17.916  13.906  13.834
33963W        W48810  16.014  10.528  10.920
33964W        W48811  16.035   3.199  12.849
33965W        W48812  15.554   3.176   3.656
33966W        W48813  13.689  10.536  14.762
33967W        W48814  18.867   6.613   3.183
33968W        W48815  15.060   3.671   2.693
33969W        W48816  12.263   1.738   4.151
33970W        W48817  16.004  11.022  11.400
33971W        W48818  17.888   8.052  10.431
33972W        W48819  14.119   8.059   2.707
33973W        W48820  14.137  11.005  10.905
33974W        W48821  13.210   5.642  13.803
33975W        W48822  14.610  13.446  14.799
33976W        W48823  16.046  17.358  14.288
33977W        W48824  19.302   3.674  13.339
33978W        W48825  16.944   7.563   3.650
33979W        W48826  16.965  11.012  12.870
33980W        W48827  19.793  11.983   0.281
33981W        W48828  19.311  15.864   9.940
33982W        W48829  12.243   1.238   1.229
33983W        W48830  12.706   6.135   1.236
33984W        W48831  19.319   7.594  13.313
33985W        W48832  13.222   9.552  10.896
33986W        W48833  17.419  18.326  12.344
33987W        W48834  16.471  15.870   2.202
33988W        W48835  18.364   1.245  10.444
33989W        W48836  16.953   2.721  14.292
33990W        W48837  16.516   9.065   5.114
33991W        W48838  14.146   4.156  11.857
33992W        W48839  14.138   4.187  13.814
33993W        W48840  18.395  11.464   1.707
33994W        W48841  12.730  13.420  13.815
33995W        W48842  17.453   6.128  14.777
33996W        W48843  17.432  13.456   4.154
33997W        W48844  19.334   4.677  13.830
33998W        W48845  15.104   6.596  11.394
33999W        W48846  19.784  17.847  10.918
34000W        W48847  14.613   4.148   4.121
34001W        W48848  19.336   9.542   4.151
34002W        W48849  14.150   5.148  10.413
34003W        W48850  16.018   2.233  12.859
34004W        W48851  16.511  17.323   1.218
34005W        W48852  12.244  15.901   1.714
34006W        W48853  18.848  18.313  11.398
34007W        W48854  16.982   2.203   3.158
34008W        W48855  15.540  15.411   5.112
34009W        W48856  13.195   8.552   3.663
34010W        W48857  18.374  19.294   0.735
34011W        W48858  19.318   4.154  12.371
34012W        W48859  16.969   5.638  13.800
34013W        W48860  13.210   7.087   4.600
34014W        W48861  16.475  14.393   0.250
34015W        W48862  19.326   7.074  12.386
34016W        W48863  15.105   6.109  13.797
34017W        W48864  16.480   5.127  10.448
34018W        W48865  16.047   1.742   1.237
34019W        W48866  15.537   4.165   3.168
34020W        W48867  12.280  12.439   2.700
34021W        W48868  15.552   5.150  11.902
34022W        W48869  18.387   3.207   3.153
34023W        W48870  17.895  16.855   2.194
34024W        W48871  17.431   5.630   4.628
34025W        W48872  17.431  15.893  12.831
34026W        W48873  12.709   4.173   0.764
34027W        W48874  16.472   1.726   3.152
34028W        W48875  12.270  11.488   0.743
34029W        W48876  12.734   7.572   0.749
34030W        W48877  17.450   1.717   3.648
34031W        W48878  12.248   3.200  12.856
34032W        W48879  17.447   5.125   4.156
34033W        W48880  15.064   8.559   4.155
34034W        W48881  17.916   0.780  12.387
34035W        W48882  18.367   0.268  13.332
34036W        W48883  18.368  15.411  14.772
34037W        W48884  14.597   8.053   2.699
34038W        W48885  18.829  11.506  12.376
34039W        W48886  19.774  13.453   2.181
34040W        W48887  16.511  17.323   1.707
34041W        W48888  13.648   0.741  13.837
34042W        W48889  16.504  13.422   4.615
34043W        W48890  16.516  11.018  10.446
34044W        W48891  15.094  19.796  10.430
34045W        W48892  12.725   7.565  12.848
34046W        W48893  15.549  10.493   4.608
34047W        W48894  14.618   4.647   2.181
34048W        W48895  13.187  16.871   4.147
34049W        W48896  14.624  14.391  11.872
34050W        W48897  16.027   7.116   4.147
34051W        W48898  13.689   0.270   1.230
34052W        W48899  16.005  13.415  14.302
34053W        W48900  18.859   9.026   0.271
34054W        W48901  19.776   2.211   2.218
34055W        W48902  15.063   0.245  13.799
34056W        W48903  19.322  15.861   2.191
34057W        W48904  19.767  12.454  11.881
34058W        W48905  18.830  18.799  11.862
34059W        W48906  18.377  18.334   4.642
34060W        W48907  19.797   4.175   5.121
34061W        W48908  19.772  16.358   4.625
34062W        W48909  18.383   9.517   2.190
34063W        W48910  18.372  16.835  13.791
34064W        W48911  16.980   7.117   0.290
34065W        W48912  13.693   8.537   2.699
34066W        W48913  18.862   2.692  12.846
34067W        W48914  16.947   7.580   0.738
34068W        W48915  18.827  10.981  11.887
34069W        W48916  14.130   4.645  10.918
34070W        W48917  17.436   1.258   3.661
34071W        W48918  18.400  11.468   4.149
34072W        W48919  12.236  10.988  11.381
34073W        W48920  16.502   4.180   1.222
34074W        W48921  14.148   4.182  10.933
34075W        W48922  16.951   8.065  14.787
34076W        W48923  13.219  13.942  11.894
34077W        W48924  19.773   6.610   0.257
34078W        W48925  14.598  19.314  14.303
34079W        W48926  17.925  15.858   1.728
34080W        W48927  17.419  10.993  14.779
34081W        W48928  16.953   7.604  12.870
34082W        W48929  19.781  16.387   0.746
34083W        W48930  18.827   9.545  10.419
34084W        W48931  12.275  19.309   4.122
34085W        W48932  13.207  10.520   0.731
34086W        W48933  16.979  18.824  13.811
34087W        W48934  14.121  15.398   4.139
34088W        W48935  15.563  17.832   2.197
34089W        W48936  16.508  16.360  10.894
34090W        W48937  14.610  18.781  13.351
34091W        W48938  17.423   5.126   2.703
34092W        W48939  18.861   0.772   2.189
34093W        W48940  18.865   8.540   2.210
34094W        W48941  13.661  16.866  11.868
34095W        W48942  16.514  14.411   2.194
34096W        W48943  13.211  15.879  14.798
34097W        W48944  12.258  15.388   1.258
34098W        W48945  17.414  16.856   1.719
34099W        W48946  15.096  15.387  11.900
34100W        W48947  14.609  11.999  12.849
34101W        W48948  19.315   8.049   4.611
34102W        W48949  18.374  12.472  11.391
34103W        W48950  14.632  13.926   1.738
34104W        W48951  16.040   6.624   2.665
34105W        W48952  15.063   2.718   2.699
34106W        W48953  13.180   5.636   4.150
34107W        W48954  18.862  15.861   0.736
34108W        W48955  17.447   9.532  11.902
34109W        W48956  14.150   5.166  11.399
34110W        W48957  17.434  13.454   0.736
34111W        W48958  13.655  15.368  11.399
34112W        W48959  16.978  12.487  10.894
34113W        W48960  14.141  19.757  13.314
34114W        W48961  13.658   7.590   0.261
34115W        W48962  14.609   2.227  12.370
34116W        W48963  14.631   0.292   2.181
34117W        W48964  18.846   1.721   1.735
34118W        W48965  12.248  16.376   3.666
34119W        W48966  14.605  16.833  14.282
34120W        W48967  15.103  19.273  13.331
34121W        W48968  17.927   1.728   4.598
34122W        W48969  14.122   9.553  14.296
34123W        W48970  16.487  16.856   1.213
34124W        W48971  19.311  13.449  12.837
34125W        W48972  18.368   7.113   1.233
34126W        W48973  19.767   0.755   1.216
34127W        W48974  17.928  17.361  13.352
34128W        W48975  19.800   6.143  10.928
34129W        W48976  16.489   0.756   2.215
34130W        W48977  16.970  14.409  11.887
34131W        W48978  13.213   8.545   1.710
34132W        W48979  12.720   0.733   0.245
34133W        W48980  16.503   6.587  13.833
34134W        W48981  19.309   2.686   2.675
34135W        W48982  16.508  11.497   1.236
34136W        W48983  17.915   6.590   3.162
34137W        W48984  13.221   6.103  11.868
34138W        W48985  16.474  18.339   1.729
34139W        W48986  15.097  12.944   0.728
34140W        W48987  17.917   2.234  13.827
34141W        W48988  18.857   0.274   3.187
34142W        W48989  18.365   0.273   3.657
34143W        W48990  19.325  14.400   1.719
34144W        W48991  13.676   4.653  11.899
34145W        W48992  16.505  15.863  10.412
34146W        W48993  17.896   2.686   4.640
34147W        W48994  15.076   7.607   3.192
34148W        W48995  14.152   1.742  12.348
34149W        W48996  16.001   0.747   1.235
34150W        W48997  16.510  18.341   4.609
34151W        W48998  14.127   8.058   4.610
34152W        W48999  13.203  12.944  14.297
34153W        W49000  13.197  13.417   1.238
34154W        W49001  19.320  16.368   1.742
34155W        W49002  18.830  15.871   9.948
34156W        W49003  18.848   5.650   2.218
34157W        W49004  14.124   7.089  13.823
34158W        W49005  14.615  16.386  14.776
34159W        W49006  16.474  14.922  12.347
34160W        W49007  15.064   9.065   4.644
34161W        W49008  16.043  10.995  14.772
34162W        W49009  14.614  19.282   1.220
34163W        W49010  13.214  18.318  14.797
34164W        W49011  18.832  18.322  13.332
34165W        W49012  19.776  14.410   4.128
34166W        W49013  16.502  18.310   9.951
34167W        W49014  17.921  16.840   5.127
34168W        W49015  14.154  11.953  14.287
34169W        W49016  18.865  10.046  13.818
34170W        W49017  19.338  17.806  11.416
34171W        W49018  19.296  12.943   4.142
34172W        W49019  14.151  17.851   1.218
34173W        W49020  17.893   7.092  11.866
34174W        W49021  16.955   8.552  14.302
34175W        W49022  19.312  10.511   2.704
34176W        W49023  15.091   8.079  14.302
34177W        W49024  18.380  15.411  11.392
34178W        W49025  12.261   7.080   2.224
34179W        W49026  13.674  17.840  12.849
34180W        W49027  12.733  15.858   4.151
34181W        W49028  12.715   3.677  14.276
34182W        W49029  13.190   5.128  13.792
34183W        W49030  16.492  10.503   4.598
34184W        W49031  13.681  12.454  10.934
34185W        W49032  13.177   3.686  13.824
34186W        W49033  12.272  12.950  13.802
34187W        W49034  12.273   0.744   0.258
34188W        W49035  19.325   7.087  10.435
34189W        W49036  14.609  12.968   1.724
34190W        W49037  16.005   8.568   3.652
34191W        W49038  16.500   9.037   9.941
34192W        W49039  18.368  13.431   1.740
34193W        W49040  16.959  13.422   2.674
34194W        W49041  18.850  14.403   1.257
34195W        W49042  19.789   2.688   3.641
34196W        W49043  13.669  15.859   2.210
34197W        W49044  14.142   7.106   0.248
34198W        W49045  18.357  16.837  14.785
34199W        W49046  12.729  14.925  12.364
34200W        W49047  12.269   5.142  11.867
34201W        W49048  16.974   7.098   2.698
34202W        W49049  14.150   0.268   2.221
34203W        W49050  16.029  18.298   0.278
34204W        W49051  13.682   1.737  13.339
34205W        W49052  17.882   8.542   1.708
34206W        W49053  16.959   6.606  11.377
34207W        W49054  15.538   5.613   0.281
34208W        W49055  19.811   8.049  10.932
34209W        W49056  19.795  14.431  14.285
34210W        W49057  13.664  16.876  14.280
34211W        W49058  13.688  13.916   1.225
34212W        W49059  19.317   9.517   0.764
34213W        W49060  15.564  13.430  14.275
34214W        W49061  14.624  11.464   3.173
34215W        W49062  19.778  10.496   3.148
34216W        W49063  15.084   7.598  14.782
34217W        W49064  18.369   6.614   1.706
34218W        W49065  19.797   1.226  11.886
34219W        W49066  15.545  19.759  11.410
34220W        W49067  16.017  17.330  12.847
34221W        W49068  16.029  11.988  13.796
34222W        W49069  16.512  13.909   0.266
34223W        W49070  19.301   8.547  13.309
34224W        W49071  19.303   5.133   0.755
34225W        W49072  19.802   3.199  11.377
34226W        W49073  15.559  16.871   1.720
34227W        W49074  16.973   7.081   3.641
34228W        W49075  19.326  11.975  14.283
34229W        W49076  17.889   6.591  11.377
34230W        W49077  18.357   7.119   3.145
34231W        W49078  12.749   3.673  11.413
34232W        W49079  12.238  12.947   5.084
34233W        W49080  19.776  17.351   4.124
34234W        W49081  14.635  15.382  10.435
34235W        W49082  13.216  16.368  12.826
34236W        W49083  12.739  11.993   0.289
34237W        W49084  14.128  15.863  10.413
34238W        W49085  15.539   3.180  12.831
34239W        W49086  14.124   2.685  12.376
34240W        W49087  15.534   7.593   1.721
34241W        W49088  19.316   0.263  10.929
34242W        W49089  16.506  15.873   4.638
34243W        W49090  12.266  18.792  10.900
34244W        W49091  19.308   7.599   1.699
34245W        W49092  15.087   1.725   0.260
34246W        W49093  19.306   2.688  11.390
34247W        W49094  13.179   7.091  12.858
34248W        W49095  19.793   9.517   4.604
34249W        W49096  18.858   0.777   1.229
34250W        W49097  18.852  15.402  12.834
34251W        W49098  18.391  17.362  14.780
34252W        W49099  15.076  11.502  14.313
34253W        W49100  14.129   0.770  11.394
34254W        W49101  16.042  12.479   3.192
34255W        W49102  16.949   0.265   1.240
34256W        W49103  18.368  15.401   3.155
34257W        W49104  16.954  14.902  13.342
34258W        W49105  12.715   5.154  14.305
34259W        W49106  16.983   5.638  10.909
34260W        W49107  14.140  12.468  12.852
34261W        W49108  12.265  19.802  14.788
34262W        W49109  13.182   5.647  12.838
34263W        W49110  16.958   7.113   3.176
34264W        W49111  13.202   1.236  11.407
34265W        W49112  16.483   5.134   4.624
34266W        W49113  17.912   0.750  14.296
34267W        W49114  17.434   6.119   2.196
34268W        W49115  18.835  11.961   4.134
34269W        W49116  16.011   3.190   4.621
34270W        W49117  14.132   0.780  10.450
34271W        W49118  15.551   8.049  10.414
34272W        W49119  14.141   8.081  10.888
34273W        W49120  12.261   4.647  13.313
34274W        W49121  17.436  11.508  10.451
34275W        W49122  13.678   8.557   5.093
34276W        W49123  13.212  17.826   0.252
34277W        W49124  16.476  18.826   0.764
34278W        W49125  17.894  14.418  12.869
34279W        W49126  14.623  15.366   0.279
34280W        W49127  13.183   2.714  14.802
34281W        W49128  18.849  10.519   5.129
34282W        W49129  17.416   1.263   4.148
34283W        W49130  13.214   2.720   3.673
34284W        W49131  16.483  16.372   2.663
34285W        W49132  17.915   9.061   3.156
34286W        W49133  13.661   3.662   2.200
34287W        W49134  15.102  12.478   5.116
34288W        W49135  16.476  14.897  11.418
34289W        W49136  16.986   3.672  11.406
34290W        W49137  12.744   6.119   2.214
34291W        W49138  12.263  10.522  12.860
34292W        W49139  18.853  14.410  11.396
34293W        W49140  15.559   7.087   0.253
34294W        W49141  18.360   2.219  12.367
34295W        W49142  17.459   2.691   2.666
34296W        W49143  14.607   0.267  14.798
34297W        W49144  15.072   3.193  14.762
34298W        W49145  17.416  18.808  13.312
34299W        W49146  17.925  10.006   4.131
34300W        W49147  17.917   2.727  11.383
34301W        W49148  15.069   8.554   1.249
34302W        W49149  12.259   4.169   4.145
34303W        W49150  19.788   0.768  13.336
34304W        W49151  13.206   2.220  11.417
34305W        W49152  12.243  11.506   1.219
34306W        W49153  17.440   3.202  14.292
34307W        W49154  17.426   8.082   3.150
34308W        W49155  13.216   7.084   2.180
34309W        W49156  17.440   2.200   1.719
34310W        W49157  16.956   6.594  12.362
34311W        W49158  17.436   9.040  10.419
34312W        W49159  14.132  17.349  11.395
34313W        W49160  19.295   7.565  12.837
34314W        W49161  16.008  19.302   1.696
34315W        W49162  12.239  12.968   2.671
34316W        W49163  14.608   6.616  11.894
34317W        W49164  15.574   5.137   2.701
34318W        W49165  12.243   3.200  12.373
34319W        W49166  18.380  11.990  11.409
34320W        W49167  14.127  17.323   4.127
34321W        W49168  17.419  10.490  14.281
34322W        W49169  14.132  17.365  14.316
34323W        W49170  19.811  10.990  14.764
34324W        W49171  13.656   4.639  13.313
34325W        W49172  18.389  19.785   0.275
34326W        W49173  15.085   1.737  11.887
34327W        W49174  14.598   5.623  14.803
34328W        W49175  13.658  11.998  13.797
34329W        W49176  16.030   3.685   1.710
34330W        W49177  16.010   8.539   4.613
34331W        W49178  17.439  13.923   0.264
34332W        W49179  16.480   6.606   3.641
34333W        W49180  19.315   2.689   9.920
34334W        W49181  19.784   2.211   5.103
34335W        W49182  13.652   2.693  14.315
34336W        W49183  14.126  10.505  14.311
34337W        W49184  13.668  11.994   2.193
34338W        W49185  14.142  18.319  12.384
34339W        W49186  17.431  12.441   5.115
34340W        W49187  16.039  11.006   1.700
34341W        W49188  15.072  10.988  13.322
34342W        W49189  12.734   4.181   1.707
34343W        W49190  19.772   2.711   0.276
34344W        W49191  14.603  11.959  12.379
34345W        W49192  17.920  12.465   3.159
34346W        W49193  14.608  14.922   2.672
34347W        W49194  14.617   1.237  10.921
34348W        W49195  19.788   0.289   3.173
34349W        W49196  19.333  16.371   0.275
34350W        W49197  18.382  19.298   2.699
34351W        W49198  15.064  17.827   1.730
34352W        W49199  12.238   4.679   3.633
34353W        W49200  13.199  10.512   3.633
34354W        W49201  14.147  16.863  13.804
34355W        W49202  14.146  15.898   4.630
34356W        W49203  13.210  19.792   4.117
34357W        W49204  18.865  10.999   1.708
34358W        W49205  13.222  16.836  13.347
34359W        W49206  16.507  11.965  11.386
34360W        W49207  12.252  14.408  13.799
34361W        W49208  19.306   6.121   3.673
34362W        W49209  18.866  13.924  10.408
34363W        W49210  13.666  17.839   4.609
34364W        W49211  13.177   3.668   3.638
34365W        W49212  14.135   1.231  13.319
34366W        W49213  19.319   1.715  10.914
34367W        W49214  15.535  13.446   3.164
34368W        W49215  14.605  13.451  14.321
34369W        W49216  16.494   9.058   1.255
34370W        W49217  14.129   4.153   4.126
34371W        W49218  18.360  16.852   9.965
34372W        W49219  13.665  18.319   5.124
34373W        W49220  14.591   4.150  12.836
34374W        W49221  15.567  12.973   4.632
34375W        W49222  17.423   2.210  12.836
34376W        W49223  15.093   1.254   3.159
34377W        W49224  13.207   0.288   1.719
34378W        W49225  13.198   8.083   4.600
34379W        W49226  12.725   8.555   3.187
34380W        W49227  16.943   3.696   3.633
34381W        W49228  12.269   4.665  11.897
34382W        W49229  12.278  18.782  14.780
34383W        W49230  16.047   5.170  14.288
34384W        W49231  18.362   7.086  10.898
34385W        W49232  13.183   9.026  12.823
34386W        W49233  14.152  10.995   1.235
34387W        W49234  17.425   5.165  11.859
34388W        W49235  14.600  15.406  12.385
34389W        W49236  15.070   7.573   5.098
34390W        W49237  17.905   0.743   3.650
34391W        W49238  19.791   1.252   3.651
34392W        W49239  19.336   1.731  13.821
34393W        W49240  13.194  17.853  14.763
34394W        W49241  16.043   3.673   1.254
34395W        W49242  14.146  16.836   3.165
34396W        W49243  13.181   3.217  14.789
34397W        W49244  19.802  19.765  14.784
34398W        W49245  17.445  11.998  14.284
34399W        W49246  14.627   3.185   2.666
34400W        W49247  17.427   4.155   0.254
34401W        W49248  19.330   0.245  11.378
34402W        W49249  13.203   9.064   1.730
34403W        W49250  16.947   5.163   1.737
34404W        W49251  18.356   2.202   5.118
34405W        W49252  13.669   7.605  10.421
34406W        W49253  12.752   3.696   3.635
34407W        W49254  17.886   8.087  13.811
34408W        W49255  14.611  18.302  11.415
34409W        W49256  12.731  17.335   0.278
34410W        W49257  15.062  14.918   3.639
34411W        W49258  17.884  12.962  10.414
34412W        W49259  16.987  13.438  11.902
34413W        W49260  14.622  19.274  14.805
34414W        W49261  18.373  18.297   0.737
34415W        W49262  12.269   1.710   3.148
34416W        W49263  12.256   9.032   1.715
34417W        W49264  16.944   8.576   1.729
34418W        W49265  14.635  14.390   2.182
34419W        W49266  15.555   3.202  11.391
34420W        W49267  16.986   0.780   1.703
34421W        W49268  14.622  15.872   0.741
34422W        W49269  13.672  18.328  10.404
34423W        W49270  19.772  15.878   9.948
34424W        W49271  15.533  15.405  12.840
34425W        W49272  15.567  15.865  14.791
34426W        W49273  15.073  11.495   2.684
34427W        W49274  14.132  17.333  11.887
34428W        W49275  19.765  15.411   1.719
34429W        W49276  13.663   1.228   1.713
34430W        W49277  13.206  16.387   0.748
34431W        W49278  17.903   3.202  12.354
34432W        W49279  15.532  16.369   3.174
34433W        W49280  19.798  11.988  14.780
34434W        W49281  16.972   4.677  12.861
34435W        W49282  18.399  17.827   1.244
34436W        W49283  16.961   1.259  14.282
34437W        W49284  18.400  13.914   4.114
34438W        W49285  16.490   6.146  13.323
34439W        W49286  13.178   5.130   0.262
34440W        W49287  16.957  16.369  11.415
34441W        W49288  15.565   9.063  12.351
34442W        W49289  19.334  11.021  13.824
34443W        W49290  12.282   7.579   0.768
34444W        W49291  13.672  17.326  14.294
34445W        W49292  15.570   0.257  10.413
34446W        W49293  18.860   6.609  14.280
34447W        W49294  19.775   8.078   3.662
34448W        W49295  19.784  17.338  13.311
34449W        W49296  17.918  10.016  11.898
34450W        W49297  15.567   3.179   1.224
34451W        W49298  19.797   4.183  10.926
34452W        W49299  13.674   7.598  10.933
34453W        W49300  17.914  11.971  10.897
34454W        W49301  16.963  14.883  14.290
34455W        W49302  18.849   6.589   3.647
34456W        W49303  16.032  16.371   1.699
34457W        W49304  16.001   1.738  14.779
34458W        W49305  19.302   9.038  14.763
34459W        W49306  16.046  14.886   5.082
34460W        W49307  17.911  19.299   0.745
34461W        W49308  12.748  18.817  13.796
34462W        W49309  19.315   4.188  10.909
34463W        W49310  12.725  17.837   3.163
34464W        W49311  19.316  10.012  14.763
34465W        W49312  17.457  15.863   0.761
34466W        W49313  18.869   7.082  12.829
34467W        W49314  18.362   9.550  10.896
34468W        W49315  19.789  10.524  10.414
34469W        W49316  18.853  17.823  13.344
34470W        W49317  16.966   0.742  14.803
34471W        W49318  15.547  10.514  10.927
34472W        W49319  13.659  11.974   3.657
34473W        W49320  13.690   2.240  12.339
34474W        W49321  14.145  10.024   1.234
34475W        W49322  13.660   3.173   3.653
34476W        W49323  12.720  18.319   4.635
34477W        W49324  14.630   7.107   4.125
34478W        W49325  14.633  18.333   2.666
34479W        W49326  13.649   0.263  11.393
34480W        W49327  15.059   3.173  10.897
34481W        W49328  14.146  13.456   2.221
34482W        W49329  18.379   5.641  11.400
34483W        W49330  18.361   6.103   5.099
34484W        W49331  14.126   5.149  14.767
34485W        W49332  16.948   2.727   3.151
34486W        W49333  12.753  10.512   9.925
34487W        W49334  17.438  14.900   1.729
34488W        W49335  17.422   4.184   2.668
34489W        W49336  17.927  19.759  11.884
34490W        W49337  19.339   2.692   0.270
34491W        W49338  16.978  13.932   0.244
34492W        W49339  14.123   7.108  12.378
34493W        W49340  19.306   0.762   4.140
34494W        W49341  13.692  18.295   3.667
34495W        W49342  14.132  15.886   5.115
34496W        W49343  19.300  19.300   1.696
34497W        W49344  14.119  11.975   1.698
34498W        W49345  12.706  13.462   3.147
34499W        W49346  17.929  19.276  13.795
34500W        W49347  15.098   7.117  11.890
34501W        W49348  18.865   7.108  10.439
34502W        W49349  16.022   7.568  12.868
34503W        W49350  12.739   9.041  10.447
34504W        W49351  17.923  14.916  11.899
34505W        W49352  18.828   6.598  13.319
34506W        W49353  14.589  16.368   3.149
34507W        W49354  13.689   9.040  10.450
34508W        W49355  15.096  18.339  14.774
34509W        W49356  12.238  11.972  12.355
34510W        W49357  16.508  12.484  10.413
34511W        W49358  12.280  15.900  13.333
34512W        W49359  13.647  19.292  14.803
34513W        W49360  12.248   3.680  14.765
34514W        W49361  15.095  13.934   2.204
34515W        W49362  17.919  16.862   9.938
34516W        W49363  16.510   3.206  14.294
34517W        W49364  17.435  15.388   4.633
34518W        W49365  13.212   8.086   1.254
34519W        W49366  17.413  13.447   2.182
34520W        W49367  14.631  14.893  14.317
34521W        W49368  17.431   6.104  14.283
34522W        W49369  16.030  16.379   4.618
34523W        W49370  14.612   4.154   4.612
34524W        W49371  18.370  10.986  13.318
34525W        W49372  16.496  17.819  12.353
34526W        W49373  15.540  10.999  10.449
34527W        W49374  18.827   5.633   1.225
34528W        W49375  16.503  14.888  12.858
34529W        W49376  14.621  19.297  10.929
34530W        W49377  12.711   0.285   0.762
34531W        W49378  19.338   3.179   4.627
34532W        W49379  14.631  19.771   1.234
34533W        W49380  16.038  19.269  12.359
34534W        W49381  19.333   1.716   5.100
34535W        W49382  13.689  17.827  11.857
34536W        W49383  15.553   0.767  14.308
34537W        W49384  12.742   3.210   5.103
34538W        W49385  16.025  14.416   3.169
34539W        W49386  14.597  15.868   2.682
34540W        W49387  17.422  11.007   3.192
34541W        W49388  15.537  10.016  11.387
34542W        W49389  14.143   3.186  11.890
34543W        W49390  15.574   6.593   1.251
34544W        W49391  16.006   6.595   3.633
34545W        W49392  16.044   8.573  10.424
34546W        W49393  14.632  18.826  10.907
34547W        W49394  19.332  18.789   3.651
34548W        W49395  16.035  13.918  14.783
34549W        W49396  19.793   3.664   3.647
34550W        W49397  15.572   1.262   4.161
34551W        W49398  16.942  14.415  14.278
34552W        W49399  12.740  11.015  12.861
34553W        W49400  16.037  14.429  11.399
34554W        W49401  17.913   8.088  10.916
34555W        W49402  13.180  19.770   3.647
34556W        W49403  19.338  17.853   1.709
34557W        W49404  18.859  10.536   0.747
34558W        W49405  14.126  15.890  12.854
34559W        W49406  16.016  19.292   5.100
34560W        W49407  16.004   2.685  13.310
34561W        W49408  16.957   4.172  13.838
34562W        W49409  19.785   0.248  14.772
34563W        W49410  14.623  12.467  12.863
34564W        W49411  17.448   2.222  10.412
34565W        W49412  15.538   4.676  11.855
34566W        W49413  18.374  12.467  10.917
34567W        W49414  16.046  16.343  10.919
34568W        W49415  16.517   4.635  10.928
34569W        W49416  18.854  18.338  14.282
34570W        W49417  15.533  13.931   9.960
34571W        W49418  12.711  16.878   3.171
34572W        W49419  15.534  18.325  10.437
34573W        W49420  14.621  10.047  10.450
34574W        W49421  16.005  14.906   0.246
34575W        W49422  12.711  11.970   3.154
34576W        W49423  15.082  16.872  12.345
34577W        W49424  15.105   9.551  14.320
34578W        W49425  17.891  12.466  11.379
34579W        W49426  16.977  10.012   2.689
34580W        W49427  16.474  13.425  10.406
34581W        W49428  15.531  19.802  12.848
34582W        W49429  16.008   2.240   3.648
34583W        W49430  15.102   5.623   2.190
34584W        W49431  16.014   0.736  11.378
34585W        W49432  17.449  10.986   5.120
34586W        W49433  16.487   1.725  12.848
34587W        W49434  16.953  17.836   3.645
34588W        W49435  14.146   7.077  14.804
34589W        W49436  13.187   0.771   0.267
34590W        W49437  13.680   9.537  10.443
34591W        W49438  13.655  14.407   3.153
34592W        W49439  15.544   9.545   1.709
34593W        W49440  16.504   2.199   2.192
34594W        W49441  15.075   7.590  13.836
34595W        W49442  17.925  19.298  11.394
34596W        W49443  18.356   7.566  10.898
34597W        W49444  13.190   7.569  10.415
34598W        W49445  13.180   5.652   1.711
34599W        W49446  18.384  18.302  14.319
34600W        W49447  13.653   4.160  12.340
34601W        W49448  18.838   1.221  12.827
34602W        W49449  19.324  10.047  13.833
34603W        W49450  19.317  15.867   3.184
34604W        W49451  16.978   8.541  11.870
34605W        W49452  19.326   1.748  14.310
34606W        W49453  12.277  18.327   2.223
34607W        W49454  15.562  19.295   4.160
34608W        W49455  15.572  12.440   1.699
34609W        W49456  16.949   9.045   2.677
34610W        W49457  14.620  16.385   1.709
34611W        W49458  14.145   3.686   1.699
34612W        W49459  18.843   6.592   5.122
34613W        W49460  12.749   9.044   4.599
34614W        W49461  16.014  13.939   1.699
34615W        W49462  16.486   5.653  14.290
34616W        W49463  16.507  13.939   3.671
34617W        W49464  15.546  13.911  10.891
34618W        W49465  15.066  11.477  10.442
34619W        W49466  17.453   2.693  14.789
34620W        W49467  13.184  13.427   0.257
34621W        W49468  19.307  18.303  12.841
34622W        W49469  13.684   9.058  11.377
34623W        W49470  17.899  16.387  13.353
34624W        W49471  16.047   8.053  14.793
34625W        W49472  14.610  19.761   9.930
34626W        W49473  15.082  14.420  11.893
34627W        W49474  16.488   3.693   2.683
34628W        W49475  18.356  10.499   3.672
34629W        W49476  12.246   1.747  14.761
34630W        W49477  15.566  16.855   0.267
34631W        W49478  14.623  10.029  11.417
34632W        W49479  18.855  17.818  10.917
34633W        W49480  19.787  11.509  12.364
34634W        W49481  13.663   5.647   1.230
34635W        W49482  13.654   5.632   0.765
34636W        W49483  15.530   8.553  12.380
34637W        W49484  18.865  16.382  11.855
34638W        W49485  16.039  13.418   1.257
34639W        W49486  15.571   4.169   2.225
34640W        W49487  16.943   3.173  13.347
34641W        W49488  14.615   3.215  11.859
34642W        W49489  12.235  13.903   0.741
34643W        W49490  19.312  15.398  10.909
34644W        W49491  12.733  11.966  13.833
34645W        W49492  18.380   7.582  12.850
34646W        W49493  12.273  18.828   1.734
34647W        W49494  15.550  11.485   1.742
34648W        W49495  15.069   6.116   0.249
34649W        W49496  12.710   6.618  10.903
34650W        W49497  19.776   3.172   4.604
34651W        W49498  16.475  10.506  13.319
34652W        W49499  19.335   5.131   4.602
34653W        W49500  15.101  18.296   3.640
34654W        W49501  18.389   5.638   2.178
34655W        W49502  15.536   8.542  11.413
34656W        W49503  16.044   7.115  10.923
34657W        W49504  12.267   8.570   2.203
34658W        W49505  18.865  12.938   0.772
34659W        W49506  12.751  13.422  12.374
34660W        W49507  13.195   9.072   3.637
34661W        W49508  14.131   8.066   1.717
34662W        W49509  19.799  17.319  14.793
34663W        W49510  13.683  18.315  11.372
34664W        W49511  17.417   0.244   4.145
34665W        W49512  12.729  13.937  13.791
34666W        W49513  16.024   9.516  11.390
34667W        W49514  19.328  16.387  14.298
34668W        W49515  15.567   0.755  11.890
34669W        W49516  15.104  11.973   1.212
34670W        W49517  12.243   8.074   1.736
34671W        W49518  17.419  16.831   0.745
34672W        W49519  12.239  15.901   2.189
34673W        W49520  16.029   4.171  13.328
34674W        W49521  17.456   8.071  14.289
34675W        W49522  12.253  11.481  12.339
34676W        W49523  18.852  15.367   4.130
34677W        W49524  12.725   2.699  13.314
34678W        W49525  14.159   2.232  14.314
34679W        W49526  15.104   2.201  12.839
34680W        W49527  16.961  18.821  14.275
34681W        W49528  18.393  14.910  12.844
34682W        W49529  13.190   6.122  12.339
34683W        W49530  12.238   5.142  14.318
34684W        W49531  13.212   7.106  12.339
34685W        W49532  14.124  13.940   4.147
34686W        W49533  12.263   6.131  11.418
34687W        W49534  16.001   8.558  13.816
34688W        W49535  17.426  18.823  14.288
34689W        W49536  18.358   3.666   2.708
34690W        W49537  17.899   6.585   4.598
34691W        W49538  12.742  18.796  10.413
34692W        W49539  17.904  10.035   0.242
34693W        W49540  13.658   5.143   5.081
34694W        W49541  15.076  18.340  10.922
34695W        W49542  19.804  17.810   3.660
34696W        W49543  15.065   7.115   2.691
34697W        W49544  12.714   3.198  14.315
34698W        W49545  13.205   3.192   3.161
34699W        W49546  15.087  12.947  13.835
34700W        W49547  13.682   8.566   3.636
34701W        W49548  14.631  16.849  11.895
34702W        W49549  18.838  19.276  11.387
34703W        W49550  16.952   6.105  14.295
34704W        W49551  17.435  15.870  11.415
34705W        W49552  17.412  19.779  12.376
34706W        W49553  17.885   3.191  14.780
34707W        W49554  17.427  18.313  10.406
34708W        W49555  16.017  17.841  10.406
34709W        W49556  12.750  16.875  13.795
34710W        W49557  18.850  15.397  11.863
34711W        W49558  17.911  16.371  11.378
34712W        W49559  12.275  11.985  14.299
34713W        W49560  15.071   8.578  10.929
34714W        W49561  14.127   9.543   0.269
34715W        W49562  19.307  17.842   2.212
34716W        W49563  18.849  10.530   1.714
34717W        W49564  12.265  13.951   4.149
34718W        W49565  12.732  12.464  12.366
34719W        W49566  16.483   7.118  11.378
34720W        W49567  17.884  19.271  10.910
34721W        W49568  17.907  19.794   0.280
34722W        W49569  12.718  10.531   2.187
34723W        W49570  15.543   0.732  13.328
34724W        W49571  13.215  19.295  10.437
34725W        W49572  19.306   8.548   4.135
34726W        W49573  13.216  18.806  12.376
34727W        W49574  18.868   0.768  12.357
34728W        W49575  17.917  12.442   9.937
34729W        W49576  13.223  15.861   0.288
34730W        W49577  15.571  14.925   5.118
34731W        W49578  17.442  16.835   3.650
34732W        W49579  17.921  11.481  11.418
34733W        W49580  12.730   3.702  14.797
34734W        W49581  13.212   5.639   1.245
34735W        W49582  15.531  17.363   0.283
34736W        W49583  19.309   2.699   4.128
34737W        W49584  14.145   9.069   4.627
34738W        W49585  15.552   3.679   1.736
34739W        W49586  14.604  18.793   1.704
34740W        W49587  14.164   6.102   1.238
34741W        W49588  17.896  11.021   0.754
34742W        W49589  16.042   3.205  10.417
34743W        W49590  16.942  15.372  10.438
34744W        W49591  12.242   2.711   0.767
34745W        W49592  19.329   4.174  11.410
34746NA      NA49593  17.415   9.073   2.216
34747NA      NA49594  19.776   3.680  14.313
34748NA      NA49595  17.421  10.048  10.901
34749NA      NA49596  14.617   2.218   3.179
34750NA      NA49597  12.750   8.567  14.292
34751NA      NA49598  16.474   3.179   0.274
34752NA      NA49599  17.451   4.148  12.858
34753NA      NA49600  17.435   6.103   2.704
34754NA      NA49601  14.137   6.619   3.638
34755NA      NA49602  13.185   2.717   9.924
34756NA      NA49603  13.203  14.435   3.637
34757NA      NA49604  18.860  18.336   3.148
34758NA      NA49605  19.316   9.036  12.387
34759NA      NA49606  18.370  11.505  12.348
34760NA      NA49607  19.341   6.595   2.204
34761NA      NA49608  16.983   2.713   1.215
34762NA      NA49609  18.826  17.323  14.315
34763NA      NA49610  14.123  16.853   4.143
34764NA      NA49611  18.388  13.425   0.252
34765NA      NA49612  12.723  16.867  10.444
34766NA      NA49613  14.162   4.165  12.341
34767NA      NA49614  18.850   7.116   9.933
34768NA      NA49615  15.566   5.648  13.805
34769NA      NA49616  19.788  14.884  10.892
34770NA      NA49617  16.503  17.360  13.797
34771NA      NA49618  17.903  12.933   4.629
34772NA      NA49619  12.265  17.807   4.611
34773NA      NA49620  12.732   8.542   4.123
34774NA      NA49621  17.451   9.066  11.879
34775NA      NA49622  19.773  16.372   5.114
34776NA      NA49623  18.386  10.984   0.251
34777NA      NA49624  18.842  14.887  12.356
34778NA      NA49625  16.024   3.696   0.276
34779NA      NA49626  14.629   5.648  13.330
34780NA      NA49627  19.338   2.216   4.116
34781NA      NA49628  19.792  18.814   2.689
34782NA      NA49629  15.539   3.701  13.327
34783NA      NA49630  16.024  11.487   2.704
34784NA      NA49631  17.912   2.201  12.835
34785NA      NA49632  13.213   0.760   1.245
34786NA      NA49633  18.357   5.639  10.430
34787NA      NA49634  19.772  12.474   4.610
34788NA      NA49635  14.146  18.813   0.748
34789NA      NA49636  13.222  15.414  10.892
34790NA      NA49637  18.365  18.315   3.642
34791NA      NA49638  16.947  18.297  11.877
34792NA      NA49639  17.443   0.256  13.338
34793NA      NA49640  14.128  13.461  10.913
34794NA      NA49641  18.366   4.189   2.692
34795NA      NA49642  15.061  16.346   0.269
34796NA      NA49643  13.659   9.047  11.899
34797NA      NA49644  16.023  17.357  10.410
34798NA      NA49645  15.076   1.263  14.797
34799NA      NA49646  16.963  11.512  11.881
34800NA      NA49647  14.592   1.742   2.199
34801NA      NA49648  17.900  15.369  11.860
34802NA      NA49649  12.254  17.844  13.338
34803NA      NA49650  15.556  12.466  10.415
34804NA      NA49651  17.912   5.626  11.374
34805NA      NA49652  19.306   7.108   0.248
34806NA      NA49653  12.245  14.405   1.240
34807NA      NA49654  15.069  17.321  13.327
34808NA      NA49655  14.140   7.578  12.340
34809NA      NA49656  12.243   6.122  13.354
34810NA      NA49657  12.741   2.226   3.169
34811NA      NA49658  19.803   6.623   2.213
34812NA      NA49659  16.496  14.909  10.923
34813NA      NA49660  12.718   1.220  11.406
34814NA      NA49661  17.440  17.813   0.734
34815NA      NA49662  16.511  15.900  11.378
34816NA      NA49663  18.374   0.768  14.301
34817NA      NA49664  18.852  16.364   1.733
34818NA      NA49665  13.213   1.740  10.428
34819NA      NA49666  13.681   3.219   3.180
34820NA      NA49667  13.191  14.429  12.823
34821NA      NA49668  18.856  12.953   5.113
34822NA      NA49669  16.983  11.466  11.410
34823NA      NA49670  14.152   3.683  13.341
34824NA      NA49671  14.134   3.209  13.805
34825NA      NA49672  13.658  14.422   1.245
34826NA      NA49673  17.883  18.808  12.382
34827NA      NA49674  17.915   3.671  10.896
34828NA      NA49675  16.961  11.464  13.353
34829NA      NA49676  17.889   7.111   1.221
34830NA      NA49677  14.614  18.828   4.616
34831NA      NA49678  15.546   7.587   3.190
34832NA      NA49679  16.982  11.474   1.719
34833NA      NA49680  16.047  16.386  13.349
34834NA      NA49681  14.596   7.106   3.636
34835NA      NA49682  17.917  10.520   0.272
34836NA      NA49683  16.984  15.894  11.372
34837NA      NA49684  15.538   0.767   5.112
34838NA      NA49685  15.085  15.876  12.363
34839NA      NA49686  13.693   8.066   2.675
34840NA      NA49687  15.103  18.295   0.245
34841NA      NA49688  16.030  15.369  13.811
34842NA      NA49689  17.892   1.727  10.888
34843NA      NA49690  13.650  14.889   0.738
34844NA      NA49691  18.839  19.766  14.769
34845NA      NA49692  17.928  12.951  13.794
34846NA      NA49693  12.725   3.670  10.429
34847NA      NA49694  12.723  14.894   2.179
34848NA      NA49695  18.395   5.154  14.763
34849NA      NA49696  12.709   6.589  13.317
34850NA      NA49697  18.367  18.825   3.644
34851NA      NA49698  17.883   2.705   1.229
34852NA      NA49699  17.919  10.990   3.672
34853NA      NA49700  15.082  19.315   2.674
34854NA      NA49701  14.134   8.081   1.217
34855NA      NA49702  17.430  17.322   1.223
34856NA      NA49703  17.920  10.020   2.690
34857NA      NA49704  13.648   1.222  10.923
34858NA      NA49705  14.125   1.752   2.666
34859NA      NA49706  19.328   1.246   3.179
34860NA      NA49707  13.194   6.607  11.392
34861NA      NA49708  16.045   8.053  13.327
34862NA      NA49709  12.748   4.670  11.401
34863NA      NA49710  18.862   7.102  11.886
34864NA      NA49711  19.310   9.070   4.628
34865NA      NA49712  16.497   1.250  13.316
34866NA      NA49713  17.903  11.473  13.833
34867NA      NA49714  16.945  14.917   4.644
34868NA      NA49715  19.775   7.079   4.152
34869NA      NA49716  16.516   2.237   3.193
34870NA      NA49717  19.335  18.340  10.411
34871NA      NA49718  16.950  13.450   1.247
34872NA      NA49719  19.339   7.091  14.763
34873NA      NA49720  14.625  12.453   3.642
34874NA      NA49721  15.565  14.897   2.705
34875NA      NA49722  18.390   3.171   0.272
34876NA      NA49723  14.125   2.730   0.737
34877NA      NA49724  17.442   5.655  13.310
34878NA      NA49725  19.782  19.282  12.387
34879NA      NA49726  18.383  13.437  14.295
34880NA      NA49727  17.438   3.188  12.858
34881NA      NA49728  15.067   4.177  13.806
34882NA      NA49729  13.200  19.763  10.406
34883NA      NA49730  12.256  10.520   5.121
34884NA      NA49731  19.806  19.272  12.861
34885NA      NA49732  16.021   9.042  10.414
34886NA      NA49733  13.222   1.709   0.750
34887NA      NA49734  12.736  17.361  10.438
34888NA      NA49735  14.604   5.129  12.349
34889NA      NA49736  13.660  13.420   2.214
34890NA      NA49737  12.244  13.425   0.255
34891NA      NA49738  12.706   9.534  10.411
34892NA      NA49739  12.728   1.751   1.233
34893NA      NA49740  16.005   9.071   2.672
34894NA      NA49741  15.064  19.785   3.674
34895NA      NA49742  18.355  16.875   4.118
34896NA      NA49743  19.296  12.932  11.874
34897NA      NA49744  15.532  14.892   1.244
34898NA      NA49745  14.126   4.680  11.866
34899NA      NA49746  14.130   8.547  13.334
34900NA      NA49747  12.255  11.006  13.333
34901NA      NA49748  15.087   7.569   1.737
34902NA      NA49749  18.865  16.346   0.728
34903NA      NA49750  18.837   1.724  14.281
34904NA      NA49751  16.008  10.978  12.347
34905NA      NA49752  13.685  12.973  10.412
34906NA      NA49753  15.101   9.038  10.894
34907NA      NA49754  15.106  13.921  13.794
34908NA      NA49755  15.556  16.837   3.640
34909NA      NA49756  19.801   0.741   3.639
34910NA      NA49757  13.214   3.701   2.700
34911NA      NA49758  14.120  15.896   2.704
34912NA      NA49759  14.134   5.138  13.354
34913NA      NA49760  18.397  18.794   2.677
34914NA      NA49761  18.363  17.321  10.917
34915NA      NA49762  17.921  14.410  11.894
34916NA      NA49763  19.769   7.580   0.750
34917NA      NA49764  15.553   6.601  10.901
34918NA      NA49765  14.604  19.770  14.766
34919NA      NA49766  16.955  10.519   1.718
34920NA      NA49767  12.278  15.392  11.396
34921NA      NA49768  18.844  18.785  12.360
34922NA      NA49769  13.690   4.665  14.798
34923NA      NA49770  18.354  10.992   4.140
34924NA      NA49771  15.573  11.498   3.659
34925NA      NA49772  19.766   7.085   0.284
34926NA      NA49773  14.628  16.874   4.149
34927NA      NA49774  13.191  19.269  13.826
34928NA      NA49775  12.264  16.366  11.865
34929NA      NA49776  15.542  18.793   1.700
34930NA      NA49777  18.375   8.068   1.735
34931NA      NA49778  17.917  14.910   4.634
34932NA      NA49779  17.908  12.943  12.848
34933NA      NA49780  16.029  17.350   3.634
34934NA      NA49781  14.137   0.262   3.646
34935NA      NA49782  12.247  14.913   0.276
34936NA      NA49783  16.005  19.284   1.216
34937NA      NA49784  16.947  19.778  12.353
34938NA      NA49785  12.250  11.495  10.410
34939NA      NA49786  19.325  12.451  14.764
34940NA      NA49787  16.512   1.739   4.622
34941NA      NA49788  19.299   6.608  12.353
34942NA      NA49789  12.710   7.568  11.381
34943NA      NA49790  16.971  15.381  10.896
34944NA      NA49791  19.794  10.532  14.282
34945NA      NA49792  18.837   4.162  12.354
34946NA      NA49793  12.242   6.616  10.930
34947NA      NA49794  14.119  11.016   0.735
34948NA      NA49795  15.105  17.320   2.676
34949NA      NA49796  19.312  17.821  12.379
34950NA      NA49797  13.669   5.155  14.305
34951NA      NA49798  12.711  11.501   2.669
34952NA      NA49799  17.458  18.306  13.806
34953NA      NA49800  16.020   2.233   2.693
34954NA      NA49801  15.104  17.809   0.754
34955NA      NA49802  17.906   4.193   3.159
34956NA      NA49803  12.716  13.942  14.318
34957NA      NA49804  16.008   0.254  14.767
34958NA      NA49805  13.676  13.430  11.385
34959NA      NA49806  14.611  14.402   4.605
34960NA      NA49807  19.765   7.089   9.959
34961NA      NA49808  13.684   8.088  11.861
34962NA      NA49809  17.448  19.790  13.797
34963NA      NA49810  14.610   4.193   1.240
34964NA      NA49811  12.750  18.320  13.810
34965NA      NA49812  18.863  17.836  12.837
34966NA      NA49813  12.743   1.250  13.820
34967NA      NA49814  18.845   4.635  13.354
34968NA      NA49815  16.980  10.513   2.218
34969NA      NA49816  12.257  13.946  12.840
34970NA      NA49817  17.887   0.246  10.436
34971NA      NA49818  19.324   1.249  10.915
34972NA      NA49819  13.682  12.965  11.861
34973NA      NA49820  13.688  13.424   3.675
34974NA      NA49821  17.431   0.278  14.317
34975NA      NA49822  16.505  16.343   1.250
34976NA      NA49823  14.158  16.865  12.385
34977NA      NA49824  16.486  11.972   3.655
34978NA      NA49825  18.851   2.702  13.311
34979NA      NA49826  14.593   3.695   3.168
34980NA      NA49827  14.131  10.535  13.838
34981NA      NA49828  18.363  11.465   5.084
34982NA      NA49829  17.894   1.241   0.771
34983NA      NA49830  13.682   0.780  12.856
34984NA      NA49831  19.789  14.906   2.217
34985NA      NA49832  18.396   7.116   4.122
34986NA      NA49833  12.261  14.905  14.291
34987NA      NA49834  19.806  15.856  11.867
34988NA      NA49835  19.301  18.339   3.155
34989NA      NA49836  18.826  16.379   2.195
34990NA      NA49837  15.094  16.830  11.857
34991NA      NA49838  18.373   4.156   1.704
34992NA      NA49839  19.783  15.392  10.432
34993NA      NA49840  12.751   9.052  12.859
34994NA      NA49841  19.340  14.405   0.730
34995NA      NA49842  12.708  13.434   2.698
34996NA      NA49843  15.087   5.635  11.413
34997NA      NA49844  19.317   0.253   0.773
34998CL      CL49845  14.128   1.236   4.148
34999CL      CL49846  18.355  19.301   1.233
35000CL      CL49847  18.852   3.698  11.372
35001CL      CL49848  16.957  17.827   2.208
35002CL      CL49849  19.796   0.746   4.142
35003CL      CL49850  13.221   5.168  14.316
35004CL      CL49851  17.413  10.504  11.391
35005CL      CL49852  16.013   4.655  10.900
35006CL      CL49853  19.773   9.525  10.406
35007CL      CL49854  17.440  15.374  13.810
35008CL      CL49855  16.969   4.636  10.933
35009CL      CL49856  12.735   4.177  13.309
35010CL      CL49857  16.013   6.624  12.344
35011CL      CL49858  16.004  15.378  12.824
35012CL      CL49859  13.193   9.556  14.321
35013CL      CL49860  17.455  10.003  11.882
35014CL      CL49861  16.497   5.165   1.232
35015CL      CL49862  13.220   6.629  10.903
35016CL      CL49863  17.913  17.339   2.687
35017CL      CL49864  17.904  19.781  12.852
35018CL      CL49865  16.942   0.750  12.845
35019CL      CL49866  14.605   2.218  11.892
35020CL      CL49867  17.428  17.831  12.829
35021CL      CL49868  13.678  10.525  11.888
35022CL      CL49869  13.208   4.187   3.647
35023CL      CL49870  19.798   6.125   0.264
35024CL      CL49871  16.041   3.667  14.278
35025CL      CL49872  16.017  16.370   1.253
35026CL      CL49873  16.476  17.350   4.600
35027CL      CL49874  13.656  13.440  14.301
35028CL      CL49875  16.489  11.478  13.819
35029CL      CL49876  12.749  10.048  13.352
35030CL      CL49877  12.725   6.120   1.700
35031CL      CL49878  14.619   0.268   4.601
35032CL      CL49879  17.448  10.992   0.759
35033CL      CL49880  13.205  14.888   1.704
35034CL      CL49881  16.021  16.839   0.746
35035CL      CL49882  18.839   8.066  13.319
35036CL      CL49883  13.649   0.260  11.856
35037CL      CL49884  16.510  14.897  14.280
35038CL      CL49885  16.014   7.085   4.606
35039CL      CL49886  19.800  12.946   0.737
35040CL      CL49887  19.340  16.854   3.655
35041CL      CL49888  15.083  14.432   2.184
35042CL      CL49889  16.941   8.073   1.222
35043CL      CL49890  19.328  11.976   1.239
35044CL      CL49891  14.618   7.082   2.178
35045CL      CL49892  15.573  17.325   4.150
35046CL      CL49893  19.772   7.575   3.640
35047CL      CL49894  14.590   3.670  10.449
35048CL      CL49895  18.361  13.431  11.412
35049CL      CL49896  19.297  10.015   0.764
35050CL      CL49897  15.576   7.105  13.316
35051CL      CL49898  19.809   7.583  12.862
35052CL      CL49899  13.654  11.479   1.724
35053CL      CL49900  17.920  17.848   1.216
35054CL      CL49901  18.359   4.186  10.888
35055CL      CL49902  17.916   4.672   3.639
35056CL      CL49903  17.444   1.737  10.918
  20.00000  20.00000  15.00000
